  99  99   0   0
  0.3914025E+02  0.1727104E-08  0.1727104E-08  0.1500000E-08  0.0000000E+00
  1.000000000000000E-004
  CAR 
 unknown system                          
      6.11335141    -31.34561628  301     -2.39374843      1.00000000
    -31.346  0.0000E+00  0.0000E+00  0.0000E+00  0.0000E+00
    -31.221  0.0000E+00  0.0000E+00  0.0000E+00  0.0000E+00
    -31.096  0.0000E+00  0.0000E+00  0.0000E+00  0.0000E+00
    -30.971  0.0000E+00  0.0000E+00  0.0000E+00  0.0000E+00
    -30.846  0.0000E+00  0.0000E+00  0.0000E+00  0.0000E+00
    -30.721  0.0000E+00  0.0000E+00  0.0000E+00  0.0000E+00
    -30.596  0.0000E+00  0.0000E+00  0.0000E+00  0.0000E+00
    -30.472  0.0000E+00  0.0000E+00  0.0000E+00  0.0000E+00
    -30.347  0.0000E+00  0.0000E+00  0.0000E+00  0.0000E+00
    -30.222  0.0000E+00  0.0000E+00  0.0000E+00  0.0000E+00
    -30.097  0.0000E+00  0.0000E+00  0.0000E+00  0.0000E+00
    -29.972  0.0000E+00  0.0000E+00  0.0000E+00  0.0000E+00
    -29.847  0.2993E-10  0.2993E-10  0.3737E-11  0.3737E-11
    -29.722  0.9835E-04  0.9835E-04  0.1228E-04  0.1228E-04
    -29.598  0.7479E-02  0.7479E-02  0.9461E-03  0.9461E-03
    -29.473  0.8181E-02  0.8181E-02  0.1968E-02  0.1968E-02
    -29.348  0.4400E-02  0.4400E-02  0.2517E-02  0.2517E-02
    -29.223  0.1066E-01  0.1066E-01  0.3848E-02  0.3848E-02
    -29.098  0.1220E-02  0.1220E-02  0.4000E-02  0.4000E-02
    -28.973  0.2059E-07  0.2059E-07  0.4000E-02  0.4000E-02
    -28.848  0.0000E+00  0.0000E+00  0.4000E-02  0.4000E-02
    -28.723  0.0000E+00  0.0000E+00  0.4000E-02  0.4000E-02
    -28.599  0.0000E+00  0.0000E+00  0.4000E-02  0.4000E-02
    -28.474  0.0000E+00  0.0000E+00  0.4000E-02  0.4000E-02
    -28.349  0.0000E+00  0.0000E+00  0.4000E-02  0.4000E-02
    -28.224  0.0000E+00  0.0000E+00  0.4000E-02  0.4000E-02
    -28.099  0.0000E+00  0.0000E+00  0.4000E-02  0.4000E-02
    -27.974  0.0000E+00  0.0000E+00  0.4000E-02  0.4000E-02
    -27.849  0.0000E+00  0.0000E+00  0.4000E-02  0.4000E-02
    -27.725  0.0000E+00  0.0000E+00  0.4000E-02  0.4000E-02
    -27.600  0.0000E+00  0.0000E+00  0.4000E-02  0.4000E-02
    -27.475  0.0000E+00  0.0000E+00  0.4000E-02  0.4000E-02
    -27.350  0.0000E+00  0.0000E+00  0.4000E-02  0.4000E-02
    -27.225  0.0000E+00  0.0000E+00  0.4000E-02  0.4000E-02
    -27.100  0.0000E+00  0.0000E+00  0.4000E-02  0.4000E-02
    -26.975  0.0000E+00  0.0000E+00  0.4000E-02  0.4000E-02
    -26.851  0.0000E+00  0.0000E+00  0.4000E-02  0.4000E-02
    -26.726  0.0000E+00  0.0000E+00  0.4000E-02  0.4000E-02
    -26.601  0.0000E+00  0.0000E+00  0.4000E-02  0.4000E-02
    -26.476  0.0000E+00  0.0000E+00  0.4000E-02  0.4000E-02
    -26.351  0.0000E+00  0.0000E+00  0.4000E-02  0.4000E-02
    -26.226  0.0000E+00  0.0000E+00  0.4000E-02  0.4000E-02
    -26.101  0.0000E+00  0.0000E+00  0.4000E-02  0.4000E-02
    -25.976  0.0000E+00  0.0000E+00  0.4000E-02  0.4000E-02
    -25.852  0.0000E+00  0.0000E+00  0.4000E-02  0.4000E-02
    -25.727  0.0000E+00  0.0000E+00  0.4000E-02  0.4000E-02
    -25.602  0.0000E+00  0.0000E+00  0.4000E-02  0.4000E-02
    -25.477  0.0000E+00  0.0000E+00  0.4000E-02  0.4000E-02
    -25.352  0.0000E+00  0.0000E+00  0.4000E-02  0.4000E-02
    -25.227  0.0000E+00  0.0000E+00  0.4000E-02  0.4000E-02
    -25.102  0.0000E+00  0.0000E+00  0.4000E-02  0.4000E-02
    -24.978  0.0000E+00  0.0000E+00  0.4000E-02  0.4000E-02
    -24.853  0.0000E+00  0.0000E+00  0.4000E-02  0.4000E-02
    -24.728  0.0000E+00  0.0000E+00  0.4000E-02  0.4000E-02
    -24.603  0.0000E+00  0.0000E+00  0.4000E-02  0.4000E-02
    -24.478  0.0000E+00  0.0000E+00  0.4000E-02  0.4000E-02
    -24.353  0.0000E+00  0.0000E+00  0.4000E-02  0.4000E-02
    -24.228  0.0000E+00  0.0000E+00  0.4000E-02  0.4000E-02
    -24.104  0.0000E+00  0.0000E+00  0.4000E-02  0.4000E-02
    -23.979  0.0000E+00  0.0000E+00  0.4000E-02  0.4000E-02
    -23.854  0.0000E+00  0.0000E+00  0.4000E-02  0.4000E-02
    -23.729  0.0000E+00  0.0000E+00  0.4000E-02  0.4000E-02
    -23.604  0.0000E+00  0.0000E+00  0.4000E-02  0.4000E-02
    -23.479  0.3005E-13  0.3005E-13  0.4000E-02  0.4000E-02
    -23.354  0.3656E-05  0.3656E-05  0.4000E-02  0.4000E-02
    -23.230  0.4684E-02  0.4684E-02  0.4585E-02  0.4585E-02
    -23.105  0.3320E-02  0.3320E-02  0.5000E-02  0.5000E-02
    -22.980  0.7159E-06  0.7159E-06  0.5000E-02  0.5000E-02
    -22.855  0.1347E-14  0.1347E-14  0.5000E-02  0.5000E-02
    -22.730  0.0000E+00  0.0000E+00  0.5000E-02  0.5000E-02
    -22.605  0.0000E+00  0.0000E+00  0.5000E-02  0.5000E-02
    -22.480  0.0000E+00  0.0000E+00  0.5000E-02  0.5000E-02
    -22.355  0.0000E+00  0.0000E+00  0.5000E-02  0.5000E-02
    -22.231  0.0000E+00  0.0000E+00  0.5000E-02  0.5000E-02
    -22.106  0.1111E-18  0.1111E-18  0.5000E-02  0.5000E-02
    -21.981  0.1625E-08  0.1625E-08  0.5000E-02  0.5000E-02
    -21.856  0.2235E-03  0.2235E-03  0.5028E-02  0.5028E-02
    -21.731  0.5828E-02  0.5828E-02  0.5756E-02  0.5756E-02
    -21.606  0.6861E-02  0.6861E-02  0.6612E-02  0.6612E-02
    -21.481  0.2801E-02  0.2801E-02  0.6962E-02  0.6962E-02
    -21.357  0.1204E-01  0.1204E-01  0.8465E-02  0.8465E-02
    -21.232  0.5859E-02  0.5859E-02  0.9197E-02  0.9197E-02
    -21.107  0.2120E-02  0.2120E-02  0.9461E-02  0.9461E-02
    -20.982  0.9134E-02  0.9134E-02  0.1060E-01  0.1060E-01
    -20.857  0.8924E-02  0.8924E-02  0.1172E-01  0.1172E-01
    -20.732  0.8079E-02  0.8079E-02  0.1272E-01  0.1272E-01
    -20.607  0.9397E-03  0.9397E-03  0.1284E-01  0.1284E-01
    -20.483  0.6730E-02  0.6730E-02  0.1368E-01  0.1368E-01
    -20.358  0.8811E-02  0.8811E-02  0.1478E-01  0.1478E-01
    -20.233  0.1022E-01  0.1022E-01  0.1606E-01  0.1606E-01
    -20.108  0.8149E-02  0.8149E-02  0.1708E-01  0.1708E-01
    -19.983  0.2526E-02  0.2526E-02  0.1739E-01  0.1739E-01
    -19.858  0.8172E-02  0.8172E-02  0.1841E-01  0.1841E-01
    -19.733  0.3705E-02  0.3705E-02  0.1887E-01  0.1887E-01
    -19.608  0.6046E-02  0.6046E-02  0.1963E-01  0.1963E-01
    -19.484  0.1171E-01  0.1171E-01  0.2109E-01  0.2109E-01
    -19.359  0.1149E-01  0.1149E-01  0.2253E-01  0.2253E-01
    -19.234  0.3623E-02  0.3623E-02  0.2298E-01  0.2298E-01
    -19.109  0.8274E-02  0.8274E-02  0.2401E-01  0.2401E-01
    -18.984  0.3444E-02  0.3444E-02  0.2444E-01  0.2444E-01
    -18.859  0.4813E-02  0.4813E-02  0.2504E-01  0.2504E-01
    -18.734  0.4789E-02  0.4789E-02  0.2564E-01  0.2564E-01
    -18.610  0.1056E-01  0.1056E-01  0.2696E-01  0.2696E-01
    -18.485  0.1466E-01  0.1466E-01  0.2879E-01  0.2879E-01
    -18.360  0.4779E-02  0.4779E-02  0.2939E-01  0.2939E-01
    -18.235  0.8838E-02  0.8838E-02  0.3049E-01  0.3049E-01
    -18.110  0.5247E-02  0.5247E-02  0.3114E-01  0.3114E-01
    -17.985  0.8204E-02  0.8204E-02  0.3217E-01  0.3217E-01
    -17.860  0.3346E-02  0.3346E-02  0.3259E-01  0.3259E-01
    -17.736  0.6186E-02  0.6186E-02  0.3336E-01  0.3336E-01
    -17.611  0.3360E-02  0.3360E-02  0.3378E-01  0.3378E-01
    -17.486  0.1217E-01  0.1217E-01  0.3530E-01  0.3530E-01
    -17.361  0.1524E-01  0.1524E-01  0.3720E-01  0.3720E-01
    -17.236  0.1150E-01  0.1150E-01  0.3864E-01  0.3864E-01
    -17.111  0.4956E-02  0.4956E-02  0.3926E-01  0.3926E-01
    -16.986  0.5399E-02  0.5399E-02  0.3993E-01  0.3993E-01
    -16.861  0.9576E-02  0.9576E-02  0.4113E-01  0.4113E-01
    -16.737  0.7032E-02  0.7032E-02  0.4200E-01  0.4200E-01
    -16.612  0.7547E-02  0.7547E-02  0.4295E-01  0.4295E-01
    -16.487  0.1969E-02  0.1969E-02  0.4319E-01  0.4319E-01
    -16.362  0.1458E-01  0.1458E-01  0.4501E-01  0.4501E-01
    -16.237  0.1269E-01  0.1269E-01  0.4660E-01  0.4660E-01
    -16.112  0.3557E-02  0.3557E-02  0.4704E-01  0.4704E-01
    -15.987  0.4129E-02  0.4129E-02  0.4756E-01  0.4756E-01
    -15.863  0.1549E-02  0.1549E-02  0.4775E-01  0.4775E-01
    -15.738  0.1697E-02  0.1697E-02  0.4796E-01  0.4796E-01
    -15.613  0.2348E-02  0.2348E-02  0.4825E-01  0.4825E-01
    -15.488  0.5630E-02  0.5630E-02  0.4896E-01  0.4896E-01
    -15.363  0.6927E-02  0.6927E-02  0.4982E-01  0.4982E-01
    -15.238  0.8920E-02  0.8920E-02  0.5094E-01  0.5094E-01
    -15.113  0.6764E-02  0.6764E-02  0.5178E-01  0.5178E-01
    -14.989  0.1232E-01  0.1232E-01  0.5332E-01  0.5332E-01
    -14.864  0.9858E-02  0.9858E-02  0.5455E-01  0.5455E-01
    -14.739  0.4714E-02  0.4714E-02  0.5514E-01  0.5514E-01
    -14.614  0.8438E-02  0.8438E-02  0.5619E-01  0.5619E-01
    -14.489  0.1009E-01  0.1009E-01  0.5745E-01  0.5745E-01
    -14.364  0.1099E-01  0.1099E-01  0.5882E-01  0.5882E-01
    -14.239  0.1276E-01  0.1276E-01  0.6042E-01  0.6042E-01
    -14.114  0.8745E-02  0.8745E-02  0.6151E-01  0.6151E-01
    -13.990  0.3910E-02  0.3910E-02  0.6200E-01  0.6200E-01
    -13.865  0.6289E-02  0.6289E-02  0.6278E-01  0.6278E-01
    -13.740  0.6509E-02  0.6509E-02  0.6360E-01  0.6360E-01
    -13.615  0.8742E-02  0.8742E-02  0.6469E-01  0.6469E-01
    -13.490  0.7258E-02  0.7258E-02  0.6559E-01  0.6559E-01
    -13.365  0.8310E-02  0.8310E-02  0.6663E-01  0.6663E-01
    -13.240  0.7659E-02  0.7659E-02  0.6759E-01  0.6759E-01
    -13.116  0.6549E-02  0.6549E-02  0.6840E-01  0.6840E-01
    -12.991  0.3904E-02  0.3904E-02  0.6889E-01  0.6889E-01
    -12.866  0.1131E-01  0.1131E-01  0.7030E-01  0.7030E-01
    -12.741  0.3932E-02  0.3932E-02  0.7080E-01  0.7080E-01
    -12.616  0.1234E-01  0.1234E-01  0.7234E-01  0.7234E-01
    -12.491  0.1032E-01  0.1032E-01  0.7363E-01  0.7363E-01
    -12.366  0.1069E-01  0.1069E-01  0.7496E-01  0.7496E-01
    -12.242  0.1228E-01  0.1228E-01  0.7649E-01  0.7649E-01
    -12.117  0.6921E-02  0.6921E-02  0.7736E-01  0.7736E-01
    -11.992  0.9043E-02  0.9043E-02  0.7849E-01  0.7849E-01
    -11.867  0.7292E-02  0.7292E-02  0.7940E-01  0.7940E-01
    -11.742  0.8570E-02  0.8570E-02  0.8047E-01  0.8047E-01
    -11.617  0.5641E-02  0.5641E-02  0.8117E-01  0.8117E-01
    -11.492  0.1396E-01  0.1396E-01  0.8291E-01  0.8291E-01
    -11.368  0.1225E-01  0.1225E-01  0.8444E-01  0.8444E-01
    -11.243  0.1058E-01  0.1058E-01  0.8577E-01  0.8577E-01
    -11.118  0.1617E-01  0.1617E-01  0.8779E-01  0.8779E-01
    -10.993  0.1509E-01  0.1509E-01  0.8967E-01  0.8967E-01
    -10.868  0.9223E-02  0.9223E-02  0.9082E-01  0.9082E-01
    -10.743  0.8162E-02  0.8162E-02  0.9184E-01  0.9184E-01
    -10.618  0.1063E-01  0.1063E-01  0.9317E-01  0.9317E-01
    -10.493  0.7449E-02  0.7449E-02  0.9410E-01  0.9410E-01
    -10.369  0.1824E-01  0.1824E-01  0.9637E-01  0.9637E-01
    -10.244  0.7312E-02  0.7312E-02  0.9729E-01  0.9729E-01
    -10.119  0.1319E-01  0.1319E-01  0.9893E-01  0.9893E-01
     -9.994  0.1944E-01  0.1944E-01  0.1014E+00  0.1014E+00
     -9.869  0.1868E-01  0.1868E-01  0.1037E+00  0.1037E+00
     -9.744  0.1942E-01  0.1942E-01  0.1061E+00  0.1061E+00
     -9.619  0.2078E-01  0.2078E-01  0.1087E+00  0.1087E+00
     -9.495  0.1884E-01  0.1884E-01  0.1111E+00  0.1111E+00
     -9.370  0.1782E-01  0.1782E-01  0.1133E+00  0.1133E+00
     -9.245  0.1800E-01  0.1800E-01  0.1155E+00  0.1155E+00
     -9.120  0.1881E-01  0.1881E-01  0.1179E+00  0.1179E+00
     -8.995  0.1971E-01  0.1971E-01  0.1203E+00  0.1203E+00
     -8.870  0.2213E-01  0.2213E-01  0.1231E+00  0.1231E+00
     -8.745  0.2951E-01  0.2951E-01  0.1268E+00  0.1268E+00
     -8.621  0.2319E-01  0.2319E-01  0.1297E+00  0.1297E+00
     -8.496  0.1886E-01  0.1886E-01  0.1320E+00  0.1320E+00
     -8.371  0.1992E-01  0.1992E-01  0.1345E+00  0.1345E+00
     -8.246  0.1320E-01  0.1320E-01  0.1362E+00  0.1362E+00
     -8.121  0.2283E-01  0.2283E-01  0.1390E+00  0.1390E+00
     -7.996  0.2327E-01  0.2327E-01  0.1419E+00  0.1419E+00
     -7.871  0.1540E-01  0.1540E-01  0.1439E+00  0.1439E+00
     -7.746  0.1716E-01  0.1716E-01  0.1460E+00  0.1460E+00
     -7.622  0.2071E-01  0.2071E-01  0.1486E+00  0.1486E+00
     -7.497  0.9546E-02  0.9546E-02  0.1498E+00  0.1498E+00
     -7.372  0.1114E-01  0.1114E-01  0.1512E+00  0.1512E+00
     -7.247  0.1670E-01  0.1670E-01  0.1533E+00  0.1533E+00
     -7.122  0.1962E-01  0.1962E-01  0.1557E+00  0.1557E+00
     -6.997  0.2447E-01  0.2447E-01  0.1588E+00  0.1588E+00
     -6.872  0.1682E-01  0.1682E-01  0.1609E+00  0.1609E+00
     -6.748  0.1032E-01  0.1032E-01  0.1622E+00  0.1622E+00
     -6.623  0.1464E-01  0.1464E-01  0.1640E+00  0.1640E+00
     -6.498  0.8859E-02  0.8859E-02  0.1651E+00  0.1651E+00
     -6.373  0.8816E-02  0.8816E-02  0.1662E+00  0.1662E+00
     -6.248  0.1453E-01  0.1453E-01  0.1680E+00  0.1680E+00
     -6.123  0.1569E-01  0.1569E-01  0.1700E+00  0.1700E+00
     -5.998  0.2024E-01  0.2024E-01  0.1725E+00  0.1725E+00
     -5.874  0.8433E-02  0.8433E-02  0.1735E+00  0.1735E+00
     -5.749  0.1601E-01  0.1601E-01  0.1755E+00  0.1755E+00
     -5.624  0.1173E-01  0.1173E-01  0.1770E+00  0.1770E+00
     -5.499  0.1081E-01  0.1081E-01  0.1784E+00  0.1784E+00
     -5.374  0.7161E-02  0.7161E-02  0.1793E+00  0.1793E+00
     -5.249  0.4574E-02  0.4574E-02  0.1798E+00  0.1798E+00
     -5.124  0.9457E-02  0.9457E-02  0.1810E+00  0.1810E+00
     -4.999  0.1518E-01  0.1518E-01  0.1829E+00  0.1829E+00
     -4.875  0.2026E-01  0.2026E-01  0.1854E+00  0.1854E+00
     -4.750  0.1466E-01  0.1466E-01  0.1873E+00  0.1873E+00
     -4.625  0.3430E-02  0.3430E-02  0.1877E+00  0.1877E+00
     -4.500  0.9806E-02  0.9806E-02  0.1889E+00  0.1889E+00
     -4.375  0.2921E-02  0.2921E-02  0.1893E+00  0.1893E+00
     -4.250  0.3788E-02  0.3788E-02  0.1898E+00  0.1898E+00
     -4.125  0.7525E-02  0.7525E-02  0.1907E+00  0.1907E+00
     -4.001  0.8593E-02  0.8593E-02  0.1918E+00  0.1918E+00
     -3.876  0.4553E-02  0.4553E-02  0.1923E+00  0.1923E+00
     -3.751  0.8453E-02  0.8453E-02  0.1934E+00  0.1934E+00
     -3.626  0.4861E-02  0.4861E-02  0.1940E+00  0.1940E+00
     -3.501  0.4967E-04  0.4967E-04  0.1940E+00  0.1940E+00
     -3.376  0.1409E-03  0.1409E-03  0.1940E+00  0.1940E+00
     -3.251  0.3397E-02  0.3397E-02  0.1944E+00  0.1944E+00
     -3.127  0.5732E-02  0.5732E-02  0.1952E+00  0.1952E+00
     -3.002  0.1566E-02  0.1566E-02  0.1954E+00  0.1954E+00
     -2.877  0.1176E-02  0.1176E-02  0.1955E+00  0.1955E+00
     -2.752  0.9591E-06  0.9591E-06  0.1955E+00  0.1955E+00
     -2.627  0.8157E-03  0.8157E-03  0.1956E+00  0.1956E+00
     -2.502  0.3175E-02  0.3175E-02  0.1960E+00  0.1960E+00
     -2.377  0.1376E-04  0.1376E-04  0.1960E+00  0.1960E+00
     -2.252  0.1514E-03  0.1514E-03  0.1960E+00  0.1960E+00
     -2.128  0.3694E-02  0.3694E-02  0.1965E+00  0.1965E+00
     -2.003  0.1587E-03  0.1587E-03  0.1965E+00  0.1965E+00
     -1.878  0.2168E-04  0.2168E-04  0.1965E+00  0.1965E+00
     -1.753  0.1772E-02  0.1772E-02  0.1967E+00  0.1967E+00
     -1.628  0.2407E-02  0.2407E-02  0.1970E+00  0.1970E+00
     -1.503  0.6367E-02  0.6367E-02  0.1978E+00  0.1978E+00
     -1.378  0.1445E-02  0.1445E-02  0.1980E+00  0.1980E+00
     -1.254  0.4764E-03  0.4764E-03  0.1981E+00  0.1981E+00
     -1.129  0.5272E-02  0.5272E-02  0.1987E+00  0.1987E+00
     -1.004  0.6411E-02  0.6411E-02  0.1995E+00  0.1995E+00
     -0.879  0.8925E-02  0.8925E-02  0.2006E+00  0.2006E+00
     -0.754  0.1599E-01  0.1599E-01  0.2026E+00  0.2026E+00
     -0.629  0.3334E-02  0.3334E-02  0.2030E+00  0.2030E+00
     -0.504  0.9751E-02  0.9751E-02  0.2043E+00  0.2043E+00
     -0.380  0.1121E-01  0.1121E-01  0.2057E+00  0.2057E+00
     -0.255  0.5712E-02  0.5712E-02  0.2064E+00  0.2064E+00
     -0.130  0.5327E-02  0.5327E-02  0.2070E+00  0.2070E+00
     -0.005  0.9154E-02  0.9154E-02  0.2082E+00  0.2082E+00
      0.120  0.7914E-02  0.7914E-02  0.2092E+00  0.2092E+00
      0.245  0.1426E-01  0.1426E-01  0.2110E+00  0.2110E+00
      0.370  0.7613E-02  0.7613E-02  0.2119E+00  0.2119E+00
      0.495  0.7814E-03  0.7814E-03  0.2120E+00  0.2120E+00
      0.619  0.4524E-02  0.4524E-02  0.2126E+00  0.2126E+00
      0.744  0.7455E-02  0.7455E-02  0.2135E+00  0.2135E+00
      0.869  0.1093E-01  0.1093E-01  0.2149E+00  0.2149E+00
      0.994  0.9885E-02  0.9885E-02  0.2161E+00  0.2161E+00
      1.119  0.7495E-02  0.7495E-02  0.2170E+00  0.2170E+00
      1.244  0.6844E-02  0.6844E-02  0.2179E+00  0.2179E+00
      1.369  0.8420E-02  0.8420E-02  0.2189E+00  0.2189E+00
      1.493  0.1396E-01  0.1396E-01  0.2207E+00  0.2207E+00
      1.618  0.1890E-01  0.1890E-01  0.2230E+00  0.2230E+00
      1.743  0.9768E-02  0.9768E-02  0.2243E+00  0.2243E+00
      1.868  0.1396E-01  0.1396E-01  0.2260E+00  0.2260E+00
      1.993  0.1405E-01  0.1405E-01  0.2278E+00  0.2278E+00
      2.118  0.1805E-01  0.1805E-01  0.2300E+00  0.2300E+00
      2.243  0.1748E-01  0.1748E-01  0.2322E+00  0.2322E+00
      2.367  0.1987E-01  0.1987E-01  0.2347E+00  0.2347E+00
      2.492  0.2089E-01  0.2089E-01  0.2373E+00  0.2373E+00
      2.617  0.1282E-01  0.1281E-01  0.2389E+00  0.2389E+00
      2.742  0.1551E-01  0.1551E-01  0.2408E+00  0.2408E+00
      2.867  0.2270E-01  0.2269E-01  0.2437E+00  0.2437E+00
      2.992  0.3806E-01  0.3806E-01  0.2484E+00  0.2484E+00
      3.117  0.2685E-01  0.2685E-01  0.2518E+00  0.2518E+00
      3.241  0.2356E-01  0.2356E-01  0.2547E+00  0.2547E+00
      3.366  0.1653E-01  0.1653E-01  0.2568E+00  0.2568E+00
      3.491  0.2087E-01  0.2087E-01  0.2594E+00  0.2594E+00
      3.616  0.2248E-01  0.2248E-01  0.2622E+00  0.2622E+00
      3.741  0.1469E-01  0.1469E-01  0.2640E+00  0.2640E+00
      3.866  0.2394E-01  0.2394E-01  0.2670E+00  0.2670E+00
      3.991  0.2564E-01  0.2564E-01  0.2702E+00  0.2702E+00
      4.116  0.2284E-01  0.2284E-01  0.2731E+00  0.2731E+00
      4.240  0.1852E-01  0.1852E-01  0.2754E+00  0.2754E+00
      4.365  0.2234E-01  0.2234E-01  0.2782E+00  0.2782E+00
      4.490  0.1469E-01  0.1469E-01  0.2800E+00  0.2800E+00
      4.615  0.7731E-04  0.7727E-04  0.2800E+00  0.2800E+00
      4.740  0.1878E-10  0.1876E-10  0.2800E+00  0.2800E+00
      4.865  0.0000E+00  0.0000E+00  0.2800E+00  0.2800E+00
      4.990  0.0000E+00  0.0000E+00  0.2800E+00  0.2800E+00
      5.114  0.0000E+00  0.0000E+00  0.2800E+00  0.2800E+00
      5.239  0.0000E+00  0.0000E+00  0.2800E+00  0.2800E+00
      5.364  0.0000E+00  0.0000E+00  0.2800E+00  0.2800E+00
      5.489  0.0000E+00  0.0000E+00  0.2800E+00  0.2800E+00
      5.614  0.0000E+00  0.0000E+00  0.2800E+00  0.2800E+00
      5.739  0.0000E+00  0.0000E+00  0.2800E+00  0.2800E+00
      5.864  0.0000E+00  0.0000E+00  0.2800E+00  0.2800E+00
      5.988  0.0000E+00  0.0000E+00  0.2800E+00  0.2800E+00
      6.113  0.0000E+00  0.0000E+00  0.2800E+00  0.2800E+00
