 vasp.6.4.2 20Jul23 (build Aug 26 2025 15:10:52) complex                        
  
 POSCAR found type information on POSCAR C H F O 
 02/POSCAR found :  4 types and      99 ions
 Reading from existing POTCAR
 scaLAPACK will be used
 -----------------------------------------------------------------------------
|                                                                             |
|           W    W    AA    RRRRR   N    N  II  N    N   GGGG   !!!           |
|           W    W   A  A   R    R  NN   N  II  NN   N  G    G  !!!           |
|           W    W  A    A  R    R  N N  N  II  N N  N  G       !!!           |
|           W WW W  AAAAAA  RRRRR   N  N N  II  N  N N  G  GGG   !            |
|           WW  WW  A    A  R   R   N   NN  II  N   NN  G    G                |
|           W    W  A    A  R    R  N    N  II  N    N   GGGG   !!!           |
|                                                                             |
|     For optimal performance we recommend to set                             |
|       NCORE = 2 up to number-of-cores-per-socket                            |
|     NCORE specifies how many cores store one orbital (NPAR=cpu/NCORE).      |
|     This setting can greatly improve the performance of VASP for DFT.       |
|     The default, NCORE=1 might be grossly inefficient on modern             |
|     multi-core architectures or massively parallel machines. Do your        |
|     own testing! More info at https://www.vasp.at/wiki/index.php/NCORE      |
|     Unfortunately you need to use the default for GW and RPA                |
|     calculations (for HF NCORE is supported but not extensively tested      |
|     yet).                                                                   |
|                                                                             |
 -----------------------------------------------------------------------------

 Reading from existing POTCAR
 LDA part: xc-table for Pade appr. of Perdew
 POSCAR found type information on POSCAR C H F O 
 00/POSCAR found :  4 types and      99 ions
 POSCAR found type information on POSCAR C H F O 
 06/POSCAR found :  4 types and      99 ions
 Jacobian:    33.7825262909836     
 POSCAR found type information on POSCAR C H F O 
 00/POSCAR found :  4 types and      99 ions
 POSCAR found type information on POSCAR C H F O 
 06/POSCAR found :  4 types and      99 ions
 POSCAR, INCAR and KPOINTS ok, starting setup
 FFT: planning ... GRIDC
 FFT: planning ... GRID_SOFT
 FFT: planning ... GRID
 WAVECAR not read
 entering main loop
       N       E                     dE             d eps       ncg     rms          rms(c)
DAV:   1     0.356214551781E+04    0.35621E+04   -0.14924E+05  4810   0.107E+03
DAV:   2    -0.220304330281E+03   -0.37824E+04   -0.35651E+04  6700   0.265E+02
DAV:   3    -0.873889838620E+03   -0.65359E+03   -0.65056E+03  5570   0.115E+02
DAV:   4    -0.895964899681E+03   -0.22075E+02   -0.21984E+02  5610   0.262E+01
DAV:   5    -0.896627091770E+03   -0.66219E+00   -0.66134E+00  6400   0.393E+00    0.525E+01
DAV:   6    -0.878222916107E+03    0.18404E+02   -0.23122E+01  5530   0.966E+00    0.340E+01
DAV:   7    -0.856530547214E+03    0.21692E+02   -0.36353E+01  5390   0.995E+00    0.207E+01
DAV:   8    -0.851553287390E+03    0.49773E+01   -0.21841E+01  5500   0.710E+00    0.864E+00
DAV:   9    -0.851688557609E+03   -0.13527E+00   -0.10468E+00  5420   0.194E+00    0.392E+00
DAV:  10    -0.851503363461E+03    0.18519E+00   -0.59141E-01  5230   0.140E+00    0.109E+00
DAV:  11    -0.851489936270E+03    0.13427E-01   -0.10537E-01  5270   0.630E-01    0.294E-01
DAV:  12    -0.851489624445E+03    0.31182E-03   -0.14712E-02  5410   0.291E-01    0.142E-01
DAV:  13    -0.851489774638E+03   -0.15019E-03   -0.22626E-03  5520   0.941E-02    0.112E-01
DAV:  14    -0.851489761507E+03    0.13132E-04   -0.48733E-04  5400   0.496E-02    0.604E-02
DAV:  15    -0.851489833976E+03   -0.72469E-04   -0.17715E-04  5200   0.293E-02    0.341E-02
DAV:  16    -0.851489837732E+03   -0.37560E-05   -0.91837E-05  5100   0.286E-02    0.131E-02
DAV:  17    -0.851489838093E+03   -0.36110E-06   -0.19320E-05  5460   0.964E-03    0.110E-02
DAV:  18    -0.851489836643E+03    0.14499E-05   -0.10449E-05  5060   0.100E-02    0.371E-03
DAV:  19    -0.851489836798E+03   -0.15487E-06   -0.21388E-06  4090   0.326E-03
   1 F= -.85940156E+03 E0= -.85940156E+03  d E =-.859402E+03  mag=    -0.0001
quench:  g(F)=  0.000E+00 g(S)=  0.000E+00 dE (1.order)= 0.000E+00
 bond charge predicted
       N       E                     dE             d eps       ncg     rms          rms(c)
DAV:   1    -0.851490405467E+03   -0.56882E-03   -0.44782E-02  4720   0.260E-01    0.401E-02
DAV:   2    -0.851490458871E+03   -0.53404E-04   -0.96560E-04  4760   0.349E-02    0.361E-02
DAV:   3    -0.851490443312E+03    0.15559E-04   -0.76291E-06  4850   0.449E-03    0.304E-02
DAV:   4    -0.851490462458E+03   -0.19146E-04   -0.74769E-05  4440   0.105E-02    0.595E-03
DAV:   5    -0.851490464006E+03   -0.15480E-05   -0.11802E-05  4080   0.364E-03    0.446E-03
DAV:   6    -0.851490465995E+03   -0.19889E-05   -0.60915E-07  3300   0.157E-03    0.224E-03
DAV:   7    -0.851490466335E+03   -0.34052E-06   -0.35371E-07  3460   0.962E-04
   2 F= -.85940213E+03 E0= -.85940213E+03  d E =-.573276E-03  mag=     0.0000
quench:  g(F)=  0.000E+00 g(S)=  0.000E+00 dE (1.order)= 0.000E+00
 bond charge predicted
       N       E                     dE             d eps       ncg     rms          rms(c)
DAV:   1    -0.851491066304E+03   -0.60031E-03   -0.80606E-02  4720   0.393E-01    0.552E-02
DAV:   2    -0.851491154196E+03   -0.87892E-04   -0.15136E-03  4740   0.512E-02    0.471E-02
DAV:   3    -0.851491134135E+03    0.20060E-04   -0.13684E-05  5400   0.668E-03    0.381E-02
DAV:   4    -0.851491167862E+03   -0.33727E-04   -0.11006E-04  4580   0.135E-02    0.690E-03
DAV:   5    -0.851491168194E+03   -0.33201E-06   -0.16056E-05  4750   0.489E-03    0.555E-03
DAV:   6    -0.851491170694E+03   -0.25003E-05   -0.11260E-06  3400   0.215E-03    0.285E-03
DAV:   7    -0.851491171098E+03   -0.40423E-06   -0.78673E-07  3500   0.140E-03
   3 F= -.85940275E+03 E0= -.85940275E+03  d E =-.612559E-03  mag=    -0.0000
quench:  g(F)=  0.000E+00 g(S)=  0.000E+00 dE (1.order)= 0.000E+00
 bond charge predicted
       N       E                     dE             d eps       ncg     rms          rms(c)
DAV:   1    -0.851492444486E+03   -0.12738E-02   -0.79490E-02  4720   0.458E-01    0.630E-02
DAV:   2    -0.851492529400E+03   -0.84913E-04   -0.14033E-03  4660   0.583E-02    0.510E-02
DAV:   3    -0.851492518412E+03    0.10988E-04   -0.17046E-05  5370   0.812E-03    0.386E-02
DAV:   4    -0.851492554603E+03   -0.36191E-04   -0.54641E-05  4620   0.121E-02    0.603E-03
DAV:   5    -0.851492554230E+03    0.37336E-06   -0.92194E-06  5080   0.490E-03
   4 F= -.85940402E+03 E0= -.85940402E+03  d E =-.127440E-02  mag=     0.0000
quench:  g(F)=  0.000E+00 g(S)=  0.000E+00 dE (1.order)= 0.000E+00
 bond charge predicted
       N       E                     dE             d eps       ncg     rms          rms(c)
DAV:   1    -0.851493936981E+03   -0.13824E-02   -0.12352E-01  4700   0.591E-01    0.818E-02
DAV:   2    -0.851494089790E+03   -0.15281E-03   -0.22988E-03  4660   0.761E-02    0.661E-02
DAV:   3    -0.851494077884E+03    0.11906E-04   -0.27741E-05  5450   0.106E-02    0.499E-02
DAV:   4    -0.851494124961E+03   -0.47077E-04   -0.67392E-05  4660   0.148E-02    0.705E-03
DAV:   5    -0.851494124550E+03    0.41069E-06   -0.12468E-05  5100   0.605E-03    0.512E-03
DAV:   6    -0.851494124784E+03   -0.23449E-06   -0.20646E-06  3740   0.292E-03
   5 F= -.85940546E+03 E0= -.85940546E+03  d E =-.143565E-02  mag=     0.0000
quench:  g(F)=  0.000E+00 g(S)=  0.000E+00 dE (1.order)= 0.000E+00
 bond charge predicted
       N       E                     dE             d eps       ncg     rms          rms(c)
DAV:   1    -0.851495763173E+03   -0.16386E-02   -0.26913E-01  4620   0.804E-01    0.109E-01
DAV:   2    -0.851496098534E+03   -0.33536E-03   -0.47867E-03  4680   0.103E-01    0.879E-02
DAV:   3    -0.851496056447E+03    0.42088E-04   -0.51796E-05  5420   0.139E-02    0.679E-02
DAV:   4    -0.851496128158E+03   -0.71712E-04   -0.24445E-04  4790   0.229E-02    0.114E-02
DAV:   5    -0.851496126811E+03    0.13474E-05   -0.36882E-05  4960   0.888E-03    0.905E-03
DAV:   6    -0.851496130865E+03   -0.40541E-05   -0.44708E-06  4150   0.419E-03    0.438E-03
DAV:   7    -0.851496131573E+03   -0.70858E-06   -0.19247E-06  3560   0.219E-03
   6 F= -.85940728E+03 E0= -.85940728E+03  d E =-.182199E-02  mag=    -0.0000
quench:  g(F)=  0.000E+00 g(S)=  0.000E+00 dE (1.order)= 0.000E+00
 bond charge predicted
       N       E                     dE             d eps       ncg     rms          rms(c)
DAV:   1    -0.851497886222E+03   -0.17554E-02   -0.48605E-01  4560   0.103E+00    0.139E-01
DAV:   2    -0.851498537104E+03   -0.65088E-03   -0.88875E-03  4650   0.133E-01    0.115E-01
DAV:   3    -0.851498445273E+03    0.91831E-04   -0.86116E-05  5490   0.173E-02    0.913E-02
DAV:   4    -0.851498526306E+03   -0.81033E-04   -0.56281E-04  4940   0.321E-02    0.160E-02
DAV:   5    -0.851498523734E+03    0.25716E-05   -0.81486E-05  4920   0.119E-02    0.129E-02
DAV:   6    -0.851498534919E+03   -0.11184E-04   -0.75749E-06  4310   0.538E-03    0.626E-03
DAV:   7    -0.851498537089E+03   -0.21702E-05   -0.40445E-06  3720   0.311E-03    0.262E-03
DAV:   8    -0.851498537066E+03    0.23225E-07   -0.77077E-07  4030   0.198E-03
   7 F= -.85940945E+03 E0= -.85940945E+03  d E =-.217127E-02  mag=     0.0000
quench:  g(F)=  0.000E+00 g(S)=  0.000E+00 dE (1.order)= 0.000E+00
 bond charge predicted
       N       E                     dE             d eps       ncg     rms          rms(c)
DAV:   1    -0.851500506922E+03   -0.19698E-02   -0.65689E-01  4560   0.126E+00    0.167E-01
DAV:   2    -0.851501389681E+03   -0.88276E-03   -0.11814E-02  4630   0.162E-01    0.136E-01
DAV:   3    -0.851501284904E+03    0.10478E-03   -0.12371E-04  5440   0.212E-02    0.105E-01
DAV:   4    -0.851501402191E+03   -0.11729E-03   -0.62256E-04  5190   0.363E-02    0.177E-02
DAV:   5    -0.851501397528E+03    0.46633E-05   -0.91794E-05  4890   0.138E-02    0.141E-02
DAV:   6    -0.851501407451E+03   -0.99228E-05   -0.10186E-05  4430   0.625E-03    0.682E-03
DAV:   7    -0.851501409402E+03   -0.19509E-05   -0.50234E-06  3850   0.341E-03    0.281E-03
DAV:   8    -0.851501409417E+03   -0.15352E-07   -0.86618E-07  3990   0.217E-03
   8 F= -.85941204E+03 E0= -.85941204E+03  d E =-.259248E-02  mag=    -0.0000
quench:  g(F)=  0.000E+00 g(S)=  0.000E+00 dE (1.order)= 0.000E+00
 bond charge predicted
       N       E                     dE             d eps       ncg     rms          rms(c)
DAV:   1    -0.851503663696E+03   -0.22543E-02   -0.84998E-01  4560   0.152E+00    0.199E-01
DAV:   2    -0.851504859736E+03   -0.11960E-02   -0.15544E-02  4660   0.195E-01    0.159E-01
DAV:   3    -0.851504753010E+03    0.10673E-03   -0.17370E-04  5430   0.258E-02    0.122E-01
DAV:   4    -0.851504903108E+03   -0.15010E-03   -0.59976E-04  5350   0.401E-02    0.188E-02
DAV:   5    -0.851504897853E+03    0.52545E-05   -0.95413E-05  4960   0.156E-02    0.145E-02
DAV:   6    -0.851504904705E+03   -0.68514E-05   -0.13563E-05  4470   0.732E-03    0.692E-03
DAV:   7    -0.851504906063E+03   -0.13587E-05   -0.48932E-06  4060   0.348E-03    0.321E-03
DAV:   8    -0.851504906107E+03   -0.43678E-07   -0.81447E-07  3960   0.217E-03
   9 F= -.85941522E+03 E0= -.85941522E+03  d E =-.318099E-02  mag=    -0.0000
quench:  g(F)=  0.000E+00 g(S)=  0.000E+00 dE (1.order)= 0.000E+00
 bond charge predicted
       N       E                     dE             d eps       ncg     rms          rms(c)
DAV:   1    -0.851506785390E+03   -0.18793E-02   -0.16794E+00  4560   0.202E+00    0.265E-01
DAV:   2    -0.851509186953E+03   -0.24016E-02   -0.30706E-02  4630   0.262E-01    0.214E-01
DAV:   3    -0.851508909114E+03    0.27784E-03   -0.31795E-04  5440   0.342E-02    0.168E-01
DAV:   4    -0.851509117432E+03   -0.20832E-03   -0.16633E-03  5390   0.591E-02    0.289E-02
DAV:   5    -0.851509106463E+03    0.10969E-04   -0.24358E-04  4860   0.220E-02    0.233E-02
DAV:   6    -0.851509123685E+03   -0.17222E-04   -0.29539E-05  4580   0.105E-02    0.110E-02
DAV:   7    -0.851509128987E+03   -0.53017E-05   -0.12209E-05  4880   0.535E-03    0.521E-03
DAV:   8    -0.851509129198E+03   -0.21105E-06   -0.33119E-06  4040   0.403E-03
  10 F= -.85941903E+03 E0= -.85941903E+03  d E =-.380694E-02  mag=    -0.0000
quench:  g(F)=  0.000E+00 g(S)=  0.000E+00 dE (1.order)= 0.000E+00
 bond charge predicted
       N       E                     dE             d eps       ncg     rms          rms(c)
DAV:   1    -0.851510428528E+03   -0.12995E-02   -0.26148E+00  4560   0.254E+00    0.331E-01
DAV:   2    -0.851514266470E+03   -0.38379E-02   -0.48298E-02  4680   0.331E-01    0.267E-01
DAV:   3    -0.851513847805E+03    0.41866E-03   -0.50164E-04  5460   0.426E-02    0.208E-01
DAV:   4    -0.851514142929E+03   -0.29512E-03   -0.25441E-03  5420   0.740E-02    0.359E-02
DAV:   5    -0.851514124752E+03    0.18177E-04   -0.37501E-04  4860   0.276E-02    0.290E-02
DAV:   6    -0.851514138836E+03   -0.14084E-04   -0.45136E-05  4740   0.132E-02    0.139E-02
DAV:   7    -0.851514148162E+03   -0.93261E-05   -0.20164E-05  4940   0.695E-03    0.660E-03
DAV:   8    -0.851514148954E+03   -0.79149E-06   -0.60176E-06  4300   0.564E-03
  11 F= -.85942353E+03 E0= -.85942353E+03  d E =-.449983E-02  mag=     0.0000
quench:  g(F)=  0.000E+00 g(S)=  0.000E+00 dE (1.order)= 0.000E+00
 bond charge predicted
       N       E                     dE             d eps       ncg     rms          rms(c)
DAV:   1    -0.851514588284E+03   -0.44012E-03   -0.31139E+00  4560   0.294E+00    0.377E-01
DAV:   2    -0.851519407465E+03   -0.48192E-02   -0.59022E-02  4700   0.384E-01    0.298E-01
DAV:   3    -0.851519024099E+03    0.38337E-03   -0.65413E-04  5500   0.500E-02    0.230E-01
DAV:   4    -0.851519400315E+03   -0.37622E-03   -0.21644E-03  5380   0.775E-02    0.361E-02
DAV:   5    -0.851519383521E+03    0.16793E-04   -0.34823E-04  4960   0.299E-02    0.285E-02
DAV:   6    -0.851519385588E+03   -0.20668E-05   -0.56177E-05  4800   0.149E-02    0.132E-02
DAV:   7    -0.851519392923E+03   -0.73353E-05   -0.17466E-05  5000   0.661E-03    0.691E-03
DAV:   8    -0.851519393781E+03   -0.85762E-06   -0.47069E-06  4260   0.510E-03
  12 F= -.85942823E+03 E0= -.85942823E+03  d E =-.470321E-02  mag=     0.0000
quench:  g(F)=  0.000E+00 g(S)=  0.000E+00 dE (1.order)= 0.000E+00
 bond charge predicted
       N       E                     dE             d eps       ncg     rms          rms(c)
DAV:   1    -0.851513139032E+03    0.62539E-02   -0.72395E+00  4560   0.402E+00    0.524E-01
DAV:   2    -0.851525075676E+03   -0.11937E-01   -0.14470E-01  4820   0.534E-01    0.430E-01
DAV:   3    -0.851523798912E+03    0.12768E-02   -0.13592E-03  5560   0.666E-02    0.347E-01
DAV:   4    -0.851524005286E+03   -0.20637E-03   -0.90573E-03  5400   0.130E-01    0.674E-02
DAV:   5    -0.851524001918E+03    0.33685E-05   -0.13299E-03  4800   0.463E-02    0.576E-02
DAV:   6    -0.851523998995E+03    0.29228E-05   -0.19617E-04  4920   0.253E-02    0.267E-02
DAV:   7    -0.851524013673E+03   -0.14678E-04   -0.67088E-05  5040   0.126E-02    0.167E-02
DAV:   8    -0.851524022875E+03   -0.92019E-05   -0.35657E-05  4460   0.112E-02    0.539E-03
DAV:   9    -0.851524023670E+03   -0.79476E-06   -0.46519E-06  4140   0.397E-03
  13 F= -.85943210E+03 E0= -.85943210E+03  d E =-.386709E-02  mag=    -0.0000
quench:  g(F)=  0.000E+00 g(S)=  0.000E+00 dE (1.order)= 0.000E+00
 bond charge predicted
       N       E                     dE             d eps       ncg     rms          rms(c)
DAV:   1    -0.851526612273E+03   -0.25894E-02   -0.11708E-01  4820   0.400E-01    0.726E-02
DAV:   2    -0.851526889228E+03   -0.27696E-03   -0.36710E-03  4780   0.603E-02    0.697E-02
DAV:   3    -0.851526847319E+03    0.41909E-04   -0.35017E-05  5500   0.850E-03    0.608E-02
DAV:   4    -0.851526818513E+03    0.28806E-04   -0.16729E-04  4620   0.163E-02    0.195E-02
DAV:   5    -0.851526829549E+03   -0.11036E-04   -0.52508E-05  4840   0.711E-03    0.909E-03
DAV:   6    -0.851526833234E+03   -0.36851E-05   -0.64006E-06  3960   0.432E-03    0.391E-03
DAV:   7    -0.851526834782E+03   -0.15483E-05   -0.55480E-07  3500   0.149E-03    0.235E-03
DAV:   8    -0.851526834741E+03    0.41226E-07   -0.31787E-07  3540   0.146E-03
  14 F= -.85943497E+03 E0= -.85943497E+03  d E =-.286623E-02  mag=     0.0000
quench:  g(F)=  0.000E+00 g(S)=  0.000E+00 dE (1.order)= 0.000E+00
 bond charge predicted
       N       E                     dE             d eps       ncg     rms          rms(c)
DAV:   1    -0.851525162926E+03    0.16719E-02   -0.12476E-01  4880   0.483E-01    0.775E-02
DAV:   2    -0.851525493618E+03   -0.33069E-03   -0.41979E-03  4820   0.741E-02    0.745E-02
DAV:   3    -0.851525452810E+03    0.40809E-04   -0.43291E-05  5560   0.101E-02    0.653E-02
DAV:   4    -0.851525415411E+03    0.37398E-04   -0.16367E-04  4720   0.176E-02    0.222E-02
DAV:   5    -0.851525426767E+03   -0.11356E-04   -0.60098E-05  4960   0.827E-03    0.995E-03
DAV:   6    -0.851525428842E+03   -0.20746E-05   -0.92780E-06  4360   0.555E-03    0.438E-03
DAV:   7    -0.851525430120E+03   -0.12783E-05   -0.84109E-07  3400   0.185E-03    0.286E-03
DAV:   8    -0.851525430034E+03    0.86358E-07   -0.62449E-07  3700   0.195E-03
  15 F= -.85943361E+03 E0= -.85943361E+03  d E =0.135310E-02  mag=     0.0000
quench:  g(F)=  0.000E+00 g(S)=  0.000E+00 dE (1.order)= 0.000E+00
 bond charge predicted
       N       E                     dE             d eps       ncg     rms          rms(c)
DAV:   1    -0.851526200576E+03   -0.77046E-03   -0.74717E-03  4680   0.963E-02    0.170E-02
DAV:   2    -0.851526210573E+03   -0.99975E-05   -0.19961E-04  4600   0.137E-02    0.162E-02
DAV:   3    -0.851526206458E+03    0.41149E-05   -0.15465E-06  3900   0.182E-03    0.142E-02
DAV:   4    -0.851526210797E+03   -0.43386E-05   -0.13501E-05  3780   0.439E-03    0.358E-03
DAV:   5    -0.851526211757E+03   -0.96058E-06   -0.26630E-06  3740   0.158E-03
  16 F= -.85943438E+03 E0= -.85943438E+03  d E =-.766514E-03  mag=    -0.0000
quench:  g(F)=  0.000E+00 g(S)=  0.000E+00 dE (1.order)= 0.000E+00
 bond charge predicted
       N       E                     dE             d eps       ncg     rms          rms(c)
DAV:   1    -0.851527122828E+03   -0.91203E-03   -0.24368E-02  4660   0.176E-01    0.308E-02
DAV:   2    -0.851527162477E+03   -0.39649E-04   -0.64930E-04  4700   0.252E-02    0.289E-02
DAV:   3    -0.851527152838E+03    0.96394E-05   -0.50984E-06  4200   0.335E-03    0.250E-02
DAV:   4    -0.851527158886E+03   -0.60482E-05   -0.41074E-05  4080   0.765E-03    0.608E-03
DAV:   5    -0.851527161598E+03   -0.27121E-05   -0.80832E-06  3980   0.275E-03    0.385E-03
DAV:   6    -0.851527163427E+03   -0.18293E-05   -0.52907E-07  3300   0.121E-03    0.188E-03
DAV:   7    -0.851527163667E+03   -0.23963E-06   -0.13451E-07  3180   0.617E-04
  17 F= -.85943531E+03 E0= -.85943531E+03  d E =-.924516E-03  mag=    -0.0000
quench:  g(F)=  0.000E+00 g(S)=  0.000E+00 dE (1.order)= 0.000E+00
 bond charge predicted
       N       E                     dE             d eps       ncg     rms          rms(c)
DAV:   1    -0.851527541275E+03   -0.37785E-03   -0.38873E-02  4700   0.229E-01    0.382E-02
DAV:   2    -0.851527606721E+03   -0.65446E-04   -0.10086E-03  4720   0.325E-02    0.357E-02
DAV:   3    -0.851527592408E+03    0.14313E-04   -0.80997E-06  4580   0.428E-03    0.308E-02
DAV:   4    -0.851527597102E+03   -0.46939E-05   -0.64169E-05  4260   0.953E-03    0.738E-03
DAV:   5    -0.851527600716E+03   -0.36142E-05   -0.12467E-05  4000   0.342E-03    0.464E-03
DAV:   6    -0.851527603554E+03   -0.28378E-05   -0.77791E-07  3280   0.150E-03    0.221E-03
DAV:   7    -0.851527603969E+03   -0.41475E-06   -0.20593E-07  3360   0.747E-04
  18 F= -.85943571E+03 E0= -.85943571E+03  d E =-.406021E-03  mag=    -0.0000
quench:  g(F)=  0.000E+00 g(S)=  0.000E+00 dE (1.order)= 0.000E+00
 bond charge predicted
       N       E                     dE             d eps       ncg     rms          rms(c)
DAV:   1    -0.851527400536E+03    0.20302E-03   -0.36612E-02  4640   0.242E-01    0.361E-02
DAV:   2    -0.851527457541E+03   -0.57005E-04   -0.89202E-04  4720   0.339E-02    0.328E-02
DAV:   3    -0.851527444806E+03    0.12735E-04   -0.70898E-06  4640   0.427E-03    0.280E-02
DAV:   4    -0.851527453539E+03   -0.87336E-05   -0.58295E-05  4200   0.935E-03    0.613E-03
DAV:   5    -0.851527456104E+03   -0.25651E-05   -0.10298E-05  4040   0.333E-03    0.429E-03
DAV:   6    -0.851527458600E+03   -0.24953E-05   -0.64043E-07  3280   0.148E-03    0.219E-03
DAV:   7    -0.851527458986E+03   -0.38659E-06   -0.20440E-07  3240   0.769E-04
  19 F= -.85943553E+03 E0= -.85943553E+03  d E =0.177598E-03  mag=    -0.0000
quench:  g(F)=  0.000E+00 g(S)=  0.000E+00 dE (1.order)= 0.000E+00
 bond charge predicted
       N       E                     dE             d eps       ncg     rms          rms(c)
DAV:   1    -0.851527513038E+03   -0.54438E-04   -0.62621E-05  4720   0.112E-02    0.218E-03
DAV:   2    -0.851527513180E+03   -0.14273E-06   -0.20165E-06  3440   0.175E-03
  20 F= -.85943559E+03 E0= -.85943559E+03  d E =-.551627E-04  mag=     0.0000
quench:  g(F)=  0.000E+00 g(S)=  0.000E+00 dE (1.order)= 0.000E+00
 bond charge predicted
       N       E                     dE             d eps       ncg     rms          rms(c)
DAV:   1    -0.851527611876E+03   -0.98839E-04   -0.24057E-04  4960   0.222E-02    0.476E-03
DAV:   2    -0.851527612237E+03   -0.36061E-06   -0.78811E-06  3920   0.337E-03
  21 F= -.85943569E+03 E0= -.85943569E+03  d E =-.100934E-03  mag=    -0.0000
quench:  g(F)=  0.000E+00 g(S)=  0.000E+00 dE (1.order)= 0.000E+00
 bond charge predicted
       N       E                     dE             d eps       ncg     rms          rms(c)
DAV:   1    -0.851527739124E+03   -0.12725E-03   -0.49310E-04  4980   0.323E-02    0.808E-03
DAV:   2    -0.851527739483E+03   -0.35872E-06   -0.15759E-05  4200   0.485E-03    0.759E-03
DAV:   3    -0.851527739118E+03    0.36426E-06   -0.36833E-07  3560   0.101E-03
  22 F= -.85943582E+03 E0= -.85943582E+03  d E =-.129486E-03  mag=    -0.0000
quench:  g(F)=  0.000E+00 g(S)=  0.000E+00 dE (1.order)= 0.000E+00
 bond charge predicted
       N       E                     dE             d eps       ncg     rms          rms(c)
DAV:   1    -0.851527873361E+03   -0.13388E-03   -0.73535E-04  5040   0.407E-02    0.707E-03
DAV:   2    -0.851527874655E+03   -0.12947E-05   -0.21275E-05  4560   0.586E-03    0.658E-03
DAV:   3    -0.851527874347E+03    0.30820E-06   -0.25023E-07  3420   0.853E-04
  23 F= -.85943596E+03 E0= -.85943596E+03  d E =-.138324E-03  mag=     0.0000
quench:  g(F)=  0.000E+00 g(S)=  0.000E+00 dE (1.order)= 0.000E+00
 bond charge predicted
       N       E                     dE             d eps       ncg     rms          rms(c)
DAV:   1    -0.851527996909E+03   -0.12225E-03   -0.97806E-04  5040   0.487E-02    0.795E-03
DAV:   2    -0.851527998937E+03   -0.20279E-05   -0.29498E-05  4760   0.709E-03    0.732E-03
DAV:   3    -0.851527998554E+03    0.38307E-06   -0.33537E-07  3740   0.967E-04
  24 F= -.85943608E+03 E0= -.85943608E+03  d E =-.127352E-03  mag=     0.0000
quench:  g(F)=  0.000E+00 g(S)=  0.000E+00 dE (1.order)= 0.000E+00
 bond charge predicted
       N       E                     dE             d eps       ncg     rms          rms(c)
DAV:   1    -0.851528098835E+03   -0.99897E-04   -0.11430E-03  5020   0.555E-02    0.880E-03
DAV:   2    -0.851528101283E+03   -0.24483E-05   -0.33565E-05  4740   0.799E-03    0.791E-03
DAV:   3    -0.851528100906E+03    0.37699E-06   -0.40966E-07  3900   0.109E-03
  25 F= -.85943619E+03 E0= -.85943619E+03  d E =-.104932E-03  mag=    -0.0000
quench:  g(F)=  0.000E+00 g(S)=  0.000E+00 dE (1.order)= 0.000E+00
 bond charge predicted
       N       E                     dE             d eps       ncg     rms          rms(c)
DAV:   1    -0.851528186555E+03   -0.85273E-04   -0.15384E-03  4960   0.679E-02    0.100E-02
DAV:   2    -0.851528189902E+03   -0.33464E-05   -0.42694E-05  4700   0.964E-03    0.859E-03
DAV:   3    -0.851528189564E+03    0.33763E-06   -0.52746E-07  4020   0.129E-03
  26 F= -.85943628E+03 E0= -.85943628E+03  d E =-.900750E-04  mag=     0.0000
quench:  g(F)=  0.000E+00 g(S)=  0.000E+00 dE (1.order)= 0.000E+00
 bond charge predicted
       N       E                     dE             d eps       ncg     rms          rms(c)
DAV:   1    -0.851528272844E+03   -0.82942E-04   -0.21246E-03  4740   0.822E-02    0.112E-02
DAV:   2    -0.851528276906E+03   -0.40621E-05   -0.51905E-05  4720   0.113E-02    0.891E-03
DAV:   3    -0.851528276693E+03    0.21321E-06   -0.58861E-07  4060   0.146E-03
  27 F= -.85943637E+03 E0= -.85943637E+03  d E =-.863206E-04  mag=    -0.0000
quench:  g(F)=  0.000E+00 g(S)=  0.000E+00 dE (1.order)= 0.000E+00
 bond charge predicted
       N       E                     dE             d eps       ncg     rms          rms(c)
DAV:   1    -0.851528388773E+03   -0.11187E-03   -0.33104E-03  4560   0.101E-01    0.127E-02
DAV:   2    -0.851528393742E+03   -0.49689E-05   -0.70172E-05  4680   0.134E-02    0.947E-03
DAV:   3    -0.851528393430E+03    0.31143E-06   -0.65443E-07  3920   0.163E-03
  28 F= -.85943648E+03 E0= -.85943648E+03  d E =-.112670E-03  mag=     0.0000
quench:  g(F)=  0.000E+00 g(S)=  0.000E+00 dE (1.order)= 0.000E+00
 bond charge predicted
       N       E                     dE             d eps       ncg     rms          rms(c)
DAV:   1    -0.851528574059E+03   -0.18032E-03   -0.58070E-03  4560   0.128E-01    0.155E-02
DAV:   2    -0.851528580921E+03   -0.68623E-05   -0.11542E-04  4480   0.167E-02    0.114E-02
DAV:   3    -0.851528580070E+03    0.85176E-06   -0.10298E-06  3900   0.196E-03
  29 F= -.85943666E+03 E0= -.85943666E+03  d E =-.178259E-03  mag=     0.0000
quench:  g(F)=  0.000E+00 g(S)=  0.000E+00 dE (1.order)= 0.000E+00
 bond charge predicted
       N       E                     dE             d eps       ncg     rms          rms(c)
DAV:   1    -0.851528857399E+03   -0.27648E-03   -0.10634E-02  4560   0.165E-01    0.202E-02
DAV:   2    -0.851528868702E+03   -0.11303E-04   -0.20825E-04  4480   0.215E-02    0.151E-02
DAV:   3    -0.851528866856E+03    0.18460E-05   -0.17977E-06  4140   0.248E-03    0.120E-02
DAV:   4    -0.851528875550E+03   -0.86936E-05   -0.74074E-06  3780   0.410E-03    0.236E-03
DAV:   5    -0.851528875543E+03    0.68394E-08   -0.11627E-06  3840   0.155E-03
  30 F= -.85943694E+03 E0= -.85943694E+03  d E =-.281721E-03  mag=    -0.0000
quench:  g(F)=  0.000E+00 g(S)=  0.000E+00 dE (1.order)= 0.000E+00
 bond charge predicted
       N       E                     dE             d eps       ncg     rms          rms(c)
DAV:   1    -0.851529223879E+03   -0.34833E-03   -0.19447E-02  4560   0.214E-01    0.265E-02
DAV:   2    -0.851529248981E+03   -0.25102E-04   -0.40883E-04  4480   0.287E-02    0.207E-02
DAV:   3    -0.851529244405E+03    0.45756E-05   -0.34071E-06  4400   0.334E-03    0.167E-02
DAV:   4    -0.851529257268E+03   -0.12862E-04   -0.19101E-05  4040   0.615E-03    0.328E-03
DAV:   5    -0.851529257289E+03   -0.21137E-07   -0.29156E-06  3890   0.229E-03
  31 F= -.85943730E+03 E0= -.85943730E+03  d E =-.361880E-03  mag=    -0.0000
quench:  g(F)=  0.000E+00 g(S)=  0.000E+00 dE (1.order)= 0.000E+00
 bond charge predicted
       N       E                     dE             d eps       ncg     rms          rms(c)
DAV:   1    -0.851529626818E+03   -0.36955E-03   -0.32040E-02  4560   0.269E-01    0.339E-02
DAV:   2    -0.851529670882E+03   -0.44064E-04   -0.67716E-04  4540   0.362E-02    0.267E-02
DAV:   3    -0.851529664141E+03    0.67412E-05   -0.56369E-06  4780   0.420E-03    0.217E-02
DAV:   4    -0.851529681647E+03   -0.17506E-04   -0.32847E-05  4200   0.784E-03    0.416E-03
DAV:   5    -0.851529681699E+03   -0.51914E-07   -0.49929E-06  4000   0.289E-03
  32 F= -.85943770E+03 E0= -.85943770E+03  d E =-.398526E-03  mag=     0.0000
quench:  g(F)=  0.000E+00 g(S)=  0.000E+00 dE (1.order)= 0.000E+00
 bond charge predicted
       N       E                     dE             d eps       ncg     rms          rms(c)
DAV:   1    -0.851530051476E+03   -0.36983E-03   -0.46756E-02  4560   0.329E-01    0.414E-02
DAV:   2    -0.851530119464E+03   -0.67988E-04   -0.98271E-04  4560   0.440E-02    0.320E-02
DAV:   3    -0.851530110948E+03    0.85156E-05   -0.83860E-06  5140   0.508E-03    0.258E-02
DAV:   4    -0.851530133060E+03   -0.22111E-04   -0.43710E-05  4360   0.914E-03    0.483E-03
DAV:   5    -0.851530133047E+03    0.12675E-07   -0.66220E-06  4100   0.336E-03
  33 F= -.85943812E+03 E0= -.85943812E+03  d E =-.421755E-03  mag=    -0.0000
quench:  g(F)=  0.000E+00 g(S)=  0.000E+00 dE (1.order)= 0.000E+00
 bond charge predicted
       N       E                     dE             d eps       ncg     rms          rms(c)
DAV:   1    -0.851530570825E+03   -0.43777E-03   -0.62230E-02  4560   0.391E-01    0.489E-02
DAV:   2    -0.851530665391E+03   -0.94566E-04   -0.12953E-03  4540   0.521E-02    0.365E-02
DAV:   3    -0.851530656241E+03    0.91504E-05   -0.11444E-05  5180   0.600E-03    0.291E-02
DAV:   4    -0.851530682780E+03   -0.26540E-04   -0.46834E-05  4420   0.101E-02    0.517E-03
DAV:   5    -0.851530682695E+03    0.85514E-07   -0.72864E-06  4160   0.376E-03
  34 F= -.85943864E+03 E0= -.85943864E+03  d E =-.519128E-03  mag=    -0.0000
quench:  g(F)=  0.000E+00 g(S)=  0.000E+00 dE (1.order)= 0.000E+00
 bond charge predicted
       N       E                     dE             d eps       ncg     rms          rms(c)
DAV:   1    -0.851531261227E+03   -0.57845E-03   -0.81769E-02  4560   0.462E-01    0.578E-02
DAV:   2    -0.851531391022E+03   -0.12980E-03   -0.16986E-03  4580   0.614E-02    0.419E-02
DAV:   3    -0.851531382330E+03    0.86918E-05   -0.15661E-05  5260   0.710E-03    0.330E-02
DAV:   4    -0.851531412491E+03   -0.30161E-04   -0.45658E-05  4420   0.109E-02    0.536E-03
DAV:   5    -0.851531412466E+03    0.24687E-07   -0.77357E-06  4830   0.415E-03
  35 F= -.85943934E+03 E0= -.85943934E+03  d E =-.699529E-03  mag=    -0.0000
quench:  g(F)=  0.000E+00 g(S)=  0.000E+00 dE (1.order)= 0.000E+00
 bond charge predicted
       N       E                     dE             d eps       ncg     rms          rms(c)
DAV:   1    -0.851532089418E+03   -0.67693E-03   -0.11693E-01  4560   0.562E-01    0.705E-02
DAV:   2    -0.851532283251E+03   -0.19383E-03   -0.24496E-03  4600   0.748E-02    0.507E-02
DAV:   3    -0.851532273572E+03    0.96785E-05   -0.23055E-05  5400   0.871E-03    0.398E-02
DAV:   4    -0.851532309468E+03   -0.35896E-04   -0.54541E-05  4560   0.127E-02    0.602E-03
DAV:   5    -0.851532309505E+03   -0.36503E-07   -0.98821E-06  5010   0.488E-03
  36 F= -.85944020E+03 E0= -.85944020E+03  d E =-.864402E-03  mag=     0.0000
quench:  g(F)=  0.000E+00 g(S)=  0.000E+00 dE (1.order)= 0.000E+00
 bond charge predicted
       N       E                     dE             d eps       ncg     rms          rms(c)
DAV:   1    -0.851532968078E+03   -0.65861E-03   -0.18348E-01  4560   0.702E-01    0.877E-02
DAV:   2    -0.851533278574E+03   -0.31050E-03   -0.38319E-03  4600   0.934E-02    0.632E-02
DAV:   3    -0.851533263519E+03    0.15056E-04   -0.35771E-05  5400   0.108E-02    0.497E-02
DAV:   4    -0.851533311820E+03   -0.48302E-04   -0.92474E-05  4620   0.161E-02    0.783E-03
DAV:   5    -0.851533311549E+03    0.27098E-06   -0.16181E-05  4980   0.618E-03    0.676E-03
DAV:   6    -0.851533311851E+03   -0.30163E-06   -0.30777E-06  3680   0.316E-03
  37 F= -.85944116E+03 E0= -.85944116E+03  d E =-.957341E-03  mag=    -0.0000
quench:  g(F)=  0.000E+00 g(S)=  0.000E+00 dE (1.order)= 0.000E+00
 bond charge predicted
       N       E                     dE             d eps       ncg     rms          rms(c)
DAV:   1    -0.851534050990E+03   -0.73944E-03   -0.29848E-01  4560   0.875E-01    0.108E-01
DAV:   2    -0.851534557676E+03   -0.50669E-03   -0.61724E-03  4600   0.116E-01    0.799E-02
DAV:   3    -0.851534523694E+03    0.33982E-04   -0.55950E-05  5440   0.134E-02    0.632E-02
DAV:   4    -0.851534590272E+03   -0.66578E-04   -0.20515E-04  4740   0.217E-02    0.112E-02
DAV:   5    -0.851534589058E+03    0.12141E-05   -0.32686E-05  4980   0.824E-03    0.959E-03
DAV:   6    -0.851534591024E+03   -0.19662E-05   -0.59127E-06  3800   0.404E-03    0.442E-03
DAV:   7    -0.851534591275E+03   -0.25104E-06   -0.13358E-06  3960   0.171E-03
  38 F= -.85944237E+03 E0= -.85944237E+03  d E =-.121003E-02  mag=    -0.0000
quench:  g(F)=  0.000E+00 g(S)=  0.000E+00 dE (1.order)= 0.000E+00
 bond charge predicted
       N       E                     dE             d eps       ncg     rms          rms(c)
DAV:   1    -0.851535327482E+03   -0.73646E-03   -0.46556E-01  4560   0.107E+00    0.133E-01
DAV:   2    -0.851536126149E+03   -0.79867E-03   -0.96550E-03  4620   0.142E-01    0.101E-01
DAV:   3    -0.851536062699E+03    0.63450E-04   -0.86099E-05  5460   0.164E-02    0.802E-02
DAV:   4    -0.851536140025E+03   -0.77326E-04   -0.40072E-04  4820   0.283E-02    0.148E-02
DAV:   5    -0.851536137959E+03    0.20661E-05   -0.61113E-05  4980   0.106E-02    0.127E-02
DAV:   6    -0.851536142709E+03   -0.47498E-05   -0.92937E-06  4020   0.493E-03    0.590E-03
DAV:   7    -0.851536143345E+03   -0.63592E-06   -0.24593E-06  3860   0.224E-03
  39 F= -.85944383E+03 E0= -.85944383E+03  d E =-.145440E-02  mag=     0.0000
quench:  g(F)=  0.000E+00 g(S)=  0.000E+00 dE (1.order)= 0.000E+00
 bond charge predicted
       N       E                     dE             d eps       ncg     rms          rms(c)
DAV:   1    -0.851536871192E+03   -0.72848E-03   -0.59630E-01  4560   0.124E+00    0.152E-01
DAV:   2    -0.851537899648E+03   -0.10285E-02   -0.12339E-02  4640   0.164E-01    0.114E-01
DAV:   3    -0.851537825979E+03    0.73669E-04   -0.11476E-04  5480   0.193E-02    0.906E-02
DAV:   4    -0.851537920848E+03   -0.94869E-04   -0.45943E-04  4940   0.320E-02    0.159E-02
DAV:   5    -0.851537918889E+03    0.19595E-05   -0.71989E-05  5000   0.120E-02    0.137E-02
DAV:   6    -0.851537922850E+03   -0.39618E-05   -0.10902E-05  4200   0.557E-03    0.650E-03
DAV:   7    -0.851537923467E+03   -0.61704E-06   -0.34394E-06  3920   0.271E-03
  40 F= -.85944549E+03 E0= -.85944549E+03  d E =-.166887E-02  mag=    -0.0000
quench:  g(F)=  0.000E+00 g(S)=  0.000E+00 dE (1.order)= 0.000E+00
 bond charge predicted
       N       E                     dE             d eps       ncg     rms          rms(c)
DAV:   1    -0.851538734810E+03   -0.81196E-03   -0.70017E-01  4560   0.141E+00    0.168E-01
DAV:   2    -0.851539958056E+03   -0.12232E-02   -0.14616E-02  4680   0.187E-01    0.124E-01
DAV:   3    -0.851539888015E+03    0.70042E-04   -0.14525E-04  5420   0.225E-02    0.979E-02
DAV:   4    -0.851540000647E+03   -0.11263E-03   -0.41352E-04  5100   0.342E-02    0.158E-02
DAV:   5    -0.851540000394E+03    0.25258E-06   -0.70341E-05  5020   0.131E-02    0.132E-02
DAV:   6    -0.851540001884E+03   -0.14895E-05   -0.11326E-05  4280   0.605E-03    0.632E-03
DAV:   7    -0.851540002463E+03   -0.57962E-06   -0.33632E-06  3980   0.285E-03
  41 F= -.85944746E+03 E0= -.85944746E+03  d E =-.196505E-02  mag=     0.0000
quench:  g(F)=  0.000E+00 g(S)=  0.000E+00 dE (1.order)= 0.000E+00
 bond charge predicted
       N       E                     dE             d eps       ncg     rms          rms(c)
DAV:   1    -0.851540675951E+03   -0.67407E-03   -0.97772E-01  4560   0.170E+00    0.195E-01
DAV:   2    -0.851542377376E+03   -0.17014E-02   -0.20411E-02  4680   0.227E-01    0.146E-01
DAV:   3    -0.851542268586E+03    0.10879E-03   -0.20680E-04  5480   0.278E-02    0.115E-01
DAV:   4    -0.851542412685E+03   -0.14410E-03   -0.64782E-04  5240   0.432E-02    0.196E-02
DAV:   5    -0.851542411300E+03    0.13848E-05   -0.10824E-04  5040   0.165E-02    0.160E-02
DAV:   6    -0.851542416382E+03   -0.50819E-05   -0.16951E-05  4380   0.771E-03    0.750E-03
DAV:   7    -0.851542417517E+03   -0.11352E-05   -0.46001E-06  4200   0.346E-03    0.419E-03
DAV:   8    -0.851542417684E+03   -0.16710E-06   -0.17594E-06  3500   0.253E-03
  42 F= -.85944972E+03 E0= -.85944972E+03  d E =-.225700E-02  mag=    -0.0000
quench:  g(F)=  0.000E+00 g(S)=  0.000E+00 dE (1.order)= 0.000E+00
 bond charge predicted
       N       E                     dE             d eps       ncg     rms          rms(c)
DAV:   1    -0.851542618533E+03   -0.20102E-03   -0.15251E+00  4560   0.215E+00    0.235E-01
DAV:   2    -0.851545301790E+03   -0.26833E-02   -0.32176E-02  4660   0.290E-01    0.178E-01
DAV:   3    -0.851545106454E+03    0.19534E-03   -0.32047E-04  5480   0.355E-02    0.141E-01
DAV:   4    -0.851545290932E+03   -0.18448E-03   -0.11607E-03  5300   0.574E-02    0.257E-02
DAV:   5    -0.851545290396E+03    0.53619E-06   -0.19049E-04  5020   0.214E-02    0.208E-02
DAV:   6    -0.851545302984E+03   -0.12587E-04   -0.27322E-05  4540   0.102E-02    0.971E-03
DAV:   7    -0.851545306244E+03   -0.32602E-05   -0.75614E-06  4860   0.453E-03    0.563E-03
DAV:   8    -0.851545306522E+03   -0.27773E-06   -0.34762E-06  3700   0.389E-03
  43 F= -.85945238E+03 E0= -.85945238E+03  d E =-.266486E-02  mag=     0.0000
quench:  g(F)=  0.000E+00 g(S)=  0.000E+00 dE (1.order)= 0.000E+00
 bond charge predicted
       N       E                     dE             d eps       ncg     rms          rms(c)
DAV:   1    -0.851544950048E+03    0.35620E-03   -0.20076E+00  4560   0.261E+00    0.268E-01
DAV:   2    -0.851548634663E+03   -0.36846E-02   -0.43527E-02  4700   0.353E-01    0.197E-01
DAV:   3    -0.851548445635E+03    0.18903E-03   -0.45306E-04  5480   0.436E-02    0.155E-01
DAV:   4    -0.851548680801E+03   -0.23517E-03   -0.11085E-03  5340   0.647E-02    0.279E-02
DAV:   5    -0.851548687797E+03   -0.69960E-05   -0.20269E-04  5100   0.243E-02    0.214E-02
DAV:   6    -0.851548695254E+03   -0.74566E-05   -0.33221E-05  4600   0.124E-02    0.988E-03
DAV:   7    -0.851548698240E+03   -0.29863E-05   -0.89330E-06  5100   0.521E-03    0.586E-03
DAV:   8    -0.851548698487E+03   -0.24704E-06   -0.35390E-06  3940   0.476E-03
  44 F= -.85945554E+03 E0= -.85945554E+03  d E =-.316006E-02  mag=    -0.0000
quench:  g(F)=  0.000E+00 g(S)=  0.000E+00 dE (1.order)= 0.000E+00
 bond charge predicted
       N       E                     dE             d eps       ncg     rms          rms(c)
DAV:   1    -0.851546497943E+03    0.22003E-02   -0.30926E+00  4560   0.327E+00    0.328E-01
DAV:   2    -0.851552283130E+03   -0.57852E-02   -0.67763E-02  4700   0.445E-01    0.238E-01
DAV:   3    -0.851551995567E+03    0.28756E-03   -0.71149E-04  5500   0.551E-02    0.188E-01
DAV:   4    -0.851552304507E+03   -0.30894E-03   -0.16491E-03  5380   0.807E-02    0.356E-02
DAV:   5    -0.851552323901E+03   -0.19394E-04   -0.30505E-04  5120   0.299E-02    0.270E-02
DAV:   6    -0.851552331443E+03   -0.75426E-05   -0.52658E-05  4600   0.164E-02    0.125E-02
DAV:   7    -0.851552337120E+03   -0.56771E-05   -0.15017E-05  5100   0.690E-03    0.749E-03
DAV:   8    -0.851552337637E+03   -0.51640E-06   -0.63097E-06  4260   0.679E-03
  45 F= -.85945892E+03 E0= -.85945892E+03  d E =-.337487E-02  mag=    -0.0000
quench:  g(F)=  0.000E+00 g(S)=  0.000E+00 dE (1.order)= 0.000E+00
 bond charge predicted
       N       E                     dE             d eps       ncg     rms          rms(c)
DAV:   1    -0.851547687986E+03    0.46491E-02   -0.47880E+00  4560   0.401E+00    0.406E-01
DAV:   2    -0.851556653002E+03   -0.89650E-02   -0.10500E-01  4700   0.547E-01    0.299E-01
DAV:   3    -0.851556135850E+03    0.51715E-03   -0.10910E-03  5520   0.679E-02    0.236E-01
DAV:   4    -0.851556519033E+03   -0.38318E-03   -0.30388E-03  5420   0.104E-01    0.461E-02
DAV:   5    -0.851556546905E+03   -0.27872E-04   -0.54357E-04  5020   0.383E-02    0.364E-02
DAV:   6    -0.851556557591E+03   -0.10686E-04   -0.89164E-05  4940   0.213E-02    0.169E-02
DAV:   7    -0.851556569782E+03   -0.12190E-04   -0.27361E-05  5120   0.921E-03    0.104E-02
DAV:   8    -0.851556571527E+03   -0.17456E-05   -0.13136E-05  4440   0.943E-03    0.446E-03
DAV:   9    -0.851556571577E+03   -0.49899E-07   -0.22795E-06  4220   0.359E-03
  46 F= -.85946277E+03 E0= -.85946277E+03  d E =-.385565E-02  mag=     0.0000
quench:  g(F)=  0.000E+00 g(S)=  0.000E+00 dE (1.order)= 0.000E+00
 bond charge predicted
       N       E                     dE             d eps       ncg     rms          rms(c)
DAV:   1    -0.851550417285E+03    0.61542E-02   -0.52333E+00  4560   0.431E+00    0.445E-01
DAV:   2    -0.851560527325E+03   -0.10110E-01   -0.11728E-01  4740   0.588E-01    0.323E-01
DAV:   3    -0.851560119322E+03    0.40800E-03   -0.13211E-03  5520   0.748E-02    0.253E-01
DAV:   4    -0.851560525229E+03   -0.40591E-03   -0.23609E-03  5320   0.104E-01    0.485E-02
DAV:   5    -0.851560556971E+03   -0.31742E-04   -0.49082E-04  5120   0.393E-02    0.347E-02
DAV:   6    -0.851560551659E+03    0.53114E-05   -0.10528E-04  4880   0.234E-02    0.152E-02
DAV:   7    -0.851560557303E+03   -0.56436E-05   -0.23911E-05  5280   0.874E-03    0.992E-03
DAV:   8    -0.851560557729E+03   -0.42578E-06   -0.85877E-06  4460   0.810E-03
  47 F= -.85946648E+03 E0= -.85946648E+03  d E =-.370773E-02  mag=    -0.0000
quench:  g(F)=  0.000E+00 g(S)=  0.000E+00 dE (1.order)= 0.000E+00
 bond charge predicted
       N       E                     dE             d eps       ncg     rms          rms(c)
DAV:   1    -0.851538135359E+03    0.22422E-01   -0.11331E+01  4560   0.554E+00    0.635E-01
DAV:   2    -0.851559997782E+03   -0.21862E-01   -0.25694E-01  4920   0.762E-01    0.506E-01
DAV:   3    -0.851558124377E+03    0.18734E-02   -0.26440E-03  5620   0.966E-02    0.411E-01
DAV:   4    -0.851557898317E+03    0.22606E-03   -0.12757E-02  5300   0.174E-01    0.907E-02
DAV:   5    -0.851558020318E+03   -0.12200E-03   -0.21323E-03  4900   0.623E-02    0.765E-02
DAV:   6    -0.851557989104E+03    0.31214E-04   -0.40707E-04  4960   0.363E-02    0.336E-02
DAV:   7    -0.851558018019E+03   -0.28916E-04   -0.95956E-05  5140   0.158E-02    0.235E-02
DAV:   8    -0.851558031458E+03   -0.13438E-04   -0.53340E-05  4760   0.139E-02    0.692E-03
DAV:   9    -0.851558034540E+03   -0.30819E-05   -0.79110E-06  4720   0.459E-03    0.541E-03
DAV:  10    -0.851558033984E+03    0.55546E-06   -0.26196E-06  4400   0.369E-03
  48 F= -.85946326E+03 E0= -.85946326E+03  d E =0.322371E-02  mag=     0.0000
quench:  g(F)=  0.000E+00 g(S)=  0.000E+00 dE (1.order)= 0.000E+00
 bond charge predicted
       N       E                     dE             d eps       ncg     rms          rms(c)
DAV:   1    -0.851566932516E+03   -0.88980E-02   -0.73256E-01  4820   0.109E+00    0.181E-01
DAV:   2    -0.851568659200E+03   -0.17267E-02   -0.22225E-02  4960   0.163E-01    0.173E-01
DAV:   3    -0.851568426452E+03    0.23275E-03   -0.25599E-04  5820   0.251E-02    0.149E-01
DAV:   4    -0.851568153095E+03    0.27336E-03   -0.98298E-04  5120   0.441E-02    0.506E-02
DAV:   5    -0.851568207803E+03   -0.54708E-04   -0.33383E-04  4940   0.200E-02    0.224E-02
DAV:   6    -0.851568216116E+03   -0.83128E-05   -0.35547E-05  4860   0.939E-03    0.969E-03
DAV:   7    -0.851568224931E+03   -0.88148E-05   -0.28992E-06  3540   0.328E-03    0.511E-03
DAV:   8    -0.851568224826E+03    0.10520E-06   -0.19181E-06  4080   0.281E-03
  49 F= -.85947363E+03 E0= -.85947363E+03  d E =-.103697E-01  mag=     0.0000
quench:  g(F)=  0.000E+00 g(S)=  0.000E+00 dE (1.order)= 0.000E+00
 bond charge predicted
       N       E                     dE             d eps       ncg     rms          rms(c)
DAV:   1    -0.851568334688E+03   -0.10976E-03   -0.15005E-03  4780   0.543E-02    0.733E-03
DAV:   2    -0.851568336491E+03   -0.18029E-05   -0.35682E-05  4720   0.754E-03    0.675E-03
DAV:   3    -0.851568335711E+03    0.77998E-06   -0.33136E-07  3740   0.101E-03
  50 F= -.85947373E+03 E0= -.85947373E+03  d E =-.103920E-03  mag=    -0.0000
quench:  g(F)=  0.000E+00 g(S)=  0.000E+00 dE (1.order)= 0.000E+00
 bond charge predicted
       N       E                     dE             d eps       ncg     rms          rms(c)
DAV:   1    -0.851568495581E+03   -0.15909E-03   -0.50512E-03  4660   0.102E-01    0.144E-02
DAV:   2    -0.851568499241E+03   -0.36601E-05   -0.10860E-04  4760   0.137E-02    0.126E-02
DAV:   3    -0.851568496979E+03    0.22620E-05   -0.11757E-06  3980   0.193E-03    0.103E-02
DAV:   4    -0.851568502264E+03   -0.52855E-05   -0.61614E-06  3600   0.345E-03    0.280E-03
DAV:   5    -0.851568502845E+03   -0.58093E-06   -0.11479E-06  3680   0.136E-03
  51 F= -.85947388E+03 E0= -.85947388E+03  d E =-.154259E-03  mag=    -0.0000
quench:  g(F)=  0.000E+00 g(S)=  0.000E+00 dE (1.order)= 0.000E+00
 bond charge predicted
       N       E                     dE             d eps       ncg     rms          rms(c)
DAV:   1    -0.851568651259E+03   -0.14899E-03   -0.90810E-03  4600   0.142E-01    0.184E-02
DAV:   2    -0.851568661658E+03   -0.10400E-04   -0.20395E-04  4620   0.195E-02    0.154E-02
DAV:   3    -0.851568658113E+03    0.35454E-05   -0.21581E-06  4040   0.268E-03    0.124E-02
DAV:   4    -0.851568664909E+03   -0.67966E-05   -0.92367E-06  3800   0.440E-03    0.358E-03
DAV:   5    -0.851568665884E+03   -0.97491E-06   -0.16648E-06  3730   0.173E-03
  52 F= -.85947403E+03 E0= -.85947403E+03  d E =-.146788E-03  mag=    -0.0000
quench:  g(F)=  0.000E+00 g(S)=  0.000E+00 dE (1.order)= 0.000E+00
 bond charge predicted
       N       E                     dE             d eps       ncg     rms          rms(c)
DAV:   1    -0.851568816729E+03   -0.15182E-03   -0.11497E-02  4600   0.171E-01    0.207E-02
DAV:   2    -0.851568830575E+03   -0.13847E-04   -0.24714E-04  4540   0.230E-02    0.164E-02
DAV:   3    -0.851568827239E+03    0.33365E-05   -0.25668E-06  4220   0.305E-03    0.131E-02
DAV:   4    -0.851568835630E+03   -0.83912E-05   -0.10141E-05  3920   0.492E-03    0.349E-03
DAV:   5    -0.851568836264E+03   -0.63411E-06   -0.17324E-06  3740   0.199E-03
  53 F= -.85947418E+03 E0= -.85947418E+03  d E =-.154010E-03  mag=    -0.0000
quench:  g(F)=  0.000E+00 g(S)=  0.000E+00 dE (1.order)= 0.000E+00
 bond charge predicted
       N       E                     dE             d eps       ncg     rms          rms(c)
DAV:   1    -0.851569045816E+03   -0.21019E-03   -0.13024E-02  4600   0.193E-01    0.224E-02
DAV:   2    -0.851569063461E+03   -0.17645E-04   -0.27463E-04  4520   0.258E-02    0.167E-02
DAV:   3    -0.851569060858E+03    0.26032E-05   -0.27128E-06  4360   0.328E-03    0.132E-02
DAV:   4    -0.851569069474E+03   -0.86158E-05   -0.92207E-06  4060   0.522E-03    0.305E-03
DAV:   5    -0.851569069544E+03   -0.70882E-07   -0.16438E-06  3820   0.219E-03
  54 F= -.85947440E+03 E0= -.85947440E+03  d E =-.218884E-03  mag=    -0.0000
quench:  g(F)=  0.000E+00 g(S)=  0.000E+00 dE (1.order)= 0.000E+00
 bond charge predicted
       N       E                     dE             d eps       ncg     rms          rms(c)
DAV:   1    -0.851569350426E+03   -0.28095E-03   -0.15230E-02  4560   0.216E-01    0.250E-02
DAV:   2    -0.851569373966E+03   -0.23539E-04   -0.32765E-04  4520   0.290E-02    0.180E-02
DAV:   3    -0.851569371875E+03    0.20904E-05   -0.32660E-06  4620   0.361E-03    0.142E-02
DAV:   4    -0.851569379761E+03   -0.78855E-05   -0.78156E-06  4140   0.541E-03    0.262E-03
DAV:   5    -0.851569379748E+03    0.13053E-07   -0.15234E-06  3820   0.217E-03
  55 F= -.85947470E+03 E0= -.85947470E+03  d E =-.297738E-03  mag=    -0.0000
quench:  g(F)=  0.000E+00 g(S)=  0.000E+00 dE (1.order)= 0.000E+00
 bond charge predicted
       N       E                     dE             d eps       ncg     rms          rms(c)
DAV:   1    -0.851569723734E+03   -0.34397E-03   -0.23211E-02  4560   0.270E-01    0.317E-02
DAV:   2    -0.851569762021E+03   -0.38287E-04   -0.51466E-04  4620   0.365E-02    0.227E-02
DAV:   3    -0.851569759921E+03    0.21003E-05   -0.56658E-06  5080   0.465E-03    0.177E-02
DAV:   4    -0.851569769064E+03   -0.91434E-05   -0.88628E-06  4260   0.614E-03    0.304E-03
DAV:   5    -0.851569769361E+03   -0.29640E-06   -0.20123E-06  4000   0.240E-03
  56 F= -.85947508E+03 E0= -.85947508E+03  d E =-.376111E-03  mag=    -0.0000
quench:  g(F)=  0.000E+00 g(S)=  0.000E+00 dE (1.order)= 0.000E+00
 bond charge predicted
       N       E                     dE             d eps       ncg     rms          rms(c)
DAV:   1    -0.851570144411E+03   -0.37535E-03   -0.37806E-02  4560   0.343E-01    0.405E-02
DAV:   2    -0.851570206609E+03   -0.62198E-04   -0.83646E-04  4560   0.466E-02    0.288E-02
DAV:   3    -0.851570203413E+03    0.31955E-05   -0.96659E-06  5320   0.602E-03    0.223E-02
DAV:   4    -0.851570216887E+03   -0.13474E-04   -0.14343E-05  4400   0.772E-03    0.415E-03
DAV:   5    -0.851570217700E+03   -0.81279E-06   -0.33931E-06  4400   0.302E-03
  57 F= -.85947551E+03 E0= -.85947551E+03  d E =-.428549E-03  mag=    -0.0000
quench:  g(F)=  0.000E+00 g(S)=  0.000E+00 dE (1.order)= 0.000E+00
 bond charge predicted
       N       E                     dE             d eps       ncg     rms          rms(c)
DAV:   1    -0.851570649282E+03   -0.43239E-03   -0.61726E-02  4560   0.434E-01    0.498E-02
DAV:   2    -0.851570750992E+03   -0.10171E-03   -0.13380E-03  4540   0.588E-02    0.359E-02
DAV:   3    -0.851570744750E+03    0.62427E-05   -0.14545E-05  5380   0.743E-03    0.281E-02
DAV:   4    -0.851570764545E+03   -0.19796E-04   -0.31793E-05  4500   0.107E-02    0.494E-03
DAV:   5    -0.851570765482E+03   -0.93697E-06   -0.64112E-06  5080   0.412E-03
  58 F= -.85947602E+03 E0= -.85947602E+03  d E =-.516504E-03  mag=    -0.0000
quench:  g(F)=  0.000E+00 g(S)=  0.000E+00 dE (1.order)= 0.000E+00
 bond charge predicted
       N       E                     dE             d eps       ncg     rms          rms(c)
DAV:   1    -0.851571302039E+03   -0.53749E-03   -0.10169E-01  4560   0.553E-01    0.614E-02
DAV:   2    -0.851571472293E+03   -0.17025E-03   -0.21931E-03  4560   0.750E-02    0.457E-02
DAV:   3    -0.851571459734E+03    0.12559E-04   -0.22401E-05  5500   0.934E-03    0.362E-02
DAV:   4    -0.851571488119E+03   -0.28385E-04   -0.70420E-05  4560   0.149E-02    0.660E-03
DAV:   5    -0.851571488645E+03   -0.52602E-06   -0.12644E-05  5060   0.567E-03    0.546E-03
DAV:   6    -0.851571490237E+03   -0.15922E-05   -0.16523E-06  3480   0.311E-03    0.275E-03
DAV:   7    -0.851571490487E+03   -0.25039E-06   -0.69860E-07  3760   0.154E-03
  59 F= -.85947670E+03 E0= -.85947670E+03  d E =-.679570E-03  mag=    -0.0000
quench:  g(F)=  0.000E+00 g(S)=  0.000E+00 dE (1.order)= 0.000E+00
 bond charge predicted
       N       E                     dE             d eps       ncg     rms          rms(c)
DAV:   1    -0.851572039414E+03   -0.54918E-03   -0.15605E-01  4560   0.697E-01    0.741E-02
DAV:   2    -0.851572304116E+03   -0.26470E-03   -0.33408E-03  4560   0.943E-02    0.562E-02
DAV:   3    -0.851572283117E+03    0.20999E-04   -0.35339E-05  5500   0.119E-02    0.445E-02
DAV:   4    -0.851572312754E+03   -0.29637E-04   -0.11415E-04  4680   0.189E-02    0.869E-03
DAV:   5    -0.851572314313E+03   -0.15587E-05   -0.20363E-05  5120   0.720E-03    0.678E-03
DAV:   6    -0.851572317420E+03   -0.31071E-05   -0.30788E-06  3700   0.379E-03    0.318E-03
DAV:   7    -0.851572317919E+03   -0.49893E-06   -0.64695E-07  3740   0.145E-03
  60 F= -.85947747E+03 E0= -.85947747E+03  d E =-.772574E-03  mag=    -0.0000
quench:  g(F)=  0.000E+00 g(S)=  0.000E+00 dE (1.order)= 0.000E+00
 bond charge predicted
       N       E                     dE             d eps       ncg     rms          rms(c)
DAV:   1    -0.851572918265E+03   -0.60085E-03   -0.21390E-01  4560   0.852E-01    0.866E-02
DAV:   2    -0.851573291295E+03   -0.37303E-03   -0.45996E-03  4580   0.115E-01    0.643E-02
DAV:   3    -0.851573267432E+03    0.23863E-04   -0.51540E-05  5480   0.147E-02    0.505E-02
DAV:   4    -0.851573303544E+03   -0.36112E-04   -0.12274E-04  4860   0.216E-02    0.101E-02
DAV:   5    -0.851573305959E+03   -0.24147E-05   -0.23675E-05  5120   0.838E-03    0.731E-03
DAV:   6    -0.851573308517E+03   -0.25586E-05   -0.42661E-06  4100   0.450E-03    0.337E-03
DAV:   7    -0.851573308964E+03   -0.44673E-06   -0.71449E-07  3720   0.156E-03
  61 F= -.85947841E+03 E0= -.85947841E+03  d E =-.935493E-03  mag=     0.0000
quench:  g(F)=  0.000E+00 g(S)=  0.000E+00 dE (1.order)= 0.000E+00
 bond charge predicted
       N       E                     dE             d eps       ncg     rms          rms(c)
DAV:   1    -0.851573922311E+03   -0.61379E-03   -0.30684E-01  4560   0.105E+00    0.104E-01
DAV:   2    -0.851574478598E+03   -0.55629E-03   -0.67394E-03  4560   0.143E-01    0.753E-02
DAV:   3    -0.851574450636E+03    0.27962E-04   -0.77886E-05  5480   0.182E-02    0.589E-02
DAV:   4    -0.851574497242E+03   -0.46606E-04   -0.13755E-04  5200   0.249E-02    0.115E-02
DAV:   5    -0.851574500911E+03   -0.36685E-05   -0.28506E-05  5160   0.951E-03    0.775E-03
DAV:   6    -0.851574502270E+03   -0.13590E-05   -0.47533E-06  4300   0.504E-03    0.373E-03
DAV:   7    -0.851574502716E+03   -0.44650E-06   -0.10598E-06  3720   0.195E-03
  62 F= -.85947955E+03 E0= -.85947955E+03  d E =-.113728E-02  mag=     0.0000
quench:  g(F)=  0.000E+00 g(S)=  0.000E+00 dE (1.order)= 0.000E+00
 bond charge predicted
       N       E                     dE             d eps       ncg     rms          rms(c)
DAV:   1    -0.851574988751E+03   -0.48648E-03   -0.50505E-01  4560   0.134E+00    0.131E-01
DAV:   2    -0.851575914082E+03   -0.92533E-03   -0.11130E-02  4560   0.182E-01    0.944E-02
DAV:   3    -0.851575865247E+03    0.48835E-04   -0.12730E-04  5460   0.231E-02    0.738E-02
DAV:   4    -0.851575929855E+03   -0.64608E-04   -0.23500E-04  5300   0.315E-02    0.149E-02
DAV:   5    -0.851575937317E+03   -0.74612E-05   -0.47439E-05  5160   0.119E-02    0.976E-03
DAV:   6    -0.851575939903E+03   -0.25860E-05   -0.65631E-06  4260   0.584E-03    0.481E-03
DAV:   7    -0.851575940863E+03   -0.96027E-06   -0.17358E-06  3820   0.244E-03
  63 F= -.85948090E+03 E0= -.85948090E+03  d E =-.135465E-02  mag=     0.0000
quench:  g(F)=  0.000E+00 g(S)=  0.000E+00 dE (1.order)= 0.000E+00
 bond charge predicted
       N       E                     dE             d eps       ncg     rms          rms(c)
DAV:   1    -0.851576137364E+03   -0.19746E-03   -0.80569E-01  4560   0.167E+00    0.163E-01
DAV:   2    -0.851577616705E+03   -0.14793E-02   -0.17678E-02  4620   0.227E-01    0.120E-01
DAV:   3    -0.851577525964E+03    0.90741E-04   -0.19175E-04  5560   0.284E-02    0.945E-02
DAV:   4    -0.851577616699E+03   -0.90735E-04   -0.47471E-04  5240   0.417E-02    0.183E-02
DAV:   5    -0.851577623744E+03   -0.70447E-05   -0.87439E-05  5160   0.157E-02    0.132E-02
DAV:   6    -0.851577628932E+03   -0.51880E-05   -0.11234E-05  4380   0.729E-03    0.637E-03
DAV:   7    -0.851577631133E+03   -0.22015E-05   -0.30847E-06  3900   0.316E-03    0.356E-03
DAV:   8    -0.851577631251E+03   -0.11783E-06   -0.10919E-06  3800   0.269E-03
  64 F= -.85948247E+03 E0= -.85948247E+03  d E =-.156948E-02  mag=    -0.0000
quench:  g(F)=  0.000E+00 g(S)=  0.000E+00 dE (1.order)= 0.000E+00
 bond charge predicted
       N       E                     dE             d eps       ncg     rms          rms(c)
DAV:   1    -0.851577745845E+03   -0.11471E-03   -0.10181E+00  4560   0.190E+00    0.187E-01
DAV:   2    -0.851579605032E+03   -0.18592E-02   -0.22100E-02  4640   0.257E-01    0.137E-01
DAV:   3    -0.851579506726E+03    0.98306E-04   -0.25234E-04  5480   0.329E-02    0.107E-01
DAV:   4    -0.851579623687E+03   -0.11696E-03   -0.53782E-04  5260   0.467E-02    0.212E-02
DAV:   5    -0.851579628634E+03   -0.49477E-05   -0.10165E-04  5120   0.178E-02    0.149E-02
DAV:   6    -0.851579633614E+03   -0.49802E-05   -0.19680E-05  4500   0.888E-03    0.655E-03
DAV:   7    -0.851579635192E+03   -0.15776E-05   -0.30768E-06  4200   0.309E-03    0.444E-03
DAV:   8    -0.851579635318E+03   -0.12569E-06   -0.14015E-06  3460   0.252E-03
  65 F= -.85948437E+03 E0= -.85948437E+03  d E =-.189524E-02  mag=    -0.0000
quench:  g(F)=  0.000E+00 g(S)=  0.000E+00 dE (1.order)= 0.000E+00
 bond charge predicted
       N       E                     dE             d eps       ncg     rms          rms(c)
DAV:   1    -0.851579459513E+03    0.17568E-03   -0.14326E+00  4560   0.220E+00    0.229E-01
DAV:   2    -0.851582025481E+03   -0.25660E-02   -0.30719E-02  4660   0.297E-01    0.168E-01
DAV:   3    -0.851581875184E+03    0.15030E-03   -0.36103E-04  5480   0.386E-02    0.132E-01
DAV:   4    -0.851582037071E+03   -0.16189E-03   -0.81745E-04  5260   0.556E-02    0.249E-02
DAV:   5    -0.851582043578E+03   -0.65069E-05   -0.15097E-04  5120   0.211E-02    0.181E-02
DAV:   6    -0.851582048700E+03   -0.51220E-05   -0.26368E-05  4580   0.106E-02    0.832E-03
DAV:   7    -0.851582051336E+03   -0.26362E-05   -0.57438E-06  5100   0.419E-03    0.515E-03
DAV:   8    -0.851582051454E+03   -0.11811E-06   -0.21498E-06  3680   0.342E-03
  66 F= -.85948664E+03 E0= -.85948664E+03  d E =-.227332E-02  mag=    -0.0000
quench:  g(F)=  0.000E+00 g(S)=  0.000E+00 dE (1.order)= 0.000E+00
 bond charge predicted
       N       E                     dE             d eps       ncg     rms          rms(c)
DAV:   1    -0.851580985076E+03    0.10663E-02   -0.22851E+00  4560   0.265E+00    0.293E-01
DAV:   2    -0.851585078566E+03   -0.40935E-02   -0.49076E-02  4680   0.358E-01    0.217E-01
DAV:   3    -0.851584787853E+03    0.29071E-03   -0.55645E-04  5540   0.463E-02    0.171E-01
DAV:   4    -0.851585014738E+03   -0.22688E-03   -0.16263E-03  5280   0.707E-02    0.322E-02
DAV:   5    -0.851585026902E+03   -0.12164E-04   -0.28268E-04  5060   0.266E-02    0.253E-02
DAV:   6    -0.851585034184E+03   -0.72818E-05   -0.43713E-05  4580   0.138E-02    0.120E-02
DAV:   7    -0.851585040553E+03   -0.63688E-05   -0.12857E-05  5160   0.613E-03    0.710E-03
DAV:   8    -0.851585041043E+03   -0.49071E-06   -0.60553E-06  4040   0.580E-03
  67 F= -.85948938E+03 E0= -.85948938E+03  d E =-.274393E-02  mag=    -0.0000
quench:  g(F)=  0.000E+00 g(S)=  0.000E+00 dE (1.order)= 0.000E+00
 bond charge predicted
       N       E                     dE             d eps       ncg     rms          rms(c)
DAV:   1    -0.851583191669E+03    0.18489E-02   -0.26802E+00  4560   0.297E+00    0.329E-01
DAV:   2    -0.851588087573E+03   -0.48959E-02   -0.57962E-02  4740   0.401E-01    0.241E-01
DAV:   3    -0.851587851139E+03    0.23643E-03   -0.68909E-04  5520   0.526E-02    0.188E-01
DAV:   4    -0.851588145984E+03   -0.29484E-03   -0.14382E-03  5240   0.746E-02    0.353E-02
DAV:   5    -0.851588146116E+03   -0.13236E-06   -0.27512E-04  5140   0.291E-02    0.258E-02
DAV:   6    -0.851588148872E+03   -0.27562E-05   -0.68517E-05  4740   0.161E-02    0.113E-02
DAV:   7    -0.851588151066E+03   -0.21939E-05   -0.10273E-05  5430   0.549E-03    0.796E-03
DAV:   8    -0.851588151170E+03   -0.10326E-06   -0.44150E-06  4030   0.451E-03
  68 F= -.85949230E+03 E0= -.85949230E+03  d E =-.291990E-02  mag=     0.0000
quench:  g(F)=  0.000E+00 g(S)=  0.000E+00 dE (1.order)= 0.000E+00
 bond charge predicted
       N       E                     dE             d eps       ncg     rms          rms(c)
DAV:   1    -0.851580509597E+03    0.76415E-02   -0.54531E+00  4560   0.386E+00    0.448E-01
DAV:   2    -0.851590775242E+03   -0.10266E-01   -0.12157E-01  4880   0.527E-01    0.346E-01
DAV:   3    -0.851589925315E+03    0.84993E-03   -0.12769E-03  5660   0.677E-02    0.278E-01
DAV:   4    -0.851590135693E+03   -0.21038E-03   -0.54451E-03  5420   0.116E-01    0.571E-02
DAV:   5    -0.851590177212E+03   -0.41519E-04   -0.91127E-04  4960   0.421E-02    0.480E-02
DAV:   6    -0.851590182598E+03   -0.53863E-05   -0.15043E-04  4960   0.227E-02    0.220E-02
DAV:   7    -0.851590199650E+03   -0.17052E-04   -0.42905E-05  5200   0.107E-02    0.148E-02
DAV:   8    -0.851590203546E+03   -0.38960E-05   -0.23381E-05  4380   0.941E-03    0.509E-03
DAV:   9    -0.851590204098E+03   -0.55177E-06   -0.26135E-06  3920   0.297E-03
  69 F= -.85949394E+03 E0= -.85949394E+03  d E =-.163451E-02  mag=    -0.0000
quench:  g(F)=  0.000E+00 g(S)=  0.000E+00 dE (1.order)= 0.000E+00
 bond charge predicted
       N       E                     dE             d eps       ncg     rms          rms(c)
DAV:   1    -0.851592721177E+03   -0.25176E-02   -0.16979E-01  4800   0.509E-01    0.855E-02
DAV:   2    -0.851593094462E+03   -0.37328E-03   -0.51128E-03  4860   0.773E-02    0.819E-02
DAV:   3    -0.851593035476E+03    0.58986E-04   -0.55909E-05  5640   0.120E-02    0.712E-02
DAV:   4    -0.851592997619E+03    0.37857E-04   -0.22066E-04  4760   0.201E-02    0.249E-02
DAV:   5    -0.851593018411E+03   -0.20792E-04   -0.78608E-05  4960   0.948E-03    0.113E-02
DAV:   6    -0.851593022385E+03   -0.39739E-05   -0.97207E-06  4420   0.590E-03    0.532E-03
DAV:   7    -0.851593024289E+03   -0.19038E-05   -0.85751E-07  3380   0.185E-03    0.282E-03
DAV:   8    -0.851593024262E+03    0.26936E-07   -0.47517E-07  3700   0.192E-03
  70 F= -.85949684E+03 E0= -.85949684E+03  d E =-.290324E-02  mag=    -0.0000
quench:  g(F)=  0.000E+00 g(S)=  0.000E+00 dE (1.order)= 0.000E+00
 bond charge predicted
       N       E                     dE             d eps       ncg     rms          rms(c)
DAV:   1    -0.851590739756E+03    0.22845E-02   -0.15157E-01  4860   0.587E-01    0.802E-02
DAV:   2    -0.851591092271E+03   -0.35251E-03   -0.46657E-03  4820   0.884E-02    0.753E-02
DAV:   3    -0.851591043247E+03    0.49024E-04   -0.55854E-05  5700   0.129E-02    0.652E-02
DAV:   4    -0.851591017568E+03    0.25679E-04   -0.17115E-04  4800   0.197E-02    0.235E-02
DAV:   5    -0.851591035288E+03   -0.17720E-04   -0.65942E-05  4980   0.957E-03    0.107E-02
DAV:   6    -0.851591036936E+03   -0.16482E-05   -0.92607E-06  4460   0.632E-03    0.506E-03
DAV:   7    -0.851591038353E+03   -0.14168E-05   -0.10807E-06  3420   0.204E-03    0.290E-03
DAV:   8    -0.851591038284E+03    0.68954E-07   -0.51745E-07  3680   0.203E-03
  71 F= -.85949492E+03 E0= -.85949492E+03  d E =0.191988E-02  mag=     0.0000
quench:  g(F)=  0.000E+00 g(S)=  0.000E+00 dE (1.order)= 0.000E+00
 bond charge predicted
       N       E                     dE             d eps       ncg     rms          rms(c)
DAV:   1    -0.851592038190E+03   -0.99984E-03   -0.98968E-03  4740   0.121E-01    0.199E-02
DAV:   2    -0.851592056285E+03   -0.18094E-04   -0.28181E-04  4760   0.179E-02    0.192E-02
DAV:   3    -0.851592051485E+03    0.48001E-05   -0.25643E-06  4100   0.262E-03    0.167E-02
DAV:   4    -0.851592053580E+03   -0.20951E-05   -0.16530E-05  3900   0.538E-03    0.477E-03
DAV:   5    -0.851592054527E+03   -0.94673E-06   -0.39937E-06  3940   0.212E-03
  72 F= -.85949592E+03 E0= -.85949592E+03  d E =-.994367E-03  mag=     0.0000
quench:  g(F)=  0.000E+00 g(S)=  0.000E+00 dE (1.order)= 0.000E+00
 bond charge predicted
       N       E                     dE             d eps       ncg     rms          rms(c)
DAV:   1    -0.851593132966E+03   -0.10794E-02   -0.31021E-02  4740   0.217E-01    0.356E-02
DAV:   2    -0.851593191927E+03   -0.58961E-04   -0.88370E-04  4760   0.322E-02    0.337E-02
DAV:   3    -0.851593179931E+03    0.11996E-04   -0.84558E-06  5080   0.472E-03    0.293E-02
DAV:   4    -0.851593183420E+03   -0.34881E-05   -0.46089E-05  4340   0.893E-03    0.858E-03
DAV:   5    -0.851593187162E+03   -0.37426E-05   -0.12025E-05  4180   0.364E-03    0.460E-03
DAV:   6    -0.851593187899E+03   -0.73677E-06   -0.10610E-06  3380   0.179E-03
  73 F= -.85949701E+03 E0= -.85949701E+03  d E =-.109463E-02  mag=     0.0000
quench:  g(F)=  0.000E+00 g(S)=  0.000E+00 dE (1.order)= 0.000E+00
 bond charge predicted
       N       E                     dE             d eps       ncg     rms          rms(c)
DAV:   1    -0.851593405904E+03   -0.21874E-03   -0.45627E-02  4720   0.274E-01    0.423E-02
DAV:   2    -0.851593494322E+03   -0.88417E-04   -0.12776E-03  4800   0.404E-02    0.397E-02
DAV:   3    -0.851593477678E+03    0.16644E-04   -0.12504E-05  5460   0.583E-03    0.343E-02
DAV:   4    -0.851593479341E+03   -0.16630E-05   -0.65038E-05  4440   0.107E-02    0.100E-02
DAV:   5    -0.851593484621E+03   -0.52802E-05   -0.16865E-05  4360   0.438E-03    0.536E-03
DAV:   6    -0.851593485707E+03   -0.10860E-05   -0.13849E-06  3360   0.201E-03    0.262E-03
DAV:   7    -0.851593486201E+03   -0.49410E-06   -0.26407E-07  3080   0.922E-04
  74 F= -.85949726E+03 E0= -.85949726E+03  d E =-.251174E-03  mag=     0.0000
quench:  g(F)=  0.000E+00 g(S)=  0.000E+00 dE (1.order)= 0.000E+00
 bond charge predicted
       N       E                     dE             d eps       ncg     rms          rms(c)
DAV:   1    -0.851593502184E+03   -0.16477E-04   -0.26990E-05  4700   0.937E-03    0.151E-03
DAV:   2    -0.851593502259E+03   -0.75081E-07   -0.74117E-07  3060   0.144E-03
  75 F= -.85949728E+03 E0= -.85949728E+03  d E =-.166236E-04  mag=     0.0000
quench:  g(F)=  0.000E+00 g(S)=  0.000E+00 dE (1.order)= 0.000E+00
 bond charge predicted
       N       E                     dE             d eps       ncg     rms          rms(c)
DAV:   1    -0.851593531956E+03   -0.29772E-04   -0.10751E-04  4780   0.187E-02    0.282E-03
DAV:   2    -0.851593532159E+03   -0.20306E-06   -0.30887E-06  3720   0.276E-03
  76 F= -.85949731E+03 E0= -.85949731E+03  d E =-.309506E-04  mag=    -0.0000
quench:  g(F)=  0.000E+00 g(S)=  0.000E+00 dE (1.order)= 0.000E+00
 bond charge predicted
       N       E                     dE             d eps       ncg     rms          rms(c)
DAV:   1    -0.851593571705E+03   -0.39749E-04   -0.22918E-04  4820   0.276E-02    0.464E-03
DAV:   2    -0.851593572036E+03   -0.33179E-06   -0.63600E-06  4240   0.400E-03
  77 F= -.85949735E+03 E0= -.85949735E+03  d E =-.412609E-04  mag=     0.0000
quench:  g(F)=  0.000E+00 g(S)=  0.000E+00 dE (1.order)= 0.000E+00
 bond charge predicted
       N       E                     dE             d eps       ncg     rms          rms(c)
DAV:   1    -0.851593617025E+03   -0.45320E-04   -0.38007E-04  4820   0.362E-02    0.648E-03
DAV:   2    -0.851593617507E+03   -0.48235E-06   -0.10292E-05  4740   0.519E-03    0.580E-03
DAV:   3    -0.851593617370E+03    0.13770E-06   -0.22535E-07  3080   0.924E-04
  78 F= -.85949740E+03 E0= -.85949740E+03  d E =-.469386E-04  mag=    -0.0000
quench:  g(F)=  0.000E+00 g(S)=  0.000E+00 dE (1.order)= 0.000E+00
 bond charge predicted
       N       E                     dE             d eps       ncg     rms          rms(c)
DAV:   1    -0.851593663540E+03   -0.46032E-04   -0.53115E-04  4800   0.436E-02    0.498E-03
DAV:   2    -0.851593664588E+03   -0.10484E-05   -0.13111E-05  4800   0.602E-03    0.415E-03
DAV:   3    -0.851593664522E+03    0.65716E-07   -0.13745E-07  2980   0.793E-04
  79 F= -.85949745E+03 E0= -.85949745E+03  d E =-.486537E-04  mag=     0.0000
quench:  g(F)=  0.000E+00 g(S)=  0.000E+00 dE (1.order)= 0.000E+00
 bond charge predicted
       N       E                     dE             d eps       ncg     rms          rms(c)
DAV:   1    -0.851593710251E+03   -0.45663E-04   -0.71825E-04  4680   0.517E-02    0.550E-03
DAV:   2    -0.851593711761E+03   -0.15100E-05   -0.18099E-05  4860   0.721E-03    0.444E-03
DAV:   3    -0.851593711675E+03    0.86577E-07   -0.18189E-07  3060   0.928E-04
  80 F= -.85949749E+03 E0= -.85949749E+03  d E =-.482426E-04  mag=     0.0000
quench:  g(F)=  0.000E+00 g(S)=  0.000E+00 dE (1.order)= 0.000E+00
 bond charge predicted
       N       E                     dE             d eps       ncg     rms          rms(c)
DAV:   1    -0.851593762620E+03   -0.50858E-04   -0.11256E-03  4640   0.655E-02    0.670E-03
DAV:   2    -0.851593764927E+03   -0.23070E-05   -0.27242E-05  4900   0.905E-03    0.516E-03
DAV:   3    -0.851593764837E+03    0.89487E-07   -0.26804E-07  3200   0.116E-03
  81 F= -.85949755E+03 E0= -.85949755E+03  d E =-.534875E-04  mag=     0.0000
quench:  g(F)=  0.000E+00 g(S)=  0.000E+00 dE (1.order)= 0.000E+00
 bond charge predicted
       N       E                     dE             d eps       ncg     rms          rms(c)
DAV:   1    -0.851593827686E+03   -0.62760E-04   -0.17622E-03  4580   0.823E-02    0.814E-03
DAV:   2    -0.851593831124E+03   -0.34379E-05   -0.40841E-05  4840   0.112E-02    0.595E-03
DAV:   3    -0.851593831055E+03    0.68641E-07   -0.38643E-07  3280   0.142E-03
  82 F= -.85949761E+03 E0= -.85949761E+03  d E =-.651641E-04  mag=     0.0000
quench:  g(F)=  0.000E+00 g(S)=  0.000E+00 dE (1.order)= 0.000E+00
 bond charge predicted
       N       E                     dE             d eps       ncg     rms          rms(c)
DAV:   1    -0.851593915240E+03   -0.84116E-04   -0.28131E-03  4560   0.103E-01    0.100E-02
DAV:   2    -0.851593920432E+03   -0.51915E-05   -0.63271E-05  4620   0.140E-02    0.708E-03
DAV:   3    -0.851593920324E+03    0.10736E-06   -0.57150E-07  3440   0.174E-03
  83 F= -.85949770E+03 E0= -.85949770E+03  d E =-.861530E-04  mag=    -0.0000
quench:  g(F)=  0.000E+00 g(S)=  0.000E+00 dE (1.order)= 0.000E+00
 bond charge predicted
       N       E                     dE             d eps       ncg     rms          rms(c)
DAV:   1    -0.851594035450E+03   -0.11502E-03   -0.45179E-03  4560   0.130E-01    0.125E-02
DAV:   2    -0.851594043352E+03   -0.79023E-05   -0.10005E-04  4520   0.175E-02    0.887E-03
DAV:   3    -0.851594043113E+03    0.23896E-06   -0.93769E-07  3820   0.216E-03
  84 F= -.85949782E+03 E0= -.85949782E+03  d E =-.116545E-03  mag=     0.0000
quench:  g(F)=  0.000E+00 g(S)=  0.000E+00 dE (1.order)= 0.000E+00
 bond charge predicted
       N       E                     dE             d eps       ncg     rms          rms(c)
DAV:   1    -0.851594195877E+03   -0.15252E-03   -0.73406E-03  4560   0.163E-01    0.160E-02
DAV:   2    -0.851594208047E+03   -0.12170E-04   -0.16138E-04  4520   0.219E-02    0.116E-02
DAV:   3    -0.851594207494E+03    0.55276E-06   -0.16119E-06  4340   0.273E-03
  85 F= -.85949797E+03 E0= -.85949797E+03  d E =-.154352E-03  mag=     0.0000
quench:  g(F)=  0.000E+00 g(S)=  0.000E+00 dE (1.order)= 0.000E+00
 bond charge predicted
       N       E                     dE             d eps       ncg     rms          rms(c)
DAV:   1    -0.851594395032E+03   -0.18699E-03   -0.11787E-02  4560   0.203E-01    0.205E-02
DAV:   2    -0.851594413498E+03   -0.18466E-04   -0.25771E-04  4560   0.274E-02    0.151E-02
DAV:   3    -0.851594412410E+03    0.10885E-05   -0.26546E-06  4760   0.342E-03    0.119E-02
DAV:   4    -0.851594417656E+03   -0.52465E-05   -0.58096E-06  4040   0.477E-03    0.262E-03
DAV:   5    -0.851594417982E+03   -0.32610E-06   -0.12802E-06  3760   0.186E-03
  86 F= -.85949817E+03 E0= -.85949817E+03  d E =-.196345E-03  mag=    -0.0000
quench:  g(F)=  0.000E+00 g(S)=  0.000E+00 dE (1.order)= 0.000E+00
 bond charge predicted
       N       E                     dE             d eps       ncg     rms          rms(c)
DAV:   1    -0.851594617383E+03   -0.19973E-03   -0.18237E-02  4560   0.252E-01    0.248E-02
DAV:   2    -0.851594649668E+03   -0.32285E-04   -0.42250E-04  4480   0.349E-02    0.180E-02
DAV:   3    -0.851594647181E+03    0.24865E-05   -0.44450E-06  5200   0.436E-03    0.143E-02
DAV:   4    -0.851594653535E+03   -0.63536E-05   -0.95859E-06  4240   0.621E-03    0.326E-03
DAV:   5    -0.851594654016E+03   -0.48165E-06   -0.20604E-06  3900   0.234E-03
  87 F= -.85949839E+03 E0= -.85949839E+03  d E =-.218453E-03  mag=     0.0000
quench:  g(F)=  0.000E+00 g(S)=  0.000E+00 dE (1.order)= 0.000E+00
 bond charge predicted
       N       E                     dE             d eps       ncg     rms          rms(c)
DAV:   1    -0.851594879685E+03   -0.22615E-03   -0.25570E-02  4560   0.299E-01    0.298E-02
DAV:   2    -0.851594924990E+03   -0.45305E-04   -0.58870E-04  4480   0.414E-02    0.213E-02
DAV:   3    -0.851594921940E+03    0.30505E-05   -0.63987E-06  5320   0.521E-03    0.168E-02
DAV:   4    -0.851594930584E+03   -0.86443E-05   -0.11850E-05  4300   0.722E-03    0.379E-03
DAV:   5    -0.851594931266E+03   -0.68184E-06   -0.27152E-06  4100   0.274E-03
  88 F= -.85949864E+03 E0= -.85949864E+03  d E =-.257506E-03  mag=    -0.0000
quench:  g(F)=  0.000E+00 g(S)=  0.000E+00 dE (1.order)= 0.000E+00
 bond charge predicted
       N       E                     dE             d eps       ncg     rms          rms(c)
DAV:   1    -0.851595200217E+03   -0.26963E-03   -0.34263E-02  4560   0.348E-01    0.353E-02
DAV:   2    -0.851595261550E+03   -0.61333E-04   -0.78280E-04  4480   0.480E-02    0.248E-02
DAV:   3    -0.851595258086E+03    0.34639E-05   -0.88279E-06  5260   0.611E-03    0.195E-02
DAV:   4    -0.851595268601E+03   -0.10515E-04   -0.13840E-05  4360   0.817E-03    0.431E-03
DAV:   5    -0.851595269404E+03   -0.80387E-06   -0.33963E-06  4600   0.313E-03
  89 F= -.85949896E+03 E0= -.85949896E+03  d E =-.317024E-03  mag=    -0.0000
quench:  g(F)=  0.000E+00 g(S)=  0.000E+00 dE (1.order)= 0.000E+00
 bond charge predicted
       N       E                     dE             d eps       ncg     rms          rms(c)
DAV:   1    -0.851595592980E+03   -0.32438E-03   -0.45319E-02  4560   0.399E-01    0.417E-02
DAV:   2    -0.851595673588E+03   -0.80608E-04   -0.10227E-03  4480   0.548E-02    0.294E-02
DAV:   3    -0.851595669631E+03    0.39568E-05   -0.12018E-05  5340   0.711E-03    0.230E-02
DAV:   4    -0.851595682277E+03   -0.12646E-04   -0.17909E-05  4420   0.941E-03    0.491E-03
DAV:   5    -0.851595683137E+03   -0.86024E-06   -0.43938E-06  4860   0.362E-03
  90 F= -.85949935E+03 E0= -.85949935E+03  d E =-.389820E-03  mag=     0.0000
quench:  g(F)=  0.000E+00 g(S)=  0.000E+00 dE (1.order)= 0.000E+00
 bond charge predicted
       N       E                     dE             d eps       ncg     rms          rms(c)
DAV:   1    -0.851596046176E+03   -0.36390E-03   -0.63463E-02  4560   0.467E-01    0.499E-02
DAV:   2    -0.851596156614E+03   -0.11044E-03   -0.14050E-03  4480   0.637E-02    0.355E-02
DAV:   3    -0.851596150830E+03    0.57843E-05   -0.16673E-05  5360   0.835E-03    0.278E-02
DAV:   4    -0.851596168430E+03   -0.17600E-04   -0.27782E-05  4500   0.114E-02    0.570E-03
DAV:   5    -0.851596169356E+03   -0.92618E-06   -0.63440E-06  5160   0.439E-03
  91 F= -.85949981E+03 E0= -.85949981E+03  d E =-.455931E-03  mag=    -0.0000
quench:  g(F)=  0.000E+00 g(S)=  0.000E+00 dE (1.order)= 0.000E+00
 bond charge predicted
       N       E                     dE             d eps       ncg     rms          rms(c)
DAV:   1    -0.851596585323E+03   -0.41689E-03   -0.95376E-02  4560   0.561E-01    0.608E-02
DAV:   2    -0.851596745898E+03   -0.16058E-03   -0.20682E-03  4480   0.760E-02    0.439E-02
DAV:   3    -0.851596736065E+03    0.98332E-05   -0.24121E-05  5380   0.998E-03    0.343E-02
DAV:   4    -0.851596763740E+03   -0.27675E-04   -0.50603E-05  4600   0.144E-02    0.695E-03
DAV:   5    -0.851596764750E+03   -0.10096E-05   -0.10397E-05  5160   0.559E-03    0.533E-03
DAV:   6    -0.851596764887E+03   -0.13696E-06   -0.22009E-06  3600   0.353E-03
  92 F= -.85950036E+03 E0= -.85950036E+03  d E =-.552159E-03  mag=     0.0000
quench:  g(F)=  0.000E+00 g(S)=  0.000E+00 dE (1.order)= 0.000E+00
 bond charge predicted
       N       E                     dE             d eps       ncg     rms          rms(c)
DAV:   1    -0.851597215950E+03   -0.45120E-03   -0.14892E-01  4560   0.684E-01    0.748E-02
DAV:   2    -0.851597463807E+03   -0.24786E-03   -0.31921E-03  4520   0.923E-02    0.551E-02
DAV:   3    -0.851597444949E+03    0.18859E-04   -0.36175E-05  5480   0.121E-02    0.433E-02
DAV:   4    -0.851597484454E+03   -0.39506E-04   -0.97355E-05  4680   0.186E-02    0.856E-03
DAV:   5    -0.851597485777E+03   -0.13221E-05   -0.18427E-05  5120   0.718E-03    0.671E-03
DAV:   6    -0.851597486468E+03   -0.69097E-06   -0.31887E-06  3860   0.412E-03
  93 F= -.85950102E+03 E0= -.85950102E+03  d E =-.659219E-03  mag=     0.0000
quench:  g(F)=  0.000E+00 g(S)=  0.000E+00 dE (1.order)= 0.000E+00
 bond charge predicted
       N       E                     dE             d eps       ncg     rms          rms(c)
DAV:   1    -0.851597938582E+03   -0.45281E-03   -0.21412E-01  4560   0.816E-01    0.902E-02
DAV:   2    -0.851598295354E+03   -0.35677E-03   -0.45622E-03  4540   0.110E-01    0.665E-02
DAV:   3    -0.851598269124E+03    0.26230E-04   -0.52125E-05  5460   0.144E-02    0.522E-02
DAV:   4    -0.851598320828E+03   -0.51704E-04   -0.14307E-04  4900   0.222E-02    0.100E-02
DAV:   5    -0.851598322300E+03   -0.14718E-05   -0.26420E-05  5060   0.861E-03    0.779E-03
DAV:   6    -0.851598323307E+03   -0.10072E-05   -0.43186E-06  4060   0.471E-03    0.371E-03
DAV:   7    -0.851598323572E+03   -0.26515E-06   -0.11041E-06  3920   0.193E-03
  94 F= -.85950178E+03 E0= -.85950178E+03  d E =-.760767E-03  mag=     0.0000
quench:  g(F)=  0.000E+00 g(S)=  0.000E+00 dE (1.order)= 0.000E+00
 bond charge predicted
       N       E                     dE             d eps       ncg     rms          rms(c)
DAV:   1    -0.851598827240E+03   -0.50393E-03   -0.28066E-01  4560   0.945E-01    0.105E-01
DAV:   2    -0.851599292279E+03   -0.46504E-03   -0.59115E-03  4560   0.127E-01    0.767E-02
DAV:   3    -0.851599260840E+03    0.31439E-04   -0.71708E-05  5460   0.169E-02    0.596E-02
DAV:   4    -0.851599319524E+03   -0.58684E-04   -0.16579E-04  5280   0.246E-02    0.112E-02
DAV:   5    -0.851599321585E+03   -0.20605E-05   -0.30780E-05  5100   0.944E-03    0.819E-03
DAV:   6    -0.851599322394E+03   -0.80963E-06   -0.50531E-06  4300   0.480E-03
  95 F= -.85950269E+03 E0= -.85950269E+03  d E =-.912785E-03  mag=    -0.0000
quench:  g(F)=  0.000E+00 g(S)=  0.000E+00 dE (1.order)= 0.000E+00
 bond charge predicted
       N       E                     dE             d eps       ncg     rms          rms(c)
DAV:   1    -0.851599819013E+03   -0.49743E-03   -0.39590E-01  4560   0.113E+00    0.124E-01
DAV:   2    -0.851600475682E+03   -0.65667E-03   -0.82917E-03  4560   0.151E-01    0.916E-02
DAV:   3    -0.851600434137E+03    0.41546E-04   -0.99984E-05  5440   0.201E-02    0.711E-02
DAV:   4    -0.851600516793E+03   -0.82656E-04   -0.23690E-04  5300   0.295E-02    0.134E-02
DAV:   5    -0.851600517879E+03   -0.10865E-05   -0.43155E-05  5140   0.114E-02    0.977E-03
DAV:   6    -0.851600519421E+03   -0.15415E-05   -0.82597E-06  4340   0.586E-03    0.449E-03
DAV:   7    -0.851600519759E+03   -0.33826E-06   -0.14258E-06  4040   0.209E-03
  96 F= -.85950377E+03 E0= -.85950377E+03  d E =-.108157E-02  mag=    -0.0000
quench:  g(F)=  0.000E+00 g(S)=  0.000E+00 dE (1.order)= 0.000E+00
 bond charge predicted
       N       E                     dE             d eps       ncg     rms          rms(c)
DAV:   1    -0.851600881497E+03   -0.36208E-03   -0.60164E-01  4560   0.138E+00    0.150E-01
DAV:   2    -0.851601895361E+03   -0.10139E-02   -0.12644E-02  4600   0.185E-01    0.112E-01
DAV:   3    -0.851601821599E+03    0.73762E-04   -0.14789E-04  5580   0.245E-02    0.879E-02
DAV:   4    -0.851601925337E+03   -0.10374E-03   -0.40948E-04  5240   0.369E-02    0.169E-02
DAV:   5    -0.851601928836E+03   -0.34983E-05   -0.71750E-05  5110   0.141E-02    0.128E-02
DAV:   6    -0.851601932425E+03   -0.35893E-05   -0.12946E-05  4360   0.699E-03    0.573E-03
DAV:   7    -0.851601933177E+03   -0.75207E-06   -0.23760E-06  4040   0.264E-03
  97 F= -.85950502E+03 E0= -.85950502E+03  d E =-.124923E-02  mag=    -0.0000
quench:  g(F)=  0.000E+00 g(S)=  0.000E+00 dE (1.order)= 0.000E+00
 bond charge predicted
       N       E                     dE             d eps       ncg     rms          rms(c)
[...]
DAV:   1    -0.851628620056E+03   -0.11303E-03   -0.19047E-01  4560   0.814E-01    0.819E-02
DAV:   2    -0.851628971023E+03   -0.35097E-03   -0.42300E-03  4480   0.111E-01    0.594E-02
DAV:   3    -0.851628952157E+03    0.18865E-04   -0.47020E-05  5600   0.141E-02    0.467E-02
DAV:   4    -0.851628987884E+03   -0.35727E-04   -0.97486E-05  4920   0.200E-02    0.904E-03
DAV:   5    -0.851628989133E+03   -0.12486E-05   -0.19511E-05  5170   0.777E-03    0.642E-03
DAV:   6    -0.851628989613E+03   -0.47978E-06   -0.33163E-06  4040   0.358E-03
 174 F= -.85952766E+03 E0= -.85952766E+03  d E =-.384930E-03  mag=     0.0000
quench:  g(F)=  0.000E+00 g(S)=  0.000E+00 dE (1.order)= 0.000E+00
 bond charge predicted
       N       E                     dE             d eps       ncg     rms          rms(c)
DAV:   1    -0.851628987226E+03    0.19069E-05   -0.29549E-01  4560   0.101E+00    0.101E-01
DAV:   2    -0.851629539566E+03   -0.55234E-03   -0.66115E-03  4500   0.139E-01    0.731E-02
DAV:   3    -0.851629512423E+03    0.27143E-04   -0.72504E-05  5540   0.176E-02    0.576E-02
DAV:   4    -0.851629560105E+03   -0.47682E-04   -0.15128E-04  5020   0.249E-02    0.115E-02
DAV:   5    -0.851629563539E+03   -0.34340E-05   -0.30650E-05  5180   0.953E-03    0.837E-03
DAV:   6    -0.851629564093E+03   -0.55398E-06   -0.50877E-06  4220   0.472E-03
 175 F= -.85952812E+03 E0= -.85952812E+03  d E =-.463946E-03  mag=    -0.0000
quench:  g(F)=  0.000E+00 g(S)=  0.000E+00 dE (1.order)= 0.000E+00
 bond charge predicted
       N       E                     dE             d eps       ncg     rms          rms(c)
DAV:   1    -0.851629415113E+03    0.14843E-03   -0.40102E-01  4560   0.119E+00    0.120E-01
DAV:   2    -0.851630170938E+03   -0.75582E-03   -0.90185E-03  4520   0.164E-01    0.857E-02
DAV:   3    -0.851630137503E+03    0.33434E-04   -0.10441E-04  5520   0.211E-02    0.674E-02
DAV:   4    -0.851630195582E+03   -0.58079E-04   -0.18168E-04  5140   0.286E-02    0.140E-02
DAV:   5    -0.851630201494E+03   -0.59124E-05   -0.39238E-05  5120   0.109E-02    0.982E-03
DAV:   6    -0.851630201398E+03    0.96428E-07   -0.73743E-06  4320   0.602E-03
 176 F= -.85952865E+03 E0= -.85952865E+03  d E =-.523403E-03  mag=    -0.0000
quench:  g(F)=  0.000E+00 g(S)=  0.000E+00 dE (1.order)= 0.000E+00
 bond charge predicted
       N       E                     dE             d eps       ncg     rms          rms(c)
DAV:   1    -0.851629688669E+03    0.51283E-03   -0.60287E-01  4560   0.144E+00    0.144E-01
DAV:   2    -0.851630830328E+03   -0.11417E-02   -0.13541E-02  4560   0.198E-01    0.106E-01
DAV:   3    -0.851630769690E+03    0.60638E-04   -0.15614E-04  5600   0.256E-02    0.834E-02
DAV:   4    -0.851630843876E+03   -0.74186E-04   -0.34443E-04  5220   0.371E-02    0.178E-02
DAV:   5    -0.851630851612E+03   -0.77365E-05   -0.68386E-05  5200   0.142E-02    0.129E-02
DAV:   6    -0.851630853571E+03   -0.19584E-05   -0.13106E-05  4360   0.757E-03    0.561E-03
DAV:   7    -0.851630854297E+03   -0.72593E-06   -0.22144E-06  4120   0.269E-03
 177 F= -.85952915E+03 E0= -.85952915E+03  d E =-.506804E-03  mag=    -0.0000
quench:  g(F)=  0.000E+00 g(S)=  0.000E+00 dE (1.order)= 0.000E+00
 bond charge predicted
       N       E                     dE             d eps       ncg     rms          rms(c)
DAV:   1    -0.851629673901E+03    0.11797E-02   -0.72845E-01  4560   0.165E+00    0.163E-01
DAV:   2    -0.851631073563E+03   -0.13997E-02   -0.16696E-02  4720   0.228E-01    0.121E-01
DAV:   3    -0.851630998674E+03    0.74889E-04   -0.24749E-04  5720   0.318E-02    0.946E-02
DAV:   4    -0.851631052377E+03   -0.53703E-04   -0.32890E-04  5000   0.399E-02    0.246E-02
DAV:   5    -0.851631068117E+03   -0.15741E-04   -0.83542E-05  5120   0.160E-02    0.141E-02
DAV:   6    -0.851631068039E+03    0.78726E-07   -0.15218E-05  4800   0.740E-03    0.607E-03
DAV:   7    -0.851631068573E+03   -0.53438E-06   -0.20666E-06  3910   0.275E-03
 178 F= -.85952924E+03 E0= -.85952924E+03  d E =-.877200E-04  mag=    -0.0000
quench:  g(F)=  0.000E+00 g(S)=  0.000E+00 dE (1.order)= 0.000E+00
 bond charge predicted
       N       E                     dE             d eps       ncg     rms          rms(c)
DAV:   1    -0.851631666217E+03   -0.59818E-03   -0.34799E-02  4640   0.359E-01    0.410E-02
DAV:   2    -0.851631728266E+03   -0.62050E-04   -0.91098E-04  5000   0.525E-02    0.373E-02
DAV:   3    -0.851631712854E+03    0.15412E-04   -0.30666E-05  6060   0.101E-02    0.299E-02
DAV:   4    -0.851631702524E+03    0.10330E-04   -0.35086E-05  4640   0.120E-02    0.128E-02
DAV:   5    -0.851631703659E+03   -0.11352E-05   -0.11306E-05  4700   0.578E-03    0.511E-03
DAV:   6    -0.851631704095E+03   -0.43520E-06   -0.80712E-07  3000   0.183E-03
 179 F= -.85952985E+03 E0= -.85952985E+03  d E =-.614046E-03  mag=     0.0000
quench:  g(F)=  0.000E+00 g(S)=  0.000E+00 dE (1.order)= 0.000E+00
 bond charge predicted
       N       E                     dE             d eps       ncg     rms          rms(c)
DAV:   1    -0.851631712076E+03   -0.84161E-05   -0.50559E-05  4660   0.145E-02    0.208E-03
DAV:   2    -0.851631712163E+03   -0.87086E-07   -0.11926E-06  3300   0.215E-03
 180 F= -.85952986E+03 E0= -.85952986E+03  d E =-.692586E-05  mag=     0.0000
quench:  g(F)=  0.000E+00 g(S)=  0.000E+00 dE (1.order)= 0.000E+00
 bond charge predicted
       N       E                     dE             d eps       ncg     rms          rms(c)
DAV:   1    -0.851631726840E+03   -0.14764E-04   -0.19144E-04  4620   0.282E-02    0.364E-03
DAV:   2    -0.851631727155E+03   -0.31509E-06   -0.43706E-06  5140   0.394E-03
 181 F= -.85952987E+03 E0= -.85952987E+03  d E =-.126057E-04  mag=    -0.0000
quench:  g(F)=  0.000E+00 g(S)=  0.000E+00 dE (1.order)= 0.000E+00
 bond charge predicted
       N       E                     dE             d eps       ncg     rms          rms(c)
DAV:   1    -0.851631746039E+03   -0.19199E-04   -0.40246E-04  4580   0.407E-02    0.590E-03
DAV:   2    -0.851631746616E+03   -0.57657E-06   -0.88348E-06  5340   0.559E-03
 182 F= -.85952989E+03 E0= -.85952989E+03  d E =-.158420E-04  mag=     0.0000
quench:  g(F)=  0.000E+00 g(S)=  0.000E+00 dE (1.order)= 0.000E+00
 bond charge predicted
       N       E                     dE             d eps       ncg     rms          rms(c)
DAV:   1    -0.851631769183E+03   -0.23144E-04   -0.61201E-04  4580   0.499E-02    0.780E-03
DAV:   2    -0.851631769888E+03   -0.70436E-06   -0.12518E-05  5460   0.668E-03    0.645E-03
DAV:   3    -0.851631769793E+03    0.94718E-07   -0.39963E-07  2980   0.157E-03
 183 F= -.85952991E+03 E0= -.85952991E+03  d E =-.179964E-04  mag=     0.0000
quench:  g(F)=  0.000E+00 g(S)=  0.000E+00 dE (1.order)= 0.000E+00
 bond charge predicted
       N       E                     dE             d eps       ncg     rms          rms(c)
DAV:   1    -0.851631796793E+03   -0.26905E-04   -0.84050E-04  4580   0.580E-02    0.611E-03
DAV:   2    -0.851631798049E+03   -0.12562E-05   -0.16073E-05  5100   0.750E-03    0.489E-03
DAV:   3    -0.851631798002E+03    0.46806E-07   -0.25556E-07  3100   0.121E-03
 184 F= -.85952993E+03 E0= -.85952993E+03  d E =-.214955E-04  mag=    -0.0000
quench:  g(F)=  0.000E+00 g(S)=  0.000E+00 dE (1.order)= 0.000E+00
 bond charge predicted
       N       E                     dE             d eps       ncg     rms          rms(c)
DAV:   1    -0.851631829307E+03   -0.31258E-04   -0.11224E-03  4580   0.665E-02    0.681E-03
DAV:   2    -0.851631830914E+03   -0.16071E-05   -0.21280E-05  4840   0.861E-03    0.549E-03
DAV:   3    -0.851631830822E+03    0.92150E-07   -0.35270E-07  3440   0.140E-03
 185 F= -.85952995E+03 E0= -.85952995E+03  d E =-.245983E-04  mag=    -0.0000
quench:  g(F)=  0.000E+00 g(S)=  0.000E+00 dE (1.order)= 0.000E+00
 bond charge predicted
       N       E                     dE             d eps       ncg     rms          rms(c)
DAV:   1    -0.851631869222E+03   -0.38308E-04   -0.17807E-03  4580   0.831E-02    0.850E-03
DAV:   2    -0.851631871663E+03   -0.24410E-05   -0.33273E-05  4740   0.107E-02    0.685E-03
DAV:   3    -0.851631871490E+03    0.17280E-06   -0.55930E-07  3600   0.174E-03
 186 F= -.85952998E+03 E0= -.85952998E+03  d E =-.298337E-04  mag=     0.0000
quench:  g(F)=  0.000E+00 g(S)=  0.000E+00 dE (1.order)= 0.000E+00
 bond charge predicted
       N       E                     dE             d eps       ncg     rms          rms(c)
DAV:   1    -0.851631917567E+03   -0.45904E-04   -0.27145E-03  4580   0.102E-01    0.105E-02
DAV:   2    -0.851631921166E+03   -0.35988E-05   -0.49950E-05  4620   0.131E-02    0.845E-03
DAV:   3    -0.851631920882E+03    0.28350E-06   -0.85404E-07  3800   0.211E-03
 187 F= -.85953002E+03 E0= -.85953002E+03  d E =-.356327E-04  mag=    -0.0000
quench:  g(F)=  0.000E+00 g(S)=  0.000E+00 dE (1.order)= 0.000E+00
 bond charge predicted
       N       E                     dE             d eps       ncg     rms          rms(c)
DAV:   1    -0.851631976938E+03   -0.55773E-04   -0.40304E-03  4580   0.123E-01    0.128E-02
DAV:   2    -0.851631982174E+03   -0.52358E-05   -0.73270E-05  4600   0.158E-02    0.103E-02
DAV:   3    -0.851631981772E+03    0.40219E-06   -0.12818E-06  4080   0.252E-03
 188 F= -.85953006E+03 E0= -.85953006E+03  d E =-.435219E-04  mag=    -0.0000
quench:  g(F)=  0.000E+00 g(S)=  0.000E+00 dE (1.order)= 0.000E+00
 bond charge predicted
       N       E                     dE             d eps       ncg     rms          rms(c)
DAV:   1    -0.851632049785E+03   -0.67611E-04   -0.58260E-03  4580   0.147E-01    0.154E-02
DAV:   2    -0.851632057219E+03   -0.74339E-05   -0.10462E-04  4580   0.187E-02    0.124E-02
DAV:   3    -0.851632056651E+03    0.56800E-06   -0.18780E-06  4360   0.299E-03
 189 F= -.85953012E+03 E0= -.85953012E+03  d E =-.534215E-04  mag=     0.0000
quench:  g(F)=  0.000E+00 g(S)=  0.000E+00 dE (1.order)= 0.000E+00
 bond charge predicted
       N       E                     dE             d eps       ncg     rms          rms(c)
DAV:   1    -0.851632141015E+03   -0.83796E-04   -0.83346E-03  4580   0.175E-01    0.185E-02
DAV:   2    -0.851632151199E+03   -0.10184E-04   -0.14639E-04  4600   0.220E-02    0.150E-02
DAV:   3    -0.851632150324E+03    0.87542E-06   -0.27342E-06  4740   0.351E-03
 190 F= -.85953018E+03 E0= -.85953018E+03  d E =-.673888E-04  mag=    -0.0000
quench:  g(F)=  0.000E+00 g(S)=  0.000E+00 dE (1.order)= 0.000E+00
 bond charge predicted
       N       E                     dE             d eps       ncg     rms          rms(c)
DAV:   1    -0.851632251932E+03   -0.10073E-03   -0.12494E-02  4540   0.211E-01    0.227E-02
DAV:   2    -0.851632266805E+03   -0.14873E-04   -0.21780E-04  4600   0.266E-02    0.185E-02
DAV:   3    -0.851632265352E+03    0.14529E-05   -0.41051E-06  5160   0.422E-03    0.139E-02
DAV:   4    -0.851632269270E+03   -0.39173E-05   -0.73619E-06  4360   0.560E-03    0.272E-03
DAV:   5    -0.851632269347E+03   -0.77031E-07   -0.16786E-06  3840   0.228E-03
 191 F= -.85953027E+03 E0= -.85953027E+03  d E =-.859992E-04  mag=    -0.0000
quench:  g(F)=  0.000E+00 g(S)=  0.000E+00 dE (1.order)= 0.000E+00
 bond charge predicted
       N       E                     dE             d eps       ncg     rms          rms(c)
DAV:   1    -0.851632388778E+03   -0.11951E-03   -0.18351E-02  4560   0.253E-01    0.266E-02
DAV:   2    -0.851632412118E+03   -0.23340E-04   -0.33524E-04  4600   0.327E-02    0.217E-02
DAV:   3    -0.851632408612E+03    0.35055E-05   -0.64205E-06  5360   0.528E-03    0.163E-02
DAV:   4    -0.851632412864E+03   -0.42520E-05   -0.12789E-05  4440   0.725E-03    0.353E-03
DAV:   5    -0.851632413010E+03   -0.14570E-06   -0.27838E-06  4160   0.294E-03
 192 F= -.85953037E+03 E0= -.85953037E+03  d E =-.104272E-03  mag=    -0.0000
quench:  g(F)=  0.000E+00 g(S)=  0.000E+00 dE (1.order)= 0.000E+00
 bond charge predicted
       N       E                     dE             d eps       ncg     rms          rms(c)
DAV:   1    -0.851632553283E+03   -0.14042E-03   -0.26594E-02  4560   0.301E-01    0.323E-02
DAV:   2    -0.851632585923E+03   -0.32639E-04   -0.48030E-04  4580   0.386E-02    0.262E-02
DAV:   3    -0.851632580730E+03    0.51930E-05   -0.92187E-06  5380   0.629E-03    0.197E-02
DAV:   4    -0.851632587511E+03   -0.67816E-05   -0.18558E-05  4440   0.863E-03    0.415E-03
DAV:   5    -0.851632587686E+03   -0.17470E-06   -0.40845E-06  4680   0.353E-03
 193 F= -.85953050E+03 E0= -.85953050E+03  d E =-.126823E-03  mag=     0.0000
quench:  g(F)=  0.000E+00 g(S)=  0.000E+00 dE (1.order)= 0.000E+00
 bond charge predicted
       N       E                     dE             d eps       ncg     rms          rms(c)
DAV:   1    -0.851632751278E+03   -0.16377E-03   -0.38306E-02  4560   0.361E-01    0.390E-02
DAV:   2    -0.851632797836E+03   -0.46558E-04   -0.69195E-04  4560   0.464E-02    0.318E-02
DAV:   3    -0.851632790636E+03    0.71999E-05   -0.13442E-05  5540   0.762E-03    0.239E-02
DAV:   4    -0.851632800206E+03   -0.95700E-05   -0.26536E-05  4440   0.104E-02    0.506E-03
DAV:   5    -0.851632800505E+03   -0.29815E-06   -0.59428E-06  5060   0.425E-03
 194 F= -.85953066E+03 E0= -.85953066E+03  d E =-.156944E-03  mag=    -0.0000
quench:  g(F)=  0.000E+00 g(S)=  0.000E+00 dE (1.order)= 0.000E+00
 bond charge predicted
       N       E                     dE             d eps       ncg     rms          rms(c)
DAV:   1    -0.851632975419E+03   -0.17521E-03   -0.55799E-02  4560   0.437E-01    0.474E-02
DAV:   2    -0.851633044062E+03   -0.68643E-04   -0.10146E-03  4560   0.567E-02    0.386E-02
DAV:   3    -0.851633033801E+03    0.10260E-04   -0.20118E-05  5540   0.935E-03    0.289E-02
DAV:   4    -0.851633046581E+03   -0.12779E-04   -0.38215E-05  4520   0.125E-02    0.623E-03
DAV:   5    -0.851633047195E+03   -0.61400E-06   -0.83693E-06  5120   0.503E-03
 195 F= -.85953084E+03 E0= -.85953084E+03  d E =-.184020E-03  mag=     0.0000
quench:  g(F)=  0.000E+00 g(S)=  0.000E+00 dE (1.order)= 0.000E+00
 bond charge predicted
       N       E                     dE             d eps       ncg     rms          rms(c)
DAV:   1    -0.851633234457E+03   -0.18788E-03   -0.82795E-02  4560   0.535E-01    0.571E-02
DAV:   2    -0.851633339412E+03   -0.10496E-03   -0.15247E-03  4540   0.696E-02    0.465E-02
DAV:   3    -0.851633324965E+03    0.14447E-04   -0.29476E-05  5520   0.113E-02    0.350E-02
DAV:   4    -0.851633342856E+03   -0.17891E-04   -0.57282E-05  4800   0.153E-02    0.757E-03
DAV:   5    -0.851633343736E+03   -0.87948E-06   -0.12125E-05  5120   0.606E-03    0.468E-03
DAV:   6    -0.851633344020E+03   -0.28394E-06   -0.17415E-06  3580   0.267E-03
 196 F= -.85953106E+03 E0= -.85953106E+03  d E =-.221743E-03  mag=     0.0000
quench:  g(F)=  0.000E+00 g(S)=  0.000E+00 dE (1.order)= 0.000E+00
 bond charge predicted
       N       E                     dE             d eps       ncg     rms          rms(c)
DAV:   1    -0.851633523700E+03   -0.17996E-03   -0.12452E-01  4560   0.662E-01    0.689E-02
DAV:   2    -0.851633690707E+03   -0.16701E-03   -0.23482E-03  4500   0.869E-02    0.557E-02
DAV:   3    -0.851633668893E+03    0.21813E-04   -0.43894E-05  5480   0.138E-02    0.421E-02
DAV:   4    -0.851633692018E+03   -0.23124E-04   -0.84482E-05  5000   0.187E-02    0.917E-03
DAV:   5    -0.851633693485E+03   -0.14675E-05   -0.17504E-05  5120   0.730E-03    0.561E-03
DAV:   6    -0.851633693894E+03   -0.40844E-06   -0.25235E-06  4000   0.327E-03
 197 F= -.85953133E+03 E0= -.85953133E+03  d E =-.263117E-03  mag=     0.0000
quench:  g(F)=  0.000E+00 g(S)=  0.000E+00 dE (1.order)= 0.000E+00
 bond charge predicted
       N       E                     dE             d eps       ncg     rms          rms(c)
DAV:   1    -0.851633805995E+03   -0.11251E-03   -0.18439E-01  4560   0.817E-01    0.835E-02
DAV:   2    -0.851634069060E+03   -0.26307E-03   -0.35896E-03  4500   0.109E-01    0.667E-02
DAV:   3    -0.851634040234E+03    0.28826E-04   -0.66111E-05  5720   0.170E-02    0.507E-02
DAV:   4    -0.851634068398E+03   -0.28163E-04   -0.11530E-04  5040   0.226E-02    0.115E-02
DAV:   5    -0.851634071321E+03   -0.29237E-05   -0.24783E-05  5160   0.867E-03    0.704E-03
DAV:   6    -0.851634071633E+03   -0.31196E-06   -0.41148E-06  4220   0.432E-03
 198 F= -.85953161E+03 E0= -.85953161E+03  d E =-.284029E-03  mag=     0.0000
quench:  g(F)=  0.000E+00 g(S)=  0.000E+00 dE (1.order)= 0.000E+00
 bond charge predicted
       N       E                     dE             d eps       ncg     rms          rms(c)
DAV:   1    -0.851634029833E+03    0.41489E-04   -0.28249E-01  4560   0.101E+00    0.102E-01
DAV:   2    -0.851634452715E+03   -0.42288E-03   -0.56661E-03  4520   0.135E-01    0.818E-02
DAV:   3    -0.851634406809E+03    0.45906E-04   -0.10374E-04  5640   0.210E-02    0.628E-02
DAV:   4    -0.851634440201E+03   -0.33392E-04   -0.18774E-04  5160   0.284E-02    0.149E-02
DAV:   5    -0.851634446533E+03   -0.63320E-05   -0.40058E-05  5120   0.109E-02    0.904E-03
DAV:   6    -0.851634447762E+03   -0.12297E-05   -0.59330E-06  4280   0.519E-03    0.404E-03
DAV:   7    -0.851634448068E+03   -0.30547E-06   -0.10793E-06  3600   0.196E-03
 199 F= -.85953188E+03 E0= -.85953188E+03  d E =-.265953E-03  mag=     0.0000
quench:  g(F)=  0.000E+00 g(S)=  0.000E+00 dE (1.order)= 0.000E+00
 bond charge predicted
       N       E                     dE             d eps       ncg     rms          rms(c)
DAV:   1    -0.851633682767E+03    0.76500E-03   -0.42172E-01  4540   0.128E+00    0.127E-01
DAV:   2    -0.851634377145E+03   -0.69438E-03   -0.91213E-03  4680   0.177E-01    0.104E-01
DAV:   3    -0.851634299891E+03    0.77254E-04   -0.22268E-04  5940   0.297E-02    0.803E-02
DAV:   4    -0.851634299110E+03    0.78076E-06   -0.24907E-04  4840   0.348E-02    0.252E-02
DAV:   5    -0.851634314178E+03   -0.15068E-04   -0.69189E-05  5080   0.144E-02    0.132E-02
DAV:   6    -0.851634314810E+03   -0.63207E-06   -0.11825E-05  4680   0.697E-03    0.548E-03
DAV:   7    -0.851634315257E+03   -0.44667E-06   -0.14973E-06  3720   0.248E-03
 200 F= -.85953164E+03 E0= -.85953164E+03  d E =0.235201E-03  mag=    -0.0000
quench:  g(F)=  0.000E+00 g(S)=  0.000E+00 dE (1.order)= 0.000E+00
 bond charge predicted
       N       E                     dE             d eps       ncg     rms          rms(c)
DAV:   1    -0.851635049592E+03   -0.73478E-03   -0.48843E-02  4560   0.447E-01    0.501E-02
DAV:   2    -0.851635132736E+03   -0.83143E-04   -0.12438E-03  5420   0.654E-02    0.449E-02
DAV:   3    -0.851635108728E+03    0.24008E-04   -0.62563E-05  6040   0.149E-02    0.339E-02
DAV:   4    -0.851635090626E+03    0.18101E-04   -0.40051E-05  4640   0.135E-02    0.155E-02
DAV:   5    -0.851635089967E+03    0.65897E-06   -0.14463E-05  4760   0.712E-03    0.610E-03
DAV:   6    -0.851635090135E+03   -0.16759E-06   -0.15972E-06  3500   0.254E-03
 201 F= -.85953241E+03 E0= -.85953241E+03  d E =-.763563E-03  mag=    -0.0000
quench:  g(F)=  0.000E+00 g(S)=  0.000E+00 dE (1.order)= 0.000E+00
 bond charge predicted
       N       E                     dE             d eps       ncg     rms          rms(c)
DAV:   1    -0.851635103545E+03   -0.13578E-04   -0.99244E-05  4640   0.206E-02    0.266E-03
DAV:   2    -0.851635103647E+03   -0.10216E-06   -0.24362E-06  3820   0.307E-03
 202 F= -.85953242E+03 E0= -.85953242E+03  d E =-.124726E-04  mag=     0.0000
quench:  g(F)=  0.000E+00 g(S)=  0.000E+00 dE (1.order)= 0.000E+00
 bond charge predicted
       N       E                     dE             d eps       ncg     rms          rms(c)
DAV:   1    -0.851635121278E+03   -0.17733E-04   -0.33458E-04  4520   0.378E-02    0.482E-03
DAV:   2    -0.851635121719E+03   -0.44102E-06   -0.80875E-06  5530   0.541E-03
 203 F= -.85953243E+03 E0= -.85953243E+03  d E =-.160240E-04  mag=    -0.0000
quench:  g(F)=  0.000E+00 g(S)=  0.000E+00 dE (1.order)= 0.000E+00
 reached required accuracy - stopping structural energy minimisation
