<?xml version="1.0" encoding="ISO-8859-1"?>
<modeling>
 <generator>
  <i name="program" type="string">vasp </i>
  <i name="version" type="string">6.4.2  </i>
  <i name="subversion" type="string">20Jul23 (build Aug 26 2025 15:10:52) complex                          parallel </i>
  <i name="platform" type="string">LinuxIFC </i>
  <i name="date" type="string">2025 12 07 </i>
  <i name="time" type="string">12:31:28 </i>
 </generator>
 <incar>
  <i type="int" name="ISTART">     0</i>
  <i type="string" name="ALGO">Normal</i>
  <i type="logical" name="ADDGRID"> T  </i>
  <i type="int" name="ISPIN">     2</i>
  <i type="int" name="IMIX">     4</i>
  <i name="AMIX">      0.20000000</i>
  <i name="BMIX">      0.00010000</i>
  <i name="AMIX_MAG">      0.80000000</i>
  <i name="BMIX_MAG">      0.00010000</i>
  <i type="int" name="ICHARG">     2</i>
  <i type="int" name="NELM">   200</i>
  <i type="int" name="IBRION">     3</i>
  <i name="EDIFF">      0.00000100</i>
  <i name="EDIFFG">     -0.03000000</i>
  <i type="int" name="NSW">  1000</i>
  <i type="int" name="ISIF">     2</i>
  <i type="int" name="ISYM">     0</i>
  <i name="ENCUT">    520.00000000</i>
  <i name="POTIM">      0.00000000</i>
  <v name="MAGMOM">      0.60000000      0.60000000      0.60000000      0.60000000      0.60000000      0.60000000      0.60000000      0.60000000      0.60000000      0.60000000      0.60000000      0.60000000      0.60000000      0.60000000      0.60000000      0.60000000      0.60000000      0.60000000      0.60000000      0.60000000
      0.60000000      0.60000000      0.60000000      0.60000000      0.60000000      0.60000000      0.60000000      0.60000000      0.60000000      0.60000000      0.60000000      0.60000000      0.60000000      0.60000000      0.60000000      0.60000000      0.60000000      0.60000000      0.60000000      0.60000000
      0.60000000      0.60000000      0.60000000      0.60000000      0.60000000      0.60000000      0.60000000      0.60000000      0.60000000      0.60000000      0.60000000      0.60000000      0.60000000      0.60000000      0.60000000      0.60000000      0.60000000      0.60000000      0.60000000      0.60000000
      0.60000000      0.60000000      0.60000000      0.60000000      0.60000000      0.60000000      0.60000000      0.60000000      0.60000000      0.60000000      0.60000000      0.60000000      0.60000000      0.60000000      0.60000000      0.60000000      0.60000000      0.60000000      0.60000000      0.60000000
      0.60000000      0.60000000      0.60000000      0.60000000      0.60000000      0.60000000      0.60000000      0.60000000      0.60000000      0.60000000      0.60000000      0.60000000      0.60000000      0.60000000      0.60000000      0.60000000      0.60000000      0.60000000      0.60000000</v>
  <i type="string" name="LREAL">Auto</i>
  <i type="int" name="ISMEAR">     0</i>
  <i name="SIGMA">      0.05000000</i>
  <i type="logical" name="LWAVE"> F  </i>
  <i type="logical" name="LCHARG"> F  </i>
  <i type="logical" name="LASPH"> T  </i>
  <i type="int" name="IVDW">    12</i>
  <i name="SPRING">     -5.00000000</i>
 </incar>
 <primitive_cell>
  <structure name="primitive_cell" >
   <crystal>
    <varray name="basis" >
     <v>      17.27103806       0.00000000       0.00000000 </v>
     <v>      -8.63551903      14.95715771       0.00000000 </v>
     <v>       0.00000000       0.00000000      15.00000000 </v>
    </varray>
    <i name="volume">   3874.88459904 </i>
    <varray name="rec_basis" >
     <v>       0.05790040       0.03342881       0.00000000 </v>
     <v>       0.00000000       0.06685762       0.00000000 </v>
     <v>       0.00000000       0.00000000       0.06666667 </v>
    </varray>
   </crystal>
   <varray name="positions" >
    <v>       0.00190708       0.00146073       0.49396312 </v>
    <v>       0.00138980       0.14400318       0.49196635 </v>
    <v>       0.00110165       0.28669320       0.49055217 </v>
    <v>       0.00160754       0.42973896       0.49247025 </v>
    <v>       0.00226959       0.57288014       0.49426643 </v>
    <v>       0.00324422       0.71620708       0.49693934 </v>
    <v>       0.00303005       0.85929346       0.49665684 </v>
    <v>       0.14494735       0.00181832       0.48446730 </v>
    <v>       0.14407503       0.14410255       0.47823637 </v>
    <v>       0.14249320       0.28580116       0.47091279 </v>
    <v>       0.14278822       0.42905087       0.47232254 </v>
    <v>       0.14447804       0.57237839       0.48077607 </v>
    <v>       0.14515491       0.71563304       0.48630461 </v>
    <v>       0.14528765       0.85892064       0.48863845 </v>
    <v>       0.28750855       0.00152613       0.48188921 </v>
    <v>       0.28700063       0.14394240       0.46884305 </v>
    <v>       0.28430115       0.28531467       0.44603809 </v>
    <v>       0.27922948       0.42581120       0.43101586 </v>
    <v>       0.28530462       0.57159584       0.45157749 </v>
    <v>       0.28725430       0.71557479       0.47370088 </v>
    <v>       0.28749117       0.85865995       0.48380426 </v>
    <v>       0.43035188       0.00166741       0.48558973 </v>
    <v>       0.43018584       0.14431400       0.47783807 </v>
    <v>       0.42836357       0.28361669       0.46016745 </v>
    <v>       0.42862657       0.71756834       0.46887437 </v>
    <v>       0.43006598       0.85872786       0.48260588 </v>
    <v>       0.57285245       0.00176387       0.49252290 </v>
    <v>       0.57291726       0.14413591       0.49026829 </v>
    <v>       0.57376002       0.28746099       0.48415192 </v>
    <v>       0.57358112       0.85945544       0.48950155 </v>
    <v>       0.71573000       0.00137985       0.49967084 </v>
    <v>       0.71585556       0.14425184       0.49832038 </v>
    <v>       0.71574558       0.28696154       0.49752987 </v>
    <v>       0.71515911       0.42872951       0.50260405 </v>
    <v>       0.72443590       0.57588651       0.53007840 </v>
    <v>       0.72314504       0.71903223       0.52528587 </v>
    <v>       0.71484203       0.85859963       0.50364755 </v>
    <v>       0.85890784       0.00153153       0.50178857 </v>
    <v>       0.85857253       0.14412943       0.49966460 </v>
    <v>       0.85862244       0.28686831       0.49923647 </v>
    <v>       0.85912832       0.42978481       0.50092447 </v>
    <v>       0.86031492       0.57338331       0.50416528 </v>
    <v>       0.86198766       0.71701267       0.50931888 </v>
    <v>       0.85978366       0.85880988       0.50507951 </v>
    <v>       0.04933960       0.09668844       0.48875600 </v>
    <v>       0.04827636       0.23879481       0.48561768 </v>
    <v>       0.04842735       0.38177521       0.48630361 </v>
    <v>       0.04965294       0.52502940       0.48988393 </v>
    <v>       0.05013936       0.66820871       0.49249844 </v>
    <v>       0.05032437       0.81139657       0.49414038 </v>
    <v>       0.04991683       0.95417513       0.49172530 </v>
    <v>       0.19195445       0.09643147       0.47634666 </v>
    <v>       0.19041884       0.23863076       0.46652720 </v>
    <v>       0.18811122       0.38017012       0.45988128 </v>
    <v>       0.19085631       0.52419482       0.46936658 </v>
    <v>       0.19220453       0.66795916       0.47948944 </v>
    <v>       0.19261808       0.81110993       0.48607553 </v>
    <v>       0.19257330       0.95401769       0.48476784 </v>
    <v>       0.33500400       0.09687785       0.47596592 </v>
    <v>       0.33493202       0.23868817       0.45583814 </v>
    <v>       0.32087101       0.37380503       0.41789590 </v>
    <v>       0.32250811       0.52009399       0.42379430 </v>
    <v>       0.33545850       0.66872828       0.46282881 </v>
    <v>       0.33498399       0.81073173       0.48008421 </v>
    <v>       0.33498042       0.95387404       0.48401180 </v>
    <v>       0.47784479       0.09675021       0.48505297 </v>
    <v>       0.47707188       0.23941414       0.47357841 </v>
    <v>       0.47697131       0.81062981       0.48051331 </v>
    <v>       0.47778040       0.95406858       0.48755054 </v>
    <v>       0.62043012       0.09671651       0.49459381 </v>
    <v>       0.62061210       0.23936349       0.49127264 </v>
    <v>       0.62255240       0.38065203       0.49029678 </v>
    <v>       0.62207929       0.81483626       0.49410856 </v>
    <v>       0.62057098       0.95429424       0.49477631 </v>
    <v>       0.76349478       0.09677833       0.50008086 </v>
    <v>       0.76351517       0.23929688       0.49910900 </v>
    <v>       0.76376067       0.38200517       0.50122323 </v>
    <v>       0.76476926       0.52542961       0.51219296 </v>
    <v>       0.76767310       0.66964286       0.52336310 </v>
    <v>       0.76389404       0.81070885       0.51143336 </v>
    <v>       0.76358269       0.95404565       0.50267909 </v>
    <v>       0.90627812       0.09640681       0.49873957 </v>
    <v>       0.90612379       0.23924662       0.49750802 </v>
    <v>       0.90644465       0.38226300       0.49837135 </v>
    <v>       0.90718832       0.52535043       0.49937154 </v>
    <v>       0.90829920       0.66857834       0.50389514 </v>
    <v>       0.90799229       0.81180086       0.50390393 </v>
    <v>       0.90679942       0.95383323       0.50026718 </v>
    <v>       0.46388481       0.35589923       0.45563555 </v>
    <v>       0.58649255       0.41670800       0.48571549 </v>
    <v>       0.58544197       0.74293566       0.49003319 </v>
    <v>       0.46475963       0.68144863       0.46544970 </v>
    <v>       0.49464291       0.52989105       0.48477414 </v>
    <v>       0.49950549       0.51593672       0.58490202 </v>
    <v>       0.40159057       0.41325063       0.37598638 </v>
    <v>       0.40698162       0.56289488       0.38948980 </v>
    <v>       0.63284748       0.67089366       0.53923805 </v>
    <v>       0.63681094       0.53241354       0.55547613 </v>
    <v>       0.45827972       0.49515384       0.53488800 </v>
   </varray>
  </structure>
  <varray name="primitive_index" >
   <v type="int" >        1 </v>
   <v type="int" >        2 </v>
   <v type="int" >        3 </v>
   <v type="int" >        4 </v>
   <v type="int" >        5 </v>
   <v type="int" >        6 </v>
   <v type="int" >        7 </v>
   <v type="int" >        8 </v>
   <v type="int" >        9 </v>
   <v type="int" >       10 </v>
   <v type="int" >       11 </v>
   <v type="int" >       12 </v>
   <v type="int" >       13 </v>
   <v type="int" >       14 </v>
   <v type="int" >       15 </v>
   <v type="int" >       16 </v>
   <v type="int" >       17 </v>
   <v type="int" >       18 </v>
   <v type="int" >       19 </v>
   <v type="int" >       20 </v>
   <v type="int" >       21 </v>
   <v type="int" >       22 </v>
   <v type="int" >       23 </v>
   <v type="int" >       24 </v>
   <v type="int" >       25 </v>
   <v type="int" >       26 </v>
   <v type="int" >       27 </v>
   <v type="int" >       28 </v>
   <v type="int" >       29 </v>
   <v type="int" >       30 </v>
   <v type="int" >       31 </v>
   <v type="int" >       32 </v>
   <v type="int" >       33 </v>
   <v type="int" >       34 </v>
   <v type="int" >       35 </v>
   <v type="int" >       36 </v>
   <v type="int" >       37 </v>
   <v type="int" >       38 </v>
   <v type="int" >       39 </v>
   <v type="int" >       40 </v>
   <v type="int" >       41 </v>
   <v type="int" >       42 </v>
   <v type="int" >       43 </v>
   <v type="int" >       44 </v>
   <v type="int" >       45 </v>
   <v type="int" >       46 </v>
   <v type="int" >       47 </v>
   <v type="int" >       48 </v>
   <v type="int" >       49 </v>
   <v type="int" >       50 </v>
   <v type="int" >       51 </v>
   <v type="int" >       52 </v>
   <v type="int" >       53 </v>
   <v type="int" >       54 </v>
   <v type="int" >       55 </v>
   <v type="int" >       56 </v>
   <v type="int" >       57 </v>
   <v type="int" >       58 </v>
   <v type="int" >       59 </v>
   <v type="int" >       60 </v>
   <v type="int" >       61 </v>
   <v type="int" >       62 </v>
   <v type="int" >       63 </v>
   <v type="int" >       64 </v>
   <v type="int" >       65 </v>
   <v type="int" >       66 </v>
   <v type="int" >       67 </v>
   <v type="int" >       68 </v>
   <v type="int" >       69 </v>
   <v type="int" >       70 </v>
   <v type="int" >       71 </v>
   <v type="int" >       72 </v>
   <v type="int" >       73 </v>
   <v type="int" >       74 </v>
   <v type="int" >       75 </v>
   <v type="int" >       76 </v>
   <v type="int" >       77 </v>
   <v type="int" >       78 </v>
   <v type="int" >       79 </v>
   <v type="int" >       80 </v>
   <v type="int" >       81 </v>
   <v type="int" >       82 </v>
   <v type="int" >       83 </v>
   <v type="int" >       84 </v>
   <v type="int" >       85 </v>
   <v type="int" >       86 </v>
   <v type="int" >       87 </v>
   <v type="int" >       88 </v>
   <v type="int" >       89 </v>
   <v type="int" >       90 </v>
   <v type="int" >       91 </v>
   <v type="int" >       92 </v>
   <v type="int" >       93 </v>
   <v type="int" >       94 </v>
   <v type="int" >       95 </v>
   <v type="int" >       96 </v>
   <v type="int" >       97 </v>
   <v type="int" >       98 </v>
   <v type="int" >       99 </v>
  </varray>
 </primitive_cell>
 <kpoints>
  <generation param="Gamma">
   <v type="int" name="divisions">       2        2        1 </v>
   <v name="usershift">      0.00000000       0.00000000       0.00000000 </v>
   <v name="genvec1">      0.50000000       0.00000000       0.00000000 </v>
   <v name="genvec2">      0.00000000       0.50000000       0.00000000 </v>
   <v name="genvec3">      0.00000000       0.00000000       1.00000000 </v>
   <v name="shift">      0.00000000       0.00000000       0.00000000 </v>
  </generation>
  <varray name="kpointlist" >
   <v>       0.00000000       0.00000000       0.00000000 </v>
   <v>       0.50000000       0.00000000       0.00000000 </v>
   <v>       0.00000000       0.50000000       0.00000000 </v>
   <v>       0.50000000       0.50000000       0.00000000 </v>
  </varray>
  <varray name="weights" >
   <v>       0.25000000 </v>
   <v>       0.25000000 </v>
   <v>       0.25000000 </v>
   <v>       0.25000000 </v>
  </varray>
 </kpoints>
 <parameters>
  <separator name="general" >
   <i type="string" name="SYSTEM">unknown system</i>
   <i type="logical" name="LCOMPAT"> F  </i>
  </separator>
  <separator name="electronic" >
   <i type="string" name="PREC">normal</i>
   <i name="ENMAX">    520.00000000</i>
   <i name="ENAUG">    644.87300000</i>
   <i name="EDIFF">      0.00000100</i>
   <i type="int" name="IALGO">    38</i>
   <i type="int" name="IWAVPR">    11</i>
   <i type="int" name="NBANDS">   280</i>
   <i type="int" name="NBANDSLOW">    -1</i>
   <i type="int" name="NBANDSHIGH">    -1</i>
   <i name="NELECT">    392.00000000</i>
   <i type="int" name="TURBO">     0</i>
   <i type="int" name="IRESTART">     0</i>
   <i type="int" name="NREBOOT">     0</i>
   <i type="int" name="NMIN">     0</i>
   <i name="EREF">      0.00000000</i>
   <separator name="electronic smearing" >
    <i type="int" name="ISMEAR">     0</i>
    <i name="SIGMA">      0.05000000</i>
    <i name="KSPACING">      0.50000000</i>
    <i type="logical" name="KGAMMA"> T  </i>
    <i type="logical" name="KBLOWUP"> T  </i>
   </separator>
   <separator name="electronic projectors" >
    <i type="logical" name="LREAL"> T  </i>
    <v name="ROPT">     -0.00050000     -0.00050000     -0.00050000     -0.00050000</v>
    <i type="int" name="LMAXPAW">  -100</i>
    <i type="int" name="LMAXMIX">     2</i>
    <i type="logical" name="NLSPLINE"> F  </i>
   </separator>
   <separator name="electronic startup" >
    <i type="int" name="ISTART">     0</i>
    <i type="int" name="ICHARG">     2</i>
    <i type="int" name="INIWAV">     1</i>
   </separator>
   <separator name="electronic spin" >
    <i type="int" name="ISPIN">     2</i>
    <i type="logical" name="LNONCOLLINEAR"> F  </i>
    <v name="MAGMOM">      0.60000000      0.60000000      0.60000000      0.60000000      0.60000000      0.60000000      0.60000000      0.60000000      0.60000000      0.60000000      0.60000000      0.60000000      0.60000000      0.60000000      0.60000000      0.60000000      0.60000000      0.60000000      0.60000000      0.60000000
      0.60000000      0.60000000      0.60000000      0.60000000      0.60000000      0.60000000      0.60000000      0.60000000      0.60000000      0.60000000      0.60000000      0.60000000      0.60000000      0.60000000      0.60000000      0.60000000      0.60000000      0.60000000      0.60000000      0.60000000
      0.60000000      0.60000000      0.60000000      0.60000000      0.60000000      0.60000000      0.60000000      0.60000000      0.60000000      0.60000000      0.60000000      0.60000000      0.60000000      0.60000000      0.60000000      0.60000000      0.60000000      0.60000000      0.60000000      0.60000000
      0.60000000      0.60000000      0.60000000      0.60000000      0.60000000      0.60000000      0.60000000      0.60000000      0.60000000      0.60000000      0.60000000      0.60000000      0.60000000      0.60000000      0.60000000      0.60000000      0.60000000      0.60000000      0.60000000      0.60000000
      0.60000000      0.60000000      0.60000000      0.60000000      0.60000000      0.60000000      0.60000000      0.60000000      0.60000000      0.60000000      0.60000000      0.60000000      0.60000000      0.60000000      0.60000000      0.60000000      0.60000000      0.60000000      0.60000000</v>
    <i name="NUPDOWN">     -1.00000000</i>
    <i type="logical" name="LSORBIT"> F  </i>
    <v name="SAXIS">      0.00000000      0.00000000      1.00000000</v>
    <i type="logical" name="LSPIRAL"> F  </i>
    <v name="QSPIRAL">      0.00000000      0.00000000      0.00000000</v>
    <i type="logical" name="LZEROZ"> F  </i>
   </separator>
   <separator name="electronic exchange-correlation" >
    <i type="logical" name="LASPH"> T  </i>
    <i type="logical" name="LMETAGGA"> F  </i>
   </separator>
   <separator name="electronic convergence" >
    <i type="int" name="NELM">   200</i>
    <i type="int" name="NELMDL">    -5</i>
    <i type="int" name="NELMIN">     2</i>
    <i name="ENINI">    520.00000000</i>
    <separator name="electronic convergence detail" >
     <i type="logical" name="LDIAG"> T  </i>
     <i type="logical" name="LSUBROT"> F  </i>
     <i name="WEIMIN">      0.00100000</i>
     <i name="EBREAK">      0.00000000</i>
     <i name="DEPER">      0.30000000</i>
     <i type="int" name="NRMM">     4</i>
     <i name="TIME">      0.40000000</i>
    </separator>
   </separator>
   <separator name="electronic mixer" >
    <i name="AMIX">      0.20000000</i>
    <i name="BMIX">      0.00010000</i>
    <i name="AMIN">      0.10000000</i>
    <i name="AMIX_MAG">      0.80000000</i>
    <i name="BMIX_MAG">      0.00010000</i>
    <separator name="electronic mixer details" >
     <i type="int" name="IMIX">     4</i>
     <i type="logical" name="MIXFIRST"> F  </i>
     <i type="int" name="MAXMIX">   -45</i>
     <i name="WC">    100.00000000</i>
     <i type="int" name="INIMIX">     1</i>
     <i type="int" name="MIXPRE">     1</i>
     <i type="int" name="MREMOVE">     5</i>
    </separator>
   </separator>
   <separator name="electronic dipolcorrection" >
    <i type="logical" name="LDIPOL"> F  </i>
    <i type="logical" name="LMONO"> F  </i>
    <i type="int" name="IDIPOL">     0</i>
    <i name="EPSILON">      1.00000000</i>
    <v name="DIPOL">   -100.00000000   -100.00000000   -100.00000000</v>
    <i name="EFIELD">      0.00000000</i>
   </separator>
  </separator>
  <separator name="grids" >
   <i type="int" name="NGX">    96</i>
   <i type="int" name="NGY">    96</i>
   <i type="int" name="NGZ">    84</i>
   <i type="int" name="NGXF">   192</i>
   <i type="int" name="NGYF">   192</i>
   <i type="int" name="NGZF">   168</i>
   <i type="logical" name="ADDGRID"> T  </i>
  </separator>
  <separator name="ionic" >
   <i type="int" name="NSW">  1000</i>
   <i type="int" name="IBRION">     3</i>
   <i type="int" name="MDALGO">     0</i>
   <i type="int" name="ISIF">     2</i>
   <i name="PSTRESS">      0.00000000</i>
   <i name="EDIFFG">     -0.03000000</i>
   <i type="int" name="NFREE">     0</i>
   <i name="POTIM">      0.00000000</i>
   <i name="SMASS">     -3.00000000</i>
   <i name="SCALEE">      1.00000000</i>
  </separator>
  <separator name="ionic md" >
   <i name="TEBEG">      0.00010000</i>
   <i name="TEEND">      0.00010000</i>
   <i type="int" name="NBLOCK">     1</i>
   <i type="int" name="KBLOCK">  1000</i>
   <i type="int" name="NPACO">   256</i>
   <i name="APACO">     10.00000000</i>
  </separator>
  <separator name="symmetry" >
   <i type="int" name="ISYM">     0</i>
   <i name="SYMPREC">      0.00001000</i>
  </separator>
  <separator name="dos" >
   <i type="int" name="LORBIT">     0</i>
   <v name="RWIGS">     -1.00000000     -1.00000000     -1.00000000     -1.00000000</v>
   <i type="int" name="NEDOS">   301</i>
   <i name="EMIN">     10.00000000</i>
   <i name="EMAX">    -10.00000000</i>
   <i name="EFERMI">      0.00000000</i>
  </separator>
  <separator name="writing" >
   <i type="int" name="NWRITE">     2</i>
   <i type="logical" name="LWAVE"> F  </i>
   <i type="logical" name="LDOWNSAMPLE"> F  </i>
   <i type="logical" name="LCHARG"> F  </i>
   <i type="logical" name="LPARD"> F  </i>
   <i type="logical" name="LVTOT"> F  </i>
   <i type="logical" name="LVHAR"> F  </i>
   <i type="logical" name="LELF"> F  </i>
   <i type="logical" name="LOPTICS"> F  </i>
   <v name="STM">      0.00000000      0.00000000      0.00000000      0.00000000      0.00000000      0.00000000      0.00000000</v>
  </separator>
  <separator name="performance" >
   <i type="int" name="NPAR">     5</i>
   <i type="int" name="NSIM">     4</i>
   <i type="int" name="NBLK">    -1</i>
   <i type="logical" name="LPLANE"> T  </i>
   <i type="logical" name="LSCALAPACK"> T  </i>
   <i type="logical" name="LSCAAWARE"> F  </i>
   <i type="logical" name="LSCALU"> F  </i>
   <i type="logical" name="LASYNC"> F  </i>
   <i type="logical" name="LORBITALREAL"> F  </i>
  </separator>
  <separator name="miscellaneous" >
   <i type="int" name="IDIOT">     3</i>
   <i type="int" name="PHON_NSTRUCT">    -1</i>
   <i type="logical" name="LMUSIC"> F  </i>
   <v name="POMASS">     12.01100000      1.00000000     18.99800000     16.00000000</v>
   <v name="DARWINR">      0.00000000      0.00000000      0.00000000      0.00000000</v>
   <v name="DARWINV">      1.00000000      1.00000000      1.00000000      1.00000000</v>
   <i type="logical" name="LCORR"> T  </i>
  </separator>
  <i type="logical" name="GGA_COMPAT"> T  </i>
  <i type="logical" name="LBERRY"> F  </i>
  <i type="int" name="ICORELEVEL">     0</i>
  <i type="logical" name="LDAU"> F  </i>
  <i type="int" name="I_CONSTRAINED_M">     0</i>
  <separator name="electronic exchange-correlation" >
   <i type="string" name="GGA">--</i>
   <i type="int" name="VOSKOWN">     0</i>
   <i type="logical" name="LHFCALC"> F  </i>
   <i type="string" name="PRECFOCK"></i>
   <i type="logical" name="LSYMGRAD"> F  </i>
   <i type="logical" name="LHFONE"> F  </i>
   <i type="logical" name="LRHFCALC"> F  </i>
   <i type="logical" name="LTHOMAS"> F  </i>
   <i type="logical" name="LMODELHF"> F  </i>
   <i type="logical" name="LFOCKACE"> F  </i>
   <i name="ENCUT4O">     -1.00000000</i>
   <i type="int" name="EXXOEP">     0</i>
   <i type="int" name="FOURORBIT">     0</i>
   <i name="AEXX">      0.00000000</i>
   <i name="HFALPHA">      0.00000000</i>
   <i name="MCALPHA">      0.00000000</i>
   <i name="ALDAX">      1.00000000</i>
   <i name="AGGAX">      1.00000000</i>
   <i name="ALDAC">      1.00000000</i>
   <i name="AGGAC">      1.00000000</i>
   <i type="int" name="NKREDX">     1</i>
   <i type="int" name="NKREDY">     1</i>
   <i type="int" name="NKREDZ">     1</i>
   <i type="logical" name="SHIFTRED"> F  </i>
   <i type="logical" name="ODDONLY"> F  </i>
   <i type="logical" name="EVENONLY"> F  </i>
   <i type="int" name="LMAXFOCK">     0</i>
   <i type="int" name="NMAXFOCKAE">     0</i>
   <i type="logical" name="LFOCKAEDFT"> F  </i>
   <i name="HFSCREEN">      0.00000000</i>
   <i name="HFSCREENC">      0.00000000</i>
   <i type="int" name="NBANDSGWLOW">     0</i>
  </separator>
  <separator name="vdW DFT" >
   <i type="logical" name="LUSE_VDW"> F  </i>
   <i type="int" name="IVDW_NL">     1</i>
   <i type="logical" name="LSPIN_VDW"> F  </i>
   <i name="Zab_VDW">     -0.84910000</i>
   <i name="PARAM1">      0.12340000</i>
   <i name="PARAM2">      1.00000000</i>
   <i name="PARAM3">      0.00000000</i>
  </separator>
  <separator name="model GW" >
   <i type="int" name="MODEL_GW">     0</i>
   <i name="MODEL_EPS0">     23.48414909</i>
   <i name="MODEL_ALPHA">      1.00000000</i>
  </separator>
  <separator name="linear response parameters" >
   <i type="logical" name="LEPSILON"> F  </i>
   <i type="logical" name="LRPA"> F  </i>
   <i type="logical" name="LNABLA"> F  </i>
   <i type="logical" name="LVEL"> F  </i>
   <i name="CSHIFT">      0.10000000</i>
   <i name="OMEGAMAX">     -1.00000000</i>
   <i name="DEG_THRESHOLD">      0.00200000</i>
   <i name="RTIME">     -0.10000000</i>
   <i name="WPLASMAI">      0.00000000</i>
   <v name="DFIELD">      0.00000000      0.00000000      0.00000000</v>
   <v name="WPLASMA">      0.00000000      0.00000000      0.00000000      0.00000000      0.00000000      0.00000000      0.00000000      0.00000000      0.00000000</v>
  </separator>
  <separator name="orbital magnetization" >
   <i type="logical" name="NUCIND"> F  </i>
   <v name="MAGPOS">      0.00000000      0.00000000      0.00000000</v>
   <i type="logical" name="LNICSALL"> T  </i>
   <i type="logical" name="ORBITALMAG"> F  </i>
   <i type="logical" name="LMAGBLOCH"> F  </i>
   <i type="logical" name="LCHIMAG"> F  </i>
   <i type="logical" name="LGAUGE"> T  </i>
   <i type="int" name="MAGATOM">     0</i>
   <v name="MAGDIPOL">      0.00000000      0.00000000      0.00000000</v>
   <v name="AVECCONST">      0.00000000      0.00000000      0.00000000</v>
  </separator>
  <separator name="response functions" >
   <i type="logical" name="LALL_IN_ONE"> F  </i>
   <i type="int" name="IALL_IN_ONE">    -1</i>
   <i type="int" name="NBANDS_WAVE">    -1</i>
   <i type="logical" name="LFINITE_TEMPERATURE"> F  </i>
   <i type="logical" name="LADDER"> F  </i>
   <i type="logical" name="LRPAFORCE"> F  </i>
   <i type="logical" name="LFXC"> F  </i>
   <i type="logical" name="LHARTREE"> T  </i>
   <i type="int" name="IBSE">     0</i>
   <v type="int" name="KPOINT">    -1     0     0     0</v>
   <i type="logical" name="LTCTC"> F  </i>
   <i type="logical" name="LTCTE"> F  </i>
   <i type="logical" name="LTETE"> F  </i>
   <i type="logical" name="LTRIPLET"> F  </i>
   <i type="logical" name="LFXCEPS"> F  </i>
   <i type="logical" name="LFXHEG"> F  </i>
   <i type="int" name="NATURALO">     2</i>
   <i type="logical" name="LHOLEGF"> F  </i>
   <i type="logical" name="L2ORDER"> F  </i>
   <i type="logical" name="LDMP1"> F  </i>
   <i type="logical" name="LMP2LT"> F  </i>
   <i type="logical" name="LSMP2LT"> F  </i>
   <i type="logical" name="LGWLF"> F  </i>
   <i name="ENCUTGW">     -1.60000002</i>
   <i name="ENCUTGWSOFT">     -1.60000002</i>
   <i name="ENCUTLF">     -1.00000000</i>
   <i type="logical" name="LESF_SPLINES"> F  </i>
   <i type="int" name="LMAXMP2">    -1</i>
   <i name="SCISSOR">      0.00000000</i>
   <i type="int" name="NOMEGA">     0</i>
   <i type="int" name="NOMEGAR">     0</i>
   <i type="int" name="NBANDSGW">    -1</i>
   <i type="int" name="NBANDSO">    -1</i>
   <i type="int" name="NBANDSV">    -1</i>
   <i type="int" name="NELMGW">     1</i>
   <i type="int" name="NELMHF">     1</i>
   <i type="int" name="DIM">     3</i>
   <i type="int" name="IESPILON">     4</i>
   <i type="int" name="ANTIRES">     0</i>
   <i name="OMEGAMAX">    -30.00000000</i>
   <i name="OMEGAMIN">    -30.00000000</i>
   <i name="OMEGATL">   -200.00000000</i>
   <i type="int" name="OMEGAGRID">     0</i>
   <i name="CSHIFT">     -0.10000000</i>
   <i type="logical" name="LSELFENERGY"> F  </i>
   <i type="logical" name="LSPECTRAL"> F  </i>
   <i type="logical" name="LSPECTRALGW"> F  </i>
   <i type="logical" name="LSINGLES"> F  </i>
   <i type="logical" name="LFERMIGW"> F  </i>
   <i type="logical" name="ODDONLYGW"> F  </i>
   <i type="logical" name="EVENONLYGW"> F  </i>
   <i type="int" name="NKREDLFX">     1</i>
   <i type="int" name="NKREDLFY">     1</i>
   <i type="int" name="NKREDLFZ">     1</i>
   <i type="int" name="MAXMEM">  2800</i>
   <i type="int" name="TELESCOPE">     0</i>
   <i type="int" name="NTAUPAR">    -1</i>
   <i type="int" name="NOMEGAPAR">    -1</i>
   <i name="DAMP_NEWTON">      0.80000001</i>
   <i name="LAMBDA">      1.00000000</i>
  </separator>
  <separator name="External order field" >
   <i name="OFIELD_KAPPA">      0.00000000</i>
   <v name="OFIELD_K">      0.00000000      0.00000000      0.00000000</v>
   <i name="OFIELD_Q6_NEAR">      0.00000000</i>
   <i name="OFIELD_Q6_FAR">      0.00000000</i>
   <i name="OFIELD_A">      0.00000000</i>
  </separator>
  <separator name="optional k-points parameters" >
   <i type="int" name="KPOINTS_OPT_MODE">     1</i>
   <i type="logical" name="LKPOINTS_OPT"> F  </i>
  </separator>
 </parameters>
 <atominfo>
  <atoms>      99 </atoms>
  <types>       4 </types>
  <array name="atoms" >
   <dimension dim="1">ion</dimension>
   <field type="string">element</field>
   <field type="int">atomtype</field>
   <set>
    <rc><c>C </c><c>   1</c></rc>
    <rc><c>C </c><c>   1</c></rc>
    <rc><c>C </c><c>   1</c></rc>
    <rc><c>C </c><c>   1</c></rc>
    <rc><c>C </c><c>   1</c></rc>
    <rc><c>C </c><c>   1</c></rc>
    <rc><c>C </c><c>   1</c></rc>
    <rc><c>C </c><c>   1</c></rc>
    <rc><c>C </c><c>   1</c></rc>
    <rc><c>C </c><c>   1</c></rc>
    <rc><c>C </c><c>   1</c></rc>
    <rc><c>C </c><c>   1</c></rc>
    <rc><c>C </c><c>   1</c></rc>
    <rc><c>C </c><c>   1</c></rc>
    <rc><c>C </c><c>   1</c></rc>
    <rc><c>C </c><c>   1</c></rc>
    <rc><c>C </c><c>   1</c></rc>
    <rc><c>C </c><c>   1</c></rc>
    <rc><c>C </c><c>   1</c></rc>
    <rc><c>C </c><c>   1</c></rc>
    <rc><c>C </c><c>   1</c></rc>
    <rc><c>C </c><c>   1</c></rc>
    <rc><c>C </c><c>   1</c></rc>
    <rc><c>C </c><c>   1</c></rc>
    <rc><c>C </c><c>   1</c></rc>
    <rc><c>C </c><c>   1</c></rc>
    <rc><c>C </c><c>   1</c></rc>
    <rc><c>C </c><c>   1</c></rc>
    <rc><c>C </c><c>   1</c></rc>
    <rc><c>C </c><c>   1</c></rc>
    <rc><c>C </c><c>   1</c></rc>
    <rc><c>C </c><c>   1</c></rc>
    <rc><c>C </c><c>   1</c></rc>
    <rc><c>C </c><c>   1</c></rc>
    <rc><c>C </c><c>   1</c></rc>
    <rc><c>C </c><c>   1</c></rc>
    <rc><c>C </c><c>   1</c></rc>
    <rc><c>C </c><c>   1</c></rc>
    <rc><c>C </c><c>   1</c></rc>
    <rc><c>C </c><c>   1</c></rc>
    <rc><c>C </c><c>   1</c></rc>
    <rc><c>C </c><c>   1</c></rc>
    <rc><c>C </c><c>   1</c></rc>
    <rc><c>C </c><c>   1</c></rc>
    <rc><c>C </c><c>   1</c></rc>
    <rc><c>C </c><c>   1</c></rc>
    <rc><c>C </c><c>   1</c></rc>
    <rc><c>C </c><c>   1</c></rc>
    <rc><c>C </c><c>   1</c></rc>
    <rc><c>C </c><c>   1</c></rc>
    <rc><c>C </c><c>   1</c></rc>
    <rc><c>C </c><c>   1</c></rc>
    <rc><c>C </c><c>   1</c></rc>
    <rc><c>C </c><c>   1</c></rc>
    <rc><c>C </c><c>   1</c></rc>
    <rc><c>C </c><c>   1</c></rc>
    <rc><c>C </c><c>   1</c></rc>
    <rc><c>C </c><c>   1</c></rc>
    <rc><c>C </c><c>   1</c></rc>
    <rc><c>C </c><c>   1</c></rc>
    <rc><c>C </c><c>   1</c></rc>
    <rc><c>C </c><c>   1</c></rc>
    <rc><c>C </c><c>   1</c></rc>
    <rc><c>C </c><c>   1</c></rc>
    <rc><c>C </c><c>   1</c></rc>
    <rc><c>C </c><c>   1</c></rc>
    <rc><c>C </c><c>   1</c></rc>
    <rc><c>C </c><c>   1</c></rc>
    <rc><c>C </c><c>   1</c></rc>
    <rc><c>C </c><c>   1</c></rc>
    <rc><c>C </c><c>   1</c></rc>
    <rc><c>C </c><c>   1</c></rc>
    <rc><c>C </c><c>   1</c></rc>
    <rc><c>C </c><c>   1</c></rc>
    <rc><c>C </c><c>   1</c></rc>
    <rc><c>C </c><c>   1</c></rc>
    <rc><c>C </c><c>   1</c></rc>
    <rc><c>C </c><c>   1</c></rc>
    <rc><c>C </c><c>   1</c></rc>
    <rc><c>C </c><c>   1</c></rc>
    <rc><c>C </c><c>   1</c></rc>
    <rc><c>C </c><c>   1</c></rc>
    <rc><c>C </c><c>   1</c></rc>
    <rc><c>C </c><c>   1</c></rc>
    <rc><c>C </c><c>   1</c></rc>
    <rc><c>C </c><c>   1</c></rc>
    <rc><c>C </c><c>   1</c></rc>
    <rc><c>C </c><c>   1</c></rc>
    <rc><c>H </c><c>   2</c></rc>
    <rc><c>H </c><c>   2</c></rc>
    <rc><c>H </c><c>   2</c></rc>
    <rc><c>H </c><c>   2</c></rc>
    <rc><c>H </c><c>   2</c></rc>
    <rc><c>H </c><c>   2</c></rc>
    <rc><c>F </c><c>   3</c></rc>
    <rc><c>F </c><c>   3</c></rc>
    <rc><c>F </c><c>   3</c></rc>
    <rc><c>F </c><c>   3</c></rc>
    <rc><c>O </c><c>   4</c></rc>
   </set>
  </array>
  <array name="atomtypes" >
   <dimension dim="1">type</dimension>
   <field type="int">atomspertype</field>
   <field type="string">element</field>
   <field>mass</field>
   <field>valence</field>
   <field type="string">pseudopotential</field>
   <set>
    <rc><c>  88</c><c>C </c><c>     12.01100000</c><c>      4.00000000</c><c>  PAW_PBE C 08Apr2002                   </c></rc>
    <rc><c>   6</c><c>H </c><c>      1.00000000</c><c>      1.00000000</c><c>  PAW_PBE H 15Jun2001                   </c></rc>
    <rc><c>   4</c><c>F </c><c>     18.99800000</c><c>      7.00000000</c><c>  PAW_PBE F 08Apr2002                   </c></rc>
    <rc><c>   1</c><c>O </c><c>     16.00000000</c><c>      6.00000000</c><c>  PAW_PBE O 08Apr2002                   </c></rc>
   </set>
  </array>
 </atominfo>
 <structure name="initialpos" >
  <crystal>
   <varray name="basis" >
    <v>      17.27103806       0.00000000       0.00000000 </v>
    <v>      -8.63551903      14.95715771       0.00000000 </v>
    <v>       0.00000000       0.00000000      15.00000000 </v>
   </varray>
   <i name="volume">   3874.88459904 </i>
   <varray name="rec_basis" >
    <v>       0.05790040       0.03342881       0.00000000 </v>
    <v>       0.00000000       0.06685762       0.00000000 </v>
    <v>       0.00000000       0.00000000       0.06666667 </v>
   </varray>
  </crystal>
  <varray name="positions" >
   <v>       0.00190708       0.00146073       0.49396312 </v>
   <v>       0.00138980       0.14400318       0.49196635 </v>
   <v>       0.00110165       0.28669320       0.49055217 </v>
   <v>       0.00160754       0.42973896       0.49247025 </v>
   <v>       0.00226959       0.57288014       0.49426643 </v>
   <v>       0.00324422       0.71620708       0.49693934 </v>
   <v>       0.00303005       0.85929346       0.49665684 </v>
   <v>       0.14494735       0.00181832       0.48446730 </v>
   <v>       0.14407503       0.14410255       0.47823637 </v>
   <v>       0.14249320       0.28580116       0.47091279 </v>
   <v>       0.14278822       0.42905087       0.47232254 </v>
   <v>       0.14447804       0.57237839       0.48077607 </v>
   <v>       0.14515491       0.71563304       0.48630461 </v>
   <v>       0.14528765       0.85892064       0.48863845 </v>
   <v>       0.28750855       0.00152613       0.48188921 </v>
   <v>       0.28700063       0.14394240       0.46884305 </v>
   <v>       0.28430115       0.28531467       0.44603809 </v>
   <v>       0.27922948       0.42581120       0.43101586 </v>
   <v>       0.28530462       0.57159584       0.45157749 </v>
   <v>       0.28725430       0.71557479       0.47370088 </v>
   <v>       0.28749117       0.85865995       0.48380426 </v>
   <v>       0.43035188       0.00166741       0.48558973 </v>
   <v>       0.43018584       0.14431400       0.47783807 </v>
   <v>       0.42836357       0.28361669       0.46016745 </v>
   <v>       0.42862657       0.71756834       0.46887437 </v>
   <v>       0.43006598       0.85872786       0.48260588 </v>
   <v>       0.57285245       0.00176387       0.49252290 </v>
   <v>       0.57291726       0.14413591       0.49026829 </v>
   <v>       0.57376002       0.28746099       0.48415192 </v>
   <v>       0.57358112       0.85945544       0.48950155 </v>
   <v>       0.71573000       0.00137985       0.49967084 </v>
   <v>       0.71585556       0.14425184       0.49832038 </v>
   <v>       0.71574558       0.28696154       0.49752987 </v>
   <v>       0.71515911       0.42872951       0.50260405 </v>
   <v>       0.72443590       0.57588651       0.53007840 </v>
   <v>       0.72314504       0.71903223       0.52528587 </v>
   <v>       0.71484203       0.85859963       0.50364755 </v>
   <v>       0.85890784       0.00153153       0.50178857 </v>
   <v>       0.85857253       0.14412943       0.49966460 </v>
   <v>       0.85862244       0.28686831       0.49923647 </v>
   <v>       0.85912832       0.42978481       0.50092447 </v>
   <v>       0.86031492       0.57338331       0.50416528 </v>
   <v>       0.86198766       0.71701267       0.50931888 </v>
   <v>       0.85978366       0.85880988       0.50507951 </v>
   <v>       0.04933960       0.09668844       0.48875600 </v>
   <v>       0.04827636       0.23879481       0.48561768 </v>
   <v>       0.04842735       0.38177521       0.48630361 </v>
   <v>       0.04965294       0.52502940       0.48988393 </v>
   <v>       0.05013936       0.66820871       0.49249844 </v>
   <v>       0.05032437       0.81139657       0.49414038 </v>
   <v>       0.04991683       0.95417513       0.49172530 </v>
   <v>       0.19195445       0.09643147       0.47634666 </v>
   <v>       0.19041884       0.23863076       0.46652720 </v>
   <v>       0.18811122       0.38017012       0.45988128 </v>
   <v>       0.19085631       0.52419482       0.46936658 </v>
   <v>       0.19220453       0.66795916       0.47948944 </v>
   <v>       0.19261808       0.81110993       0.48607553 </v>
   <v>       0.19257330       0.95401769       0.48476784 </v>
   <v>       0.33500400       0.09687785       0.47596592 </v>
   <v>       0.33493202       0.23868817       0.45583814 </v>
   <v>       0.32087101       0.37380503       0.41789590 </v>
   <v>       0.32250811       0.52009399       0.42379430 </v>
   <v>       0.33545850       0.66872828       0.46282881 </v>
   <v>       0.33498399       0.81073173       0.48008421 </v>
   <v>       0.33498042       0.95387404       0.48401180 </v>
   <v>       0.47784479       0.09675021       0.48505297 </v>
   <v>       0.47707188       0.23941414       0.47357841 </v>
   <v>       0.47697131       0.81062981       0.48051331 </v>
   <v>       0.47778040       0.95406858       0.48755054 </v>
   <v>       0.62043012       0.09671651       0.49459381 </v>
   <v>       0.62061210       0.23936349       0.49127264 </v>
   <v>       0.62255240       0.38065203       0.49029678 </v>
   <v>       0.62207929       0.81483626       0.49410856 </v>
   <v>       0.62057098       0.95429424       0.49477631 </v>
   <v>       0.76349478       0.09677833       0.50008086 </v>
   <v>       0.76351517       0.23929688       0.49910900 </v>
   <v>       0.76376067       0.38200517       0.50122323 </v>
   <v>       0.76476926       0.52542961       0.51219296 </v>
   <v>       0.76767310       0.66964286       0.52336310 </v>
   <v>       0.76389404       0.81070885       0.51143336 </v>
   <v>       0.76358269       0.95404565       0.50267909 </v>
   <v>       0.90627812       0.09640681       0.49873957 </v>
   <v>       0.90612379       0.23924662       0.49750802 </v>
   <v>       0.90644465       0.38226300       0.49837135 </v>
   <v>       0.90718832       0.52535043       0.49937154 </v>
   <v>       0.90829920       0.66857834       0.50389514 </v>
   <v>       0.90799229       0.81180086       0.50390393 </v>
   <v>       0.90679942       0.95383323       0.50026718 </v>
   <v>       0.46388481       0.35589923       0.45563555 </v>
   <v>       0.58649255       0.41670800       0.48571549 </v>
   <v>       0.58544197       0.74293566       0.49003319 </v>
   <v>       0.46475963       0.68144863       0.46544970 </v>
   <v>       0.49464291       0.52989105       0.48477414 </v>
   <v>       0.49950549       0.51593672       0.58490202 </v>
   <v>       0.40159057       0.41325063       0.37598638 </v>
   <v>       0.40698162       0.56289488       0.38948980 </v>
   <v>       0.63284748       0.67089366       0.53923805 </v>
   <v>       0.63681094       0.53241354       0.55547613 </v>
   <v>       0.45827972       0.49515384       0.53488800 </v>
  </varray>
  <varray name="selective"  type="logical" >
   <v type="logical" >  T  T  T </v>
   <v type="logical" >  T  T  T </v>
   <v type="logical" >  T  T  T </v>
   <v type="logical" >  T  T  T </v>
   <v type="logical" >  T  T  T </v>
   <v type="logical" >  T  T  T </v>
   <v type="logical" >  T  T  T </v>
   <v type="logical" >  T  T  T </v>
   <v type="logical" >  T  T  T </v>
   <v type="logical" >  T  T  T </v>
   <v type="logical" >  T  T  T </v>
   <v type="logical" >  T  T  T </v>
   <v type="logical" >  T  T  T </v>
   <v type="logical" >  T  T  T </v>
   <v type="logical" >  T  T  T </v>
   <v type="logical" >  T  T  T </v>
   <v type="logical" >  T  T  T </v>
   <v type="logical" >  T  T  T </v>
   <v type="logical" >  T  T  T </v>
   <v type="logical" >  T  T  T </v>
   <v type="logical" >  T  T  T </v>
   <v type="logical" >  T  T  T </v>
   <v type="logical" >  T  T  T </v>
   <v type="logical" >  T  T  T </v>
   <v type="logical" >  T  T  T </v>
   <v type="logical" >  T  T  T </v>
   <v type="logical" >  T  T  T </v>
   <v type="logical" >  T  T  T </v>
   <v type="logical" >  T  T  T </v>
   <v type="logical" >  T  T  T </v>
   <v type="logical" >  T  T  T </v>
   <v type="logical" >  T  T  T </v>
   <v type="logical" >  T  T  T </v>
   <v type="logical" >  T  T  T </v>
   <v type="logical" >  T  T  T </v>
   <v type="logical" >  T  T  T </v>
   <v type="logical" >  T  T  T </v>
   <v type="logical" >  T  T  T </v>
   <v type="logical" >  T  T  T </v>
   <v type="logical" >  T  T  T </v>
   <v type="logical" >  T  T  T </v>
   <v type="logical" >  T  T  T </v>
   <v type="logical" >  T  T  T </v>
   <v type="logical" >  T  T  T </v>
   <v type="logical" >  T  T  T </v>
   <v type="logical" >  T  T  T </v>
   <v type="logical" >  T  T  T </v>
   <v type="logical" >  T  T  T </v>
   <v type="logical" >  T  T  T </v>
   <v type="logical" >  T  T  T </v>
   <v type="logical" >  T  T  T </v>
   <v type="logical" >  T  T  T </v>
   <v type="logical" >  T  T  T </v>
   <v type="logical" >  T  T  T </v>
   <v type="logical" >  T  T  T </v>
   <v type="logical" >  T  T  T </v>
   <v type="logical" >  T  T  T </v>
   <v type="logical" >  T  T  T </v>
   <v type="logical" >  T  T  T </v>
   <v type="logical" >  T  T  T </v>
   <v type="logical" >  T  T  T </v>
   <v type="logical" >  T  T  T </v>
   <v type="logical" >  T  T  T </v>
   <v type="logical" >  T  T  T </v>
   <v type="logical" >  T  T  T </v>
   <v type="logical" >  T  T  T </v>
   <v type="logical" >  T  T  T </v>
   <v type="logical" >  T  T  T </v>
   <v type="logical" >  T  T  T </v>
   <v type="logical" >  T  T  T </v>
   <v type="logical" >  T  T  T </v>
   <v type="logical" >  T  T  T </v>
   <v type="logical" >  T  T  T </v>
   <v type="logical" >  T  T  T </v>
   <v type="logical" >  T  T  T </v>
   <v type="logical" >  T  T  T </v>
   <v type="logical" >  T  T  T </v>
   <v type="logical" >  T  T  T </v>
   <v type="logical" >  T  T  T </v>
   <v type="logical" >  T  T  T </v>
   <v type="logical" >  T  T  T </v>
   <v type="logical" >  T  T  T </v>
   <v type="logical" >  T  T  T </v>
   <v type="logical" >  T  T  T </v>
   <v type="logical" >  T  T  T </v>
   <v type="logical" >  T  T  T </v>
   <v type="logical" >  T  T  T </v>
   <v type="logical" >  T  T  T </v>
   <v type="logical" >  T  T  T </v>
   <v type="logical" >  T  T  T </v>
   <v type="logical" >  T  T  T </v>
   <v type="logical" >  T  T  T </v>
   <v type="logical" >  T  T  T </v>
   <v type="logical" >  T  T  T </v>
   <v type="logical" >  T  T  T </v>
   <v type="logical" >  T  T  T </v>
   <v type="logical" >  T  T  T </v>
   <v type="logical" >  T  T  T </v>
   <v type="logical" >  T  T  T </v>
  </varray>
  <nose>
   <v>      -3.00000000       0.00000000       0.00010000       0.00010000 </v>
  </nose>
 </structure>
 <calculation>
  <scstep>
   <time name="dav">   82.96   83.57</time>
   <time name="total">   88.45   89.13</time>
   <energy>
    <i name="alphaZ">    196.80145815 </i>
    <i name="ewald">  38983.09041058 </i>
    <i name="hartreedc"> -51316.22066012 </i>
    <i name="XCdc">   1355.67032100 </i>
    <i name="pawpsdc">  12061.16201661 </i>
    <i name="pawaedc"> -12133.24665886 </i>
    <i name="eentropy">     -0.04379840 </i>
    <i name="bandstr">  -1679.91068009 </i>
    <i name="atom">  16094.84310894 </i>
    <i name="e_fr_energy">   3562.14551781 </i>
    <i name="e_wo_entrp">   3562.18931621 </i>
    <i name="e_0_energy">   3562.16741701 </i>
   </energy>
  </scstep>
  <scstep>
   <time name="dav">  105.51  106.27</time>
   <time name="total">  105.51  106.27</time>
   <energy>
    <i name="e_fr_energy">   -220.30433028 </i>
    <i name="e_wo_entrp">   -220.29677133 </i>
    <i name="e_0_energy">   -220.30055080 </i>
   </energy>
  </scstep>
  <scstep>
   <time name="dav">   90.25   90.95</time>
   <time name="total">   90.25   90.96</time>
   <energy>
    <i name="e_fr_energy">   -873.88983862 </i>
    <i name="e_wo_entrp">   -873.88396006 </i>
    <i name="e_0_energy">   -873.88689934 </i>
   </energy>
  </scstep>
  <scstep>
   <time name="dav">   90.43   91.06</time>
   <time name="total">   90.43   91.06</time>
   <energy>
    <i name="e_fr_energy">   -895.96489968 </i>
    <i name="e_wo_entrp">   -895.95945934 </i>
    <i name="e_0_energy">   -895.96217951 </i>
   </energy>
  </scstep>
  <scstep>
   <time name="dav">  100.57  101.25</time>
   <time name="total">  106.53  107.36</time>
   <energy>
    <i name="e_fr_energy">   -896.62709177 </i>
    <i name="e_wo_entrp">   -896.62169817 </i>
    <i name="e_0_energy">   -896.62439497 </i>
   </energy>
  </scstep>
  <scstep>
   <time name="dav">   89.66   90.35</time>
   <time name="total">  101.61  102.39</time>
   <energy>
    <i name="e_fr_energy">   -878.22291611 </i>
    <i name="e_wo_entrp">   -878.22171600 </i>
    <i name="e_0_energy">   -878.22231605 </i>
   </energy>
  </scstep>
  <scstep>
   <time name="dav">   88.64   89.25</time>
   <time name="total">  100.56  101.26</time>
   <energy>
    <i name="e_fr_energy">   -856.53054721 </i>
    <i name="e_wo_entrp">   -856.53054625 </i>
    <i name="e_0_energy">   -856.53054673 </i>
   </energy>
  </scstep>
  <scstep>
   <time name="dav">   89.91   90.61</time>
   <time name="total">  101.71  102.49</time>
   <energy>
    <i name="e_fr_energy">   -851.55328739 </i>
    <i name="e_wo_entrp">   -851.55328739 </i>
    <i name="e_0_energy">   -851.55328739 </i>
   </energy>
  </scstep>
  <scstep>
   <time name="dav">   88.80   89.45</time>
   <time name="total">  100.78  101.54</time>
   <energy>
    <i name="e_fr_energy">   -851.68855761 </i>
    <i name="e_wo_entrp">   -851.68855761 </i>
    <i name="e_0_energy">   -851.68855761 </i>
   </energy>
  </scstep>
  <scstep>
   <time name="dav">   86.86   87.46</time>
   <time name="total">   98.89   99.58</time>
   <energy>
    <i name="e_fr_energy">   -851.50336346 </i>
    <i name="e_wo_entrp">   -851.50336346 </i>
    <i name="e_0_energy">   -851.50336346 </i>
   </energy>
  </scstep>
  <scstep>
   <time name="dav">   85.84   86.41</time>
   <time name="total">   98.08   98.75</time>
   <energy>
    <i name="e_fr_energy">   -851.48993627 </i>
    <i name="e_wo_entrp">   -851.48993627 </i>
    <i name="e_0_energy">   -851.48993627 </i>
   </energy>
  </scstep>
  <scstep>
   <time name="dav">   88.61   89.23</time>
   <time name="total">  100.87  101.56</time>
   <energy>
    <i name="e_fr_energy">   -851.48962445 </i>
    <i name="e_wo_entrp">   -851.48962444 </i>
    <i name="e_0_energy">   -851.48962444 </i>
   </energy>
  </scstep>
  <scstep>
   <time name="dav">   89.69   90.30</time>
   <time name="total">  101.98  102.68</time>
   <energy>
    <i name="e_fr_energy">   -851.48977464 </i>
    <i name="e_wo_entrp">   -851.48977464 </i>
    <i name="e_0_energy">   -851.48977464 </i>
   </energy>
  </scstep>
  <scstep>
   <time name="dav">   87.49   88.13</time>
   <time name="total">   99.72  100.45</time>
   <energy>
    <i name="e_fr_energy">   -851.48976151 </i>
    <i name="e_wo_entrp">   -851.48976151 </i>
    <i name="e_0_energy">   -851.48976151 </i>
   </energy>
  </scstep>
  <scstep>
   <time name="dav">   84.24   84.81</time>
   <time name="total">   96.53   97.19</time>
   <energy>
    <i name="e_fr_energy">   -851.48983398 </i>
    <i name="e_wo_entrp">   -851.48983397 </i>
    <i name="e_0_energy">   -851.48983397 </i>
   </energy>
  </scstep>
  <scstep>
   <time name="dav">   84.45   85.04</time>
   <time name="total">   96.77   97.44</time>
   <energy>
    <i name="e_fr_energy">   -851.48983773 </i>
    <i name="e_wo_entrp">   -851.48983773 </i>
    <i name="e_0_energy">   -851.48983773 </i>
   </energy>
  </scstep>
  <scstep>
   <time name="dav">   88.04   88.73</time>
   <time name="total">  100.36  101.13</time>
   <energy>
    <i name="e_fr_energy">   -851.48983809 </i>
    <i name="e_wo_entrp">   -851.48983809 </i>
    <i name="e_0_energy">   -851.48983809 </i>
   </energy>
  </scstep>
  <scstep>
   <time name="dav">   82.86   83.41</time>
   <time name="total">   95.16   95.80</time>
   <energy>
    <i name="e_fr_energy">   -851.48983664 </i>
    <i name="e_wo_entrp">   -851.48983664 </i>
    <i name="e_0_energy">   -851.48983664 </i>
   </energy>
  </scstep>
  <scstep>
   <time name="dav">   54.85   55.16</time>
   <time name="total">   60.77   61.12</time>
   <energy>
    <i name="alphaZ">    196.80145815 </i>
    <i name="ewald">  38983.09041058 </i>
    <i name="hartreedc"> -52837.55321130 </i>
    <i name="XCdc">   1406.57818663 </i>
    <i name="pawpsdc">  39600.11819666 </i>
    <i name="pawaedc"> -39683.41457701 </i>
    <i name="eentropy">     -0.00000000 </i>
    <i name="bandstr">  -4611.95340945 </i>
    <i name="atom">  16094.84310894 </i>
    <i name="e_fr_energy">   -851.48983680 </i>
    <i name="e_wo_entrp">   -851.48983680 </i>
    <i name="e_0_energy">   -851.48983680 </i>
   </energy>
  </scstep>
  <structure>
   <crystal>
    <varray name="basis" >
     <v>      17.27103806       0.00000000       0.00000000 </v>
     <v>      -8.63551903      14.95715771       0.00000000 </v>
     <v>       0.00000000       0.00000000      15.00000000 </v>
    </varray>
    <i name="volume">   3874.88459904 </i>
    <varray name="rec_basis" >
     <v>       0.05790040       0.03342881       0.00000000 </v>
     <v>       0.00000000       0.06685762       0.00000000 </v>
     <v>       0.00000000       0.00000000       0.06666667 </v>
    </varray>
   </crystal>
   <varray name="positions" >
    <v>       0.00190708       0.00146073       0.49396312 </v>
    <v>       0.00138980       0.14400318       0.49196635 </v>
    <v>       0.00110165       0.28669320       0.49055217 </v>
    <v>       0.00160754       0.42973896       0.49247025 </v>
    <v>       0.00226959       0.57288014       0.49426643 </v>
    <v>       0.00324422       0.71620708       0.49693934 </v>
    <v>       0.00303005       0.85929346       0.49665684 </v>
    <v>       0.14494735       0.00181832       0.48446730 </v>
    <v>       0.14407503       0.14410255       0.47823637 </v>
    <v>       0.14249320       0.28580116       0.47091279 </v>
    <v>       0.14278822       0.42905087       0.47232254 </v>
    <v>       0.14447804       0.57237839       0.48077607 </v>
    <v>       0.14515491       0.71563304       0.48630461 </v>
    <v>       0.14528765       0.85892064       0.48863845 </v>
    <v>       0.28750855       0.00152613       0.48188921 </v>
    <v>       0.28700063       0.14394240       0.46884305 </v>
    <v>       0.28430115       0.28531467       0.44603809 </v>
    <v>       0.27922948       0.42581120       0.43101586 </v>
    <v>       0.28530462       0.57159584       0.45157749 </v>
    <v>       0.28725430       0.71557479       0.47370088 </v>
    <v>       0.28749117       0.85865995       0.48380426 </v>
    <v>       0.43035188       0.00166741       0.48558973 </v>
    <v>       0.43018584       0.14431400       0.47783807 </v>
    <v>       0.42836357       0.28361669       0.46016745 </v>
    <v>       0.42862657       0.71756834       0.46887437 </v>
    <v>       0.43006598       0.85872786       0.48260588 </v>
    <v>       0.57285245       0.00176387       0.49252290 </v>
    <v>       0.57291726       0.14413591       0.49026829 </v>
    <v>       0.57376002       0.28746099       0.48415192 </v>
    <v>       0.57358112       0.85945544       0.48950155 </v>
    <v>       0.71573000       0.00137985       0.49967084 </v>
    <v>       0.71585556       0.14425184       0.49832038 </v>
    <v>       0.71574558       0.28696154       0.49752987 </v>
    <v>       0.71515911       0.42872951       0.50260405 </v>
    <v>       0.72443590       0.57588651       0.53007840 </v>
    <v>       0.72314504       0.71903223       0.52528587 </v>
    <v>       0.71484203       0.85859963       0.50364755 </v>
    <v>       0.85890784       0.00153153       0.50178857 </v>
    <v>       0.85857253       0.14412943       0.49966460 </v>
    <v>       0.85862244       0.28686831       0.49923647 </v>
    <v>       0.85912832       0.42978481       0.50092447 </v>
    <v>       0.86031492       0.57338331       0.50416528 </v>
    <v>       0.86198766       0.71701267       0.50931888 </v>
    <v>       0.85978366       0.85880988       0.50507951 </v>
    <v>       0.04933960       0.09668844       0.48875600 </v>
    <v>       0.04827636       0.23879481       0.48561768 </v>
    <v>       0.04842735       0.38177521       0.48630361 </v>
    <v>       0.04965294       0.52502940       0.48988393 </v>
    <v>       0.05013936       0.66820871       0.49249844 </v>
    <v>       0.05032437       0.81139657       0.49414038 </v>
    <v>       0.04991683       0.95417513       0.49172530 </v>
    <v>       0.19195445       0.09643147       0.47634666 </v>
    <v>       0.19041884       0.23863076       0.46652720 </v>
    <v>       0.18811122       0.38017012       0.45988128 </v>
    <v>       0.19085631       0.52419482       0.46936658 </v>
    <v>       0.19220453       0.66795916       0.47948944 </v>
    <v>       0.19261808       0.81110993       0.48607553 </v>
    <v>       0.19257330       0.95401769       0.48476784 </v>
    <v>       0.33500400       0.09687785       0.47596592 </v>
    <v>       0.33493202       0.23868817       0.45583814 </v>
    <v>       0.32087101       0.37380503       0.41789590 </v>
    <v>       0.32250811       0.52009399       0.42379430 </v>
    <v>       0.33545850       0.66872828       0.46282881 </v>
    <v>       0.33498399       0.81073173       0.48008421 </v>
    <v>       0.33498042       0.95387404       0.48401180 </v>
    <v>       0.47784479       0.09675021       0.48505297 </v>
    <v>       0.47707188       0.23941414       0.47357841 </v>
    <v>       0.47697131       0.81062981       0.48051331 </v>
    <v>       0.47778040       0.95406858       0.48755054 </v>
    <v>       0.62043012       0.09671651       0.49459381 </v>
    <v>       0.62061210       0.23936349       0.49127264 </v>
    <v>       0.62255240       0.38065203       0.49029678 </v>
    <v>       0.62207929       0.81483626       0.49410856 </v>
    <v>       0.62057098       0.95429424       0.49477631 </v>
    <v>       0.76349478       0.09677833       0.50008086 </v>
    <v>       0.76351517       0.23929688       0.49910900 </v>
    <v>       0.76376067       0.38200517       0.50122323 </v>
    <v>       0.76476926       0.52542961       0.51219296 </v>
    <v>       0.76767310       0.66964286       0.52336310 </v>
    <v>       0.76389404       0.81070885       0.51143336 </v>
    <v>       0.76358269       0.95404565       0.50267909 </v>
    <v>       0.90627812       0.09640681       0.49873957 </v>
    <v>       0.90612379       0.23924662       0.49750802 </v>
    <v>       0.90644465       0.38226300       0.49837135 </v>
    <v>       0.90718832       0.52535043       0.49937154 </v>
    <v>       0.90829920       0.66857834       0.50389514 </v>
    <v>       0.90799229       0.81180086       0.50390393 </v>
    <v>       0.90679942       0.95383323       0.50026718 </v>
    <v>       0.46388481       0.35589923       0.45563555 </v>
    <v>       0.58649255       0.41670800       0.48571549 </v>
    <v>       0.58544197       0.74293566       0.49003319 </v>
    <v>       0.46475963       0.68144863       0.46544970 </v>
    <v>       0.49464291       0.52989105       0.48477414 </v>
    <v>       0.49950549       0.51593672       0.58490202 </v>
    <v>       0.40159057       0.41325063       0.37598638 </v>
    <v>       0.40698162       0.56289488       0.38948980 </v>
    <v>       0.63284748       0.67089366       0.53923805 </v>
    <v>       0.63681094       0.53241354       0.55547613 </v>
    <v>       0.45827972       0.49515384       0.53488800 </v>
   </varray>
  </structure>
  <varray name="forces" >
   <v>      -0.00026185       0.00003413      -0.00321410 </v>
   <v>      -0.00075659      -0.00082346      -0.00578405 </v>
   <v>      -0.00259157      -0.00222383      -0.00688378 </v>
   <v>      -0.00212148      -0.00163692      -0.00927340 </v>
   <v>       0.00125152      -0.00049218      -0.00507769 </v>
   <v>       0.00347139       0.00318091      -0.00204802 </v>
   <v>       0.00094694       0.00518489      -0.00157812 </v>
   <v>       0.00102498      -0.00058256      -0.00583294 </v>
   <v>       0.00340256      -0.00214300      -0.00702404 </v>
   <v>       0.00283920      -0.00346571      -0.00687148 </v>
   <v>      -0.00021132      -0.00391055      -0.00740814 </v>
   <v>      -0.00165657       0.00048722      -0.00874828 </v>
   <v>       0.00214029       0.00290389      -0.00758058 </v>
   <v>       0.00345361       0.00273650      -0.00567993 </v>
   <v>       0.00225816      -0.00116215      -0.00767541 </v>
   <v>      -0.00021105      -0.00240018      -0.00456587 </v>
   <v>       0.00041502      -0.00102208      -0.00432102 </v>
   <v>       0.00439483      -0.00941252      -0.00602632 </v>
   <v>      -0.00081510      -0.00281305      -0.00990060 </v>
   <v>       0.00025059       0.00250184      -0.00969253 </v>
   <v>       0.00217055       0.00180069      -0.00871749 </v>
   <v>      -0.00030174       0.00135563      -0.00739730 </v>
   <v>       0.00365591      -0.00275754      -0.00390519 </v>
   <v>       0.00075403      -0.00514590       0.00143515 </v>
   <v>      -0.00079647       0.00250745      -0.00893862 </v>
   <v>      -0.00281559       0.00245475      -0.00886947 </v>
   <v>      -0.00213005       0.00174146      -0.00825314 </v>
   <v>      -0.00078664      -0.00034921      -0.00655858 </v>
   <v>       0.00231545      -0.01349617       0.00137075 </v>
   <v>      -0.00493510       0.00311454      -0.00468405 </v>
   <v>      -0.00490126       0.00293073      -0.00408153 </v>
   <v>      -0.00659828       0.00198004      -0.00723989 </v>
   <v>       0.00027601      -0.00775735      -0.00449272 </v>
   <v>       0.00235867      -0.00413799       0.00463340 </v>
   <v>       0.00142331       0.00225963       0.01210090 </v>
   <v>       0.00470069       0.00690408       0.02114533 </v>
   <v>       0.00999533       0.00549170       0.00365788 </v>
   <v>      -0.00007102       0.00134599      -0.00232656 </v>
   <v>      -0.00379340       0.00205420      -0.00637976 </v>
   <v>      -0.00390406      -0.00085757      -0.00719704 </v>
   <v>       0.00095449      -0.00253779      -0.00300839 </v>
   <v>       0.00224304      -0.00057790       0.00306451 </v>
   <v>       0.00108723       0.00370160       0.00598621 </v>
   <v>      -0.00101556       0.00275335       0.00187330 </v>
   <v>      -0.00216312      -0.00040189      -0.00485875 </v>
   <v>      -0.00049631       0.00102301      -0.00680921 </v>
   <v>       0.00007628       0.00071329      -0.00997436 </v>
   <v>      -0.00085192       0.00036138      -0.00794677 </v>
   <v>      -0.00308323       0.00079450      -0.00361877 </v>
   <v>      -0.00117507      -0.00410416      -0.00219457 </v>
   <v>      -0.00019137      -0.00249119      -0.00330225 </v>
   <v>      -0.00105183      -0.00009089      -0.00591958 </v>
   <v>      -0.00642493       0.00143040      -0.00490399 </v>
   <v>      -0.00625813       0.00414699      -0.00681042 </v>
   <v>       0.00003340       0.00045239      -0.00984828 </v>
   <v>      -0.00338989      -0.00023822      -0.00792572 </v>
   <v>      -0.00242641      -0.00589951      -0.00724089 </v>
   <v>      -0.00075558      -0.00165652      -0.00644579 </v>
   <v>      -0.00234132       0.00036616      -0.00602602 </v>
   <v>       0.00153533       0.00226318      -0.00263986 </v>
   <v>      -0.00094199       0.00241637      -0.00412404 </v>
   <v>       0.00029318       0.00427778      -0.00474847 </v>
   <v>       0.00177495      -0.00201982      -0.01131843 </v>
   <v>       0.00212911      -0.00441140      -0.00842580 </v>
   <v>      -0.00026115      -0.00282640      -0.00715464 </v>
   <v>      -0.00206025      -0.00086354      -0.00620299 </v>
   <v>      -0.00463183       0.00561972      -0.00046976 </v>
   <v>       0.00625807      -0.00298772      -0.00722512 </v>
   <v>       0.00182703      -0.00324757      -0.00771324 </v>
   <v>       0.00194725      -0.00259222      -0.00824074 </v>
   <v>      -0.00415214       0.00350904      -0.00191860 </v>
   <v>      -0.00752025       0.01438871       0.00540998 </v>
   <v>      -0.00219921      -0.00941124      -0.00210907 </v>
   <v>       0.00269446      -0.00497869      -0.00632595 </v>
   <v>       0.00212954      -0.00348842      -0.00736714 </v>
   <v>       0.00002033       0.00110419      -0.00631363 </v>
   <v>      -0.00424587       0.00698100       0.00000454 </v>
   <v>      -0.00191273       0.00008361       0.00745226 </v>
   <v>       0.00383282      -0.00135955       0.01543530 </v>
   <v>      -0.00111781      -0.00275474       0.00994270 </v>
   <v>      -0.00073496      -0.00384383      -0.00125349 </v>
   <v>       0.00245709      -0.00412155      -0.00591951 </v>
   <v>       0.00100889      -0.00015893      -0.00694146 </v>
   <v>      -0.00099200       0.00252677      -0.00679896 </v>
   <v>      -0.00333620       0.00116740      -0.00158842 </v>
   <v>      -0.00079925      -0.00148486       0.00232675 </v>
   <v>       0.00150048      -0.00554055       0.00169709 </v>
   <v>       0.00011850      -0.00097007      -0.00236359 </v>
   <v>      -0.00060977       0.00287283       0.00380660 </v>
   <v>       0.00248112      -0.00356190       0.00947863 </v>
   <v>       0.00307270       0.00021081      -0.00032103 </v>
   <v>       0.00077187      -0.00184795      -0.00603196 </v>
   <v>       0.00195516       0.01410528       0.00188146 </v>
   <v>      -0.00363738       0.00514672      -0.00104617 </v>
   <v>       0.00364699       0.00055238       0.00062625 </v>
   <v>       0.00012317      -0.00108755      -0.00503493 </v>
   <v>       0.00750574       0.00445973       0.04671455 </v>
   <v>      -0.00101453      -0.00063528       0.00869939 </v>
   <v>       0.00447391       0.00838293       0.27191543 </v>
  </varray>
  <varray name="stress" >
   <v>       1.20067091       0.00168880       0.00756492 </v>
   <v>       0.00168822       0.78936383       0.01184170 </v>
   <v>       0.00756513       0.01184191      -0.22290198 </v>
  </varray>
  <energy>
   <i name="e_fr_energy">   -859.40156125 </i>
   <i name="e_wo_entrp">   -859.40156125 </i>
   <i name="e_0_energy">   -859.40156125 </i>
  </energy>
  <time name="totalsc"> 2011.02 2025.41</time>
 </calculation>
 <calculation>
  <scstep>
   <time name="dav">   80.54   81.10</time>
   <time name="total">   92.38   93.01</time>
   <energy>
    <i name="alphaZ">    196.80145815 </i>
    <i name="ewald">  38982.08544610 </i>
    <i name="hartreedc"> -52836.52770561 </i>
    <i name="XCdc">   1406.57683249 </i>
    <i name="pawpsdc">  39599.87034405 </i>
    <i name="pawaedc"> -39683.16641470 </i>
    <i name="eentropy">     -0.00000000 </i>
    <i name="bandstr">  -4611.97347488 </i>
    <i name="atom">  16094.84310894 </i>
    <i name="e_fr_energy">   -851.49040547 </i>
    <i name="e_wo_entrp">   -851.49040547 </i>
    <i name="e_0_energy">   -851.49040547 </i>
   </energy>
  </scstep>
  <scstep>
   <time name="dav">   82.39   82.93</time>
   <time name="total">   93.88   94.50</time>
   <energy>
    <i name="e_fr_energy">   -851.49045887 </i>
    <i name="e_wo_entrp">   -851.49045887 </i>
    <i name="e_0_energy">   -851.49045887 </i>
   </energy>
  </scstep>
  <scstep>
   <time name="dav">   82.85   83.42</time>
   <time name="total">   93.40   94.06</time>
   <energy>
    <i name="e_fr_energy">   -851.49044331 </i>
    <i name="e_wo_entrp">   -851.49044331 </i>
    <i name="e_0_energy">   -851.49044331 </i>
   </energy>
  </scstep>
  <scstep>
   <time name="dav">   71.81   72.33</time>
   <time name="total">   81.36   81.94</time>
   <energy>
    <i name="e_fr_energy">   -851.49046246 </i>
    <i name="e_wo_entrp">   -851.49046246 </i>
    <i name="e_0_energy">   -851.49046246 </i>
   </energy>
  </scstep>
  <scstep>
   <time name="dav">   52.02   52.36</time>
   <time name="total">   60.56   60.96</time>
   <energy>
    <i name="e_fr_energy">   -851.49046401 </i>
    <i name="e_wo_entrp">   -851.49046400 </i>
    <i name="e_0_energy">   -851.49046401 </i>
   </energy>
  </scstep>
  <scstep>
   <time name="dav">   38.06   38.28</time>
   <time name="total">   46.12   46.39</time>
   <energy>
    <i name="e_fr_energy">   -851.49046599 </i>
    <i name="e_wo_entrp">   -851.49046599 </i>
    <i name="e_0_energy">   -851.49046599 </i>
   </energy>
  </scstep>
  <scstep>
   <time name="dav">   37.91   38.08</time>
   <time name="total">   41.88   42.08</time>
   <energy>
    <i name="alphaZ">    196.80145815 </i>
    <i name="ewald">  38982.08544610 </i>
    <i name="hartreedc"> -52836.45397886 </i>
    <i name="XCdc">   1406.57668465 </i>
    <i name="pawpsdc">  39599.59530455 </i>
    <i name="pawaedc"> -39682.89125835 </i>
    <i name="eentropy">     -0.00000000 </i>
    <i name="bandstr">  -4612.04723151 </i>
    <i name="atom">  16094.84310894 </i>
    <i name="e_fr_energy">   -851.49046634 </i>
    <i name="e_wo_entrp">   -851.49046633 </i>
    <i name="e_0_energy">   -851.49046633 </i>
   </energy>
  </scstep>
  <structure>
   <crystal>
    <varray name="basis" >
     <v>      17.27103806       0.00000000       0.00000000 </v>
     <v>      -8.63551903      14.95715771       0.00000000 </v>
     <v>       0.00000000       0.00000000      15.00000000 </v>
    </varray>
    <i name="volume">   3874.88459904 </i>
    <varray name="rec_basis" >
     <v>       0.05790040       0.03342881       0.00000000 </v>
     <v>       0.00000000       0.06685762       0.00000000 </v>
     <v>       0.00000000       0.00000000       0.06666667 </v>
    </varray>
   </crystal>
   <varray name="positions" >
    <v>       0.00190674       0.00146064       0.49396103 </v>
    <v>       0.00138887       0.14400251       0.49196217 </v>
    <v>       0.00109919       0.28669162       0.49054705 </v>
    <v>       0.00160555       0.42973778       0.49246365 </v>
    <v>       0.00226995       0.57287974       0.49426302 </v>
    <v>       0.00324714       0.71620913       0.49693832 </v>
    <v>       0.00303217       0.85929684       0.49665617 </v>
    <v>       0.14494755       0.00181782       0.48446302 </v>
    <v>       0.14407605       0.14410098       0.47823126 </v>
    <v>       0.14249345       0.28579871       0.47090763 </v>
    <v>       0.14278657       0.42904816       0.47231694 </v>
    <v>       0.14447702       0.57237863       0.48076957 </v>
    <v>       0.14515692       0.71563490       0.48629902 </v>
    <v>       0.14529038       0.85892237       0.48863422 </v>
    <v>       0.28750931       0.00152528       0.48188356 </v>
    <v>       0.28699953       0.14394071       0.46883973 </v>
    <v>       0.28430086       0.28531387       0.44603499 </v>
    <v>       0.27922874       0.42580481       0.43101154 </v>
    <v>       0.28530305       0.57159388       0.45157047 </v>
    <v>       0.28725511       0.71557638       0.47369387 </v>
    <v>       0.28749287       0.85866108       0.48379778 </v>
    <v>       0.43035202       0.00166826       0.48558446 </v>
    <v>       0.43018690       0.14431215       0.47783558 </v>
    <v>       0.42836213       0.28361329       0.46016900 </v>
    <v>       0.42862681       0.71756991       0.46886849 </v>
    <v>       0.43006504       0.85872941       0.48259976 </v>
    <v>       0.57285165       0.00176494       0.49251736 </v>
    <v>       0.57291653       0.14413565       0.49026406 </v>
    <v>       0.57375667       0.28745203       0.48415412 </v>
    <v>       0.57357914       0.85945734       0.48949926 </v>
    <v>       0.71572797       0.00138169       0.49966857 </v>
    <v>       0.71585222       0.14425308       0.49831559 </v>
    <v>       0.71574297       0.28695632       0.49752751 </v>
    <v>       0.71515896       0.42872670       0.50260925 </v>
    <v>       0.72443791       0.57588812       0.53009014 </v>
    <v>       0.72315043       0.71903712       0.52530348 </v>
    <v>       0.71484952       0.85860322       0.50365184 </v>
    <v>       0.85890809       0.00153234       0.50178755 </v>
    <v>       0.85857083       0.14413071       0.49966025 </v>
    <v>       0.85861970       0.28686766       0.49923159 </v>
    <v>       0.85912785       0.42978305       0.50092303 </v>
    <v>       0.86031594       0.57338288       0.50416876 </v>
    <v>       0.86198953       0.71701515       0.50932472 </v>
    <v>       0.85978392       0.85881170       0.50508217 </v>
    <v>       0.04933799       0.09668804       0.48875246 </v>
    <v>       0.04827618       0.23879537       0.48561260 </v>
    <v>       0.04842741       0.38177559       0.48629634 </v>
    <v>       0.04965235       0.52502956       0.48987818 </v>
    <v>       0.05013766       0.66820916       0.49249590 </v>
    <v>       0.05032216       0.81139374       0.49413899 </v>
    <v>       0.04991569       0.95417336       0.49172307 </v>
    <v>       0.19195360       0.09643129       0.47634228 </v>
    <v>       0.19041537       0.23863157       0.46652349 </v>
    <v>       0.18810876       0.38017277       0.45987619 </v>
    <v>       0.19085627       0.52419504       0.46935936 </v>
    <v>       0.19220229       0.66795892       0.47948350 </v>
    <v>       0.19261453       0.81110591       0.48607008 </v>
    <v>       0.19257213       0.95401649       0.48476303 </v>
    <v>       0.33500262       0.09687804       0.47596162 </v>
    <v>       0.33493353       0.23868963       0.45583640 </v>
    <v>       0.32087111       0.37380652       0.41789294 </v>
    <v>       0.32250962       0.52009676       0.42379098 </v>
    <v>       0.33545872       0.66872685       0.46282094 </v>
    <v>       0.33498361       0.81072870       0.48007806 </v>
    <v>       0.33497918       0.95387208       0.48400647 </v>
    <v>       0.47784315       0.09674959       0.48504880 </v>
    <v>       0.47707092       0.23941793       0.47357883 </v>
    <v>       0.47697380       0.81062769       0.48050876 </v>
    <v>       0.47778022       0.95406633       0.48754518 </v>
    <v>       0.62043021       0.09671471       0.49458832 </v>
    <v>       0.62061069       0.23936583       0.49127203 </v>
    <v>       0.62255265       0.38066166       0.49030272 </v>
    <v>       0.62207468       0.81482982       0.49410905 </v>
    <v>       0.62057071       0.95429077       0.49477245 </v>
    <v>       0.76349466       0.09677589       0.50007603 </v>
    <v>       0.76351536       0.23929756       0.49910494 </v>
    <v>       0.76376038       0.38200980       0.50122433 </v>
    <v>       0.76476822       0.52542966       0.51220042 </v>
    <v>       0.76767513       0.66964208       0.52337653 </v>
    <v>       0.76389248       0.81070705       0.51144236 </v>
    <v>       0.76358081       0.95404297       0.50267918 </v>
    <v>       0.90627797       0.09640394       0.49873561 </v>
    <v>       0.90612412       0.23924643       0.49750310 </v>
    <v>       0.90644473       0.38226462       0.49836678 </v>
    <v>       0.90718663       0.52535115       0.49937111 </v>
    <v>       0.90829817       0.66857732       0.50389792 </v>
    <v>       0.90799123       0.81179712       0.50390629 </v>
    <v>       0.90679902       0.95383250       0.50026624 </v>
    <v>       0.46388530       0.35590121       0.45563898 </v>
    <v>       0.58649260       0.41670568       0.48572494 </v>
    <v>       0.58544361       0.74293561       0.49003569 </v>
    <v>       0.46475936       0.68144731       0.46544590 </v>
    <v>       0.49464902       0.52989997       0.48477177 </v>
    <v>       0.49951075       0.51594487       0.58489609 </v>
    <v>       0.40159275       0.41325083       0.37598666 </v>
    <v>       0.40698146       0.56289409       0.38948677 </v>
    <v>       0.63285396       0.67089728       0.53927414 </v>
    <v>       0.63681130       0.53241336       0.55548728 </v>
    <v>       0.45829100       0.49516077       0.53506590 </v>
   </varray>
  </structure>
  <varray name="forces" >
   <v>      -0.00047671      -0.00046070      -0.00334531 </v>
   <v>      -0.00073257      -0.00032605      -0.00596383 </v>
   <v>      -0.00100589      -0.00044064      -0.00735516 </v>
   <v>      -0.00097330      -0.00023486      -0.00951359 </v>
   <v>      -0.00096857       0.00019706      -0.00500796 </v>
   <v>       0.00003739       0.00016977      -0.00174910 </v>
   <v>       0.00056309      -0.00203091      -0.00164295 </v>
   <v>      -0.00012097      -0.00108939      -0.00583044 </v>
   <v>      -0.00316286      -0.00019795      -0.00551308 </v>
   <v>      -0.00153881       0.00015702      -0.00685108 </v>
   <v>      -0.00161120      -0.00033532      -0.00777925 </v>
   <v>      -0.00098289      -0.00000553      -0.00903951 </v>
   <v>      -0.00195647      -0.00209568      -0.00605329 </v>
   <v>      -0.00041362      -0.00104696      -0.00405831 </v>
   <v>       0.00021263      -0.00107571      -0.00775522 </v>
   <v>      -0.00076451      -0.00050266      -0.00493883 </v>
   <v>      -0.00050126      -0.00022829      -0.00448531 </v>
   <v>       0.00029156      -0.00174123      -0.00568968 </v>
   <v>      -0.00088024      -0.00104896      -0.00972295 </v>
   <v>       0.00010374      -0.00126685      -0.01007151 </v>
   <v>       0.00106734      -0.00182752      -0.00726685 </v>
   <v>      -0.00007072      -0.00094577      -0.00748960 </v>
   <v>      -0.00049241      -0.00015293      -0.00435304 </v>
   <v>      -0.00088705       0.00099966       0.00083621 </v>
   <v>       0.00092253      -0.00041006      -0.00935770 </v>
   <v>       0.00073506      -0.00132628      -0.00906060 </v>
   <v>       0.00048255      -0.00160504      -0.00836131 </v>
   <v>      -0.00082773      -0.00056532      -0.00654317 </v>
   <v>      -0.00211372       0.00129723       0.00163164 </v>
   <v>       0.00050754      -0.00225876      -0.00474659 </v>
   <v>       0.00195622      -0.00231256      -0.00495289 </v>
   <v>      -0.00174015      -0.00019748      -0.00733586 </v>
   <v>      -0.00223210       0.00204734      -0.00310769 </v>
   <v>      -0.00217490       0.00055534       0.00492155 </v>
   <v>       0.00070661       0.00010728       0.01271803 </v>
   <v>       0.00418258       0.00238172       0.02239906 </v>
   <v>       0.00130554      -0.00088042       0.00311331 </v>
   <v>      -0.00058546      -0.00068285      -0.00238595 </v>
   <v>      -0.00074567      -0.00043648      -0.00655781 </v>
   <v>       0.00118277       0.00037104      -0.00687994 </v>
   <v>      -0.00134883       0.00040620      -0.00297092 </v>
   <v>      -0.00064142      -0.00005225       0.00336410 </v>
   <v>       0.00154884      -0.00033114       0.00628587 </v>
   <v>       0.00034028      -0.00048068       0.00205306 </v>
   <v>      -0.00023523      -0.00051986      -0.00518696 </v>
   <v>      -0.00070291      -0.00046342      -0.00684942 </v>
   <v>      -0.00160293      -0.00118333      -0.00964597 </v>
   <v>      -0.00086090      -0.00062529      -0.00811110 </v>
   <v>      -0.00005884       0.00063653      -0.00403872 </v>
   <v>       0.00063377       0.00080110      -0.00255978 </v>
   <v>       0.00009677       0.00031971      -0.00356043 </v>
   <v>       0.00000056      -0.00092847      -0.00608829 </v>
   <v>       0.00368795      -0.00188944      -0.00614507 </v>
   <v>       0.00211956      -0.00251825      -0.00747802 </v>
   <v>      -0.00142151      -0.00085188      -0.00969011 </v>
   <v>      -0.00117326       0.00065661      -0.00838328 </v>
   <v>       0.00181007       0.00182447      -0.00710949 </v>
   <v>       0.00066608      -0.00022096      -0.00668453 </v>
   <v>       0.00004085      -0.00085012      -0.00591759 </v>
   <v>      -0.00054932      -0.00059913      -0.00247826 </v>
   <v>       0.00079523      -0.00163607      -0.00343809 </v>
   <v>       0.00051544      -0.00182340      -0.00496281 </v>
   <v>      -0.00001399      -0.00062674      -0.01114544 </v>
   <v>       0.00115418      -0.00143349      -0.00706296 </v>
   <v>       0.00068245      -0.00115313      -0.00743548 </v>
   <v>      -0.00019310      -0.00063737      -0.00620649 </v>
   <v>      -0.00050078      -0.00091916       0.00023999 </v>
   <v>       0.00056222       0.00035161      -0.00735313 </v>
   <v>      -0.00041188      -0.00044845      -0.00793068 </v>
   <v>      -0.00111773      -0.00051676      -0.00841431 </v>
   <v>       0.00064844      -0.00112315      -0.00334312 </v>
   <v>      -0.00073196      -0.00041733       0.00532312 </v>
   <v>       0.00117326      -0.00013252      -0.00114770 </v>
   <v>       0.00257632       0.00191402      -0.00520554 </v>
   <v>      -0.00211008       0.00010411      -0.00733974 </v>
   <v>      -0.00152184      -0.00052969      -0.00648930 </v>
   <v>      -0.00078371      -0.00124202      -0.00034684 </v>
   <v>      -0.00011333      -0.00014415       0.00746967 </v>
   <v>       0.00325564       0.00334345       0.01412608 </v>
   <v>       0.00129324       0.00133488       0.00961608 </v>
   <v>      -0.00066742       0.00027305      -0.00125397 </v>
   <v>      -0.00254604       0.00263525      -0.00448029 </v>
   <v>      -0.00193300      -0.00016124      -0.00543377 </v>
   <v>      -0.00123435      -0.00047415      -0.00692331 </v>
   <v>      -0.00035071      -0.00033671      -0.00172163 </v>
   <v>       0.00075573       0.00025767       0.00222516 </v>
   <v>       0.00038610       0.00160877       0.00278827 </v>
   <v>      -0.00007225      -0.00015551      -0.00231239 </v>
   <v>      -0.00063293       0.00024716       0.00399404 </v>
   <v>      -0.00247003      -0.00027809       0.00926892 </v>
[...]
       <r>   -17.2361    11.5036    38.6368 </r>
       <r>   -17.1112     4.9559    39.2556 </r>
       <r>   -16.9863     5.3993    39.9298 </r>
       <r>   -16.8615     9.5760    41.1255 </r>
       <r>   -16.7366     7.0318    42.0035 </r>
       <r>   -16.6118     7.5465    42.9458 </r>
       <r>   -16.4869     1.9693    43.1917 </r>
       <r>   -16.3620    14.5813    45.0123 </r>
       <r>   -16.2372    12.6873    46.5965 </r>
       <r>   -16.1123     3.5568    47.0406 </r>
       <r>   -15.9874     4.1292    47.5562 </r>
       <r>   -15.8626     1.5487    47.7496 </r>
       <r>   -15.7377     1.6966    47.9614 </r>
       <r>   -15.6128     2.3477    48.2546 </r>
       <r>   -15.4880     5.6296    48.9575 </r>
       <r>   -15.3631     6.9268    49.8224 </r>
       <r>   -15.2383     8.9199    50.9362 </r>
       <r>   -15.1134     6.7637    51.7807 </r>
       <r>   -14.9885    12.3206    53.3191 </r>
       <r>   -14.8637     9.8576    54.5500 </r>
       <r>   -14.7388     4.7137    55.1385 </r>
       <r>   -14.6139     8.4378    56.1921 </r>
       <r>   -14.4891    10.0859    57.4515 </r>
       <r>   -14.3642    10.9950    58.8243 </r>
       <r>   -14.2394    12.7566    60.4172 </r>
       <r>   -14.1145     8.7451    61.5091 </r>
       <r>   -13.9896     3.9100    61.9973 </r>
       <r>   -13.8648     6.2894    62.7826 </r>
       <r>   -13.7399     6.5093    63.5954 </r>
       <r>   -13.6150     8.7422    64.6870 </r>
       <r>   -13.4902     7.2581    65.5932 </r>
       <r>   -13.3653     8.3100    66.6309 </r>
       <r>   -13.2404     7.6586    67.5871 </r>
       <r>   -13.1156     6.5490    68.4049 </r>
       <r>   -12.9907     3.9042    68.8924 </r>
       <r>   -12.8659    11.3128    70.3049 </r>
       <r>   -12.7410     3.9318    70.7959 </r>
       <r>   -12.6161    12.3353    72.3361 </r>
       <r>   -12.4913    10.3227    73.6250 </r>
       <r>   -12.3664    10.6947    74.9604 </r>
       <r>   -12.2415    12.2784    76.4935 </r>
       <r>   -12.1167     6.9209    77.3577 </r>
       <r>   -11.9918     9.0432    78.4868 </r>
       <r>   -11.8670     7.2920    79.3973 </r>
       <r>   -11.7421     8.5697    80.4674 </r>
       <r>   -11.6172     5.6406    81.1717 </r>
       <r>   -11.4924    13.9609    82.9149 </r>
       <r>   -11.3675    12.2532    84.4449 </r>
       <r>   -11.2426    10.5819    85.7662 </r>
       <r>   -11.1178    16.1711    87.7853 </r>
       <r>   -10.9929    15.0899    89.6695 </r>
       <r>   -10.8680     9.2227    90.8211 </r>
       <r>   -10.7432     8.1616    91.8402 </r>
       <r>   -10.6183    10.6283    93.1672 </r>
       <r>   -10.4935     7.4488    94.0973 </r>
       <r>   -10.3686    18.2360    96.3743 </r>
       <r>   -10.2437     7.3116    97.2873 </r>
       <r>   -10.1189    13.1855    98.9337 </r>
       <r>    -9.9940    19.4379   101.3607 </r>
       <r>    -9.8691    18.6846   103.6938 </r>
       <r>    -9.7443    19.4223   106.1189 </r>
       <r>    -9.6194    20.7841   108.7141 </r>
       <r>    -9.4946    18.8447   111.0671 </r>
       <r>    -9.3697    17.8181   113.2919 </r>
       <r>    -9.2448    17.9979   115.5392 </r>
       <r>    -9.1200    18.8123   117.8881 </r>
       <r>    -8.9951    19.7061   120.3487 </r>
       <r>    -8.8702    22.1331   123.1123 </r>
       <r>    -8.7454    29.5121   126.7973 </r>
       <r>    -8.6205    23.1870   129.6925 </r>
       <r>    -8.4956    18.8610   132.0476 </r>
       <r>    -8.3708    19.9170   134.5344 </r>
       <r>    -8.2459    13.2048   136.1832 </r>
       <r>    -8.1211    22.8326   139.0342 </r>
       <r>    -7.9962    23.2724   141.9401 </r>
       <r>    -7.8713    15.4025   143.8633 </r>
       <r>    -7.7465    17.1595   146.0059 </r>
       <r>    -7.6216    20.7082   148.5916 </r>
       <r>    -7.4967     9.5464   149.7835 </r>
       <r>    -7.3719    11.1442   151.1750 </r>
       <r>    -7.2470    16.7038   153.2607 </r>
       <r>    -7.1222    19.6242   155.7111 </r>
       <r>    -6.9973    24.4661   158.7660 </r>
       <r>    -6.8724    16.8159   160.8657 </r>
       <r>    -6.7476    10.3184   162.1541 </r>
       <r>    -6.6227    14.6401   163.9821 </r>
       <r>    -6.4978     8.8592   165.0883 </r>
       <r>    -6.3730     8.8157   166.1890 </r>
       <r>    -6.2481    14.5325   168.0036 </r>
       <r>    -6.1232    15.6948   169.9633 </r>
       <r>    -5.9984    20.2434   172.4910 </r>
       <r>    -5.8735     8.4330   173.5439 </r>
       <r>    -5.7487    16.0124   175.5433 </r>
       <r>    -5.6238    11.7337   177.0084 </r>
       <r>    -5.4989    10.8112   178.3583 </r>
       <r>    -5.3741     7.1614   179.2525 </r>
       <r>    -5.2492     4.5738   179.8236 </r>
       <r>    -5.1243     9.4569   181.0044 </r>
       <r>    -4.9995    15.1785   182.8997 </r>
       <r>    -4.8746    20.2562   185.4289 </r>
       <r>    -4.7497    14.6643   187.2599 </r>
       <r>    -4.6249     3.4295   187.6882 </r>
       <r>    -4.5000     9.8064   188.9126 </r>
       <r>    -4.3752     2.9210   189.2773 </r>
       <r>    -4.2503     3.7879   189.7503 </r>
       <r>    -4.1254     7.5245   190.6898 </r>
       <r>    -4.0006     8.5930   191.7628 </r>
       <r>    -3.8757     4.5535   192.3314 </r>
       <r>    -3.7508     8.4533   193.3869 </r>
       <r>    -3.6260     4.8608   193.9938 </r>
       <r>    -3.5011     0.0497   194.0000 </r>
       <r>    -3.3763     0.1409   194.0176 </r>
       <r>    -3.2514     3.3972   194.4418 </r>
       <r>    -3.1265     5.7324   195.1576 </r>
       <r>    -3.0017     1.5660   195.3531 </r>
       <r>    -2.8768     1.1757   195.4999 </r>
       <r>    -2.7519     0.0010   195.5000 </r>
       <r>    -2.6271     0.8157   195.6019 </r>
       <r>    -2.5022     3.1748   195.9983 </r>
       <r>    -2.3773     0.0138   196.0000 </r>
       <r>    -2.2525     0.1514   196.0189 </r>
       <r>    -2.1276     3.6943   196.4802 </r>
       <r>    -2.0028     0.1587   196.5000 </r>
       <r>    -1.8779     0.0217   196.5027 </r>
       <r>    -1.7530     1.7721   196.7240 </r>
       <r>    -1.6282     2.4074   197.0246 </r>
       <r>    -1.5033     6.3666   197.8195 </r>
       <r>    -1.3784     1.4447   197.9999 </r>
       <r>    -1.2536     0.4764   198.0594 </r>
       <r>    -1.1287     5.2720   198.7177 </r>
       <r>    -1.0039     6.4105   199.5181 </r>
       <r>    -0.8790     8.9247   200.6325 </r>
       <r>    -0.7541    15.9925   202.6293 </r>
       <r>    -0.6293     3.3337   203.0456 </r>
       <r>    -0.5044     9.7505   204.2631 </r>
       <r>    -0.3795    11.2067   205.6624 </r>
       <r>    -0.2547     5.7124   206.3757 </r>
       <r>    -0.1298     5.3273   207.0408 </r>
       <r>    -0.0049     9.1543   208.1839 </r>
       <r>     0.1199     7.9138   209.1720 </r>
       <r>     0.2448    14.2616   210.9528 </r>
       <r>     0.3696     7.6127   211.9033 </r>
       <r>     0.4945     0.7814   212.0009 </r>
       <r>     0.6194     4.5241   212.5658 </r>
       <r>     0.7442     7.4555   213.4967 </r>
       <r>     0.8691    10.9339   214.8619 </r>
       <r>     0.9940     9.8848   216.0962 </r>
       <r>     1.1188     7.4950   217.0321 </r>
       <r>     1.2437     6.8444   217.8867 </r>
       <r>     1.3685     8.4196   218.9380 </r>
       <r>     1.4934    13.9557   220.6805 </r>
       <r>     1.6183    18.8953   223.0398 </r>
       <r>     1.7431     9.7679   224.2595 </r>
       <r>     1.8680    13.9570   226.0022 </r>
       <r>     1.9929    14.0474   227.7562 </r>
       <r>     2.1177    18.0459   230.0095 </r>
       <r>     2.2426    17.4827   232.1924 </r>
       <r>     2.3675    19.8743   234.6740 </r>
       <r>     2.4923    20.8936   237.2828 </r>
       <r>     2.6172    12.8145   238.8829 </r>
       <r>     2.7420    15.5072   240.8192 </r>
       <r>     2.8669    22.6948   243.6529 </r>
       <r>     2.9918    38.0628   248.4056 </r>
       <r>     3.1166    26.8451   251.7575 </r>
       <r>     3.2415    23.5626   254.6996 </r>
       <r>     3.3664    16.5273   256.7633 </r>
       <r>     3.4912    20.8664   259.3687 </r>
       <r>     3.6161    22.4832   262.1760 </r>
       <r>     3.7410    14.6931   264.0107 </r>
       <r>     3.8658    23.9437   267.0004 </r>
       <r>     3.9907    25.6438   270.2023 </r>
       <r>     4.1155    22.8427   273.0545 </r>
       <r>     4.2404    18.5222   275.3673 </r>
       <r>     4.3653    22.3372   278.1564 </r>
       <r>     4.4901    14.6878   279.9904 </r>
       <r>     4.6150     0.0773   280.0000 </r>
       <r>     4.7399     0.0000   280.0000 </r>
       <r>     4.8647     0.0000   280.0000 </r>
       <r>     4.9896     0.0000   280.0000 </r>
       <r>     5.1144     0.0000   280.0000 </r>
       <r>     5.2393     0.0000   280.0000 </r>
       <r>     5.3642     0.0000   280.0000 </r>
       <r>     5.4890     0.0000   280.0000 </r>
       <r>     5.6139     0.0000   280.0000 </r>
       <r>     5.7388     0.0000   280.0000 </r>
       <r>     5.8636     0.0000   280.0000 </r>
       <r>     5.9885     0.0000   280.0000 </r>
       <r>     6.1134     0.0000   280.0000 </r>
      </set>
     </set>
    </array>
   </total>
  </dos>
 </calculation>
 <structure name="finalpos" >
  <crystal>
   <varray name="basis" >
    <v>      17.27103806       0.00000000       0.00000000 </v>
    <v>      -8.63551903      14.95715771       0.00000000 </v>
    <v>       0.00000000       0.00000000      15.00000000 </v>
   </varray>
   <i name="volume">   3874.88459904 </i>
   <varray name="rec_basis" >
    <v>       0.05790040       0.03342881       0.00000000 </v>
    <v>       0.00000000       0.06685762       0.00000000 </v>
    <v>       0.00000000       0.00000000       0.06666667 </v>
   </varray>
  </crystal>
  <varray name="positions" >
   <v>       0.00178010       0.00114923       0.49071581 </v>
   <v>       0.00128039       0.14370973       0.48682015 </v>
   <v>       0.00100016       0.28646975       0.48472122 </v>
   <v>       0.00137379       0.42952323       0.48686049 </v>
   <v>       0.00191902       0.57259308       0.49066854 </v>
   <v>       0.00286614       0.71580915       0.49507120 </v>
   <v>       0.00278006       0.85890944       0.49508198 </v>
   <v>       0.14466907       0.00134462       0.48050310 </v>
   <v>       0.14396229       0.14377055       0.47415927 </v>
   <v>       0.14262399       0.28564620       0.46690122 </v>
   <v>       0.14276998       0.42895754       0.46752020 </v>
   <v>       0.14416295       0.57219062       0.47518925 </v>
   <v>       0.14478841       0.71532429       0.48113718 </v>
   <v>       0.14492311       0.85846177       0.48406681 </v>
   <v>       0.28727161       0.00100741       0.47722052 </v>
   <v>       0.28696202       0.14353696       0.46710280 </v>
   <v>       0.28536613       0.28567296       0.44788345 </v>
   <v>       0.28107738       0.42651284       0.43389336 </v>
   <v>       0.28584592       0.57179243       0.45066960 </v>
   <v>       0.28717243       0.71549487       0.46935329 </v>
   <v>       0.28730039       0.85835621       0.47798626 </v>
   <v>       0.43028899       0.00125160       0.48055924 </v>
   <v>       0.43009008       0.14375946       0.47610661 </v>
   <v>       0.42854463       0.28334697       0.46449527 </v>
   <v>       0.42872932       0.71746300       0.46861151 </v>
   <v>       0.43013520       0.85856766       0.47842092 </v>
   <v>       0.57294534       0.00144214       0.48782068 </v>
   <v>       0.57292973       0.14377067       0.48664013 </v>
   <v>       0.57363294       0.28703688       0.48612478 </v>
   <v>       0.57364732       0.85891958       0.48913381 </v>
   <v>       0.71577485       0.00109365       0.49681555 </v>
   <v>       0.71590822       0.14401029       0.49369427 </v>
   <v>       0.71573245       0.28676509       0.49547923 </v>
   <v>       0.71495995       0.42849567       0.50552727 </v>
   <v>       0.72460604       0.57591042       0.53613737 </v>
   <v>       0.72432430       0.72016712       0.53635659 </v>
   <v>       0.71490442       0.85846024       0.50737618 </v>
   <v>       0.85892814       0.00131908       0.49966541 </v>
   <v>       0.85855039       0.14387540       0.49486229 </v>
   <v>       0.85857071       0.28666606       0.49459556 </v>
   <v>       0.85898616       0.42958228       0.49885948 </v>
   <v>       0.86004641       0.57312125       0.50596775 </v>
   <v>       0.86194964       0.71690455       0.51284611 </v>
   <v>       0.85988887       0.85874282       0.50687937 </v>
   <v>       0.04916503       0.09633430       0.48417272 </v>
   <v>       0.04815860       0.23851318       0.48009326 </v>
   <v>       0.04823591       0.38158172       0.48031504 </v>
   <v>       0.04931029       0.52479981       0.48443616 </v>
   <v>       0.04977989       0.66790445       0.48878213 </v>
   <v>       0.05000358       0.81096564       0.49147302 </v>
   <v>       0.04966862       0.95372638       0.48862438 </v>
   <v>       0.19178045       0.09602382       0.47288001 </v>
   <v>       0.19059887       0.23845267       0.46374667 </v>
   <v>       0.18844419       0.38016947       0.45727555 </v>
   <v>       0.19082839       0.52416041       0.46505293 </v>
   <v>       0.19197664       0.66777717       0.47419898 </v>
   <v>       0.19232604       0.81075189       0.48063200 </v>
   <v>       0.19229614       0.95355506       0.48015200 </v>
   <v>       0.33489677       0.09638833       0.47310680 </v>
   <v>       0.33534099       0.23863585       0.45769896 </v>
   <v>       0.32395942       0.37550522       0.42446260 </v>
   <v>       0.32464647       0.52064245       0.42769660 </v>
   <v>       0.33565450       0.66876920       0.46102920 </v>
   <v>       0.33497413       0.81060712       0.47500407 </v>
   <v>       0.33484660       0.95348030       0.47858888 </v>
   <v>       0.47782193       0.09626632       0.48138788 </v>
   <v>       0.47704393       0.23887144       0.47548378 </v>
   <v>       0.47708759       0.81047565       0.47891342 </v>
   <v>       0.47785022       0.95382798       0.48260123 </v>
   <v>       0.62048830       0.09638211       0.48984988 </v>
   <v>       0.62059577       0.23899166       0.48983288 </v>
   <v>       0.62212770       0.38007114       0.49504401 </v>
   <v>       0.62201474       0.81426319       0.49797077 </v>
   <v>       0.62063789       0.95391237       0.49177614 </v>
   <v>       0.76350403       0.09650124       0.49563535 </v>
   <v>       0.76349560       0.23908025       0.49508252 </v>
   <v>       0.76362869       0.38181981       0.50078408 </v>
   <v>       0.76456169       0.52527075       0.51626327 </v>
   <v>       0.76812533       0.66994754       0.53083128 </v>
   <v>       0.76435546       0.81103021       0.51743739 </v>
   <v>       0.76360773       0.95381762       0.50215097 </v>
   <v>       0.90623110       0.09611237       0.49439739 </v>
   <v>       0.90605781       0.23900673       0.49222408 </v>
   <v>       0.90628900       0.38208353       0.49401278 </v>
   <v>       0.90691648       0.52516258       0.49814227 </v>
   <v>       0.90804405       0.66830853       0.50504678 </v>
   <v>       0.90796271       0.81160017       0.50536269 </v>
   <v>       0.90679426       0.95360289       0.49883530 </v>
   <v>       0.46451946       0.35560129       0.46274387 </v>
   <v>       0.58570707       0.41584993       0.49379059 </v>
   <v>       0.58547851       0.74209215       0.49731693 </v>
   <v>       0.46499409       0.68150336       0.46739782 </v>
   <v>       0.47818775       0.52371493       0.51421222 </v>
   <v>       0.50327582       0.52508064       0.61202595 </v>
   <v>       0.40932616       0.41857317       0.39238478 </v>
   <v>       0.41152923       0.56345952       0.39958239 </v>
   <v>       0.63589323       0.67457827       0.55936418 </v>
   <v>       0.63646984       0.53246149       0.56015854 </v>
   <v>       0.45183339       0.50142729       0.57255636 </v>
  </varray>
  <varray name="selective"  type="logical" >
   <v type="logical" >  T  T  T </v>
   <v type="logical" >  T  T  T </v>
   <v type="logical" >  T  T  T </v>
   <v type="logical" >  T  T  T </v>
   <v type="logical" >  T  T  T </v>
   <v type="logical" >  T  T  T </v>
   <v type="logical" >  T  T  T </v>
   <v type="logical" >  T  T  T </v>
   <v type="logical" >  T  T  T </v>
   <v type="logical" >  T  T  T </v>
   <v type="logical" >  T  T  T </v>
   <v type="logical" >  T  T  T </v>
   <v type="logical" >  T  T  T </v>
   <v type="logical" >  T  T  T </v>
   <v type="logical" >  T  T  T </v>
   <v type="logical" >  T  T  T </v>
   <v type="logical" >  T  T  T </v>
   <v type="logical" >  T  T  T </v>
   <v type="logical" >  T  T  T </v>
   <v type="logical" >  T  T  T </v>
   <v type="logical" >  T  T  T </v>
   <v type="logical" >  T  T  T </v>
   <v type="logical" >  T  T  T </v>
   <v type="logical" >  T  T  T </v>
   <v type="logical" >  T  T  T </v>
   <v type="logical" >  T  T  T </v>
   <v type="logical" >  T  T  T </v>
   <v type="logical" >  T  T  T </v>
   <v type="logical" >  T  T  T </v>
   <v type="logical" >  T  T  T </v>
   <v type="logical" >  T  T  T </v>
   <v type="logical" >  T  T  T </v>
   <v type="logical" >  T  T  T </v>
   <v type="logical" >  T  T  T </v>
   <v type="logical" >  T  T  T </v>
   <v type="logical" >  T  T  T </v>
   <v type="logical" >  T  T  T </v>
   <v type="logical" >  T  T  T </v>
   <v type="logical" >  T  T  T </v>
   <v type="logical" >  T  T  T </v>
   <v type="logical" >  T  T  T </v>
   <v type="logical" >  T  T  T </v>
   <v type="logical" >  T  T  T </v>
   <v type="logical" >  T  T  T </v>
   <v type="logical" >  T  T  T </v>
   <v type="logical" >  T  T  T </v>
   <v type="logical" >  T  T  T </v>
   <v type="logical" >  T  T  T </v>
   <v type="logical" >  T  T  T </v>
   <v type="logical" >  T  T  T </v>
   <v type="logical" >  T  T  T </v>
   <v type="logical" >  T  T  T </v>
   <v type="logical" >  T  T  T </v>
   <v type="logical" >  T  T  T </v>
   <v type="logical" >  T  T  T </v>
   <v type="logical" >  T  T  T </v>
   <v type="logical" >  T  T  T </v>
   <v type="logical" >  T  T  T </v>
   <v type="logical" >  T  T  T </v>
   <v type="logical" >  T  T  T </v>
   <v type="logical" >  T  T  T </v>
   <v type="logical" >  T  T  T </v>
   <v type="logical" >  T  T  T </v>
   <v type="logical" >  T  T  T </v>
   <v type="logical" >  T  T  T </v>
   <v type="logical" >  T  T  T </v>
   <v type="logical" >  T  T  T </v>
   <v type="logical" >  T  T  T </v>
   <v type="logical" >  T  T  T </v>
   <v type="logical" >  T  T  T </v>
   <v type="logical" >  T  T  T </v>
   <v type="logical" >  T  T  T </v>
   <v type="logical" >  T  T  T </v>
   <v type="logical" >  T  T  T </v>
   <v type="logical" >  T  T  T </v>
   <v type="logical" >  T  T  T </v>
   <v type="logical" >  T  T  T </v>
   <v type="logical" >  T  T  T </v>
   <v type="logical" >  T  T  T </v>
   <v type="logical" >  T  T  T </v>
   <v type="logical" >  T  T  T </v>
   <v type="logical" >  T  T  T </v>
   <v type="logical" >  T  T  T </v>
   <v type="logical" >  T  T  T </v>
   <v type="logical" >  T  T  T </v>
   <v type="logical" >  T  T  T </v>
   <v type="logical" >  T  T  T </v>
   <v type="logical" >  T  T  T </v>
   <v type="logical" >  T  T  T </v>
   <v type="logical" >  T  T  T </v>
   <v type="logical" >  T  T  T </v>
   <v type="logical" >  T  T  T </v>
   <v type="logical" >  T  T  T </v>
   <v type="logical" >  T  T  T </v>
   <v type="logical" >  T  T  T </v>
   <v type="logical" >  T  T  T </v>
   <v type="logical" >  T  T  T </v>
   <v type="logical" >  T  T  T </v>
   <v type="logical" >  T  T  T </v>
  </varray>
  <nose>
   <v>      -3.00000000       0.00000000       0.00010000       0.00010000 </v>
  </nose>
 </structure>
</modeling>
