unknown system                          
           1
    17.271038    0.000000    0.000000
    -8.635519   14.957158    0.000000
     0.000000    0.000000   15.000000
   C    H    F    O 
    88     6     4     1
Direct configuration=     1
   0.00190674  0.00146064  0.49396103
   0.00138887  0.14400251  0.49196217
   0.00109919  0.28669162  0.49054705
   0.00160555  0.42973778  0.49246365
   0.00226995  0.57287974  0.49426302
   0.00324714  0.71620913  0.49693832
   0.00303217  0.85929684  0.49665617
   0.14494755  0.00181782  0.48446302
   0.14407605  0.14410098  0.47823126
   0.14249345  0.28579871  0.47090763
   0.14278657  0.42904816  0.47231694
   0.14447702  0.57237863  0.48076957
   0.14515692  0.71563490  0.48629902
   0.14529038  0.85892237  0.48863422
   0.28750931  0.00152528  0.48188356
   0.28699953  0.14394071  0.46883973
   0.28430086  0.28531387  0.44603499
   0.27922874  0.42580481  0.43101154
   0.28530305  0.57159388  0.45157047
   0.28725511  0.71557638  0.47369387
   0.28749287  0.85866108  0.48379778
   0.43035202  0.00166826  0.48558446
   0.43018690  0.14431215  0.47783558
   0.42836213  0.28361329  0.46016900
   0.42862681  0.71756991  0.46886849
   0.43006504  0.85872941  0.48259976
   0.57285165  0.00176494  0.49251736
   0.57291653  0.14413565  0.49026406
   0.57375667  0.28745203  0.48415412
   0.57357914  0.85945734  0.48949926
   0.71572797  0.00138169  0.49966857
   0.71585222  0.14425308  0.49831559
   0.71574297  0.28695632  0.49752751
   0.71515896  0.42872670  0.50260925
   0.72443791  0.57588812  0.53009014
   0.72315043  0.71903712  0.52530348
   0.71484952  0.85860322  0.50365184
   0.85890809  0.00153234  0.50178755
   0.85857083  0.14413071  0.49966025
   0.85861970  0.28686766  0.49923159
   0.85912785  0.42978305  0.50092303
   0.86031594  0.57338288  0.50416876
   0.86198953  0.71701515  0.50932472
   0.85978392  0.85881170  0.50508217
   0.04933799  0.09668804  0.48875246
   0.04827618  0.23879537  0.48561260
   0.04842741  0.38177559  0.48629634
   0.04965235  0.52502956  0.48987818
   0.05013766  0.66820916  0.49249590
   0.05032216  0.81139374  0.49413899
   0.04991569  0.95417336  0.49172307
   0.19195360  0.09643129  0.47634228
   0.19041537  0.23863157  0.46652349
   0.18810876  0.38017277  0.45987619
   0.19085627  0.52419504  0.46935936
   0.19220229  0.66795892  0.47948350
   0.19261453  0.81110591  0.48607008
   0.19257213  0.95401649  0.48476303
   0.33500262  0.09687804  0.47596162
   0.33493353  0.23868963  0.45583640
   0.32087111  0.37380652  0.41789294
   0.32250962  0.52009676  0.42379098
   0.33545872  0.66872685  0.46282094
   0.33498361  0.81072870  0.48007806
   0.33497918  0.95387208  0.48400647
   0.47784315  0.09674959  0.48504880
   0.47707092  0.23941793  0.47357883
   0.47697380  0.81062769  0.48050876
   0.47778022  0.95406633  0.48754518
   0.62043021  0.09671471  0.49458832
   0.62061069  0.23936583  0.49127203
   0.62255265  0.38066166  0.49030272
   0.62207468  0.81482982  0.49410905
   0.62057071  0.95429077  0.49477245
   0.76349466  0.09677589  0.50007603
   0.76351536  0.23929756  0.49910494
   0.76376038  0.38200980  0.50122433
   0.76476822  0.52542966  0.51220042
   0.76767513  0.66964208  0.52337653
   0.76389248  0.81070705  0.51144236
   0.76358081  0.95404297  0.50267918
   0.90627797  0.09640394  0.49873561
   0.90612412  0.23924643  0.49750310
   0.90644473  0.38226462  0.49836678
   0.90718663  0.52535115  0.49937111
   0.90829817  0.66857732  0.50389792
   0.90799123  0.81179712  0.50390629
   0.90679902  0.95383250  0.50026624
   0.46388530  0.35590121  0.45563898
   0.58649260  0.41670568  0.48572494
   0.58544361  0.74293561  0.49003569
   0.46475936  0.68144731  0.46544590
   0.49464902  0.52989997  0.48477177
   0.49951075  0.51594487  0.58489609
   0.40159275  0.41325083  0.37598666
   0.40698146  0.56289409  0.38948677
   0.63285396  0.67089728  0.53927414
   0.63681130  0.53241336  0.55548728
   0.45829100  0.49516077  0.53506590
Direct configuration=     2
   0.00190579  0.00146011  0.49395664
   0.00138724  0.14400156  0.49195357
   0.00109596  0.28668977  0.49053639
   0.00160285  0.42973646  0.49245009
   0.00226956  0.57287946  0.49425610
   0.00324973  0.71621105  0.49693636
   0.00303355  0.85929827  0.49665462
   0.14494705  0.00181644  0.48445439
   0.14407460  0.14409930  0.47822208
   0.14249252  0.28579652  0.47089729
   0.14278370  0.42904538  0.47230541
   0.14447526  0.57237876  0.48075627
   0.14515647  0.71563489  0.48628891
   0.14529201  0.85892306  0.48862696
   0.28750959  0.00152363  0.48187210
   0.28699770  0.14393874  0.46883274
   0.28430003  0.28531287  0.44602861
   0.27922749  0.42579764  0.43100305
   0.28530052  0.57159125  0.45155638
   0.28725529  0.71557677  0.47367941
   0.28749429  0.85866063  0.48378584
   0.43035161  0.00166825  0.48557371
   0.43018735  0.14431036  0.47783010
   0.42836051  0.28361102  0.46017152
   0.42862735  0.71757091  0.46885613
   0.43006406  0.85872971  0.48258716
   0.57285050  0.00176459  0.49250598
   0.57291497  0.14413497  0.49025539
   0.57375260  0.28744500  0.48415842
   0.57357669  0.85945716  0.48949427
   0.71572641  0.00138147  0.49966312
   0.71584784  0.14425398  0.49830571
   0.71573977  0.28695316  0.49752354
   0.71515748  0.42872456  0.50261945
   0.72444059  0.57588975  0.53011347
   0.72315925  0.71904356  0.52533934
   0.71485667  0.85860569  0.50365961
   0.85890752  0.00153247  0.50178525
   0.85856848  0.14413145  0.49965125
   0.85861800  0.28686729  0.49922188
   0.85912656  0.42978173  0.50091993
   0.86031634  0.57338242  0.50417565
   0.86199213  0.71701714  0.50933632
   0.85978413  0.85881295  0.50508730
   0.04933600  0.09668717  0.48874507
   0.04827518  0.23879542  0.48560233
   0.04842575  0.38177495  0.48628193
   0.04965083  0.52502916  0.48986644
   0.05013619  0.66821000  0.49249043
   0.05032076  0.81139175  0.49413584
   0.04991470  0.95417192  0.49171831
   0.19195231  0.09643033  0.47633333
   0.19041376  0.23863075  0.46651509
   0.18810680  0.38017313  0.45986545
   0.19085478  0.52419450  0.46934492
   0.19219959  0.66795913  0.47947121
   0.19261309  0.81110361  0.48605925
   0.19257129  0.95401517  0.48475316
   0.33500096  0.09687752  0.47595302
   0.33493419  0.23869045  0.45583294
   0.32087097  0.37380650  0.41788748
   0.32251053  0.52009778  0.42378407
   0.33545855  0.66872501  0.46280509
   0.33498337  0.81072481  0.48006669
   0.33497795  0.95386937  0.48399553
   0.47784118  0.09674851  0.48504027
   0.47706925  0.23942068  0.47358000
   0.47697643  0.81062594  0.48049928
   0.47777949  0.95406389  0.48753413
   0.62042920  0.09671262  0.49457695
   0.62060927  0.23936707  0.49126947
   0.62255205  0.38067001  0.49031406
   0.62207112  0.81482378  0.49411018
   0.62057276  0.95428900  0.49476532
   0.76349303  0.09677370  0.50006615
   0.76351416  0.23929771  0.49909645
   0.76375899  0.38201298  0.50122597
   0.76476719  0.52542958  0.51221491
   0.76768060  0.66964404  0.52340200
   0.76389246  0.81070648  0.51145976
   0.76357865  0.95404067  0.50267908
   0.90627699  0.09640330  0.49872860
   0.90612290  0.23924605  0.49749427
   0.90644363  0.38226565  0.49835735
   0.90718461  0.52535150  0.49936993
   0.90829779  0.66857657  0.50390315
   0.90799109  0.81179496  0.50391157
   0.90679842  0.95383165  0.50026416
   0.46388532  0.35590324  0.45564586
   0.58649072  0.41670344  0.48574311
   0.58544548  0.74293279  0.49003988
   0.46475840  0.68144506  0.46543811
   0.49461678  0.52987596  0.48482942
   0.49957343  0.51598706  0.58495073
   0.40159830  0.41325248  0.37598823
   0.40698224  0.56289286  0.38948065
   0.63286751  0.67090525  0.53934766
   0.63681220  0.53241328  0.55550878
   0.45830035  0.49518894  0.53529684
Direct configuration=     3
   0.00190445  0.00145905  0.49394984
   0.00138531  0.14400097  0.49194081
   0.00109577  0.28668969  0.49052122
   0.00159900  0.42973527  0.49243126
   0.00226790  0.57288009  0.49424708
   0.00324935  0.71621109  0.49693359
   0.00303287  0.85929595  0.49665225
   0.14494568  0.00181445  0.48444170
   0.14407075  0.14409788  0.47820921
   0.14249012  0.28579634  0.47088327
   0.14278078  0.42904455  0.47228785
   0.14447234  0.57237888  0.48073744
   0.14515278  0.71563273  0.48627466
   0.14529092  0.85892123  0.48861671
   0.28750834  0.00152037  0.48185618
   0.28699586  0.14393780  0.46882205
   0.28429914  0.28531186  0.44601907
   0.27922775  0.42579870  0.43099133
   0.28529856  0.57159037  0.45153697
   0.28725379  0.71557386  0.47365792
   0.28749390  0.85865696  0.48376884
   0.43035041  0.00166621  0.48555781
   0.43018474  0.14431077  0.47782173
   0.42835964  0.28361332  0.46017449
   0.42862801  0.71756960  0.46883744
   0.43006416  0.85872687  0.48256857
   0.57285003  0.00176147  0.49248908
   0.57291291  0.14413379  0.49024248
   0.57375077  0.28744889  0.48416450
   0.57357650  0.85945296  0.48948657
   0.71572611  0.00137849  0.49965441
   0.71584493  0.14425320  0.49829088
   0.71573812  0.28695582  0.49751804
   0.71515434  0.42872598  0.50263391
   0.72444309  0.57589144  0.53014616
   0.72316872  0.71904841  0.52539118
   0.71485084  0.85860157  0.50367013
   0.85890593  0.00153169  0.50178150
   0.85856603  0.14413057  0.49963788
   0.85861787  0.28686783  0.49920764
   0.85912429  0.42978242  0.50091512
   0.86031450  0.57338104  0.50418492
   0.86199496  0.71701697  0.50935295
   0.85978455  0.85881214  0.50509447
   0.04933525  0.09668636  0.48873485
   0.04827343  0.23879545  0.48558833
   0.04842148  0.38177253  0.48626122
   0.04964987  0.52502792  0.48984958
   0.05013610  0.66821060  0.49248191
   0.05032246  0.81139314  0.49413077
   0.04991469  0.95417204  0.49171098
   0.19195056  0.09642829  0.47632011
   0.19041339  0.23862796  0.46650319
   0.18810545  0.38016911  0.45984952
   0.19085103  0.52419265  0.46932394
   0.19219871  0.66795767  0.47945284
   0.19261550  0.81110484  0.48604345
   0.19257176  0.95401443  0.48473856
   0.33500017  0.09687574  0.47594043
   0.33493250  0.23868926  0.45582788
   0.32087069  0.37380318  0.41788009
   0.32250923  0.52009338  0.42377337
   0.33545784  0.66872390  0.46278200
   0.33498378  0.81072254  0.48005012
   0.33497868  0.95386669  0.48398072
   0.47783989  0.09674653  0.48502871
   0.47706741  0.23941880  0.47358203
   0.47697306  0.81062388  0.48048543
   0.47777825  0.95406289  0.48751751
   0.62042608  0.09671145  0.49455997
   0.62060726  0.23936461  0.49126486
   0.62254950  0.38066770  0.49032989
   0.62207350  0.81482333  0.49411216
   0.62057480  0.95429011  0.49475480
   0.76348937  0.09677380  0.50005157
   0.76351112  0.23929712  0.49908368
   0.76375635  0.38200982  0.50122658
   0.76476708  0.52542967  0.51223548
   0.76768890  0.66964935  0.52343827
   0.76389784  0.81071072  0.51148333
   0.76357833  0.95404083  0.50267857
   0.90627484  0.09640519  0.49871866
   0.90612054  0.23924624  0.49748239
   0.90644089  0.38226468  0.49834323
   0.90718366  0.52535087  0.49936778
   0.90829958  0.66857711  0.50391028
   0.90799264  0.81179613  0.50391830
   0.90679782  0.95383142  0.50026092
   0.46388430  0.35590376  0.45565570
   0.58648577  0.41670345  0.48576840
   0.58544686  0.74292587  0.49004498
   0.46475676  0.68144245  0.46542661
   0.49451776  0.52979200  0.48498659
   0.49972584  0.51607871  0.58510789
   0.40160838  0.41325694  0.37599256
   0.40698499  0.56289135  0.38947203
   0.63288641  0.67091671  0.53945449
   0.63681404  0.53241356  0.55553932
   0.45829839  0.49524302  0.53548554
Direct configuration=     4
   0.00190299  0.00145761  0.49394028
   0.00138298  0.14400080  0.49192375
   0.00109640  0.28669034  0.49050117
   0.00159497  0.42973296  0.49240780
   0.00226543  0.57288054  0.49423553
   0.00324671  0.71620976  0.49692983
   0.00303110  0.85929213  0.49664885
   0.14494391  0.00181233  0.48442454
   0.14406625  0.14409627  0.47819235
   0.14248717  0.28579620  0.47086496
   0.14277786  0.42904420  0.47226310
   0.14446873  0.57237783  0.48071224
   0.14514884  0.71563006  0.48625562
   0.14528894  0.85891828  0.48860270
   0.28750659  0.00151616  0.48183540
   0.28699300  0.14393728  0.46880985
   0.28429785  0.28530948  0.44600638
   0.27922926  0.42580450  0.43097613
   0.28529645  0.57159003  0.45151170
   0.28725226  0.71556731  0.47363007
   0.28749604  0.85865352  0.48374838
   0.43034888  0.00166255  0.48553650
   0.43017988  0.14431152  0.47781051
   0.42835832  0.28361745  0.46017828
   0.42862824  0.71756714  0.46881287
   0.43006436  0.85872225  0.48254399
   0.57284997  0.00175800  0.49246748
   0.57291260  0.14413256  0.49022624
   0.57375032  0.28745846  0.48417234
   0.57357797  0.85944668  0.48947588
   0.71572512  0.00137648  0.49964270
   0.71584300  0.14425100  0.49827054
   0.71573683  0.28696056  0.49751064
   0.71515058  0.42872915  0.50265269
   0.72444665  0.57589398  0.53018895
   0.72317910  0.71905359  0.52546064
   0.71484395  0.85859612  0.50368377
   0.85890394  0.00153079  0.50177608
   0.85856256  0.14412896  0.49962002
   0.85861681  0.28686793  0.49918868
   0.85912247  0.42978408  0.50090857
   0.86031148  0.57337954  0.50419684
   0.86199879  0.71701616  0.50937470
   0.85978697  0.85881073  0.50510226
   0.04933391  0.09668522  0.48872144
   0.04827080  0.23879469  0.48557009
   0.04841705  0.38176989  0.48623504
   0.04964775  0.52502635  0.48982734
   0.05013596  0.66821003  0.49247010
   0.05032556  0.81139581  0.49412370
   0.04991486  0.95417264  0.49170215
   0.19194763  0.09642530  0.47630226
   0.19041236  0.23862422  0.46648737
   0.18810162  0.38016470  0.45982860
   0.19084632  0.52419077  0.46929825
   0.19219842  0.66795479  0.47942791
   0.19261874  0.81110675  0.48602259
   0.19256851  0.95401172  0.48471952
   0.33499893  0.09687243  0.47592353
   0.33492935  0.23868689  0.45582084
   0.32087049  0.37379873  0.41787051
   0.32250672  0.52008637  0.42375791
   0.33545696  0.66872225  0.46275301
   0.33498394  0.81072076  0.48002725
   0.33497978  0.95386349  0.48396129
   0.47783812  0.09674418  0.48501347
   0.47706527  0.23941502  0.47358455
   0.47696946  0.81062148  0.48046688
   0.47777694  0.95406185  0.48749469
   0.62042103  0.09671003  0.49453711
   0.62060232  0.23936029  0.49125917
   0.62254445  0.38065842  0.49035081
   0.62207719  0.81482301  0.49411490
   0.62057443  0.95428992  0.49474033
   0.76348430  0.09677423  0.50003408
   0.76350724  0.23929655  0.49906635
   0.76375243  0.38200523  0.50122763
   0.76476686  0.52543013  0.51226271
   0.76769781  0.66965588  0.52348516
   0.76390512  0.81071672  0.51151386
   0.76357860  0.95404106  0.50267772
   0.90627150  0.09640540  0.49870533
   0.90611793  0.23924654  0.49746649
   0.90643650  0.38226265  0.49832411
   0.90718307  0.52534967  0.49936468
   0.90830246  0.66857767  0.50391952
   0.90799471  0.81179888  0.50392436
   0.90679695  0.95383162  0.50025655
   0.46388254  0.35590341  0.45566843
   0.58647836  0.41670475  0.48580117
   0.58544872  0.74291665  0.49005134
   0.46475473  0.68143918  0.46541116
   0.49437194  0.52966750  0.48521509
   0.49993842  0.51620502  0.58533145
   0.40162391  0.41326495  0.37600191
   0.40698946  0.56288835  0.38946164
   0.63291657  0.67094098  0.53959749
   0.63681729  0.53241324  0.55557741
   0.45829275  0.49531976  0.53569554
Direct configuration=     5
   0.00190156  0.00145644  0.49392785
   0.00137970  0.14400014  0.49190242
   0.00109458  0.28668993  0.49047592
   0.00159050  0.42972973  0.49237896
   0.00226306  0.57287915  0.49422219
   0.00324555  0.71620918  0.49692487
   0.00303165  0.85929311  0.49664446
   0.14494173  0.00181034  0.48440269
   0.14406344  0.14409444  0.47817247
   0.14248464  0.28579374  0.47084160
   0.14277386  0.42904276  0.47223180
   0.14446448  0.57237499  0.48067994
   0.14514858  0.71562906  0.48623093
   0.14528872  0.85891643  0.48858402
   0.28750356  0.00151012  0.48181071
   0.28698922  0.14393501  0.46879536
   0.28429452  0.28530408  0.44599208
   0.27922921  0.42580274  0.43095819
   0.28529304  0.57158798  0.45147999
   0.28724923  0.71555825  0.47359804
   0.28749995  0.85865148  0.48372353
   0.43034810  0.00165945  0.48550958
   0.43017677  0.14430917  0.47779658
   0.42835492  0.28361762  0.46018391
   0.42862692  0.71756413  0.46878247
   0.43006502  0.85871815  0.48251615
   0.57284977  0.00175732  0.49244191
   0.57291092  0.14413081  0.49020629
   0.57374695  0.28745995  0.48418221
   0.57357888  0.85944150  0.48946219
   0.71572343  0.00137682  0.49962798
   0.71583954  0.14424922  0.49824432
   0.71573254  0.28696073  0.49750115
   0.71514910  0.42873131  0.50267636
   0.72445183  0.57589467  0.53023930
   0.72319673  0.71906513  0.52554572
   0.71484571  0.85859472  0.50370089
   0.85890225  0.00153021  0.50176908
   0.85856100  0.14413141  0.49959975
   0.85861226  0.28686625  0.49916494
   0.85912007  0.42978367  0.50090018
   0.86030966  0.57337847  0.50421224
   0.86200421  0.71701773  0.50940068
   0.85979116  0.85881197  0.50511110
   0.04933024  0.09668374  0.48870428
   0.04826683  0.23879243  0.48554834
   0.04841371  0.38176867  0.48620303
   0.04964234  0.52502388  0.48980088
   0.05013387  0.66820836  0.49245490
   0.05032599  0.81139527  0.49411477
   0.04991334  0.95417108  0.49169140
   0.19194333  0.09642232  0.47627961
   0.19040871  0.23862123  0.46646713
   0.18809740  0.38016482  0.45980405
   0.19084327  0.52419074  0.46926919
   0.19219681  0.66795109  0.47939598
   0.19261962  0.81110571  0.48599672
   0.19256302  0.95400621  0.48469697
   0.33499481  0.09686816  0.47590215
   0.33492691  0.23868537  0.45581176
   0.32087102  0.37379735  0.41785857
   0.32250613  0.52008369  0.42373679
   0.33545644  0.66871907  0.46271762
   0.33498338  0.81071629  0.47999692
   0.33497922  0.95385914  0.48393774
   0.47783476  0.09674207  0.48499390
   0.47706220  0.23941551  0.47358711
   0.47696925  0.81061710  0.48044293
   0.47777619  0.95405838  0.48746521
   0.62041695  0.09670710  0.49450854
   0.62059664  0.23935970  0.49125252
   0.62253853  0.38065547  0.49037724
   0.62207500  0.81481552  0.49411904
   0.62057141  0.95428462  0.49472166
   0.76347980  0.09677305  0.50001329
   0.76350379  0.23929658  0.49904436
   0.76374855  0.38200647  0.50122986
   0.76476522  0.52543128  0.51229787
   0.76770683  0.66966142  0.52354343
   0.76391044  0.81071982  0.51155303
   0.76357668  0.95403882  0.50267691
   0.90626802  0.09640181  0.49869084
   0.90611620  0.23924631  0.49744533
   0.90643165  0.38226148  0.49829998
   0.90718108  0.52534919  0.49936109
   0.90830381  0.66857646  0.50393172
   0.90799649  0.81179894  0.50393129
   0.90679605  0.95383154  0.50025130
   0.46388101  0.35590429  0.45568398
   0.58647086  0.41670430  0.48584246
   0.58545253  0.74290824  0.49006011
   0.46475279  0.68143499  0.46539183
   0.49423244  0.52955311  0.48543879
   0.50014451  0.51633310  0.58553885
   0.40164489  0.41327660  0.37601884
   0.40699580  0.56288591  0.38945173
   0.63295262  0.67097756  0.53977699
   0.63681973  0.53241244  0.55562425
   0.45829990  0.49540393  0.53607545
Direct configuration=     6
   0.00189962  0.00145574  0.49391240
   0.00137459  0.14399745  0.49187709
   0.00108982  0.28668817  0.49044493
   0.00158692  0.42972435  0.49234589
   0.00226019  0.57287614  0.49420614
   0.00324661  0.71620905  0.49691851
   0.00303428  0.85929719  0.49663889
   0.14493816  0.00180751  0.48437608
   0.14406245  0.14409259  0.47814973
   0.14248168  0.28579012  0.47081269
   0.14276886  0.42904119  0.47219359
   0.14445873  0.57237039  0.48064026
   0.14515109  0.71562887  0.48619983
   0.14528896  0.85891414  0.48856014
   0.28749864  0.00150280  0.48178151
   0.28698466  0.14393040  0.46877722
   0.28429007  0.28529864  0.44597629
   0.27922776  0.42579403  0.43093702
   0.28528960  0.57158518  0.45144421
   0.28724694  0.71555181  0.47356227
   0.28750243  0.85864892  0.48369305
   0.43035296  0.00165957  0.48548210
   0.43017475  0.14430440  0.47777973
   0.42834949  0.28361382  0.46019150
   0.42862405  0.71756191  0.46874949
   0.43006520  0.85871439  0.48248400
   0.57284731  0.00175720  0.49241255
   0.57290420  0.14412759  0.49018280
   0.57374002  0.28745214  0.48419288
   0.57357748  0.85943589  0.48944514
   0.71572139  0.00137840  0.49961117
   0.71583178  0.14424656  0.49821288
   0.71572597  0.28695710  0.49749087
   0.71514722  0.42873055  0.50270280
   0.72445848  0.57589661  0.53029926
   0.72322002  0.71908171  0.52564638
   0.71485401  0.85859605  0.50372103
   0.85890104  0.00153035  0.50176138
   0.85855980  0.14413439  0.49957707
   0.85860734  0.28686561  0.49913831
   0.85911608  0.42978119  0.50088970
   0.86030924  0.57337800  0.50423186
   0.86200963  0.71702095  0.50943140
   0.85979528  0.85881547  0.50512131
   0.04932503  0.09668212  0.48868256
   0.04826247  0.23878964  0.48552188
   0.04841121  0.38176986  0.48616588
   0.04963459  0.52502012  0.48976953
   0.05013091  0.66820636  0.49243603
   0.05032308  0.81139142  0.49410371
   0.04991013  0.95416844  0.49168070
   0.19194008  0.09642095  0.47625335
   0.19040255  0.23861889  0.46644187
   0.18809654  0.38016445  0.45977520
   0.19084131  0.52419111  0.46923478
   0.19219200  0.66794913  0.47935654
   0.19261864  0.81110154  0.48596582
   0.19256197  0.95400174  0.48466971
   0.33498787  0.09686277  0.47587647
   0.33492449  0.23868392  0.45580100
   0.32087145  0.37379740  0.41784584
   0.32250580  0.52008454  0.42371128
   0.33545381  0.66871334  0.46267763
   0.33498227  0.81070774  0.47995869
   0.33497805  0.95385391  0.48391008
   0.47783062  0.09673979  0.48496936
   0.47705745  0.23941928  0.47358978
   0.47697240  0.81061066  0.48041286
   0.47777546  0.95405206  0.48743029
   0.62041532  0.09670383  0.49447429
   0.62059350  0.23936285  0.49124362
   0.62253278  0.38066070  0.49040889
   0.62207055  0.81480248  0.49412532
   0.62056703  0.95427712  0.49469990
   0.76347755  0.09677154  0.49998856
   0.76349970  0.23929613  0.49901737
   0.76374530  0.38201164  0.50123203
   0.76476736  0.52543366  0.51234086
   0.76771575  0.66966406  0.52361303
   0.76391529  0.81072135  0.51159841
   0.76357244  0.95403511  0.50267606
   0.90626523  0.09639768  0.49867559
   0.90611460  0.23924610  0.49741784
   0.90642655  0.38226037  0.49827081
   0.90717698  0.52534905  0.49935734
   0.90830294  0.66857368  0.50394714
   0.90799873  0.81179674  0.50394015
   0.90679569  0.95383118  0.50024496
   0.46387943  0.35590595  0.45570228
   0.58646375  0.41670126  0.48589249
   0.58545759  0.74289976  0.49007168
   0.46475081  0.68142992  0.46536856
   0.49409851  0.52944850  0.48565710
   0.50034707  0.51646453  0.58573381
   0.40167178  0.41329542  0.37604469
   0.40700452  0.56288287  0.38944339
   0.63299109  0.67102367  0.53999461
   0.63682323  0.53241359  0.55567954
   0.45831152  0.49549087  0.53661600
Direct configuration=     7
   0.00189675  0.00145565  0.49389161
   0.00136785  0.14399266  0.49184441
   0.00108458  0.28668353  0.49040600
   0.00158342  0.42972140  0.49230655
   0.00225448  0.57287244  0.49418379
   0.00324679  0.71620640  0.49690962
   0.00303543  0.85929592  0.49663113
   0.14493376  0.00180345  0.48434299
   0.14405919  0.14408999  0.47812036
   0.14247712  0.28578657  0.47077497
   0.14276538  0.42904109  0.47214245
   0.14445020  0.57236550  0.48058714
   0.14515082  0.71562664  0.48615706
   0.14528684  0.85890803  0.48852710
   0.28749375  0.00149527  0.48174297
   0.28697988  0.14392469  0.46875074
   0.28428640  0.28529640  0.44595471
   0.27922824  0.42578692  0.43090860
   0.28528678  0.57158180  0.45139868
   0.28724525  0.71554741  0.47351714
   0.28750183  0.85864126  0.48365219
   0.43035723  0.00165548  0.48544964
   0.43016772  0.14430080  0.47775685
   0.42834260  0.28361175  0.46020142
   0.42862064  0.71755652  0.46870814
   0.43006493  0.85870680  0.48244085
   0.57284543  0.00175378  0.49237414
   0.57289928  0.14412598  0.49015222
   0.57373155  0.28744921  0.48420408
   0.57357541  0.85942472  0.48942153
   0.71571644  0.00137505  0.49959112
   0.71582384  0.14424401  0.49817094
   0.71572031  0.28695610  0.49747762
   0.71514138  0.42873032  0.50273575
   0.72446666  0.57590095  0.53037895
   0.72324412  0.71909971  0.52577780
   0.71485202  0.85859032  0.50374657
   0.85889818  0.00152866  0.50175206
   0.85855872  0.14413529  0.49955013
   0.85860218  0.28686584  0.49910369
   0.85911012  0.42977949  0.50087490
   0.86030959  0.57337856  0.50425935
   0.86201628  0.71702642  0.50946990
   0.85979927  0.85881705  0.50513269
   0.04932064  0.09667932  0.48865392
   0.04825862  0.23878719  0.48548691
   0.04841105  0.38176842  0.48612064
   0.04962559  0.52501420  0.48972930
   0.05013038  0.66820466  0.49241003
   0.05031874  0.81138751  0.49408992
   0.04990791  0.95416846  0.49166664
   0.19193460  0.09641834  0.47622125
   0.19039516  0.23861547  0.46640722
   0.18809275  0.38016102  0.45973985
   0.19083770  0.52418904  0.46918779
   0.19218617  0.66794342  0.47930342
   0.19261902  0.81109880  0.48592702
   0.19255801  0.95399674  0.48463364
   0.33498072  0.09685543  0.47584317
   0.33491894  0.23867966  0.45578773
   0.32087145  0.37379357  0.41783521
   0.32250383  0.52008316  0.42367926
   0.33545015  0.66871081  0.46262938
   0.33498205  0.81069737  0.47990730
   0.33498026  0.95385078  0.48387526
   0.47782786  0.09673708  0.48493783
   0.47705027  0.23941821  0.47359345
   0.47697577  0.81060411  0.48037145
   0.47777484  0.95404549  0.48738531
   0.62041379  0.09670121  0.49443031
   0.62058758  0.23936126  0.49123239
   0.62252610  0.38066287  0.49044855
   0.62207380  0.81479238  0.49413515
   0.62056283  0.95427213  0.49467132
   0.76347700  0.09677250  0.49995872
   0.76349248  0.23929333  0.49898121
   0.76374096  0.38201307  0.50123375
   0.76477584  0.52543732  0.51239510
   0.76772618  0.66966564  0.52370277
   0.76392636  0.81072575  0.51165399
   0.76357007  0.95403450  0.50267636
   0.90626197  0.09639958  0.49865629
   0.90611262  0.23924750  0.49738032
   0.90642112  0.38225744  0.49823254
   0.90717170  0.52534755  0.49935295
   0.90830239  0.66857219  0.50396781
   0.90800221  0.81179764  0.50395125
   0.90679619  0.95383171  0.50023592
   0.46387617  0.35590551  0.45572585
   0.58645439  0.41669756  0.48595745
   0.58546266  0.74288601  0.49008696
   0.46474762  0.68142429  0.46533790
   0.49388820  0.52928100  0.48598912
   0.50065050  0.51665491  0.58603939
   0.40171290  0.41332850  0.37608649
   0.40701922  0.56287803  0.38943777
   0.63304074  0.67108752  0.54027803
   0.63682682  0.53241450  0.55574715
   0.45830606  0.49560982  0.53720861
Direct configuration=     8
   0.00189409  0.00145566  0.49386434
   0.00136294  0.14398964  0.49180268
   0.00108281  0.28668045  0.49035570
   0.00157831  0.42972113  0.49226034
   0.00224603  0.57286908  0.49415194
   0.00324307  0.71619996  0.49689756
   0.00303497  0.85929293  0.49662115
   0.14492972  0.00179679  0.48430650
   0.14405379  0.14409085  0.47808270
   0.14246815  0.28578459  0.47072818
   0.14276387  0.42904088  0.47207855
   0.14443567  0.57235180  0.48052244
   0.14514159  0.71562067  0.48610066
   0.14527893  0.85889605  0.48848733
   0.28749132  0.00148828  0.48169233
   0.28697359  0.14392006  0.46871628
   0.28428356  0.28529414  0.44592556
   0.27923290  0.42579243  0.43087461
   0.28528576  0.57158117  0.45134253
   0.28723995  0.71554096  0.47345876
   0.28750104  0.85863145  0.48359658
   0.43035567  0.00164682  0.48540776
   0.43015538  0.14429479  0.47772831
   0.42833370  0.28361313  0.46021375
   0.42861701  0.71754490  0.46865657
   0.43006719  0.85869459  0.48238323
   0.57284490  0.00174762  0.49232625
   0.57289865  0.14412596  0.49011150
   0.57372420  0.28745765  0.48421657
   0.57357641  0.85940965  0.48939325
   0.71571001  0.00136869  0.49956847
   0.71582218  0.14424266  0.49811569
   0.71571723  0.28695667  0.49746067
   0.71513379  0.42873457  0.50277491
   0.72447960  0.57590591  0.53048286
   0.72326334  0.71911608  0.52594076
   0.71484400  0.85858038  0.50378023
   0.85889429  0.00152739  0.50174068
   0.85855727  0.14413605  0.49952094
   0.85859592  0.28686425  0.49905664
   0.85910245  0.42978107  0.50085493
   0.86031079  0.57338270  0.50429315
   0.86202104  0.71702869  0.50951838
   0.85980516  0.85881812  0.50514481
   0.04932269  0.09667378  0.48862082
   0.04825320  0.23878234  0.48543977
   0.04840993  0.38176366  0.48606866
   0.04961807  0.52500830  0.48967667
   0.05013214  0.66820208  0.49237448
   0.05031848  0.81138377  0.49407282
   0.04990587  0.95416897  0.49164762
   0.19192757  0.09641247  0.47618127
   0.19039173  0.23861029  0.46636194
   0.18808917  0.38015564  0.45969703
   0.19083097  0.52418479  0.46912213
   0.19218029  0.66793528  0.47923747
   0.19262052  0.81109671  0.48587722
   0.19254961  0.95398969  0.48458781
   0.33497502  0.09684690  0.47580044
   0.33491008  0.23867318  0.45577141
   0.32087725  0.37379074  0.41782643
   0.32250210  0.52007506  0.42364045
   0.33544711  0.66871082  0.46257045
   0.33498316  0.81069072  0.47984122
   0.33498416  0.95384669  0.48383003
   0.47782579  0.09673355  0.48489741
   0.47704057  0.23940973  0.47359763
   0.47697461  0.81059567  0.48031754
   0.47777461  0.95403844  0.48732885
   0.62040716  0.09669851  0.49437409
   0.62057796  0.23935427  0.49121732
   0.62251643  0.38065498  0.49049618
   0.62208180  0.81478418  0.49414750
   0.62055884  0.95426667  0.49463315
   0.76347388  0.09677358  0.49992109
   0.76348305  0.23929002  0.49893388
   0.76373594  0.38200880  0.50123378
   0.76477763  0.52543275  0.51245953
   0.76773690  0.66966833  0.52381690
   0.76394419  0.81073534  0.51172240
   0.76356970  0.95403272  0.50267822
   0.90625709  0.09640007  0.49863010
   0.90610749  0.23924944  0.49733029
   0.90641578  0.38225454  0.49818404