       N       E                     dE             d eps       ncg     rms          rms(c)
DAV:   1     0.347112250504E+04    0.34711E+04   -0.14396E+05 11576   0.108E+03
DAV:   2    -0.186187693334E+03   -0.36573E+04   -0.34457E+04 15912   0.267E+02
DAV:   3    -0.840517451147E+03   -0.65433E+03   -0.65117E+03 13192   0.117E+02
DAV:   4    -0.863203194217E+03   -0.22686E+02   -0.22576E+02 13208   0.274E+01
DAV:   5    -0.863911246214E+03   -0.70805E+00   -0.70698E+00 15048   0.409E+00    0.512E+01
DAV:   6    -0.847552108773E+03    0.16359E+02   -0.20420E+01 12790   0.786E+00    0.333E+01
DAV:   7    -0.827694664495E+03    0.19857E+02   -0.30656E+01 12472   0.880E+00    0.202E+01
DAV:   8    -0.823066561611E+03    0.46281E+01   -0.21079E+01 12344   0.697E+00    0.795E+00
DAV:   9    -0.823097182073E+03   -0.30620E-01   -0.10528E+00 12648   0.186E+00    0.327E+00
DAV:  10    -0.822956315125E+03    0.14087E+00   -0.43784E-01 12048   0.115E+00    0.820E-01
DAV:  11    -0.822947685588E+03    0.86295E-02   -0.68688E-02 12392   0.491E-01    0.239E-01
DAV:  12    -0.822948043282E+03   -0.35769E-03   -0.79914E-03 12968   0.208E-01    0.111E-01
DAV:  13    -0.822948211191E+03   -0.16791E-03   -0.91986E-04 12536   0.627E-02    0.867E-02
DAV:  14    -0.822948243550E+03   -0.32358E-04   -0.25124E-04 12280   0.376E-02    0.456E-02
DAV:  15    -0.822948290062E+03   -0.46512E-04   -0.90005E-05 12104   0.199E-02    0.239E-02
DAV:  16    -0.822948293100E+03   -0.30379E-05   -0.27830E-05 12952   0.152E-02    0.966E-03
DAV:  17    -0.822948292738E+03    0.36224E-06   -0.97047E-06 11912   0.645E-03
   1 F= -.83044235E+03 E0= -.83044226E+03  d E =-.830442E+03  mag=     0.0002
       N       E                     dE             d eps       ncg     rms          rms(c)
DAV:   1    -0.822948742873E+03   -0.44977E-03   -0.18797E-02 11568   0.276E-01    0.349E-02
DAV:   2    -0.822948766142E+03   -0.23269E-04   -0.43730E-04 13368   0.404E-02    0.292E-02
DAV:   3    -0.822948749798E+03    0.16344E-04   -0.24226E-05 12792   0.105E-02    0.194E-02
DAV:   4    -0.822948741620E+03    0.81787E-05   -0.35615E-05 11216   0.124E-02    0.506E-03
DAV:   5    -0.822948741800E+03   -0.18066E-06   -0.79351E-06 10008   0.508E-03
   2 F= -.83044276E+03 E0= -.83044267E+03  d E =-.410640E-03  mag=     0.0000
       N       E                     dE             d eps       ncg     rms          rms(c)
DAV:   1    -0.822948806305E+03   -0.64685E-04   -0.41119E-03 11456   0.129E-01    0.166E-02
DAV:   2    -0.822948811959E+03   -0.56538E-05   -0.94793E-05 13408   0.187E-02    0.136E-02
DAV:   3    -0.822948808791E+03    0.31678E-05   -0.52742E-06 12368   0.495E-03    0.899E-03
DAV:   4    -0.822948807488E+03    0.13028E-05   -0.68884E-06 10576   0.548E-03    0.258E-03
DAV:   5    -0.822948807512E+03   -0.23894E-07   -0.16140E-06  7096   0.237E-03
   3 F= -.83044281E+03 E0= -.83044272E+03  d E =-.457972E-03  mag=     0.0000
       N       E                     dE             d eps       ncg     rms          rms(c)
DAV:   1    -0.822948875455E+03   -0.67967E-04   -0.21915E-03 10976   0.988E-02    0.917E-03
DAV:   2    -0.822948878701E+03   -0.32460E-05   -0.42481E-05 13176   0.126E-02    0.762E-03
DAV:   3    -0.822948878274E+03    0.42697E-06   -0.11193E-06  8368   0.263E-03
   4 F= -.83044288E+03 E0= -.83044279E+03  d E =-.642860E-04  mag=     0.0000
       N       E                     dE             d eps       ncg     rms          rms(c)
DAV:   1    -0.822948938132E+03   -0.59431E-04   -0.13526E-02 10752   0.245E-01    0.238E-02
DAV:   2    -0.822948956690E+03   -0.18558E-04   -0.25170E-04 13248   0.306E-02    0.198E-02
DAV:   3    -0.822948954419E+03    0.22718E-05   -0.78712E-06 13384   0.638E-03    0.151E-02
DAV:   4    -0.822948953822E+03    0.59622E-06   -0.80700E-06 10784   0.642E-03
   5 F= -.83044293E+03 E0= -.83044285E+03  d E =-.123337E-03  mag=     0.0000
       N       E                     dE             d eps       ncg     rms          rms(c)
DAV:   1    -0.822948989718E+03   -0.35299E-04   -0.15790E-03 10800   0.825E-02    0.855E-03
DAV:   2    -0.822948991885E+03   -0.21672E-05   -0.29985E-05 12896   0.104E-02    0.695E-03
DAV:   3    -0.822948991750E+03    0.13573E-06   -0.66903E-07  7728   0.214E-03
   6 F= -.83044298E+03 E0= -.83044289E+03  d E =-.407170E-04  mag=    -0.0000
       N       E                     dE             d eps       ncg     rms          rms(c)
DAV:   1    -0.822949038597E+03   -0.46711E-04   -0.14040E-02 10716   0.246E-01    0.220E-02
DAV:   2    -0.822949058454E+03   -0.19857E-04   -0.26015E-04 12720   0.305E-02    0.185E-02
DAV:   3    -0.822949057053E+03    0.14005E-05   -0.60483E-06 12464   0.572E-03    0.145E-02
DAV:   4    -0.822949057370E+03   -0.31634E-06   -0.77198E-06 10416   0.620E-03
   7 F= -.83044305E+03 E0= -.83044296E+03  d E =-.114592E-03  mag=     0.0000
       N       E                     dE             d eps       ncg     rms          rms(c)
DAV:   1    -0.822949059369E+03   -0.23153E-05   -0.28433E-03 10716   0.111E-01    0.107E-02
DAV:   2    -0.822949063421E+03   -0.40528E-05   -0.52529E-05 12952   0.138E-02    0.871E-03
DAV:   3    -0.822949063349E+03    0.72476E-07   -0.99702E-07  8456   0.261E-03
   8 F= -.83044306E+03 E0= -.83044297E+03  d E =-.124141E-03  mag=    -0.0000
       N       E                     dE             d eps       ncg     rms          rms(c)
DAV:   1    -0.822949101261E+03   -0.37839E-04   -0.13422E-03 10716   0.763E-02    0.761E-03
DAV:   2    -0.822949103272E+03   -0.20114E-05   -0.27885E-05 12440   0.102E-02    0.638E-03
DAV:   3    -0.822949103086E+03    0.18620E-06   -0.77714E-07  7720   0.218E-03
   9 F= -.83044310E+03 E0= -.83044301E+03  d E =-.366353E-04  mag=     0.0000
       N       E                     dE             d eps       ncg     rms          rms(c)
DAV:   1    -0.822949149134E+03   -0.45862E-04   -0.12209E-02 10700   0.230E-01    0.220E-02
DAV:   2    -0.822949168230E+03   -0.19097E-04   -0.25780E-04 12460   0.308E-02    0.184E-02
DAV:   3    -0.822949166221E+03    0.20094E-05   -0.77406E-06 13172   0.618E-03    0.144E-02
DAV:   4    -0.822949165936E+03    0.28549E-06   -0.82761E-06 10410   0.674E-03
  10 F= -.83044315E+03 E0= -.83044306E+03  d E =-.899943E-04  mag=    -0.0000
       N       E                     dE             d eps       ncg     rms          rms(c)
DAV:   1    -0.822949205818E+03   -0.39597E-04   -0.24400E-03 10708   0.102E-01    0.104E-02
DAV:   2    -0.822949209431E+03   -0.36129E-05   -0.51124E-05 12608   0.137E-02    0.853E-03
DAV:   3    -0.822949209220E+03    0.21137E-06   -0.13095E-06  8576   0.265E-03
  11 F= -.83044319E+03 E0= -.83044310E+03  d E =-.365917E-04  mag=     0.0000
       N       E                     dE             d eps       ncg     rms          rms(c)
DAV:   1    -0.822949231625E+03   -0.22194E-04   -0.19911E-02 10696   0.291E-01    0.273E-02
DAV:   2    -0.822949262335E+03   -0.30710E-04   -0.41138E-04 12352   0.387E-02    0.227E-02
DAV:   3    -0.822949259866E+03    0.24686E-05   -0.11256E-05 13616   0.713E-03    0.178E-02
DAV:   4    -0.822949260441E+03   -0.57488E-06   -0.98851E-06 10460   0.739E-03
  12 F= -.83044322E+03 E0= -.83044313E+03  d E =-.683493E-04  mag=    -0.0000
       N       E                     dE             d eps       ncg     rms          rms(c)
DAV:   1    -0.822949257792E+03    0.20740E-05   -0.10172E-03 10708   0.659E-02    0.544E-03
DAV:   2    -0.822949259681E+03   -0.18883E-05   -0.24989E-05 11452   0.948E-03    0.469E-03
DAV:   3    -0.822949259392E+03    0.28870E-06   -0.58095E-07  8096   0.180E-03
  13 F= -.83044322E+03 E0= -.83044313E+03  d E =-.716778E-04  mag=    -0.0000
       N       E                     dE             d eps       ncg     rms          rms(c)
DAV:   1    -0.822949284269E+03   -0.24589E-04   -0.35639E-03 10704   0.121E-01    0.103E-02
DAV:   2    -0.822949290619E+03   -0.63498E-05   -0.80013E-05 11096   0.169E-02    0.846E-03
DAV:   3    -0.822949290151E+03    0.46766E-06   -0.16803E-06  9456   0.286E-03
  14 F= -.83044325E+03 E0= -.83044316E+03  d E =-.296156E-04  mag=     0.0000
       N       E                     dE             d eps       ncg     rms          rms(c)
DAV:   1    -0.822949290386E+03    0.23293E-06   -0.31299E-02 10660   0.359E-01    0.332E-02
DAV:   2    -0.822949339058E+03   -0.48672E-04   -0.65217E-04 11372   0.483E-02    0.277E-02
DAV:   3    -0.822949335448E+03    0.36102E-05   -0.15837E-05 13796   0.836E-03    0.216E-02
DAV:   4    -0.822949337757E+03   -0.23087E-05   -0.13979E-05 10548   0.877E-03    0.696E-03
DAV:   5    -0.822949339143E+03   -0.13860E-05   -0.48276E-06 10206   0.399E-03    0.346E-03
DAV:   6    -0.822949339195E+03   -0.52911E-07   -0.60566E-07  7312   0.181E-03
  15 F= -.83044330E+03 E0= -.83044321E+03  d E =-.751380E-04  mag=     0.0000
       N       E                     dE             d eps       ncg     rms          rms(c)
DAV:   1    -0.822949376369E+03   -0.37227E-04   -0.65849E-03 10688   0.163E-01    0.149E-02
DAV:   2    -0.822949387452E+03   -0.11083E-04   -0.14543E-04 11104   0.227E-02    0.122E-02
DAV:   3    -0.822949386653E+03    0.79905E-06   -0.32536E-06 10864   0.386E-03
  16 F= -.83044334E+03 E0= -.83044325E+03  d E =-.462899E-04  mag=     0.0000
       N       E                     dE             d eps       ncg     rms          rms(c)
DAV:   1    -0.822949364697E+03    0.22756E-04   -0.58504E-02 10656   0.487E-01    0.462E-02
DAV:   2    -0.822949457963E+03   -0.93266E-04   -0.12434E-03 11086   0.665E-02    0.383E-02
DAV:   3    -0.822949450750E+03    0.72129E-05   -0.30164E-05 13758   0.114E-02    0.298E-02
DAV:   4    -0.822949455714E+03   -0.49643E-05   -0.27882E-05 10696   0.124E-02    0.932E-03
DAV:   5    -0.822949458385E+03   -0.26706E-05   -0.94843E-06 11390   0.552E-03    0.476E-03
DAV:   6    -0.822949458477E+03   -0.91524E-07   -0.96246E-07  7184   0.229E-03
  17 F= -.83044341E+03 E0= -.83044332E+03  d E =-.114414E-03  mag=     0.0000
       N       E                     dE             d eps       ncg     rms          rms(c)
DAV:   1    -0.822949498040E+03   -0.39655E-04   -0.75706E-03 10662   0.173E-01    0.158E-02
DAV:   2    -0.822949510503E+03   -0.12463E-04   -0.16332E-04 11128   0.239E-02    0.129E-02
DAV:   3    -0.822949509628E+03    0.87549E-06   -0.35827E-06 11412   0.403E-03
  18 F= -.83044345E+03 E0= -.83044336E+03  d E =-.422001E-04  mag=     0.0000
       N       E                     dE             d eps       ncg     rms          rms(c)
DAV:   1    -0.822949504195E+03    0.63088E-05   -0.67160E-02 10656   0.516E-01    0.487E-02
DAV:   2    -0.822949608237E+03   -0.10404E-03   -0.13859E-03 11070   0.697E-02    0.404E-02
DAV:   3    -0.822949600430E+03    0.78071E-05   -0.32857E-05 13790   0.119E-02    0.312E-02
DAV:   4    -0.822949608042E+03   -0.76116E-05   -0.30731E-05 10856   0.127E-02    0.941E-03
DAV:   5    -0.822949610757E+03   -0.27151E-05   -0.98111E-06 11536   0.557E-03    0.475E-03
DAV:   6    -0.822949610896E+03   -0.13910E-06   -0.10587E-06  6976   0.231E-03
  19 F= -.83044353E+03 E0= -.83044344E+03  d E =-.116442E-03  mag=     0.0000
       N       E                     dE             d eps       ncg     rms          rms(c)
DAV:   1    -0.822949613812E+03   -0.30548E-05   -0.64712E-03 10664   0.160E-01    0.146E-02
DAV:   2    -0.822949624621E+03   -0.10810E-04   -0.14014E-04 11148   0.221E-02    0.119E-02
DAV:   3    -0.822949623864E+03    0.75775E-06   -0.30719E-06 10848   0.375E-03
  20 F= -.83044353E+03 E0= -.83044344E+03  d E =-.121045E-03  mag=     0.0000
       N       E                     dE             d eps       ncg     rms          rms(c)
DAV:   1    -0.822949661352E+03   -0.36730E-04   -0.19373E-02 10656   0.276E-01    0.269E-02
DAV:   2    -0.822949690349E+03   -0.28998E-04   -0.39425E-04 10944   0.371E-02    0.227E-02
DAV:   3    -0.822949688036E+03    0.23131E-05   -0.96962E-06 13086   0.643E-03    0.173E-02
DAV:   4    -0.822949690686E+03   -0.26494E-05   -0.10538E-05 10372   0.740E-03    0.464E-03
DAV:   5    -0.822949691270E+03   -0.58482E-06   -0.31082E-06  9264   0.314E-03
  21 F= -.83044359E+03 E0= -.83044350E+03  d E =-.571426E-04  mag=     0.0000
       N       E                     dE             d eps       ncg     rms          rms(c)
DAV:   1    -0.822949647154E+03    0.43531E-04   -0.72526E-02 10644   0.533E-01    0.487E-02
DAV:   2    -0.822949765428E+03   -0.11827E-03   -0.15405E-03 10924   0.734E-02    0.408E-02
DAV:   3    -0.822949755545E+03    0.98828E-05   -0.36608E-05 13710   0.124E-02    0.316E-02
DAV:   4    -0.822949761211E+03   -0.56665E-05   -0.38169E-05 10842   0.140E-02    0.901E-03
DAV:   5    -0.822949763338E+03   -0.21262E-05   -0.10837E-05 11696   0.587E-03    0.476E-03
DAV:   6    -0.822949763665E+03   -0.32773E-06   -0.10120E-06  6880   0.216E-03
  22 F= -.83044364E+03 E0= -.83044355E+03  d E =-.109620E-03  mag=     0.0000
       N       E                     dE             d eps       ncg     rms          rms(c)
DAV:   1    -0.822949801714E+03   -0.38376E-04   -0.36902E-02 10648   0.379E-01    0.347E-02
DAV:   2    -0.822949861830E+03   -0.60117E-04   -0.77848E-04 10856   0.523E-02    0.291E-02
DAV:   3    -0.822949856407E+03    0.54234E-05   -0.18593E-05 13798   0.884E-03    0.225E-02
DAV:   4    -0.822949859262E+03   -0.28553E-05   -0.20312E-05 10356   0.101E-02    0.624E-03
DAV:   5    -0.822949860187E+03   -0.92467E-06   -0.58630E-06 11136   0.435E-03
  23 F= -.83044373E+03 E0= -.83044364E+03  d E =-.859846E-04  mag=     0.0000
       N       E                     dE             d eps       ncg     rms          rms(c)
DAV:   1    -0.822949733459E+03    0.12580E-03   -0.13474E-01 10640   0.724E-01    0.666E-02
DAV:   2    -0.822949950901E+03   -0.21744E-03   -0.28252E-03 10852   0.997E-02    0.560E-02
DAV:   3    -0.822949932334E+03    0.18566E-04   -0.67199E-05 13886   0.168E-02    0.433E-02
DAV:   4    -0.822949943604E+03   -0.11269E-04   -0.74075E-05 11042   0.193E-02    0.118E-02
DAV:   5    -0.822949946945E+03   -0.33413E-05   -0.20640E-05 11680   0.831E-03    0.631E-03
DAV:   6    -0.822949947766E+03   -0.82078E-06   -0.19701E-06  8352   0.281E-03
  24 F= -.83044379E+03 E0= -.83044371E+03  d E =-.153305E-03  mag=     0.0000
       N       E                     dE             d eps       ncg     rms          rms(c)
DAV:   1    -0.822949980521E+03   -0.33576E-04   -0.22581E-02 10652   0.294E-01    0.271E-02
DAV:   2    -0.822950017125E+03   -0.36604E-04   -0.47382E-04 10794   0.407E-02    0.227E-02
DAV:   3    -0.822950013980E+03    0.31445E-05   -0.11179E-05 13392   0.681E-03    0.174E-02
DAV:   4    -0.822950016304E+03   -0.23239E-05   -0.12763E-05 10240   0.791E-03    0.468E-03
DAV:   5    -0.822950016784E+03   -0.47956E-06   -0.35774E-06 10144   0.339E-03
  25 F= -.83044385E+03 E0= -.83044376E+03  d E =-.571849E-04  mag=     0.0000
       N       E                     dE             d eps       ncg     rms          rms(c)
DAV:   1    -0.822949828400E+03    0.18790E-03   -0.20291E-01 10640   0.881E-01    0.812E-02
DAV:   2    -0.822950150217E+03   -0.32182E-03   -0.42041E-03 10820   0.122E-01    0.688E-02
DAV:   3    -0.822950121444E+03    0.28774E-04   -0.99566E-05 13736   0.203E-02    0.530E-02
DAV:   4    -0.822950137831E+03   -0.16387E-04   -0.11797E-04 11660   0.238E-02    0.139E-02
DAV:   5    -0.822950141907E+03   -0.40765E-05   -0.31227E-05 11632   0.103E-02    0.708E-03
DAV:   6    -0.822950143248E+03   -0.13402E-05   -0.26212E-06  9136   0.315E-03    0.370E-03
DAV:   7    -0.822950143423E+03   -0.17515E-06   -0.49408E-07  7728   0.158E-03
  26 F= -.83044394E+03 E0= -.83044385E+03  d E =-.148244E-03  mag=     0.0000
       N       E                     dE             d eps       ncg     rms          rms(c)
DAV:   1    -0.822950206143E+03   -0.62896E-04   -0.20840E-02 10644   0.284E-01    0.266E-02
DAV:   2    -0.822950239277E+03   -0.33133E-04   -0.43490E-04 10772   0.395E-02    0.225E-02
DAV:   3    -0.822950235935E+03    0.33417E-05   -0.11165E-05 13232   0.685E-03    0.172E-02
DAV:   4    -0.822950237269E+03   -0.13344E-05   -0.11780E-05 10272   0.775E-03    0.495E-03
DAV:   5    -0.822950237823E+03   -0.55373E-06   -0.34657E-06  9424   0.335E-03
  27 F= -.83044402E+03 E0= -.83044393E+03  d E =-.802392E-04  mag=     0.0000
       N       E                     dE             d eps       ncg     rms          rms(c)
DAV:   1    -0.822950110033E+03    0.12724E-03   -0.18752E-01 10656   0.853E-01    0.799E-02
DAV:   2    -0.822950403576E+03   -0.29354E-03   -0.38868E-03 10788   0.118E-01    0.680E-02
DAV:   3    -0.822950375352E+03    0.28224E-04   -0.99328E-05 13600   0.205E-02    0.521E-02
DAV:   4    -0.822950387401E+03   -0.12048E-04   -0.10485E-04 11670   0.231E-02    0.148E-02
DAV:   5    -0.822950392468E+03   -0.50671E-05   -0.30099E-05 11648   0.100E-02    0.775E-03
DAV:   6    -0.822950393634E+03   -0.11667E-05   -0.27075E-06  8928   0.343E-03    0.423E-03
DAV:   7    -0.822950393865E+03   -0.23055E-06   -0.68878E-07  7368   0.185E-03
  28 F= -.83044414E+03 E0= -.83044405E+03  d E =-.193395E-03  mag=     0.0000
       N       E                     dE             d eps       ncg     rms          rms(c)
DAV:   1    -0.822950443449E+03   -0.49814E-04   -0.19237E-02 10656   0.270E-01    0.253E-02
DAV:   2    -0.822950472977E+03   -0.29528E-04   -0.39154E-04 10756   0.372E-02    0.216E-02
DAV:   3    -0.822950469970E+03    0.30068E-05   -0.98882E-06 12992   0.643E-03    0.166E-02
DAV:   4    -0.822950471278E+03   -0.13076E-05   -0.11157E-05 10184   0.736E-03    0.463E-03
DAV:   5    -0.822950471745E+03   -0.46715E-06   -0.31027E-06  9032   0.314E-03
  29 F= -.83044420E+03 E0= -.83044411E+03  d E =-.674532E-04  mag=    -0.0000
       N       E                     dE             d eps       ncg     rms          rms(c)
DAV:   1    -0.822950375098E+03    0.96179E-04   -0.17300E-01 10656   0.810E-01    0.761E-02
DAV:   2    -0.822950638007E+03   -0.26291E-03   -0.34981E-03 10766   0.111E-01    0.652E-02
DAV:   3    -0.822950611592E+03    0.26416E-04   -0.87699E-05 13552   0.192E-02    0.500E-02
DAV:   4    -0.822950623726E+03   -0.12135E-04   -0.98265E-05 11574   0.218E-02    0.138E-02
DAV:   5    -0.822950627983E+03   -0.42566E-05   -0.26702E-05 11680   0.940E-03    0.707E-03
DAV:   6    -0.822950629107E+03   -0.11237E-05   -0.24739E-06  8832   0.322E-03    0.364E-03
DAV:   7    -0.822950629269E+03   -0.16267E-06   -0.59719E-07  7520   0.169E-03
  30 F= -.83044433E+03 E0= -.83044424E+03  d E =-.193515E-03  mag=    -0.0000
       N       E                     dE             d eps       ncg     rms          rms(c)
DAV:   1    -0.822949593941E+03    0.10352E-02   -0.69136E-01 10656   0.162E+00    0.152E-01
DAV:   2    -0.822950655276E+03   -0.10613E-02   -0.13980E-02 10804   0.222E-01    0.130E-01
DAV:   3    -0.822950547136E+03    0.10814E-03   -0.35265E-04 13576   0.384E-02    0.998E-02
DAV:   4    -0.822950577094E+03   -0.29959E-04   -0.39487E-04 12256   0.435E-02    0.278E-02
DAV:   5    -0.822950594432E+03   -0.17337E-04   -0.10406E-04 11680   0.187E-02    0.142E-02
DAV:   6    -0.822950598903E+03   -0.44708E-05   -0.10122E-05 10620   0.643E-03    0.721E-03
DAV:   7    -0.822950599568E+03   -0.66563E-06   -0.21311E-06  8384   0.315E-03
  31 F= -.83044424E+03 E0= -.83044415E+03  d E =-.100011E-03  mag=     0.0000
       N       E                     dE             d eps       ncg     rms          rms(c)
DAV:   1    -0.822950164705E+03    0.43420E-03   -0.35107E-01 10656   0.115E+00    0.108E-01
DAV:   2    -0.822950696202E+03   -0.53150E-03   -0.70585E-03 10752   0.158E-01    0.930E-02
DAV:   3    -0.822950640345E+03    0.55857E-04   -0.17718E-04 13408   0.272E-02    0.715E-02
DAV:   4    -0.822950658153E+03   -0.17809E-04   -0.20605E-04 11940   0.315E-02    0.193E-02
DAV:   5    -0.822950665359E+03   -0.72059E-05   -0.54508E-05 11592   0.135E-02    0.993E-03
DAV:   6    -0.822950667529E+03   -0.21699E-05   -0.50077E-06  9916   0.448E-03    0.512E-03
DAV:   7    -0.822950667847E+03   -0.31850E-06   -0.10409E-06  7776   0.225E-03
  32 F= -.83044435E+03 E0= -.83044426E+03  d E =-.213906E-03  mag=    -0.0000
       N       E                     dE             d eps       ncg     rms          rms(c)
DAV:   1    -0.822950708894E+03   -0.41365E-04   -0.57353E-02 10672   0.467E-01    0.438E-02
DAV:   2    -0.822950793641E+03   -0.84747E-04   -0.11371E-03 10752   0.636E-02    0.381E-02
DAV:   3    -0.822950783878E+03    0.97633E-05   -0.29957E-05 13168   0.111E-02    0.292E-02
DAV:   4    -0.822950786392E+03   -0.25143E-05   -0.32246E-05 10508   0.126E-02    0.808E-03
DAV:   5    -0.822950787749E+03   -0.13570E-05   -0.94072E-06 11388   0.540E-03    0.399E-03
DAV:   6    -0.822950788110E+03   -0.36089E-06   -0.79319E-07  6688   0.183E-03
  33 F= -.83044445E+03 E0= -.83044437E+03  d E =-.104742E-03  mag=     0.0000
       N       E                     dE             d eps       ncg     rms          rms(c)
DAV:   1    -0.822950410010E+03    0.37774E-03   -0.38645E-01 10672   0.121E+00    0.114E-01
DAV:   2    -0.822950986474E+03   -0.57646E-03   -0.77293E-03 10774   0.166E-01    0.982E-02
DAV:   3    -0.822950925031E+03    0.61443E-04   -0.20405E-04 13376   0.291E-02    0.749E-02
DAV:   4    -0.822950946282E+03   -0.21252E-04   -0.21757E-04 12034   0.324E-02    0.210E-02
DAV:   5    -0.822950955482E+03   -0.91997E-05   -0.58735E-05 11544   0.140E-02    0.104E-02
DAV:   6    -0.822950958076E+03   -0.25943E-05   -0.58447E-06 10320   0.474E-03    0.523E-03
DAV:   7    -0.822950958404E+03   -0.32765E-06   -0.10315E-06  7872   0.224E-03
  34 F= -.83044458E+03 E0= -.83044450E+03  d E =-.234577E-03  mag=     0.0000
       N       E                     dE             d eps       ncg     rms          rms(c)
DAV:   1    -0.822950993833E+03   -0.35757E-04   -0.10647E-01 10656   0.632E-01    0.595E-02
DAV:   2    -0.822951150653E+03   -0.15682E-03   -0.21122E-03 10752   0.860E-02    0.516E-02
DAV:   3    -0.822951132934E+03    0.17719E-04   -0.55236E-05 13312   0.152E-02    0.395E-02
DAV:   4    -0.822951139027E+03   -0.60928E-05   -0.62373E-05 11126   0.172E-02    0.111E-02
DAV:   5    -0.822951141544E+03   -0.25171E-05   -0.17190E-05 11584   0.745E-03    0.558E-03
DAV:   6    -0.822951142367E+03   -0.82271E-06   -0.15054E-06  7824   0.244E-03
  35 F= -.83044474E+03 E0= -.83044465E+03  d E =-.158393E-03  mag=     0.0000
       N       E                     dE             d eps       ncg     rms          rms(c)
DAV:   1    -0.822950704870E+03    0.43667E-03   -0.44938E-01 10656   0.130E+00    0.122E-01
DAV:   2    -0.822951369445E+03   -0.66458E-03   -0.89046E-03 10790   0.177E-01    0.106E-01
DAV:   3    -0.822951295628E+03    0.73817E-04   -0.23245E-04 13312   0.312E-02    0.814E-02
DAV:   4    -0.822951317278E+03   -0.21650E-04   -0.26244E-04 12158   0.353E-02    0.228E-02
DAV:   5    -0.822951327858E+03   -0.10580E-04   -0.69848E-05 11584   0.153E-02    0.114E-02
DAV:   6    -0.822951331157E+03   -0.32992E-05   -0.66188E-06 10320   0.503E-03    0.579E-03
DAV:   7    -0.822951331520E+03   -0.36222E-06   -0.12382E-06  8112   0.246E-03
  36 F= -.83044488E+03 E0= -.83044479E+03  d E =-.294402E-03  mag=    -0.0000
       N       E                     dE             d eps       ncg     rms          rms(c)
DAV:   1    -0.822951312500E+03    0.18657E-04   -0.15250E-01 10656   0.754E-01    0.709E-02
DAV:   2    -0.822951532549E+03   -0.22005E-03   -0.29827E-03 10736   0.102E-01    0.619E-02
DAV:   3    -0.822951506966E+03    0.25583E-04   -0.76873E-05 13296   0.180E-02    0.474E-02
DAV:   4    -0.822951516460E+03   -0.94947E-05   -0.92993E-05 11434   0.210E-02    0.128E-02
DAV:   5    -0.822951519509E+03   -0.30480E-05   -0.25263E-05 11536   0.918E-03    0.656E-03
DAV:   6    -0.822951520710E+03   -0.12017E-05   -0.20032E-06  8432   0.282E-03    0.346E-03
DAV:   7    -0.822951520825E+03   -0.11431E-06   -0.48936E-07  7632   0.156E-03
  37 F= -.83044503E+03 E0= -.83044494E+03  d E =-.155513E-03  mag=     0.0000
       N       E                     dE             d eps       ncg     rms          rms(c)
DAV:   1    -0.822951017432E+03    0.50328E-03   -0.49976E-01 10656   0.136E+00    0.128E-01
DAV:   2    -0.822951740717E+03   -0.72328E-03   -0.97467E-03 10790   0.184E-01    0.112E-01
DAV:   3    -0.822951656250E+03    0.84467E-04   -0.25154E-04 13328   0.326E-02    0.860E-02
DAV:   4    -0.822951679803E+03   -0.23553E-04   -0.30520E-04 12206   0.379E-02    0.232E-02
DAV:   5    -0.822951689782E+03   -0.99793E-05   -0.81027E-05 11656   0.166E-02    0.119E-02
DAV:   6    -0.822951693751E+03   -0.39684E-05   -0.67982E-06 10432   0.510E-03    0.624E-03
DAV:   7    -0.822951694141E+03   -0.38999E-06   -0.12981E-06  7920   0.257E-03
  38 F= -.83044515E+03 E0= -.83044506E+03  d E =-.267185E-03  mag=     0.0000
       N       E                     dE             d eps       ncg     rms          rms(c)
DAV:   1    -0.822951607438E+03    0.86313E-04   -0.23584E-01 10672   0.936E-01    0.884E-02
DAV:   2    -0.822951943013E+03   -0.33558E-03   -0.45720E-03 10772   0.126E-01    0.772E-02
DAV:   3    -0.822951902823E+03    0.40190E-04   -0.11855E-04 13120   0.223E-02    0.590E-02
DAV:   4    -0.822951917093E+03   -0.14271E-04   -0.14456E-04 11638   0.260E-02    0.159E-02
DAV:   5    -0.822951921614E+03   -0.45206E-05   -0.38955E-05 11568   0.114E-02    0.800E-03
DAV:   6    -0.822951923619E+03   -0.20057E-05   -0.31650E-06  9504   0.351E-03    0.408E-03
DAV:   7    -0.822951923815E+03   -0.19538E-06   -0.62883E-07  8128   0.174E-03
  39 F= -.83044534E+03 E0= -.83044525E+03  d E =-.195843E-03  mag=     0.0000
       N       E                     dE             d eps       ncg     rms          rms(c)
DAV:   1    -0.822950906436E+03    0.10172E-02   -0.93180E-01 10672   0.186E+00    0.176E-01
DAV:   2    -0.822952249186E+03   -0.13427E-02   -0.18019E-02 10856   0.250E-01    0.154E-01
DAV:   3    -0.822952087986E+03    0.16120E-03   -0.46785E-04 13216   0.443E-02    0.118E-01
DAV:   4    -0.822952124479E+03   -0.36493E-04   -0.57134E-04 12184   0.517E-02    0.316E-02
DAV:   5    -0.822952141118E+03   -0.16639E-04   -0.14941E-04 11576   0.224E-02    0.159E-02
DAV:   6    -0.822952148051E+03   -0.69332E-05   -0.12840E-05 11264   0.704E-03    0.806E-03
DAV:   7    -0.822952148611E+03   -0.55975E-06   -0.23761E-06  8976   0.331E-03
  40 F= -.83044550E+03 E0= -.83044541E+03  d E =-.352984E-03  mag=     0.0000
       N       E                     dE             d eps       ncg     rms          rms(c)
DAV:   1    -0.822952068997E+03    0.79054E-04   -0.23068E-01 10672   0.920E-01    0.874E-02
DAV:   2    -0.822952395740E+03   -0.32674E-03   -0.44578E-03 10748   0.124E-01    0.762E-02
DAV:   3    -0.822952357348E+03    0.38392E-04   -0.11320E-04 13136   0.219E-02    0.584E-02
DAV:   4    -0.822952371639E+03   -0.14291E-04   -0.14293E-04 11576   0.257E-02    0.157E-02
DAV:   5    -0.822952376289E+03   -0.46505E-05   -0.37378E-05 11632   0.111E-02    0.797E-03
DAV:   6    -0.822952378100E+03   -0.18103E-05   -0.32259E-06  9408   0.361E-03    0.406E-03
DAV:   7    -0.822952378271E+03   -0.17090E-06   -0.72425E-07  8056   0.182E-03
  41 F= -.83044570E+03 E0= -.83044561E+03  d E =-.198797E-03  mag=     0.0000
       N       E                     dE             d eps       ncg     rms          rms(c)
DAV:   1    -0.822950404542E+03    0.19736E-02   -0.17303E+00 10672   0.252E+00    0.240E-01
DAV:   2    -0.822952918760E+03   -0.25142E-02   -0.33319E-02 10856   0.340E-01    0.209E-01
DAV:   3    -0.822952614532E+03    0.30423E-03   -0.84731E-04 13200   0.600E-02    0.161E-01
DAV:   4    -0.822952646388E+03   -0.31856E-04   -0.10647E-03 12256   0.700E-02    0.435E-02
DAV:   5    -0.822952681162E+03   -0.34775E-04   -0.27040E-04 11608   0.299E-02    0.219E-02
DAV:   6    -0.822952692961E+03   -0.11799E-04   -0.25177E-05 11312   0.101E-02    0.110E-02
DAV:   7    -0.822952694157E+03   -0.11960E-05   -0.54487E-06 11192   0.476E-03    0.583E-03
DAV:   8    -0.822952694179E+03   -0.22250E-07   -0.22081E-06  9136   0.305E-03
  42 F= -.83044593E+03 E0= -.83044584E+03  d E =-.429469E-03  mag=     0.0000
       N       E                     dE             d eps       ncg     rms          rms(c)
DAV:   1    -0.822952463681E+03    0.23048E-03   -0.40910E-01 10672   0.123E+00    0.117E-01
DAV:   2    -0.822953033015E+03   -0.56933E-03   -0.77956E-03 10736   0.165E-01    0.102E-01
DAV:   3    -0.822952963438E+03    0.69577E-04   -0.20081E-04 13152   0.293E-02    0.779E-02
DAV:   4    -0.822952985855E+03   -0.22417E-04   -0.24509E-04 11796   0.337E-02    0.212E-02
DAV:   5    -0.822952993754E+03   -0.78992E-05   -0.64824E-05 11628   0.146E-02    0.104E-02
DAV:   6    -0.822952996499E+03   -0.27451E-05   -0.58392E-06 10336   0.477E-03    0.526E-03
DAV:   7    -0.822952996809E+03   -0.30978E-06   -0.11402E-06  8080   0.229E-03
  43 F= -.83044618E+03 E0= -.83044609E+03  d E =-.253412E-03  mag=     0.0000
       N       E                     dE             d eps       ncg     rms          rms(c)
DAV:   1    -0.822951605550E+03    0.13909E-02   -0.12902E+00 10672   0.218E+00    0.208E-01
DAV:   2    -0.822953435757E+03   -0.18302E-02   -0.24610E-02 10818   0.293E-01    0.182E-01
DAV:   3    -0.822953211240E+03    0.22452E-03   -0.63326E-04 13184   0.521E-02    0.139E-01
DAV:   4    -0.822953248899E+03   -0.37659E-04   -0.77013E-04 12200   0.598E-02    0.378E-02
DAV:   5    -0.822953274836E+03   -0.25937E-04   -0.20042E-04 11648   0.257E-02    0.185E-02
DAV:   6    -0.822953282867E+03   -0.80314E-05   -0.18614E-05 11344   0.851E-03    0.927E-03
DAV:   7    -0.822953283715E+03   -0.84744E-06   -0.36890E-06 10384   0.396E-03
  44 F= -.83044638E+03 E0= -.83044629E+03  d E =-.452588E-03  mag=     0.0000
       N       E                     dE             d eps       ncg     rms          rms(c)
DAV:   1    -0.822953038803E+03    0.24406E-03   -0.43357E-01 10672   0.126E+00    0.120E-01
DAV:   2    -0.822953641673E+03   -0.60287E-03   -0.82173E-03 10704   0.168E-01    0.105E-01
DAV:   3    -0.822953565313E+03    0.76360E-04   -0.20606E-04 13120   0.297E-02    0.806E-02
DAV:   4    -0.822953587508E+03   -0.22196E-04   -0.28388E-04 11928   0.356E-02    0.211E-02
DAV:   5    -0.822953594418E+03   -0.69099E-05   -0.72021E-05 11580   0.154E-02    0.108E-02
DAV:   6    -0.822953597456E+03   -0.30373E-05   -0.58523E-06 10416   0.467E-03    0.554E-03
DAV:   7    -0.822953597646E+03   -0.18993E-06   -0.12184E-06  8160   0.236E-03
  45 F= -.83044666E+03 E0= -.83044657E+03  d E =-.280924E-03  mag=     0.0000
       N       E                     dE             d eps       ncg     rms          rms(c)
DAV:   1    -0.822953267606E+03    0.32985E-03   -0.37899E-01 10672   0.117E+00    0.112E-01
DAV:   2    -0.822953793779E+03   -0.52617E-03   -0.71709E-03 10704   0.157E-01    0.982E-02
DAV:   3    -0.822953726343E+03    0.67436E-04   -0.17974E-04 13104   0.278E-02    0.754E-02
DAV:   4    -0.822953744046E+03   -0.17703E-04   -0.24815E-04 11824   0.333E-02    0.198E-02
DAV:   5    -0.822953750001E+03   -0.59547E-05   -0.63236E-05 11496   0.144E-02    0.101E-02
DAV:   6    -0.822953752686E+03   -0.26853E-05   -0.51039E-06 10032   0.438E-03    0.519E-03
DAV:   7    -0.822953752861E+03   -0.17512E-06   -0.11116E-06  8112   0.225E-03
  46 F= -.83044679E+03 E0= -.83044670E+03  d E =-.404828E-03  mag=     0.0000
       N       E                     dE             d eps       ncg     rms          rms(c)
DAV:   1    -0.822953701286E+03    0.51400E-04   -0.58868E-02 10672   0.463E-01    0.440E-02
DAV:   2    -0.822953783463E+03   -0.82177E-04   -0.11188E-03 10736   0.620E-02    0.386E-02
DAV:   3    -0.822953772975E+03    0.10488E-04   -0.28011E-05 12992   0.110E-02    0.296E-02
DAV:   4    -0.822953776128E+03   -0.31527E-05   -0.38033E-05 10360   0.131E-02    0.788E-03
DAV:   5    -0.822953777104E+03   -0.97589E-06   -0.10616E-05 11504   0.569E-03    0.407E-03
DAV:   6    -0.822953777509E+03   -0.40481E-06   -0.71377E-07  6784   0.170E-03
  47 F= -.83044680E+03 E0= -.83044671E+03  d E =-.417102E-03  mag=     0.0000
       N       E                     dE             d eps       ncg     rms          rms(c)
DAV:   1    -0.822953482345E+03    0.29476E-03   -0.47151E-01 10672   0.131E+00    0.125E-01
DAV:   2    -0.822954124754E+03   -0.64241E-03   -0.87929E-03 10720   0.174E-01    0.110E-01
DAV:   3    -0.822954040286E+03    0.84468E-04   -0.21974E-04 13040   0.309E-02    0.842E-02
DAV:   4    -0.822954061830E+03   -0.21544E-04   -0.30542E-04 11936   0.369E-02    0.218E-02
DAV:   5    -0.822954068406E+03   -0.65758E-05   -0.79360E-05 11488   0.162E-02    0.109E-02
DAV:   6    -0.822954071760E+03   -0.33539E-05   -0.61555E-06 10496   0.476E-03    0.567E-03
DAV:   7    -0.822954071922E+03   -0.16225E-06   -0.11896E-06  8112   0.233E-03
  48 F= -.83044706E+03 E0= -.83044697E+03  d E =-.260090E-03  mag=     0.0000
       N       E                     dE             d eps       ncg     rms          rms(c)
DAV:   1    -0.822953709981E+03    0.36178E-03   -0.41731E-01 10672   0.123E+00    0.118E-01
DAV:   2    -0.822954279814E+03   -0.56983E-03   -0.77890E-03 10720   0.164E-01    0.103E-01
DAV:   3    -0.822954204447E+03    0.75366E-04   -0.19456E-04 13040   0.290E-02    0.792E-02
DAV:   4    -0.822954223348E+03   -0.18900E-04   -0.27139E-04 11874   0.347E-02    0.206E-02
DAV:   5    -0.822954229046E+03   -0.56984E-05   -0.70375E-05 11488   0.152E-02    0.103E-02
DAV:   6    -0.822954231958E+03   -0.29118E-05   -0.54177E-06  9984   0.447E-03    0.535E-03
DAV:   7    -0.822954232131E+03   -0.17312E-06   -0.10991E-06  8064   0.224E-03
  49 F= -.83044719E+03 E0= -.83044710E+03  d E =-.387812E-03  mag=     0.0000
       N       E                     dE             d eps       ncg     rms          rms(c)
DAV:   1    -0.822952130915E+03    0.21010E-02   -0.16687E+00 10672   0.246E+00    0.235E-01
DAV:   2    -0.822954444294E+03   -0.23134E-02   -0.31135E-02 10844   0.327E-01    0.207E-01
DAV:   3    -0.822954144958E+03    0.29934E-03   -0.77755E-04 13120   0.580E-02    0.159E-01
DAV:   4    -0.822954178357E+03   -0.33399E-04   -0.10813E-03 12260   0.693E-02    0.413E-02
DAV:   5    -0.822954202177E+03   -0.23820E-04   -0.27634E-04 11600   0.301E-02    0.206E-02
DAV:   6    -0.822954213130E+03   -0.10953E-04   -0.22177E-05 11376   0.897E-03    0.106E-02
DAV:   7    -0.822954213761E+03   -0.63105E-06   -0.44502E-06 10416   0.432E-03
  50 F= -.83044710E+03 E0= -.83044701E+03  d E =-.303709E-03  mag=     0.0000
       N       E                     dE             d eps       ncg     rms          rms(c)
DAV:   1    -0.822953242693E+03    0.97044E-03   -0.84085E-01 10672   0.175E+00    0.167E-01
DAV:   2    -0.822954384042E+03   -0.11413E-02   -0.15608E-02 10760   0.232E-01    0.148E-01
DAV:   3    -0.822954230451E+03    0.15359E-03   -0.38993E-04 13088   0.411E-02    0.113E-01
DAV:   4    -0.822954256990E+03   -0.26539E-04   -0.55268E-04 12104   0.496E-02    0.288E-02
DAV:   5    -0.822954266847E+03   -0.98565E-05   -0.14271E-04 11628   0.217E-02    0.143E-02
DAV:   6    -0.822954272521E+03   -0.56741E-05   -0.10760E-05 11120   0.621E-03    0.751E-03
DAV:   7    -0.822954272914E+03   -0.39290E-06   -0.19485E-06  8064   0.299E-03
  51 F= -.83044721E+03 E0= -.83044712E+03  d E =-.409671E-03  mag=     0.0000
       N       E                     dE             d eps       ncg     rms          rms(c)
DAV:   1    -0.822953804160E+03    0.46836E-03   -0.69842E-01 10672   0.158E+00    0.153E-01
DAV:   2    -0.822954743714E+03   -0.93955E-03   -0.12850E-02 10704   0.210E-01    0.135E-01
DAV:   3    -0.822954613180E+03    0.13053E-03   -0.31976E-04 13072   0.372E-02    0.103E-01
DAV:   4    -0.822954632378E+03   -0.19198E-04   -0.45558E-04 12096   0.447E-02    0.266E-02
DAV:   5    -0.822954642165E+03   -0.97867E-05   -0.11595E-04 11496   0.192E-02    0.132E-02
DAV:   6    -0.822954646446E+03   -0.42811E-05   -0.91616E-06 10736   0.579E-03    0.680E-03
DAV:   7    -0.822954646701E+03   -0.25501E-06   -0.20489E-06  8128   0.293E-03
  52 F= -.83044753E+03 E0= -.83044744E+03  d E =-.320295E-03  mag=     0.0000
       N       E                     dE             d eps       ncg     rms          rms(c)
DAV:   1    -0.822953888584E+03    0.75786E-03   -0.76793E-01 10672   0.166E+00    0.160E-01
DAV:   2    -0.822954930098E+03   -0.10415E-02   -0.14211E-02 10704   0.220E-01    0.141E-01
DAV:   3    -0.822954789124E+03    0.14097E-03   -0.35326E-04 13168   0.392E-02    0.108E-01
DAV:   4    -0.822954815319E+03   -0.26195E-04   -0.50099E-04 12160   0.468E-02    0.280E-02
DAV:   5    -0.822954826760E+03   -0.11441E-04   -0.12670E-04 11520   0.201E-02    0.140E-02
DAV:   6    -0.822954831595E+03   -0.48354E-05   -0.10141E-05 10864   0.609E-03    0.715E-03
DAV:   7    -0.822954831802E+03   -0.20676E-06   -0.22681E-06  8560   0.306E-03
  53 F= -.83044766E+03 E0= -.83044756E+03  d E =-.448907E-03  mag=     0.0000
       N       E                     dE             d eps       ncg     rms          rms(c)
DAV:   1    -0.822954018687E+03    0.81291E-03   -0.10086E+00 10672   0.190E+00    0.184E-01
DAV:   2    -0.822955370223E+03   -0.13515E-02   -0.18494E-02 10664   0.251E-01    0.162E-01
DAV:   3    -0.822955182671E+03    0.18755E-03   -0.46104E-04 13152   0.450E-02    0.124E-01
DAV:   4    -0.822955210633E+03   -0.27962E-04   -0.67327E-04 12200   0.540E-02    0.318E-02
DAV:   5    -0.822955224776E+03   -0.14144E-04   -0.17140E-04 11536   0.234E-02    0.162E-02
DAV:   6    -0.822955231175E+03   -0.63982E-05   -0.13298E-05 11456   0.699E-03    0.844E-03
DAV:   7    -0.822955231360E+03   -0.18494E-06   -0.29870E-06  9024   0.352E-03
  54 F= -.83044802E+03 E0= -.83044793E+03  d E =-.366857E-03  mag=     0.0000
       N       E                     dE             d eps       ncg     rms          rms(c)
DAV:   1    -0.822954975219E+03    0.25596E-03   -0.28248E-01 10672   0.100E+00    0.976E-02
DAV:   2    -0.822955352369E+03   -0.37715E-03   -0.51927E-03 10656   0.133E-01    0.858E-02
DAV:   3    -0.822955299130E+03    0.53240E-04   -0.12944E-04 13072   0.238E-02    0.656E-02
DAV:   4    -0.822955312418E+03   -0.13288E-04   -0.18850E-04 11832   0.286E-02    0.169E-02
DAV:   5    -0.822955316187E+03   -0.37686E-05   -0.48750E-05 11488   0.124E-02    0.864E-03
DAV:   6    -0.822955317951E+03   -0.17640E-05   -0.36570E-06  9792   0.369E-03    0.453E-03
DAV:   7    -0.822955318006E+03   -0.55334E-07   -0.88678E-07  8048   0.196E-03
  55 F= -.83044809E+03 E0= -.83044800E+03  d E =-.435914E-03  mag=     0.0000
       N       E                     dE             d eps       ncg     rms          rms(c)
DAV:   1    -0.822954637050E+03    0.68090E-03   -0.88927E-01 10672   0.177E+00    0.173E-01
DAV:   2    -0.822955802911E+03   -0.11659E-02   -0.16065E-02 10640   0.234E-01    0.153E-01
DAV:   3    -0.822955633323E+03    0.16959E-03   -0.40254E-04 13136   0.420E-02    0.117E-01
DAV:   4    -0.822955658537E+03   -0.25214E-04   -0.61167E-04 12080   0.508E-02    0.295E-02
DAV:   5    -0.822955669607E+03   -0.11070E-04   -0.15286E-04 11564   0.220E-02    0.154E-02
DAV:   6    -0.822955675467E+03   -0.58607E-05   -0.12054E-05 11296   0.657E-03    0.799E-03
DAV:   7    -0.822955675696E+03   -0.22825E-06   -0.27601E-06  8688   0.332E-03
  56 F= -.83044845E+03 E0= -.83044836E+03  d E =-.355079E-03  mag=     0.0000
       N       E                     dE             d eps       ncg     rms          rms(c)
DAV:   1    -0.822955455641E+03    0.21983E-03   -0.23806E-01 10672   0.917E-01    0.897E-02
DAV:   2    -0.822955766917E+03   -0.31128E-03   -0.43162E-03 10640   0.121E-01    0.791E-02
DAV:   3    -0.822955721371E+03    0.45546E-04   -0.10811E-04 13056   0.218E-02    0.606E-02
DAV:   4    -0.822955732466E+03   -0.11095E-04   -0.16380E-04 11700   0.263E-02    0.153E-02
DAV:   5    -0.822955735276E+03   -0.28095E-05   -0.41622E-05 11532   0.114E-02    0.805E-03
DAV:   6    -0.822955736944E+03   -0.16681E-05   -0.31626E-06  9488   0.339E-03    0.420E-03
DAV:   7    -0.822955737011E+03   -0.67572E-07   -0.78841E-07  8128   0.181E-03
  57 F= -.83044851E+03 E0= -.83044842E+03  d E =-.414810E-03  mag=     0.0000
       N       E                     dE             d eps       ncg     rms          rms(c)
DAV:   1    -0.822955182444E+03    0.55450E-03   -0.79767E-01 10672   0.167E+00    0.165E-01
DAV:   2    -0.822956213722E+03   -0.10313E-02   -0.14263E-02 10640   0.220E-01    0.146E-01
DAV:   3    -0.822956059250E+03    0.15447E-03   -0.35655E-04 13104   0.394E-02    0.112E-01
DAV:   4    -0.822956084272E+03   -0.25022E-04   -0.56358E-04 12076   0.483E-02    0.275E-02
DAV:   5    -0.822956092600E+03   -0.83276E-05   -0.13801E-04 11360   0.209E-02    0.145E-02
DAV:   6    -0.822956098485E+03   -0.58849E-05   -0.10664E-05 11056   0.609E-03    0.734E-03
DAV:   7    -0.822956098568E+03   -0.83681E-07   -0.24009E-06  8544   0.303E-03
  58 F= -.83044884E+03 E0= -.83044875E+03  d E =-.333303E-03  mag=     0.0000
       N       E                     dE             d eps       ncg     rms          rms(c)
DAV:   1    -0.822955688244E+03    0.41024E-03   -0.46444E-01 10672   0.127E+00    0.126E-01
DAV:   2    -0.822956289262E+03   -0.60102E-03   -0.83268E-03 10640   0.168E-01    0.111E-01
DAV:   3    -0.822956199168E+03    0.90094E-04   -0.20800E-04 13040   0.301E-02    0.851E-02
DAV:   4    -0.822956217328E+03   -0.18160E-04   -0.32852E-04 11876   0.368E-02    0.210E-02
DAV:   5    -0.822956222204E+03   -0.48758E-05   -0.80999E-05 11392   0.160E-02    0.111E-02
DAV:   6    -0.822956225741E+03   -0.35368E-05   -0.61624E-06 10224   0.465E-03    0.563E-03
DAV:   7    -0.822956225818E+03   -0.77234E-07   -0.14404E-06  8240   0.238E-03
  59 F= -.83044895E+03 E0= -.83044885E+03  d E =-.438835E-03  mag=     0.0000
       N       E                     dE             d eps       ncg     rms          rms(c)
DAV:   1    -0.822955574097E+03    0.65164E-03   -0.97083E-01 10672   0.183E+00    0.183E-01
DAV:   2    -0.822956827097E+03   -0.12530E-02   -0.17301E-02 10640   0.241E-01    0.162E-01
DAV:   3    -0.822956634873E+03    0.19222E-03   -0.43067E-04 13136   0.437E-02    0.124E-01
DAV:   4    -0.822956661140E+03   -0.26266E-04   -0.72582E-04 12108   0.545E-02    0.300E-02
DAV:   5    -0.822956668312E+03   -0.71718E-05   -0.18141E-04 11408   0.243E-02    0.162E-02
DAV:   6    -0.822956676284E+03   -0.79722E-05   -0.12525E-05 11232   0.666E-03    0.864E-03
DAV:   7    -0.822956676291E+03   -0.72396E-08   -0.27366E-06  9016   0.327E-03
  60 F= -.83044935E+03 E0= -.83044926E+03  d E =-.403787E-03  mag=     0.0000
       N       E                     dE             d eps       ncg     rms          rms(c)
DAV:   1    -0.822956253221E+03    0.42306E-03   -0.50309E-01 10672   0.132E+00    0.131E-01
DAV:   2    -0.822956904241E+03   -0.65102E-03   -0.89975E-03 10640   0.174E-01    0.117E-01
DAV:   3    -0.822956804003E+03    0.10024E-03   -0.22371E-04 13152   0.315E-02    0.893E-02
DAV:   4    -0.822956822130E+03   -0.18127E-04   -0.37634E-04 11996   0.392E-02    0.216E-02
DAV:   5    -0.822956825881E+03   -0.37505E-05   -0.94355E-05 11392   0.175E-02    0.118E-02
DAV:   6    -0.822956830152E+03   -0.42715E-05   -0.64346E-06 10128   0.482E-03    0.625E-03
DAV:   7    -0.822956830167E+03   -0.15280E-07   -0.14815E-06  8288   0.245E-03
  61 F= -.83044947E+03 E0= -.83044938E+03  d E =-.523761E-03  mag=     0.0000
       N       E                     dE             d eps       ncg     rms          rms(c)
DAV:   1    -0.822956205491E+03    0.62466E-03   -0.90972E-01 10640   0.177E+00    0.177E-01
DAV:   2    -0.822957372290E+03   -0.11668E-02   -0.16130E-02 10644   0.232E-01    0.157E-01
DAV:   3    -0.822957191720E+03    0.18057E-03   -0.40214E-04 13072   0.419E-02    0.121E-01
DAV:   4    -0.822957217150E+03   -0.25430E-04   -0.67533E-04 12206   0.519E-02    0.290E-02
DAV:   5    -0.822957225039E+03   -0.78880E-05   -0.16210E-04 11488   0.227E-02    0.155E-02
DAV:   6    -0.822957232030E+03   -0.69913E-05   -0.11712E-05 11016   0.648E-03    0.797E-03
DAV:   7    -0.822957231998E+03    0.31912E-07   -0.29275E-06  8976   0.333E-03
  62 F= -.83044988E+03 E0= -.83044979E+03  d E =-.411546E-03  mag=     0.0000
       N       E                     dE             d eps       ncg     rms          rms(c)
DAV:   1    -0.822956275475E+03    0.95656E-03   -0.10323E+00 10640   0.188E+00    0.189E-01
DAV:   2    -0.822957604531E+03   -0.13291E-02   -0.18315E-02 10648   0.247E-01    0.168E-01
DAV:   3    -0.822957400139E+03    0.20439E-03   -0.45670E-04 13056   0.447E-02    0.129E-01
DAV:   4    -0.822957426430E+03   -0.26291E-04   -0.76601E-04 12240   0.553E-02    0.309E-02
DAV:   5    -0.822957435394E+03   -0.89634E-05   -0.18379E-04 11488   0.242E-02    0.165E-02
DAV:   6    -0.822957443178E+03   -0.77841E-05   -0.13304E-05 11160   0.689E-03    0.850E-03
DAV:   7    -0.822957443110E+03    0.67761E-07   -0.33260E-06  9024   0.354E-03
  63 F= -.83045010E+03 E0= -.83045002E+03  d E =-.632907E-03  mag=     0.0000
       N       E                     dE             d eps       ncg     rms          rms(c)
DAV:   1    -0.822957224075E+03    0.21910E-03   -0.21014E-01 10640   0.848E-01    0.851E-02
DAV:   2    -0.822957494176E+03   -0.27010E-03   -0.37419E-03 10640   0.112E-01    0.755E-02
DAV:   3    -0.822957452562E+03    0.41614E-04   -0.93118E-05 13008   0.202E-02    0.579E-02
DAV:   4    -0.822957461440E+03   -0.88778E-05   -0.15546E-04 11608   0.249E-02    0.140E-02
DAV:   5    -0.822957463312E+03   -0.18714E-05   -0.38271E-05 11408   0.109E-02    0.752E-03
DAV:   6    -0.822957464948E+03   -0.16365E-05   -0.26436E-06  9200   0.312E-03    0.390E-03
DAV:   7    -0.822957464943E+03    0.52169E-08   -0.75861E-07  8144   0.174E-03
  64 F= -.83045013E+03 E0= -.83045004E+03  d E =-.659276E-03  mag=     0.0000
       N       E                     dE             d eps       ncg     rms          rms(c)
DAV:   1    -0.822957228534E+03    0.23641E-03   -0.45436E-01 10640   0.124E+00    0.126E-01
DAV:   2    -0.822957803496E+03   -0.57496E-03   -0.79997E-03 10640   0.163E-01    0.112E-01
DAV:   3    -0.822957712397E+03    0.91099E-04   -0.19979E-04 12944   0.295E-02    0.855E-02
DAV:   4    -0.822957728630E+03   -0.16233E-04   -0.33476E-04 12172   0.364E-02    0.206E-02
DAV:   5    -0.822957732778E+03   -0.41480E-05   -0.79286E-05 11440   0.159E-02    0.109E-02
DAV:   6    -0.822957736245E+03   -0.34667E-05   -0.58725E-06  9912   0.462E-03    0.557E-03
DAV:   7    -0.822957736153E+03    0.91823E-07   -0.15222E-06  8032   0.241E-03
  65 F= -.83045040E+03 E0= -.83045031E+03  d E =-.271356E-03  mag=     0.0000
       N       E                     dE             d eps       ncg     rms          rms(c)
DAV:   1    -0.822953733479E+03    0.40028E-02   -0.40880E+00 10640   0.372E+00    0.377E-01
DAV:   2    -0.822959038731E+03   -0.53053E-02   -0.72119E-02 10704   0.489E-01    0.335E-01
DAV:   3    -0.822958240889E+03    0.79784E-03   -0.17996E-03 13056   0.883E-02    0.257E-01
DAV:   4    -0.822958235777E+03    0.51126E-05   -0.30065E-03 12476   0.109E-01    0.622E-02
DAV:   5    -0.822958273762E+03   -0.37985E-04   -0.70310E-04 11440   0.472E-02    0.329E-02
DAV:   6    -0.822958301210E+03   -0.27449E-04   -0.55036E-05 11376   0.140E-02    0.166E-02
DAV:   7    -0.822958300681E+03    0.52863E-06   -0.14237E-05 11936   0.709E-03    0.837E-03
DAV:   8    -0.822958300765E+03   -0.83186E-07   -0.69809E-06  9744   0.414E-03
  66 F= -.83045097E+03 E0= -.83045088E+03  d E =-.837625E-03  mag=     0.0000
       N       E                     dE             d eps       ncg     rms          rms(c)
DAV:   1    -0.822939824460E+03    0.18476E-01   -0.16342E+01 10640   0.745E+00    0.760E-01
DAV:   2    -0.822961874689E+03   -0.22050E-01   -0.29103E-01 10728   0.980E-01    0.670E-01
DAV:   3    -0.822958713339E+03    0.31614E-02   -0.72369E-03 13008   0.176E-01    0.515E-01
DAV:   4    -0.822958045804E+03    0.66753E-03   -0.11964E-02 12744   0.216E-01    0.128E-01
DAV:   5    -0.822958214537E+03   -0.16873E-03   -0.27156E-03 11472   0.918E-02    0.672E-02
DAV:   6    -0.822958301210E+03   -0.86673E-04   -0.24715E-04 11520   0.292E-02    0.333E-02
DAV:   7    -0.822958302079E+03   -0.86897E-06   -0.60890E-05 12080   0.147E-02    0.168E-02
DAV:   8    -0.822958302568E+03   -0.48833E-06   -0.27187E-05 12032   0.851E-03    0.607E-03
DAV:   9    -0.822958302889E+03   -0.32181E-06   -0.23969E-06  9424   0.290E-03
  67 F= -.83045098E+03 E0= -.83045088E+03  d E =-.847731E-03  mag=     0.0000
       N       E                     dE             d eps       ncg     rms          rms(c)
DAV:   1    -0.822954694104E+03    0.36085E-02   -0.34228E+00 10640   0.341E+00    0.345E-01
DAV:   2    -0.822959097816E+03   -0.44037E-02   -0.60140E-02 10712   0.447E-01    0.307E-01
DAV:   3    -0.822958432124E+03    0.66569E-03   -0.14992E-03 13040   0.806E-02    0.235E-01
DAV:   4    -0.822958434788E+03   -0.26632E-05   -0.25094E-03 12416   0.996E-02    0.568E-02
DAV:   5    -0.822958464719E+03   -0.29932E-04   -0.58579E-04 11552   0.432E-02    0.300E-02
DAV:   6    -0.822958488700E+03   -0.23981E-04   -0.46750E-05 11312   0.129E-02    0.151E-02
DAV:   7    -0.822958488344E+03    0.35646E-06   -0.11172E-05 11856   0.634E-03    0.773E-03
DAV:   8    -0.822958488337E+03    0.71814E-08   -0.57733E-06  9328   0.374E-03
  68 F= -.83045116E+03 E0= -.83045106E+03  d E =-.102874E-02  mag=     0.0000
       N       E                     dE             d eps       ncg     rms          rms(c)
DAV:   1    -0.822958179846E+03    0.30850E-03   -0.60543E-01 10640   0.143E+00    0.145E-01
DAV:   2    -0.822958944324E+03   -0.76448E-03   -0.10582E-02 10640   0.187E-01    0.129E-01
DAV:   3    -0.822958820612E+03    0.12371E-03   -0.26339E-04 12928   0.338E-02    0.991E-02
DAV:   4    -0.822958833715E+03   -0.13103E-04   -0.44705E-04 12268   0.420E-02    0.236E-02
DAV:   5    -0.822958838510E+03   -0.47954E-05   -0.10497E-04 11512   0.183E-02    0.126E-02
DAV:   6    -0.822958842566E+03   -0.40559E-05   -0.80019E-06 10496   0.536E-03    0.641E-03
DAV:   7    -0.822958842380E+03    0.18662E-06   -0.19943E-06  8336   0.274E-03
  69 F= -.83045150E+03 E0= -.83045141E+03  d E =-.342757E-03  mag=     0.0000
       N       E                     dE             d eps       ncg     rms          rms(c)
DAV:   1    -0.822953633537E+03    0.52090E-02   -0.54487E+00 10640   0.429E+00    0.437E-01
DAV:   2    -0.822960710336E+03   -0.70768E-02   -0.95926E-02 10672   0.562E-01    0.388E-01
DAV:   3    -0.822959640626E+03    0.10697E-02   -0.23876E-03 13040   0.102E-01    0.297E-01
DAV:   4    -0.822959609721E+03    0.30905E-04   -0.40519E-03 12508   0.126E-01    0.720E-02
DAV:   5    -0.822959658709E+03   -0.48988E-04   -0.93027E-04 11468   0.544E-02    0.385E-02
DAV:   6    -0.822959693852E+03   -0.35143E-04   -0.77563E-05 11312   0.165E-02    0.193E-02
DAV:   7    -0.822959692582E+03    0.12697E-05   -0.19430E-05 12256   0.828E-03    0.965E-03
DAV:   8    -0.822959692778E+03   -0.19586E-06   -0.96027E-06 10192   0.494E-03
  70 F= -.83045232E+03 E0= -.83045222E+03  d E =-.116113E-02  mag=     0.0000
       N       E                     dE             d eps       ncg     rms          rms(c)
DAV:   1    -0.822935765014E+03    0.23928E-01   -0.21778E+01 10640   0.858E+00    0.882E-01
DAV:   2    -0.822965390372E+03   -0.29625E-01   -0.38881E-01 10728   0.113E+00    0.776E-01
DAV:   3    -0.822961184449E+03    0.42059E-02   -0.96196E-03 12976   0.203E-01    0.598E-01
DAV:   4    -0.822960091647E+03    0.10928E-02   -0.16147E-02 12840   0.250E-01    0.150E-01
DAV:   5    -0.822960333586E+03   -0.24194E-03   -0.35655E-03 11424   0.105E-01    0.797E-02
DAV:   6    -0.822960428789E+03   -0.95203E-04   -0.37269E-04 11584   0.356E-02    0.387E-02
DAV:   7    -0.822960429157E+03   -0.36809E-06   -0.82902E-05 12160   0.172E-02    0.199E-02
DAV:   8    -0.822960430512E+03   -0.13553E-05   -0.36484E-05 11792   0.103E-02    0.694E-03
DAV:   9    -0.822960431008E+03   -0.49591E-06   -0.36213E-06 10128   0.357E-03
  71 F= -.83045300E+03 E0= -.83045291E+03  d E =-.184341E-02  mag=     0.0000
       N       E                     dE             d eps       ncg     rms          rms(c)
DAV:   1    -0.822958039599E+03    0.23909E-02   -0.29066E+00 10640   0.313E+00    0.319E-01
DAV:   2    -0.822961762386E+03   -0.37228E-02   -0.50930E-02 10644   0.409E-01    0.284E-01
DAV:   3    -0.822961182986E+03    0.57940E-03   -0.12726E-03 13040   0.742E-02    0.218E-01
DAV:   4    -0.822961198673E+03   -0.15687E-04   -0.22015E-03 12416   0.924E-02    0.524E-02
DAV:   5    -0.822961221570E+03   -0.22897E-04   -0.50143E-04 11584   0.400E-02    0.283E-02
DAV:   6    -0.822961240415E+03   -0.18846E-04   -0.41552E-05 11296   0.121E-02    0.142E-02
DAV:   7    -0.822961239372E+03    0.10431E-05   -0.10262E-05 11520   0.599E-03    0.716E-03
DAV:   8    -0.822961239441E+03   -0.68932E-07   -0.53078E-06  9000   0.370E-03
  72 F= -.83045382E+03 E0= -.83045373E+03  d E =-.822410E-03  mag=     0.0000
       N       E                     dE             d eps       ncg     rms          rms(c)
DAV:   1    -0.822932884627E+03    0.28355E-01   -0.26140E+01 10640   0.938E+00    0.970E-01
DAV:   2    -0.822968689763E+03   -0.35805E-01   -0.46853E-01 10696   0.123E+00    0.852E-01
DAV:   3    -0.822963660602E+03    0.50292E-02   -0.11575E-02 12976   0.222E-01    0.658E-01
DAV:   4    -0.822962184999E+03    0.14756E-02   -0.19778E-02 12892   0.276E-01    0.166E-01
DAV:   5    -0.822962480502E+03   -0.29550E-03   -0.42538E-03 11376   0.114E-01    0.896E-02
DAV:   6    -0.822962577189E+03   -0.96687E-04   -0.51093E-04 11616   0.410E-02    0.425E-02
DAV:   7    -0.822962577079E+03    0.10978E-06   -0.98375E-05 12224   0.186E-02    0.230E-02
DAV:   8    -0.822962579138E+03   -0.20590E-05   -0.44155E-05 11728   0.116E-02    0.797E-03
DAV:   9    -0.822962579824E+03   -0.68631E-06   -0.50059E-06 10496   0.409E-03
  73 F= -.83045521E+03 E0= -.83045513E+03  d E =-.221274E-02  mag=     0.0000
       N       E                     dE             d eps       ncg     rms          rms(c)
DAV:   1    -0.822958520467E+03    0.40587E-02   -0.37338E+00 10640   0.355E+00    0.362E-01
DAV:   2    -0.822963351663E+03   -0.48312E-02   -0.65716E-02 10644   0.464E-01    0.322E-01
DAV:   3    -0.822962610582E+03    0.74108E-03   -0.16406E-03 13040   0.842E-02    0.247E-01
DAV:   4    -0.822962608633E+03    0.19490E-05   -0.28306E-03 12496   0.105E-01    0.596E-02
DAV:   5    -0.822962637070E+03   -0.28437E-04   -0.64142E-04 11600   0.452E-02    0.322E-02
DAV:   6    -0.822962660775E+03   -0.23705E-04   -0.54543E-05 11296   0.138E-02    0.161E-02
DAV:   7    -0.822962659519E+03    0.12562E-05   -0.13255E-05 11984   0.680E-03    0.815E-03
DAV:   8    -0.822962659640E+03   -0.12135E-06   -0.67849E-06  9312   0.417E-03
  74 F= -.83045532E+03 E0= -.83045523E+03  d E =-.231456E-02  mag=     0.0000
       N       E                     dE             d eps       ncg     rms          rms(c)
DAV:   1    -0.822954670236E+03    0.79893E-02   -0.82584E+00 10640   0.526E+00    0.541E-01
DAV:   2    -0.822965490588E+03   -0.10820E-01   -0.14572E-01 10660   0.688E-01    0.479E-01
DAV:   3    -0.822963873873E+03    0.16167E-02   -0.36229E-03 13056   0.125E-01    0.368E-01
DAV:   4    -0.822963761250E+03    0.11262E-03   -0.62710E-03 12680   0.156E-01    0.889E-02
DAV:   5    -0.822963820816E+03   -0.59566E-04   -0.14128E-03 11584   0.669E-02    0.479E-02
DAV:   6    -0.822963867793E+03   -0.46977E-04   -0.12580E-04 11296   0.208E-02    0.239E-02
DAV:   7    -0.822963865205E+03    0.25880E-05   -0.29342E-05 12352   0.101E-02    0.123E-02
DAV:   8    -0.822963865623E+03   -0.41783E-06   -0.15192E-05 11152   0.623E-03    0.423E-03
DAV:   9    -0.822963865780E+03   -0.15685E-06   -0.14691E-06  9328   0.216E-03
  75 F= -.83045657E+03 E0= -.83045648E+03  d E =-.125147E-02  mag=    -0.0000
       N       E                     dE             d eps       ncg     rms          rms(c)
DAV:   1    -0.822890692947E+03    0.73173E-01   -0.63030E+01 10656   0.145E+01    0.154E+00
DAV:   2    -0.822981952170E+03   -0.91259E-01   -0.11667E+00 10696   0.193E+00    0.133E+00
DAV:   3    -0.822969998769E+03    0.11953E-01   -0.28376E-02 12832   0.345E-01    0.103E+00
DAV:   4    -0.822964382574E+03    0.56162E-02   -0.48048E-02 12936   0.428E-01    0.275E-01
DAV:   5    -0.822965287824E+03   -0.90525E-03   -0.10085E-02 11536   0.173E-01    0.149E-01
DAV:   6    -0.822965332912E+03   -0.45087E-04   -0.17809E-03 11408   0.735E-02    0.657E-02
DAV:   7    -0.822965348278E+03   -0.15366E-04   -0.24596E-04 12168   0.291E-02    0.390E-02
DAV:   8    -0.822965356721E+03   -0.84432E-05   -0.96603E-05 11520   0.187E-02    0.148E-02
DAV:   9    -0.822965359023E+03   -0.23020E-05   -0.17475E-05 12744   0.708E-03    0.802E-03
DAV:  10    -0.822965358545E+03    0.47807E-06   -0.22434E-06  9176   0.322E-03
  76 F= -.83045821E+03 E0= -.83045812E+03  d E =-.289264E-02  mag=    -0.0000
       N       E                     dE             d eps       ncg     rms          rms(c)
DAV:   1    -0.822951343981E+03    0.14015E-01   -0.14131E+01 10640   0.688E+00    0.712E-01
DAV:   2    -0.822970277361E+03   -0.18933E-01   -0.25156E-01 10672   0.901E-01    0.628E-01
DAV:   3    -0.822967509499E+03    0.27679E-02   -0.61888E-03 12896   0.163E-01    0.483E-01
DAV:   4    -0.822967067519E+03    0.44198E-03   -0.10836E-02 12796   0.204E-01    0.118E-01
DAV:   5    -0.822967189112E+03   -0.12159E-03   -0.23747E-03 11440   0.863E-02    0.642E-02
DAV:   6    -0.822967256324E+03   -0.67212E-04   -0.23745E-04 11408   0.282E-02    0.317E-02
DAV:   7    -0.822967252270E+03    0.40542E-05   -0.54839E-05 12400   0.138E-02    0.166E-02
DAV:   8    -0.822967253181E+03   -0.91059E-06   -0.26766E-05 11712   0.849E-03    0.556E-03
DAV:   9    -0.822967253482E+03   -0.30133E-06   -0.25477E-06  9728   0.288E-03
  77 F= -.83046011E+03 E0= -.83046001E+03  d E =-.189880E-02  mag=    -0.0000
       N       E                     dE             d eps       ncg     rms          rms(c)
DAV:   1    -0.822878945929E+03    0.88307E-01   -0.74377E+01 10640   0.158E+01    0.169E+00
DAV:   2    -0.822988920373E+03   -0.10997E+00   -0.13995E+00 10712   0.210E+00    0.144E+00
DAV:   3    -0.822974896213E+03    0.14024E-01   -0.33895E-02 12832   0.376E-01    0.113E+00
DAV:   4    -0.822967838135E+03    0.70581E-02   -0.57124E-02 12832   0.464E-01    0.305E-01
DAV:   5    -0.822968987682E+03   -0.11495E-02   -0.11726E-02 11664   0.187E-01    0.165E-01
DAV:   6    -0.822968975802E+03    0.11880E-04   -0.22866E-03 11424   0.823E-02    0.724E-02
DAV:   7    -0.822969002629E+03   -0.26827E-04   -0.30502E-04 11964   0.323E-02    0.431E-02
DAV:   8    -0.822969015592E+03   -0.12963E-04   -0.11752E-04 11632   0.204E-02    0.163E-02
DAV:   9    -0.822969018529E+03   -0.29374E-05   -0.20510E-05 12636   0.771E-03    0.873E-03
DAV:  10    -0.822969017924E+03    0.60502E-06   -0.30453E-06  9568   0.354E-03
  78 F= -.83046190E+03 E0= -.83046181E+03  d E =-.369568E-02  mag=    -0.0000
       N       E                     dE             d eps       ncg     rms          rms(c)
DAV:   1    -0.822949799889E+03    0.19219E-01   -0.18631E+01 10640   0.792E+00    0.821E-01
DAV:   2    -0.822974938520E+03   -0.25139E-01   -0.33214E-01 10692   0.104E+00    0.721E-01
DAV:   3    -0.822971290536E+03    0.36480E-02   -0.82057E-03 12912   0.188E-01    0.556E-01
DAV:   4    -0.822970579277E+03    0.71126E-03   -0.14223E-02 12804   0.235E-01    0.138E-01
DAV:   5    -0.822970752396E+03   -0.17312E-03   -0.30669E-03 11472   0.985E-02    0.751E-02
DAV:   6    -0.822970824277E+03   -0.71881E-04   -0.35452E-04 11408   0.340E-02    0.362E-02
DAV:   7    -0.822970821608E+03    0.26689E-05   -0.70613E-05 12176   0.158E-02    0.196E-02
DAV:   8    -0.822970823602E+03   -0.19943E-05   -0.33520E-05 11824   0.988E-03    0.642E-03
DAV:   9    -0.822970824082E+03   -0.48035E-06   -0.35206E-06 10080   0.337E-03
  79 F= -.83046381E+03 E0= -.83046372E+03  d E =-.190703E-02  mag=    -0.0000
       N       E                     dE             d eps       ncg     rms          rms(c)
DAV:   1    -0.822822480655E+03    0.14834E+00   -0.11897E+02 10656   0.200E+01    0.218E+00
DAV:   2    -0.823005417897E+03   -0.18294E+00   -0.23117E+00 10712   0.268E+00    0.183E+00
DAV:   3    -0.822983214036E+03    0.22204E-01   -0.56128E-02 12784   0.480E-01    0.144E+00
DAV:   4    -0.822970705158E+03    0.12509E-01   -0.91315E-02 12876   0.584E-01    0.418E-01
DAV:   5    -0.822972817009E+03   -0.21119E-02   -0.18538E-02 11808   0.234E-01    0.226E-01
DAV:   6    -0.822972506704E+03    0.31030E-03   -0.51167E-03 11408   0.119E-01    0.915E-02
DAV:   7    -0.822972591071E+03   -0.84367E-04   -0.53910E-04 11824   0.410E-02    0.583E-02
DAV:   8    -0.822972619685E+03   -0.28614E-04   -0.20349E-04 11488   0.266E-02    0.229E-02
DAV:   9    -0.822972626390E+03   -0.67043E-05   -0.40890E-05 12688   0.106E-02    0.129E-02
DAV:  10    -0.822972624912E+03    0.14774E-05   -0.77763E-06 11168   0.542E-03    0.603E-03
DAV:  11    -0.822972624745E+03    0.16713E-06   -0.19774E-06  8464   0.270E-03
  80 F= -.83046591E+03 E0= -.83046581E+03  d E =-.400237E-02  mag=    -0.0000
       N       E                     dE             d eps       ncg     rms          rms(c)
DAV:   1    -0.822934596005E+03    0.38029E-01   -0.34877E+01 10640   0.108E+01    0.114E+00
DAV:   2    -0.822983744943E+03   -0.49149E-01   -0.63711E-01 10740   0.143E+00    0.987E-01
DAV:   3    -0.822977088388E+03    0.66566E-02   -0.15556E-02 12944   0.257E-01    0.767E-01
DAV:   4    -0.822974838373E+03    0.22500E-02   -0.27435E-02 12852   0.323E-01    0.197E-01
DAV:   5    -0.822975244856E+03   -0.40648E-03   -0.55166E-03 11504   0.131E-01    0.110E-01
DAV:   6    -0.822975308922E+03   -0.64065E-04   -0.93564E-04 11376   0.532E-02    0.497E-02
DAV:   7    -0.822975315085E+03   -0.61638E-05   -0.13601E-04 12064   0.217E-02    0.293E-02
DAV:   8    -0.822975321786E+03   -0.67004E-05   -0.58230E-05 11472   0.140E-02    0.101E-02
DAV:   9    -0.822975323066E+03   -0.12796E-05   -0.92918E-06 11664   0.514E-03    0.559E-03
DAV:  10    -0.822975322847E+03    0.21819E-06   -0.11329E-06  8496   0.230E-03
  81 F= -.83046883E+03 E0= -.83046874E+03  d E =-.292529E-02  mag=    -0.0000
       N       E                     dE             d eps       ncg     rms          rms(c)
DAV:   1    -0.822624674730E+03    0.35065E+00   -0.23961E+02 10640   0.284E+01    0.328E+00
DAV:   2    -0.823046699861E+03   -0.42203E+00   -0.52061E+00 10712   0.393E+00    0.261E+00
DAV:   3    -0.823002845457E+03    0.43854E-01   -0.12582E-01 12928   0.702E-01    0.208E+00
DAV:   4    -0.822971614081E+03    0.31231E-01   -0.18944E-01 12892   0.824E-01    0.695E-01
DAV:   5    -0.822976930909E+03   -0.53168E-02   -0.41124E-02 11808   0.338E-01    0.376E-01
DAV:   6    -0.822975270091E+03    0.16608E-02   -0.17629E-02 11568   0.211E-01    0.133E-01
DAV:   7    -0.822975544454E+03   -0.27436E-03   -0.14607E-03 11776   0.623E-02    0.908E-02
DAV:   8    -0.822975619315E+03   -0.74862E-04   -0.58744E-04 11408   0.431E-02    0.359E-02
DAV:   9    -0.822975637131E+03   -0.17816E-04   -0.11459E-04 12400   0.177E-02    0.232E-02
DAV:  10    -0.822975631016E+03    0.61150E-05   -0.46105E-05 12400   0.122E-02    0.825E-03
DAV:  11    -0.822975630951E+03    0.65840E-07   -0.83393E-06 11760   0.502E-03
  82 F= -.83046980E+03 E0= -.83046971E+03  d E =-.389340E-02  mag=    -0.0000
       N       E                     dE             d eps       ncg     rms          rms(c)
DAV:   1    -0.822933084676E+03    0.42546E-01   -0.37994E+01 10640   0.113E+01    0.116E+00
DAV:   2    -0.822985992692E+03   -0.52908E-01   -0.68169E-01 10736   0.149E+00    0.103E+00
DAV:   3    -0.822978815723E+03    0.71770E-02   -0.16563E-02 12928   0.266E-01    0.800E-01
DAV:   4    -0.822976211097E+03    0.26046E-02   -0.28619E-02 12696   0.334E-01    0.195E-01
DAV:   5    -0.822976506149E+03   -0.29505E-03   -0.61201E-03 11568   0.140E-01    0.105E-01
DAV:   6    -0.822976695290E+03   -0.18914E-03   -0.66173E-04 11632   0.477E-02    0.513E-02
DAV:   7    -0.822976703323E+03   -0.80334E-05   -0.13050E-04 12000   0.221E-02    0.268E-02
DAV:   8    -0.822976702915E+03    0.40858E-06   -0.66735E-05 12128   0.133E-02    0.922E-03
DAV:   9    -0.822976703768E+03   -0.85314E-06   -0.79899E-06 11424   0.482E-03
  83 F= -.83047060E+03 E0= -.83047051E+03  d E =-.469463E-02  mag=    -0.0000
       N       E                     dE             d eps       ncg     rms          rms(c)
DAV:   1    -0.822942761934E+03    0.33941E-01   -0.30979E+01 10640   0.102E+01    0.107E+00
DAV:   2    -0.822986458375E+03   -0.43696E-01   -0.56760E-01 10744   0.135E+00    0.932E-01
DAV:   3    -0.822980546841E+03    0.59115E-02   -0.13866E-02 12960   0.243E-01    0.723E-01
DAV:   4    -0.822978742111E+03    0.18047E-02   -0.24727E-02 12672   0.309E-01    0.184E-01
DAV:   5    -0.822979021550E+03   -0.27944E-03   -0.50160E-03 11552   0.126E-01    0.104E-01
DAV:   6    -0.822979089885E+03   -0.68335E-04   -0.84279E-04 11376   0.500E-02    0.471E-02
DAV:   7    -0.822979093235E+03   -0.33501E-05   -0.11877E-04 12064   0.203E-02    0.282E-02
DAV:   8    -0.822979100260E+03   -0.70250E-05   -0.51757E-05 11472   0.130E-02    0.959E-03
DAV:   9    -0.822979101370E+03   -0.11097E-05   -0.82723E-06 11152   0.482E-03    0.524E-03
DAV:  10    -0.822979101189E+03    0.18060E-06   -0.10571E-06  8608   0.218E-03
  84 F= -.83047307E+03 E0= -.83047297E+03  d E =-.246468E-02  mag=    -0.0000
       N       E                     dE             d eps       ncg     rms          rms(c)
DAV:   1    -0.822968920467E+03    0.10181E-01   -0.92343E+00 10640   0.559E+00    0.578E-01
DAV:   2    -0.822981290194E+03   -0.12370E-01   -0.16523E-01 10732   0.734E-01    0.509E-01
DAV:   3    -0.822979474600E+03    0.18156E-02   -0.40732E-03 12976   0.133E-01    0.392E-01
DAV:   4    -0.822979307982E+03    0.16662E-03   -0.72584E-03 12552   0.169E-01    0.953E-02
DAV:   5    -0.822979369563E+03   -0.61581E-04   -0.15712E-03 11440   0.715E-02    0.533E-02
DAV:   6    -0.822979416187E+03   -0.46624E-04   -0.18179E-04 11440   0.242E-02    0.258E-02
DAV:   7    -0.822979414406E+03    0.17811E-05   -0.32592E-05 12416   0.108E-02    0.145E-02
DAV:   8    -0.822979416002E+03   -0.15958E-05   -0.16909E-05 11168   0.695E-03    0.460E-03
DAV:   9    -0.822979416271E+03   -0.26939E-06   -0.19853E-06  9856   0.243E-03
  85 F= -.83047342E+03 E0= -.83047332E+03  d E =-.281904E-02  mag=    -0.0000
       N       E                     dE             d eps       ncg     rms          rms(c)
DAV:   1    -0.822962783892E+03    0.16632E-01   -0.15837E+01 10640   0.730E+00    0.759E-01
DAV:   2    -0.822984580013E+03   -0.21796E-01   -0.28747E-01 10772   0.961E-01    0.664E-01
DAV:   3    -0.822981499848E+03    0.30802E-02   -0.69578E-03 12928   0.172E-01    0.514E-01
DAV:   4    -0.822980974097E+03    0.52575E-03   -0.12766E-02 12588   0.220E-01    0.126E-01
DAV:   5    -0.822981100047E+03   -0.12595E-03   -0.26162E-03 11568   0.911E-02    0.716E-02
DAV:   6    -0.822981159145E+03   -0.59098E-04   -0.35946E-04 11392   0.334E-02    0.338E-02
DAV:   7    -0.822981158656E+03    0.48902E-06   -0.60456E-05 12272   0.145E-02    0.196E-02
DAV:   8    -0.822981161837E+03   -0.31813E-05   -0.28484E-05 11520   0.910E-03    0.642E-03
DAV:   9    -0.822981162369E+03   -0.53136E-06   -0.35742E-06 10160   0.323E-03
  86 F= -.83047528E+03 E0= -.83047519E+03  d E =-.186332E-02  mag=    -0.0000
       N       E                     dE             d eps       ncg     rms          rms(c)
DAV:   1    -0.822965933992E+03    0.15228E-01   -0.13296E+01 10640   0.669E+00    0.695E-01
DAV:   2    -0.822984151926E+03   -0.18218E-01   -0.24110E-01 10768   0.881E-01    0.608E-01
DAV:   3    -0.822981563062E+03    0.25889E-02   -0.58455E-03 12928   0.158E-01    0.471E-01
DAV:   4    -0.822981192289E+03    0.37077E-03   -0.10680E-02 12620   0.202E-01    0.115E-01
DAV:   5    -0.822981298249E+03   -0.10596E-03   -0.21993E-03 11504   0.836E-02    0.651E-02
DAV:   6    -0.822981351311E+03   -0.53062E-04   -0.29207E-04 11376   0.302E-02    0.310E-02
DAV:   7    -0.822981350652E+03    0.65902E-06   -0.50665E-05 12320   0.133E-02    0.178E-02
DAV:   8    -0.822981353145E+03   -0.24924E-05   -0.24130E-05 11408   0.833E-03    0.581E-03
DAV:   9    -0.822981353536E+03   -0.39078E-06   -0.29056E-06 10208   0.293E-03
  87 F= -.83047558E+03 E0= -.83047549E+03  d E =-.216403E-02  mag=    -0.0000
       N       E                     dE             d eps       ncg     rms          rms(c)
DAV:   1    -0.822971028130E+03    0.10325E-01   -0.99477E+00 10640   0.581E+00    0.601E-01
DAV:   2    -0.822984459182E+03   -0.13431E-01   -0.17907E-01 10812   0.762E-01    0.527E-01
DAV:   3    -0.822982514737E+03    0.19444E-02   -0.43892E-03 12944   0.137E-01    0.406E-01
DAV:   4    -0.822982330022E+03    0.18471E-03   -0.77156E-03 12456   0.173E-01    0.986E-02
DAV:   5    -0.822982405709E+03   -0.75687E-04   -0.16697E-03 11504   0.730E-02    0.541E-02
DAV:   6    -0.822982449863E+03   -0.44154E-04   -0.19489E-04 11472   0.249E-02    0.263E-02
DAV:   7    -0.822982449154E+03    0.70869E-06   -0.35195E-05 12416   0.111E-02    0.148E-02
DAV:   8    -0.822982450575E+03   -0.14207E-05   -0.17597E-05 11152   0.695E-03    0.467E-03
DAV:   9    -0.822982450823E+03   -0.24866E-06   -0.19302E-06  9856   0.239E-03
  88 F= -.83047684E+03 E0= -.83047675E+03  d E =-.125901E-02  mag=    -0.0000
       N       E                     dE             d eps       ncg     rms          rms(c)
DAV:   1    -0.822954520344E+03    0.27930E-01   -0.24119E+01 10640   0.904E+00    0.946E-01
DAV:   2    -0.822988296540E+03   -0.33776E-01   -0.44270E-01 10836   0.119E+00    0.822E-01
DAV:   3    -0.822983663256E+03    0.46333E-02   -0.10837E-02 12928   0.214E-01    0.635E-01
DAV:   4    -0.822982610184E+03    0.10531E-02   -0.18793E-02 12548   0.269E-01    0.160E-01
DAV:   5    -0.822982853082E+03   -0.24290E-03   -0.39020E-03 11584   0.111E-01    0.884E-02
DAV:   6    -0.822982907150E+03   -0.54068E-04   -0.61421E-04 11360   0.428E-02    0.409E-02
DAV:   7    -0.822982910647E+03   -0.34968E-05   -0.90829E-05 12240   0.176E-02    0.244E-02
DAV:   8    -0.822982914950E+03   -0.43034E-05   -0.40782E-05 11440   0.111E-02    0.815E-03
DAV:   9    -0.822982915782E+03   -0.83204E-06   -0.60856E-06 10416   0.407E-03
  89 F= -.83047757E+03 E0= -.83047747E+03  d E =-.198096E-02  mag=    -0.0000
       N       E                     dE             d eps       ncg     rms          rms(c)
DAV:   1    -0.822981306540E+03    0.16084E-02   -0.25290E+00 10640   0.293E+00    0.302E-01
DAV:   2    -0.822984700781E+03   -0.33942E-02   -0.45840E-02 10812   0.385E-01    0.266E-01
DAV:   3    -0.822984195426E+03    0.50535E-03   -0.11270E-03 13216   0.701E-02    0.206E-01
DAV:   4    -0.822984189477E+03    0.59493E-05   -0.20106E-03 11996   0.897E-02    0.496E-02
DAV:   5    -0.822984209180E+03   -0.19704E-04   -0.47065E-04 11600   0.389E-02    0.278E-02
DAV:   6    -0.822984223577E+03   -0.14396E-04   -0.43052E-05 11456   0.121E-02    0.148E-02
DAV:   7    -0.822984223248E+03    0.32917E-06   -0.90696E-06 12016   0.580E-03
  90 F= -.83047893E+03 E0= -.83047884E+03  d E =-.136669E-02  mag=    -0.0000
       N       E                     dE             d eps       ncg     rms          rms(c)
DAV:   1    -0.822982044388E+03    0.21792E-02   -0.22039E+00 10640   0.274E+00    0.282E-01
DAV:   2    -0.822985021519E+03   -0.29771E-02   -0.40121E-02 10808   0.360E-01    0.248E-01
DAV:   3    -0.822984585328E+03    0.43619E-03   -0.98108E-04 13232   0.653E-02    0.192E-01
DAV:   4    -0.822984587611E+03   -0.22822E-05   -0.17483E-03 11996   0.837E-02    0.461E-02
DAV:   5    -0.822984603449E+03   -0.15838E-04   -0.40916E-04 11600   0.363E-02    0.259E-02
DAV:   6    -0.822984615963E+03   -0.12514E-04   -0.37394E-05 11440   0.113E-02    0.138E-02
DAV:   7    -0.822984615682E+03    0.28073E-06   -0.77785E-06 11584   0.538E-03
  91 F= -.83047938E+03 E0= -.83047928E+03  d E =-.181171E-02  mag=    -0.0000
       N       E                     dE             d eps       ncg     rms          rms(c)
DAV:   1    -0.822983928805E+03    0.68716E-03   -0.14904E+00 10640   0.225E+00    0.231E-01
DAV:   2    -0.822985919573E+03   -0.19908E-02   -0.26939E-02 10828   0.294E-01    0.204E-01
DAV:   3    -0.822985624588E+03    0.29498E-03   -0.65652E-04 13408   0.532E-02    0.158E-01
DAV:   4    -0.822985629937E+03   -0.53495E-05   -0.11653E-03 11916   0.681E-02    0.375E-02
DAV:   5    -0.822985640466E+03   -0.10528E-04   -0.27444E-04 11568   0.293E-02    0.210E-02
DAV:   6    -0.822985648476E+03   -0.80103E-05   -0.25814E-05 11440   0.927E-03    0.109E-02
DAV:   7    -0.822985648386E+03    0.89545E-07   -0.46847E-06 10256   0.416E-03
  92 F= -.83048046E+03 E0= -.83048036E+03  d E =-.108045E-02  mag=    -0.0000
       N       E                     dE             d eps       ncg     rms          rms(c)
DAV:   1    -0.822984728807E+03    0.91967E-03   -0.10885E+00 10640   0.193E+00    0.197E-01
DAV:   2    -0.822986175305E+03   -0.14465E-02   -0.19640E-02 10808   0.251E-01    0.174E-01
DAV:   3    -0.822985957702E+03    0.21760E-03   -0.47977E-04 13440   0.455E-02    0.135E-01
DAV:   4    -0.822985965370E+03   -0.76680E-05   -0.84884E-04 11920   0.582E-02    0.320E-02
DAV:   5    -0.822985973078E+03   -0.77080E-05   -0.20105E-04 11552   0.251E-02    0.179E-02
DAV:   6    -0.822985979076E+03   -0.59980E-05   -0.18472E-05 11440   0.785E-03    0.934E-03
DAV:   7    -0.822985978981E+03    0.95504E-07   -0.33791E-06  9616   0.356E-03
  93 F= -.83048083E+03 E0= -.83048073E+03  d E =-.145065E-02  mag=    -0.0000
       N       E                     dE             d eps       ncg     rms          rms(c)
DAV:   1    -0.822985759984E+03    0.21909E-03   -0.10103E+00 10640   0.187E+00    0.191E-01
DAV:   2    -0.822987079332E+03   -0.13193E-02   -0.18142E-02 10828   0.242E-01    0.168E-01
DAV:   3    -0.822986871920E+03    0.20741E-03   -0.45633E-04 13488   0.445E-02    0.130E-01
DAV:   4    -0.822986874734E+03   -0.28145E-05   -0.77410E-04 11880   0.565E-02    0.316E-02
DAV:   5    -0.822986883667E+03   -0.89331E-05   -0.19150E-04 11488   0.244E-02    0.175E-02
DAV:   6    -0.822986889116E+03   -0.54489E-05   -0.17445E-05 11376   0.780E-03    0.922E-03
DAV:   7    -0.822986888987E+03    0.12891E-06   -0.32118E-06  9424   0.351E-03
  94 F= -.83048180E+03 E0= -.83048171E+03  d E =-.976290E-03  mag=    -0.0000
       N       E                     dE             d eps       ncg     rms          rms(c)
DAV:   1    -0.822986332011E+03    0.55711E-03   -0.74585E-01 10640   0.160E+00    0.164E-01
DAV:   2    -0.822987301902E+03   -0.96989E-03   -0.13379E-02 10824   0.208E-01    0.145E-01
DAV:   3    -0.822987147476E+03    0.15443E-03   -0.33691E-04 13536   0.383E-02    0.111E-01
DAV:   4    -0.822987153917E+03   -0.64415E-05   -0.57085E-04 11884   0.485E-02    0.272E-02
DAV:   5    -0.822987160569E+03   -0.66520E-05   -0.14173E-04 11488   0.210E-02    0.151E-02
DAV:   6    -0.822987164677E+03   -0.41082E-05   -0.12723E-05 11152   0.667E-03    0.794E-03
DAV:   7    -0.822987164562E+03    0.11580E-06   -0.23412E-06  8864   0.302E-03
  95 F= -.83048214E+03 E0= -.83048204E+03  d E =-.130741E-02  mag=    -0.0000
       N       E                     dE             d eps       ncg     rms          rms(c)
DAV:   1    -0.822987064795E+03    0.99883E-04   -0.88776E-01 10640   0.175E+00    0.178E-01
DAV:   2    -0.822988206987E+03   -0.11422E-02   -0.15819E-02 10844   0.225E-01    0.157E-01
DAV:   3    -0.822988026576E+03    0.18041E-03   -0.39375E-04 13344   0.412E-02    0.120E-01
DAV:   4    -0.822988033910E+03   -0.73332E-05   -0.65687E-04 11916   0.518E-02    0.289E-02
DAV:   5    -0.822988043358E+03   -0.94487E-05   -0.15934E-04 11520   0.221E-02    0.157E-02
DAV:   6    -0.822988048024E+03   -0.46656E-05   -0.13971E-05 11248   0.697E-03    0.817E-03
DAV:   7    -0.822988048107E+03   -0.83608E-07   -0.30114E-06  9232   0.340E-03
  96 F= -.83048309E+03 E0= -.83048300E+03  d E =-.958621E-03  mag=    -0.0000
       N       E                     dE             d eps       ncg     rms          rms(c)
DAV:   1    -0.822985968393E+03    0.20796E-02   -0.25114E+00 10640   0.294E+00    0.300E-01
DAV:   2    -0.822989252464E+03   -0.32841E-02   -0.44909E-02 10880   0.379E-01    0.264E-01
DAV:   3    -0.822988749399E+03    0.50307E-03   -0.11194E-03 13360   0.694E-02    0.202E-01
DAV:   4    -0.822988716791E+03    0.32608E-04   -0.18620E-03 11960   0.871E-02    0.488E-02
DAV:   5    -0.822988743644E+03   -0.26853E-04   -0.44964E-04 11536   0.370E-02    0.266E-02
DAV:   6    -0.822988756181E+03   -0.12538E-04   -0.41639E-05 11328   0.120E-02    0.137E-02
DAV:   7    -0.822988756576E+03   -0.39500E-06   -0.89728E-06 12240   0.572E-03
  97 F= -.83048393E+03 E0= -.83048383E+03  d E =-.179156E-02  mag=    -0.0000
       N       E                     dE             d eps       ncg     rms          rms(c)
DAV:   1    -0.822988265320E+03    0.49086E-03   -0.15149E+00 10640   0.231E+00    0.233E-01
DAV:   2    -0.822990241749E+03   -0.19764E-02   -0.27320E-02 10876   0.300E-01    0.205E-01
DAV:   3    -0.822989935555E+03    0.30619E-03   -0.70346E-04 13440   0.553E-02    0.157E-01
DAV:   4    -0.822989930113E+03    0.54418E-05   -0.10874E-03 11920   0.682E-02    0.393E-02
DAV:   5    -0.822989949633E+03   -0.19520E-04   -0.27506E-04 11424   0.291E-02    0.210E-02
DAV:   6    -0.822989957785E+03   -0.81518E-05   -0.25747E-05 11328   0.970E-03    0.109E-02
DAV:   7    -0.822989958143E+03   -0.35756E-06   -0.52781E-06 10992   0.463E-03
  98 F= -.83048519E+03 E0= -.83048509E+03  d E =-.126510E-02  mag=    -0.0000
       N       E                     dE             d eps       ncg     rms          rms(c)
DAV:   1    -0.822988708616E+03    0.12492E-02   -0.14272E+00 10640   0.224E+00    0.227E-01
DAV:   2    -0.822990576864E+03   -0.18682E-02   -0.25804E-02 10880   0.291E-01    0.199E-01
DAV:   3    -0.822990287660E+03    0.28920E-03   -0.66383E-04 13440   0.536E-02    0.153E-01
DAV:   4    -0.822990281525E+03    0.61353E-05   -0.10238E-03 11968   0.662E-02    0.381E-02
DAV:   5    -0.822990300838E+03   -0.19313E-04   -0.25930E-04 11408   0.283E-02    0.204E-02
DAV:   6    -0.822990308444E+03   -0.76062E-05   -0.24227E-05 11280   0.939E-03    0.105E-02
DAV:   7    -0.822990308726E+03   -0.28199E-06   -0.49640E-06 10944   0.449E-03
  99 F= -.83048560E+03 E0= -.83048550E+03  d E =-.167509E-02  mag=    -0.0000
       N       E                     dE             d eps       ncg     rms          rms(c)
DAV:   1    -0.822989683030E+03    0.62541E-03   -0.12163E+00 10640   0.206E+00    0.208E-01
DAV:   2    -0.822991271691E+03   -0.15887E-02   -0.21954E-02 10860   0.267E-01    0.182E-01
DAV:   3    -0.822991028646E+03    0.24305E-03   -0.55030E-04 13312   0.486E-02    0.139E-01
DAV:   4    -0.822991033919E+03   -0.52726E-05   -0.88633E-04 12032   0.605E-02    0.340E-02
DAV:   5    -0.822991049588E+03   -0.15669E-04   -0.21124E-04 11440   0.255E-02    0.183E-02
DAV:   6    -0.822991055914E+03   -0.63261E-05   -0.19851E-05 11328   0.839E-03    0.922E-03
DAV:   7    -0.822991056169E+03   -0.25501E-06   -0.40365E-06  9664   0.402E-03
 100 F= -.83048644E+03 E0= -.83048634E+03  d E =-.836714E-03  mag=    -0.0000
       N       E                     dE             d eps       ncg     rms          rms(c)
DAV:   1    -0.822988346418E+03    0.27095E-02   -0.28478E+00 10672   0.316E+00    0.318E-01
DAV:   2    -0.822992096405E+03   -0.37500E-02   -0.51161E-02 10876   0.408E-01    0.279E-01
DAV:   3    -0.822991526392E+03    0.57001E-03   -0.12873E-03 13312   0.745E-02    0.213E-01
DAV:   4    -0.822991472388E+03    0.54004E-04   -0.20606E-03 12100   0.922E-02    0.523E-02
DAV:   5    -0.822991509893E+03   -0.37505E-04   -0.49220E-04 11488   0.388E-02    0.281E-02
DAV:   6    -0.822991523431E+03   -0.13538E-04   -0.48685E-05 11408   0.131E-02    0.141E-02
DAV:   7    -0.822991524139E+03   -0.70778E-06   -0.99485E-06 12096   0.617E-03
 101 F= -.83048704E+03 E0= -.83048695E+03  d E =-.143989E-02  mag=    -0.0000
       N       E                     dE             d eps       ncg     rms          rms(c)
DAV:   1    -0.822991471181E+03    0.52250E-04   -0.84896E-01 10640   0.174E+00    0.174E-01
DAV:   2    -0.822992595961E+03   -0.11248E-02   -0.15607E-02 10796   0.228E-01    0.153E-01
DAV:   3    -0.822992420005E+03    0.17596E-03   -0.40731E-04 13472   0.427E-02    0.117E-01
DAV:   4    -0.822992425449E+03   -0.54444E-05   -0.62841E-04 11936   0.525E-02    0.307E-02
DAV:   5    -0.822992438177E+03   -0.12728E-04   -0.15876E-04 11424   0.227E-02    0.170E-02
DAV:   6    -0.822992442937E+03   -0.47605E-05   -0.16649E-05 11312   0.794E-03    0.886E-03
DAV:   7    -0.822992443126E+03   -0.18844E-06   -0.29321E-06  9232   0.359E-03
 102 F= -.83048807E+03 E0= -.83048797E+03  d E =-.102616E-02  mag=    -0.0000
       N       E                     dE             d eps       ncg     rms          rms(c)
DAV:   1    -0.822991942226E+03    0.50071E-03   -0.61811E-01 10640   0.149E+00    0.149E-01
DAV:   2    -0.822992753513E+03   -0.81129E-03   -0.11321E-02 10784   0.194E-01    0.130E-01
DAV:   3    -0.822992624918E+03    0.12859E-03   -0.29598E-04 13536   0.364E-02    0.997E-02
DAV:   4    -0.822992631771E+03   -0.68533E-05   -0.45697E-04 11932   0.448E-02    0.262E-02
DAV:   5    -0.822992640271E+03   -0.84994E-05   -0.11583E-04 11472   0.193E-02    0.145E-02
DAV:   6    -0.822992643678E+03   -0.34070E-05   -0.12045E-05 11264   0.675E-03    0.756E-03
DAV:   7    -0.822992643792E+03   -0.11452E-06   -0.20823E-06  8720   0.305E-03
 103 F= -.83048836E+03 E0= -.83048826E+03  d E =-.131608E-02  mag=    -0.0000
       N       E                     dE             d eps       ncg     rms          rms(c)
DAV:   1    -0.822992436334E+03    0.20734E-03   -0.76867E-01 10656   0.166E+00    0.164E-01
DAV:   2    -0.822993462807E+03   -0.10265E-02   -0.14169E-02 10744   0.218E-01    0.143E-01
DAV:   3    -0.822993310479E+03    0.15233E-03   -0.35591E-04 13464   0.400E-02    0.110E-01
DAV:   4    -0.822993315920E+03   -0.54409E-05   -0.55909E-04 11936   0.495E-02    0.279E-02
DAV:   5    -0.822993325941E+03   -0.10021E-04   -0.13973E-04 11504   0.211E-02    0.156E-02
DAV:   6    -0.822993329675E+03   -0.37343E-05   -0.13296E-05 11344   0.702E-03    0.839E-03
DAV:   7    -0.822993330032E+03   -0.35733E-06   -0.24945E-06  8848   0.337E-03
 104 F= -.83048911E+03 E0= -.83048901E+03  d E =-.752312E-03  mag=    -0.0000
       N       E                     dE             d eps       ncg     rms          rms(c)
DAV:   1    -0.822993002574E+03    0.32710E-03   -0.40789E-01 10656   0.121E+00    0.120E-01
DAV:   2    -0.822993543672E+03   -0.54110E-03   -0.75224E-03 10684   0.159E-01    0.104E-01
DAV:   3    -0.822993463723E+03    0.79948E-04   -0.18904E-04 13552   0.292E-02    0.799E-02
DAV:   4    -0.822993470662E+03   -0.69388E-05   -0.29608E-04 11968   0.360E-02    0.203E-02
DAV:   5    -0.822993475855E+03   -0.51926E-05   -0.74142E-05 11520   0.154E-02    0.114E-02
DAV:   6    -0.822993477822E+03   -0.19675E-05   -0.69276E-06 10448   0.508E-03    0.611E-03
DAV:   7    -0.822993478017E+03   -0.19496E-06   -0.13444E-06  7984   0.251E-03
 105 F= -.83048931E+03 E0= -.83048921E+03  d E =-.947849E-03  mag=    -0.0000
       N       E                     dE             d eps       ncg     rms          rms(c)
DAV:   1    -0.822993352536E+03    0.12529E-03   -0.84908E-01 10656   0.176E+00    0.172E-01
DAV:   2    -0.822994500908E+03   -0.11484E-02   -0.15778E-02 10748   0.232E-01    0.149E-01
DAV:   3    -0.822994337164E+03    0.16374E-03   -0.38720E-04 13184   0.422E-02    0.113E-01
DAV:   4    -0.822994346856E+03   -0.96916E-05   -0.59535E-04 12012   0.515E-02    0.295E-02
DAV:   5    -0.822994358434E+03   -0.11578E-04   -0.15047E-04 11504   0.224E-02    0.163E-02
DAV:   6    -0.822994362042E+03   -0.36086E-05   -0.15417E-05 11328   0.755E-03    0.867E-03
DAV:   7    -0.822994362648E+03   -0.60602E-06   -0.30094E-06  9440   0.363E-03
 106 F= -.83049026E+03 E0= -.83049016E+03  d E =-.952833E-03  mag=    -0.0000
       N       E                     dE             d eps       ncg     rms          rms(c)
DAV:   1    -0.822992314599E+03    0.20474E-02   -0.20993E+00 10656   0.276E+00    0.271E-01
DAV:   2    -0.822995204514E+03   -0.28899E-02   -0.39160E-02 10772   0.365E-01    0.234E-01
DAV:   3    -0.822994807053E+03    0.39746E-03   -0.96085E-04 13168   0.663E-02    0.178E-01
DAV:   4    -0.822994787885E+03    0.19168E-04   -0.14718E-03 12080   0.809E-02    0.465E-02
DAV:   5    -0.822994817016E+03   -0.29131E-04   -0.37033E-04 11488   0.350E-02    0.258E-02
DAV:   6    -0.822994826278E+03   -0.92617E-05   -0.39184E-05 11424   0.120E-02    0.136E-02
DAV:   7    -0.822994827832E+03   -0.15536E-05   -0.77946E-06 11984   0.573E-03    0.721E-03
DAV:   8    -0.822994828115E+03   -0.28337E-06   -0.28993E-06  8464   0.343E-03
 107 F= -.83049083E+03 E0= -.83049073E+03  d E =-.152197E-02  mag=    -0.0000
       N       E                     dE             d eps       ncg     rms          rms(c)
DAV:   1    -0.822994770154E+03    0.57678E-04   -0.57635E-01 10656   0.145E+00    0.141E-01
DAV:   2    -0.822995555793E+03   -0.78564E-03   -0.10806E-02 10668   0.192E-01    0.121E-01
DAV:   3    -0.822995446732E+03    0.10906E-03   -0.26170E-04 12976   0.343E-02    0.924E-02
DAV:   4    -0.822995458432E+03   -0.11700E-04   -0.38976E-04 12116   0.415E-02    0.240E-02
DAV:   5    -0.822995467320E+03   -0.88879E-05   -0.95847E-05 11448   0.177E-02    0.129E-02
DAV:   6    -0.822995469675E+03   -0.23557E-05   -0.10364E-05 10720   0.610E-03    0.649E-03
DAV:   7    -0.822995470110E+03   -0.43496E-06   -0.19608E-06  8480   0.292E-03
 108 F= -.83049157E+03 E0= -.83049147E+03  d E =-.738688E-03  mag=    -0.0000
