<?xml version="1.0" encoding="ISO-8859-1"?>
<modeling>
 <generator>
  <i name="program" type="string">vasp </i>
  <i name="version" type="string">6.4.2  </i>
  <i name="subversion" type="string">20Jul23 (build Jan 24 2024 13:44:02) complex                          parallel </i>
  <i name="platform" type="string">LinuxNV </i>
  <i name="date" type="string">2025 11 25 </i>
  <i name="time" type="string">12:25:44 </i>
 </generator>
 <incar>
  <i type="int" name="ISTART">     0</i>
  <i type="string" name="ALGO">Normal</i>
  <i type="logical" name="ADDGRID"> T  </i>
  <i type="int" name="ISPIN">     2</i>
  <i type="int" name="IMIX">     4</i>
  <i name="AMIX">      0.20000000</i>
  <i name="BMIX">      0.00010000</i>
  <i name="AMIX_MAG">      0.80000000</i>
  <i name="BMIX_MAG">      0.00010000</i>
  <i type="int" name="ICHARG">     2</i>
  <i type="int" name="NELM">   200</i>
  <i type="int" name="IBRION">     2</i>
  <i name="EDIFF">      0.00000100</i>
  <i name="EDIFFG">     -0.01000000</i>
  <i type="int" name="NSW">   300</i>
  <i type="int" name="ISIF">     2</i>
  <i type="int" name="ISYM">     0</i>
  <i name="ENCUT">    520.00000000</i>
  <i name="POTIM">      0.10000000</i>
  <v name="MAGMOM">      0.60000000      0.60000000      0.60000000      0.60000000      0.60000000      0.60000000      0.60000000      0.60000000      0.60000000      0.60000000      0.60000000      0.60000000      0.60000000      0.60000000      0.60000000      0.60000000      0.60000000      0.60000000      0.60000000      0.60000000
      0.60000000      0.60000000      0.60000000      0.60000000      0.60000000      0.60000000      0.60000000      0.60000000      0.60000000      0.60000000      0.60000000      0.60000000      0.60000000      0.60000000      0.60000000      0.60000000      0.60000000      0.60000000      0.60000000      0.60000000
      0.60000000      0.60000000      0.60000000      0.60000000      0.60000000      0.60000000      0.60000000      0.60000000      0.60000000      0.60000000      0.60000000      0.60000000      0.60000000      0.60000000      0.60000000      0.60000000      0.60000000      0.60000000      0.60000000      0.60000000
      0.60000000      0.60000000      0.60000000      0.60000000      0.60000000      0.60000000      0.60000000      0.60000000      0.60000000      0.60000000      0.60000000      0.60000000      0.60000000      0.60000000      0.60000000      0.60000000      0.60000000      0.60000000      0.60000000      0.60000000
      0.60000000      0.60000000      0.60000000      0.60000000      0.60000000      0.60000000      0.60000000      0.60000000      0.60000000      0.60000000      0.60000000      0.60000000      0.60000000</v>
  <i type="logical" name="LREAL"> F  </i>
  <i type="int" name="ISMEAR">     0</i>
  <i name="SIGMA">      0.05000000</i>
  <i type="logical" name="LWAVE"> F  </i>
  <i type="logical" name="LCHARG"> F  </i>
  <i type="logical" name="LASPH"> T  </i>
  <i type="int" name="IVDW">    12</i>
 </incar>
 <primitive_cell>
  <structure name="primitive_cell" >
   <crystal>
    <varray name="basis" >
     <v>      17.27103806       0.00000000       0.00000000 </v>
     <v>      -8.63551903      14.95715771       0.00000000 </v>
     <v>       0.00000000       0.00000000      15.00000000 </v>
    </varray>
    <i name="volume">   3874.88459904 </i>
    <varray name="rec_basis" >
     <v>       0.05790040       0.03342881      -0.00000000 </v>
     <v>       0.00000000       0.06685762       0.00000000 </v>
     <v>       0.00000000      -0.00000000       0.06666667 </v>
    </varray>
   </crystal>
   <varray name="positions" >
    <v>       0.99997561       0.99993404       0.50539306 </v>
    <v>       0.00023448       0.14297584       0.50507823 </v>
    <v>       0.00017374       0.28588198       0.50388964 </v>
    <v>       0.99982297       0.42883234       0.50289714 </v>
    <v>       0.00016912       0.57159961       0.50266372 </v>
    <v>       0.00109267       0.71461161       0.50281484 </v>
    <v>       0.00027877       0.85749712       0.50426253 </v>
    <v>       0.14380035       0.00104615       0.50575619 </v>
    <v>       0.14425546       0.14435247       0.50711563 </v>
    <v>       0.14379040       0.28642077       0.50739976 </v>
    <v>       0.14278598       0.42920615       0.50542954 </v>
    <v>       0.14384656       0.57172075       0.50392243 </v>
    <v>       0.14409888       0.71448452       0.50300912 </v>
    <v>       0.14367088       0.85772903       0.50371560 </v>
    <v>       0.28657750       0.00053423       0.50562287 </v>
    <v>       0.28732711       0.14412123       0.50930333 </v>
    <v>       0.28954209       0.28953523       0.51524010 </v>
    <v>       0.28520551       0.43278129       0.51508430 </v>
    <v>       0.28856876       0.56945387       0.50892344 </v>
    <v>       0.28747952       0.71425266       0.50485482 </v>
    <v>       0.28658758       0.85749833       0.50411967 </v>
    <v>       0.42942216       0.00040906       0.50546591 </v>
    <v>       0.42965413       0.14434488       0.50748186 </v>
    <v>       0.42945919       0.85641676       0.50519168 </v>
    <v>       0.57158778       0.99990109       0.50531472 </v>
    <v>       0.57169638       0.14356035       0.50544516 </v>
    <v>       0.57385816       0.29052861       0.50668854 </v>
    <v>       0.57363472       0.85540685       0.50640865 </v>
    <v>       0.71392870       0.99956589       0.50546508 </v>
    <v>       0.71435879       0.14308811       0.50435705 </v>
    <v>       0.71391445       0.28633608       0.50420820 </v>
    <v>       0.70941016       0.42630659       0.50556999 </v>
    <v>       0.70941208       0.85556550       0.50867089 </v>
    <v>       0.85663360       0.99941058       0.50570348 </v>
    <v>       0.85698938       0.14269590       0.50429008 </v>
    <v>       0.85692184       0.28579919       0.50326354 </v>
    <v>       0.85647308       0.42877291       0.50328853 </v>
    <v>       0.85659993       0.57139158       0.50416534 </v>
    <v>       0.85831935       0.71412109       0.50578084 </v>
    <v>       0.85539968       0.85560963       0.50640858 </v>
    <v>       0.04835898       0.09578753       0.50566729 </v>
    <v>       0.04804882       0.23828322       0.50511049 </v>
    <v>       0.04724188       0.38117711       0.50362009 </v>
    <v>       0.04820879       0.52420271       0.50290862 </v>
    <v>       0.04852712       0.66698728       0.50259774 </v>
    <v>       0.04817234       0.80992718       0.50339013 </v>
    <v>       0.04812751       0.95277015       0.50500639 </v>
    <v>       0.19173086       0.09637355       0.50759722 </v>
    <v>       0.19284665       0.24009054       0.50913402 </v>
    <v>       0.18997941       0.38162314       0.50835038 </v>
    <v>       0.19177535       0.52439391       0.50578922 </v>
    <v>       0.19186304       0.66701812       0.50383623 </v>
    <v>       0.19144465       0.81004159       0.50344872 </v>
    <v>       0.19143179       0.95312727       0.50501368 </v>
    <v>       0.33447195       0.09625067       0.50746460 </v>
    <v>       0.33883789       0.24014907       0.51289828 </v>
    <v>       0.33889683       0.66940865       0.50680908 </v>
    <v>       0.33437090       0.80941311       0.50453151 </v>
    <v>       0.33402094       0.95272506       0.50495048 </v>
    <v>       0.47681724       0.09589543       0.50611874 </v>
    <v>       0.47464009       0.24038631       0.50870884 </v>
    <v>       0.47442830       0.80524435       0.50598338 </v>
    <v>       0.47668670       0.95221416       0.50525112 </v>
    <v>       0.61895822       0.09538796       0.50495482 </v>
    <v>       0.61884612       0.23935375       0.50530029 </v>
    <v>       0.61874904       0.95146588       0.50562240 </v>
    <v>       0.76184355       0.09531838       0.50458847 </v>
    <v>       0.76175546       0.23831576       0.50379411 </v>
    <v>       0.76081575       0.38147764       0.50415301 </v>
    <v>       0.75975447       0.52625114       0.50640414 </v>
    <v>       0.76300142       0.66284480       0.51012443 </v>
    <v>       0.75855481       0.80602461       0.51018610 </v>
    <v>       0.76100930       0.95164964       0.50650369 </v>
    <v>       0.90459457       0.09474289       0.50488904 </v>
    <v>       0.90470105       0.23811658       0.50359651 </v>
    <v>       0.90424846       0.38132498       0.50292063 </v>
    <v>       0.90452340       0.52407467       0.50308388 </v>
    <v>       0.90554545       0.66657442       0.50392177 </v>
    <v>       0.90449740       0.80932868       0.50534144 </v>
    <v>       0.90406322       0.95139771       0.50551984 </v>
    <v>       0.71657454       0.71217373       0.51568838 </v>
    <v>       0.33120165       0.38316436       0.52335970 </v>
    <v>       0.62848118       0.66365981       0.52853797 </v>
    <v>       0.41832839       0.43078385       0.54184697 </v>
    <v>       0.42882100       0.28458320       0.51188707 </v>
    <v>       0.42882980       0.71480626       0.50695345 </v>
    <v>       0.71601010       0.57183817       0.51008531 </v>
    <v>       0.33221717       0.52382227       0.51475908 </v>
    <v>       0.61948675       0.38094410       0.50665116 </v>
    <v>       0.61943664       0.81118219       0.50819806 </v>
    <v>       0.48840819       0.56719832       0.43682757 </v>
    <v>       0.54162120       0.51794139       0.43365220 </v>
    <v>       0.51150304       0.54019120       0.39533618 </v>
   </varray>
  </structure>
  <varray name="primitive_index" >
   <v type="int" >        1 </v>
   <v type="int" >        2 </v>
   <v type="int" >        3 </v>
   <v type="int" >        4 </v>
   <v type="int" >        5 </v>
   <v type="int" >        6 </v>
   <v type="int" >        7 </v>
   <v type="int" >        8 </v>
   <v type="int" >        9 </v>
   <v type="int" >       10 </v>
   <v type="int" >       11 </v>
   <v type="int" >       12 </v>
   <v type="int" >       13 </v>
   <v type="int" >       14 </v>
   <v type="int" >       15 </v>
   <v type="int" >       16 </v>
   <v type="int" >       17 </v>
   <v type="int" >       18 </v>
   <v type="int" >       19 </v>
   <v type="int" >       20 </v>
   <v type="int" >       21 </v>
   <v type="int" >       22 </v>
   <v type="int" >       23 </v>
   <v type="int" >       24 </v>
   <v type="int" >       25 </v>
   <v type="int" >       26 </v>
   <v type="int" >       27 </v>
   <v type="int" >       28 </v>
   <v type="int" >       29 </v>
   <v type="int" >       30 </v>
   <v type="int" >       31 </v>
   <v type="int" >       32 </v>
   <v type="int" >       33 </v>
   <v type="int" >       34 </v>
   <v type="int" >       35 </v>
   <v type="int" >       36 </v>
   <v type="int" >       37 </v>
   <v type="int" >       38 </v>
   <v type="int" >       39 </v>
   <v type="int" >       40 </v>
   <v type="int" >       41 </v>
   <v type="int" >       42 </v>
   <v type="int" >       43 </v>
   <v type="int" >       44 </v>
   <v type="int" >       45 </v>
   <v type="int" >       46 </v>
   <v type="int" >       47 </v>
   <v type="int" >       48 </v>
   <v type="int" >       49 </v>
   <v type="int" >       50 </v>
   <v type="int" >       51 </v>
   <v type="int" >       52 </v>
   <v type="int" >       53 </v>
   <v type="int" >       54 </v>
   <v type="int" >       55 </v>
   <v type="int" >       56 </v>
   <v type="int" >       57 </v>
   <v type="int" >       58 </v>
   <v type="int" >       59 </v>
   <v type="int" >       60 </v>
   <v type="int" >       61 </v>
   <v type="int" >       62 </v>
   <v type="int" >       63 </v>
   <v type="int" >       64 </v>
   <v type="int" >       65 </v>
   <v type="int" >       66 </v>
   <v type="int" >       67 </v>
   <v type="int" >       68 </v>
   <v type="int" >       69 </v>
   <v type="int" >       70 </v>
   <v type="int" >       71 </v>
   <v type="int" >       72 </v>
   <v type="int" >       73 </v>
   <v type="int" >       74 </v>
   <v type="int" >       75 </v>
   <v type="int" >       76 </v>
   <v type="int" >       77 </v>
   <v type="int" >       78 </v>
   <v type="int" >       79 </v>
   <v type="int" >       80 </v>
   <v type="int" >       81 </v>
   <v type="int" >       82 </v>
   <v type="int" >       83 </v>
   <v type="int" >       84 </v>
   <v type="int" >       85 </v>
   <v type="int" >       86 </v>
   <v type="int" >       87 </v>
   <v type="int" >       88 </v>
   <v type="int" >       89 </v>
   <v type="int" >       90 </v>
   <v type="int" >       91 </v>
   <v type="int" >       92 </v>
   <v type="int" >       93 </v>
  </varray>
 </primitive_cell>
 <kpoints>
  <generation param="Gamma">
   <v type="int" name="divisions">       4        4        1 </v>
   <v name="usershift">      0.00000000       0.00000000       0.00000000 </v>
   <v name="genvec1">      0.25000000       0.00000000       0.00000000 </v>
   <v name="genvec2">      0.00000000       0.25000000       0.00000000 </v>
   <v name="genvec3">      0.00000000       0.00000000       1.00000000 </v>
   <v name="shift">      0.00000000       0.00000000       0.00000000 </v>
  </generation>
  <varray name="kpointlist" >
   <v>       0.00000000       0.00000000       0.00000000 </v>
   <v>       0.25000000       0.00000000       0.00000000 </v>
   <v>       0.00000000       0.25000000       0.00000000 </v>
   <v>      -0.25000000       0.25000000       0.00000000 </v>
   <v>       0.50000000       0.00000000       0.00000000 </v>
   <v>       0.00000000       0.50000000       0.00000000 </v>
   <v>       0.50000000       0.50000000       0.00000000 </v>
   <v>       0.25000000       0.25000000       0.00000000 </v>
   <v>      -0.25000000       0.50000000       0.00000000 </v>
   <v>       0.50000000       0.25000000       0.00000000 </v>
  </varray>
  <varray name="weights" >
   <v>       0.06250000 </v>
   <v>       0.12500000 </v>
   <v>       0.12500000 </v>
   <v>       0.12500000 </v>
   <v>       0.06250000 </v>
   <v>       0.06250000 </v>
   <v>       0.06250000 </v>
   <v>       0.12500000 </v>
   <v>       0.12500000 </v>
   <v>       0.12500000 </v>
  </varray>
 </kpoints>
 <parameters>
  <separator name="general" >
   <i type="string" name="SYSTEM">unknown system</i>
   <i type="logical" name="LCOMPAT"> F  </i>
  </separator>
  <separator name="electronic" >
   <i type="string" name="PREC">normal</i>
   <i name="ENMAX">    520.00000000</i>
   <i name="ENAUG">    644.87300000</i>
   <i name="EDIFF">      0.00000100</i>
   <i type="int" name="IALGO">    38</i>
   <i type="int" name="IWAVPR">    11</i>
   <i type="int" name="NBANDS">   266</i>
   <i type="int" name="NBANDSLOW">    -1</i>
   <i type="int" name="NBANDSHIGH">    -1</i>
   <i name="NELECT">    380.00000000</i>
   <i type="int" name="TURBO">     0</i>
   <i type="int" name="IRESTART">     0</i>
   <i type="int" name="NREBOOT">     0</i>
   <i type="int" name="NMIN">     0</i>
   <i name="EREF">      0.00000000</i>
   <separator name="electronic smearing" >
    <i type="int" name="ISMEAR">     0</i>
    <i name="SIGMA">      0.05000000</i>
    <i name="KSPACING">      0.50000000</i>
    <i type="logical" name="KGAMMA"> T  </i>
    <i type="logical" name="KBLOWUP"> T  </i>
   </separator>
   <separator name="electronic projectors" >
    <i type="logical" name="LREAL"> F  </i>
    <v name="ROPT">      0.00000000      0.00000000      0.00000000      0.00000000      0.00000000</v>
    <i type="int" name="LMAXPAW">  -100</i>
    <i type="int" name="LMAXMIX">     2</i>
    <i type="logical" name="NLSPLINE"> F  </i>
   </separator>
   <separator name="electronic startup" >
    <i type="int" name="ISTART">     0</i>
    <i type="int" name="ICHARG">     2</i>
    <i type="int" name="INIWAV">     1</i>
   </separator>
   <separator name="electronic spin" >
    <i type="int" name="ISPIN">     2</i>
    <i type="logical" name="LNONCOLLINEAR"> F  </i>
    <v name="MAGMOM">      0.60000000      0.60000000      0.60000000      0.60000000      0.60000000      0.60000000      0.60000000      0.60000000      0.60000000      0.60000000      0.60000000      0.60000000      0.60000000      0.60000000      0.60000000      0.60000000      0.60000000      0.60000000      0.60000000      0.60000000
      0.60000000      0.60000000      0.60000000      0.60000000      0.60000000      0.60000000      0.60000000      0.60000000      0.60000000      0.60000000      0.60000000      0.60000000      0.60000000      0.60000000      0.60000000      0.60000000      0.60000000      0.60000000      0.60000000      0.60000000
      0.60000000      0.60000000      0.60000000      0.60000000      0.60000000      0.60000000      0.60000000      0.60000000      0.60000000      0.60000000      0.60000000      0.60000000      0.60000000      0.60000000      0.60000000      0.60000000      0.60000000      0.60000000      0.60000000      0.60000000
      0.60000000      0.60000000      0.60000000      0.60000000      0.60000000      0.60000000      0.60000000      0.60000000      0.60000000      0.60000000      0.60000000      0.60000000      0.60000000      0.60000000      0.60000000      0.60000000      0.60000000      0.60000000      0.60000000      0.60000000
      0.60000000      0.60000000      0.60000000      0.60000000      0.60000000      0.60000000      0.60000000      0.60000000      0.60000000      0.60000000      0.60000000      0.60000000      0.60000000</v>
    <i name="NUPDOWN">     -1.00000000</i>
    <i type="logical" name="LSORBIT"> F  </i>
    <v name="SAXIS">      0.00000000      0.00000000      1.00000000</v>
    <i type="logical" name="LSPIRAL"> F  </i>
    <v name="QSPIRAL">      0.00000000      0.00000000      0.00000000</v>
    <i type="logical" name="LZEROZ"> F  </i>
   </separator>
   <separator name="electronic exchange-correlation" >
    <i type="logical" name="LASPH"> T  </i>
    <i type="logical" name="LMETAGGA"> F  </i>
   </separator>
   <separator name="electronic convergence" >
    <i type="int" name="NELM">   200</i>
    <i type="int" name="NELMDL">    -5</i>
    <i type="int" name="NELMIN">     2</i>
    <i name="ENINI">    520.00000000</i>
    <separator name="electronic convergence detail" >
     <i type="logical" name="LDIAG"> T  </i>
     <i type="logical" name="LSUBROT"> F  </i>
     <i name="WEIMIN">      0.00100000</i>
     <i name="EBREAK">      0.00000000</i>
     <i name="DEPER">      0.30000000</i>
     <i type="int" name="NRMM">     4</i>
     <i name="TIME">      0.40000000</i>
    </separator>
   </separator>
   <separator name="electronic mixer" >
    <i name="AMIX">      0.20000000</i>
    <i name="BMIX">      0.00010000</i>
    <i name="AMIN">      0.10000000</i>
    <i name="AMIX_MAG">      0.80000000</i>
    <i name="BMIX_MAG">      0.00010000</i>
    <separator name="electronic mixer details" >
     <i type="int" name="IMIX">     4</i>
     <i type="logical" name="MIXFIRST"> F  </i>
     <i type="int" name="MAXMIX">   -45</i>
     <i name="WC">    100.00000000</i>
     <i type="int" name="INIMIX">     1</i>
     <i type="int" name="MIXPRE">     1</i>
     <i type="int" name="MREMOVE">     5</i>
    </separator>
   </separator>
   <separator name="electronic dipolcorrection" >
    <i type="logical" name="LDIPOL"> F  </i>
    <i type="logical" name="LMONO"> F  </i>
    <i type="int" name="IDIPOL">     0</i>
    <i name="EPSILON">      1.00000000</i>
    <v name="DIPOL">   -100.00000000   -100.00000000   -100.00000000</v>
    <i name="EFIELD">      0.00000000</i>
   </separator>
  </separator>
  <separator name="grids" >
   <i type="int" name="NGX">    96</i>
   <i type="int" name="NGY">    96</i>
   <i type="int" name="NGZ">    84</i>
   <i type="int" name="NGXF">   192</i>
   <i type="int" name="NGYF">   192</i>
   <i type="int" name="NGZF">   168</i>
   <i type="logical" name="ADDGRID"> T  </i>
  </separator>
  <separator name="ionic" >
   <i type="int" name="NSW">   300</i>
   <i type="int" name="IBRION">     2</i>
   <i type="int" name="MDALGO">     0</i>
   <i type="int" name="ISIF">     2</i>
   <i name="PSTRESS">      0.00000000</i>
   <i name="EDIFFG">     -0.01000000</i>
   <i type="int" name="NFREE">     1</i>
   <i name="POTIM">      0.10000000</i>
   <i name="SMASS">     -3.00000000</i>
   <i name="SCALEE">      1.00000000</i>
  </separator>
  <separator name="ionic md" >
   <i name="TEBEG">      0.00010000</i>
   <i name="TEEND">      0.00010000</i>
   <i type="int" name="NBLOCK">     1</i>
   <i type="int" name="KBLOCK">   300</i>
   <i type="int" name="NPACO">   256</i>
   <i name="APACO">     10.00000000</i>
  </separator>
  <separator name="symmetry" >
   <i type="int" name="ISYM">     0</i>
   <i name="SYMPREC">      0.00001000</i>
  </separator>
  <separator name="dos" >
   <i type="int" name="LORBIT">     0</i>
   <v name="RWIGS">     -1.00000000     -1.00000000     -1.00000000     -1.00000000     -1.00000000</v>
   <i type="int" name="NEDOS">   301</i>
   <i name="EMIN">     10.00000000</i>
   <i name="EMAX">    -10.00000000</i>
   <i name="EFERMI">      0.00000000</i>
  </separator>
  <separator name="writing" >
   <i type="int" name="NWRITE">     2</i>
   <i type="logical" name="LWAVE"> F  </i>
   <i type="logical" name="LDOWNSAMPLE"> F  </i>
   <i type="logical" name="LCHARG"> F  </i>
   <i type="logical" name="LPARD"> F  </i>
   <i type="logical" name="LVTOT"> F  </i>
   <i type="logical" name="LVHAR"> F  </i>
   <i type="logical" name="LELF"> F  </i>
   <i type="logical" name="LOPTICS"> F  </i>
   <v name="STM">      0.00000000      0.00000000      0.00000000      0.00000000      0.00000000      0.00000000      0.00000000</v>
  </separator>
  <separator name="performance" >
   <i type="int" name="NPAR">     2</i>
   <i type="int" name="NSIM">     4</i>
   <i type="int" name="NBLK">    -1</i>
   <i type="logical" name="LPLANE"> T  </i>
   <i type="logical" name="LSCALAPACK"> T  </i>
   <i type="logical" name="LSCAAWARE"> F  </i>
   <i type="logical" name="LSCALU"> F  </i>
   <i type="logical" name="LASYNC"> F  </i>
   <i type="logical" name="LORBITALREAL"> F  </i>
  </separator>
  <separator name="miscellaneous" >
   <i type="int" name="IDIOT">     3</i>
   <i type="int" name="PHON_NSTRUCT">    -1</i>
   <i type="logical" name="LMUSIC"> F  </i>
   <v name="POMASS">     12.01100000     18.99800000     14.00100000      1.00000000     16.00000000</v>
   <v name="DARWINR">      0.00000000      0.00000000      0.00000000      0.00000000      0.00000000</v>
   <v name="DARWINV">      1.00000000      1.00000000      1.00000000      1.00000000      1.00000000</v>
   <i type="logical" name="LCORR"> T  </i>
  </separator>
  <i type="logical" name="GGA_COMPAT"> T  </i>
  <i type="logical" name="LBERRY"> F  </i>
  <i type="int" name="ICORELEVEL">     0</i>
  <i type="logical" name="LDAU"> F  </i>
  <i type="int" name="I_CONSTRAINED_M">     0</i>
  <separator name="electronic exchange-correlation" >
   <i type="string" name="GGA">--</i>
   <i type="int" name="VOSKOWN">     0</i>
   <i type="logical" name="LHFCALC"> F  </i>
   <i type="string" name="PRECFOCK"></i>
   <i type="logical" name="LSYMGRAD"> F  </i>
   <i type="logical" name="LHFONE"> F  </i>
   <i type="logical" name="LRHFCALC"> F  </i>
   <i type="logical" name="LTHOMAS"> F  </i>
   <i type="logical" name="LMODELHF"> F  </i>
   <i type="logical" name="LFOCKACE"> F  </i>
   <i name="ENCUT4O">     -1.00000000</i>
   <i type="int" name="EXXOEP">     0</i>
   <i type="int" name="FOURORBIT">     0</i>
   <i name="AEXX">      0.00000000</i>
   <i name="HFALPHA">      0.00000000</i>
   <i name="MCALPHA">      0.00000000</i>
   <i name="ALDAX">      1.00000000</i>
   <i name="AGGAX">      1.00000000</i>
   <i name="ALDAC">      1.00000000</i>
   <i name="AGGAC">      1.00000000</i>
   <i type="int" name="NKREDX">     1</i>
   <i type="int" name="NKREDY">     1</i>
   <i type="int" name="NKREDZ">     1</i>
   <i type="logical" name="SHIFTRED"> F  </i>
   <i type="logical" name="ODDONLY"> F  </i>
   <i type="logical" name="EVENONLY"> F  </i>
   <i type="int" name="LMAXFOCK">     0</i>
   <i type="int" name="NMAXFOCKAE">     0</i>
   <i type="logical" name="LFOCKAEDFT"> F  </i>
   <i name="HFSCREEN">      0.00000000</i>
   <i name="HFSCREENC">      0.00000000</i>
   <i type="int" name="NBANDSGWLOW">     0</i>
  </separator>
  <separator name="vdW DFT" >
   <i type="logical" name="LUSE_VDW"> F  </i>
   <i type="int" name="IVDW_NL">     1</i>
   <i type="logical" name="LSPIN_VDW"> F  </i>
   <i name="Zab_VDW">     -0.84910000</i>
   <i name="PARAM1">      0.12340000</i>
   <i name="PARAM2">      1.00000000</i>
   <i name="PARAM3">      0.00000000</i>
  </separator>
  <separator name="model GW" >
   <i type="int" name="MODEL_GW">     0</i>
   <i name="MODEL_EPS0">     24.99925548</i>
   <i name="MODEL_ALPHA">      1.00000000</i>
  </separator>
  <separator name="linear response parameters" >
   <i type="logical" name="LEPSILON"> F  </i>
   <i type="logical" name="LRPA"> F  </i>
   <i type="logical" name="LNABLA"> F  </i>
   <i type="logical" name="LVEL"> F  </i>
   <i name="CSHIFT">      0.10000000</i>
   <i name="OMEGAMAX">     -1.00000000</i>
   <i name="DEG_THRESHOLD">      0.00200000</i>
   <i name="RTIME">     -0.10000000</i>
   <i name="WPLASMAI">      0.00000000</i>
   <v name="DFIELD">      0.00000000      0.00000000      0.00000000</v>
   <v name="WPLASMA">      0.00000000      0.00000000      0.00000000      0.00000000      0.00000000      0.00000000      0.00000000      0.00000000      0.00000000</v>
  </separator>
  <separator name="orbital magnetization" >
   <i type="logical" name="NUCIND"> F  </i>
   <v name="MAGPOS">      0.00000000      0.00000000      0.00000000</v>
   <i type="logical" name="LNICSALL"> T  </i>
   <i type="logical" name="ORBITALMAG"> F  </i>
   <i type="logical" name="LMAGBLOCH"> F  </i>
   <i type="logical" name="LCHIMAG"> F  </i>
   <i type="logical" name="LGAUGE"> T  </i>
   <i type="int" name="MAGATOM">     0</i>
   <v name="MAGDIPOL">      0.00000000      0.00000000      0.00000000</v>
   <v name="AVECCONST">      0.00000000      0.00000000      0.00000000</v>
  </separator>
  <separator name="response functions" >
   <i type="logical" name="LALL_IN_ONE"> F  </i>
   <i type="int" name="IALL_IN_ONE">    -1</i>
   <i type="int" name="NBANDS_WAVE">    -1</i>
   <i type="logical" name="LFINITE_TEMPERATURE"> F  </i>
   <i type="logical" name="LADDER"> F  </i>
   <i type="logical" name="LRPAFORCE"> F  </i>
   <i type="logical" name="LFXC"> F  </i>
   <i type="logical" name="LHARTREE"> T  </i>
   <i type="int" name="IBSE">     0</i>
   <v type="int" name="KPOINT">    -1     0     0     0</v>
   <i type="logical" name="LTCTC"> F  </i>
   <i type="logical" name="LTCTE"> F  </i>
   <i type="logical" name="LTETE"> F  </i>
   <i type="logical" name="LTRIPLET"> F  </i>
   <i type="logical" name="LFXCEPS"> F  </i>
   <i type="logical" name="LFXHEG"> F  </i>
   <i type="int" name="NATURALO">     2</i>
   <i type="logical" name="LHOLEGF"> F  </i>
   <i type="logical" name="L2ORDER"> F  </i>
   <i type="logical" name="LDMP1"> F  </i>
   <i type="logical" name="LMP2LT"> F  </i>
   <i type="logical" name="LSMP2LT"> F  </i>
   <i type="logical" name="LGWLF"> F  </i>
   <i name="ENCUTGW">     -1.60000002</i>
   <i name="ENCUTGWSOFT">     -1.60000002</i>
   <i name="ENCUTLF">     -1.00000000</i>
   <i type="logical" name="LESF_SPLINES"> F  </i>
   <i type="int" name="LMAXMP2">    -1</i>
   <i name="SCISSOR">      0.00000000</i>
   <i type="int" name="NOMEGA">     0</i>
   <i type="int" name="NOMEGAR">     0</i>
   <i type="int" name="NBANDSGW">    -1</i>
   <i type="int" name="NBANDSO">    -1</i>
   <i type="int" name="NBANDSV">    -1</i>
   <i type="int" name="NELMGW">     1</i>
   <i type="int" name="NELMHF">     1</i>
   <i type="int" name="DIM">     3</i>
   <i type="int" name="IESPILON">     4</i>
   <i type="int" name="ANTIRES">     0</i>
   <i name="OMEGAMAX">    -30.00000000</i>
   <i name="OMEGAMIN">    -30.00000000</i>
   <i name="OMEGATL">   -200.00000000</i>
   <i type="int" name="OMEGAGRID">     0</i>
   <i name="CSHIFT">     -0.10000000</i>
   <i type="logical" name="LSELFENERGY"> F  </i>
   <i type="logical" name="LSPECTRAL"> F  </i>
   <i type="logical" name="LSPECTRALGW"> F  </i>
   <i type="logical" name="LSINGLES"> F  </i>
   <i type="logical" name="LFERMIGW"> F  </i>
   <i type="logical" name="ODDONLYGW"> F  </i>
   <i type="logical" name="EVENONLYGW"> F  </i>
   <i type="int" name="NKREDLFX">     1</i>
   <i type="int" name="NKREDLFY">     1</i>
   <i type="int" name="NKREDLFZ">     1</i>
   <i type="int" name="MAXMEM">  2800</i>
   <i type="int" name="TELESCOPE">     0</i>
   <i type="int" name="NTAUPAR">    -1</i>
   <i type="int" name="NOMEGAPAR">    -1</i>
   <i name="DAMP_NEWTON">      0.80000001</i>
   <i name="LAMBDA">      1.00000000</i>
  </separator>
  <separator name="External order field" >
   <i name="OFIELD_KAPPA">      0.00000000</i>
   <v name="OFIELD_K">      0.00000000      0.00000000      0.00000000</v>
   <i name="OFIELD_Q6_NEAR">      0.00000000</i>
   <i name="OFIELD_Q6_FAR">      0.00000000</i>
   <i name="OFIELD_A">      0.00000000</i>
  </separator>
  <separator name="optional k-points parameters" >
   <i type="int" name="KPOINTS_OPT_MODE">     1</i>
   <i type="logical" name="LKPOINTS_OPT"> F  </i>
  </separator>
 </parameters>
 <atominfo>
  <atoms>      93 </atoms>
  <types>       5 </types>
  <array name="atoms" >
   <dimension dim="1">ion</dimension>
   <field type="string">element</field>
   <field type="int">atomtype</field>
   <set>
    <rc><c>C </c><c>   1</c></rc>
    <rc><c>C </c><c>   1</c></rc>
    <rc><c>C </c><c>   1</c></rc>
    <rc><c>C </c><c>   1</c></rc>
    <rc><c>C </c><c>   1</c></rc>
    <rc><c>C </c><c>   1</c></rc>
    <rc><c>C </c><c>   1</c></rc>
    <rc><c>C </c><c>   1</c></rc>
    <rc><c>C </c><c>   1</c></rc>
    <rc><c>C </c><c>   1</c></rc>
    <rc><c>C </c><c>   1</c></rc>
    <rc><c>C </c><c>   1</c></rc>
    <rc><c>C </c><c>   1</c></rc>
    <rc><c>C </c><c>   1</c></rc>
    <rc><c>C </c><c>   1</c></rc>
    <rc><c>C </c><c>   1</c></rc>
    <rc><c>C </c><c>   1</c></rc>
    <rc><c>C </c><c>   1</c></rc>
    <rc><c>C </c><c>   1</c></rc>
    <rc><c>C </c><c>   1</c></rc>
    <rc><c>C </c><c>   1</c></rc>
    <rc><c>C </c><c>   1</c></rc>
    <rc><c>C </c><c>   1</c></rc>
    <rc><c>C </c><c>   1</c></rc>
    <rc><c>C </c><c>   1</c></rc>
    <rc><c>C </c><c>   1</c></rc>
    <rc><c>C </c><c>   1</c></rc>
    <rc><c>C </c><c>   1</c></rc>
    <rc><c>C </c><c>   1</c></rc>
    <rc><c>C </c><c>   1</c></rc>
    <rc><c>C </c><c>   1</c></rc>
    <rc><c>C </c><c>   1</c></rc>
    <rc><c>C </c><c>   1</c></rc>
    <rc><c>C </c><c>   1</c></rc>
    <rc><c>C </c><c>   1</c></rc>
    <rc><c>C </c><c>   1</c></rc>
    <rc><c>C </c><c>   1</c></rc>
    <rc><c>C </c><c>   1</c></rc>
    <rc><c>C </c><c>   1</c></rc>
    <rc><c>C </c><c>   1</c></rc>
    <rc><c>C </c><c>   1</c></rc>
    <rc><c>C </c><c>   1</c></rc>
    <rc><c>C </c><c>   1</c></rc>
    <rc><c>C </c><c>   1</c></rc>
    <rc><c>C </c><c>   1</c></rc>
    <rc><c>C </c><c>   1</c></rc>
    <rc><c>C </c><c>   1</c></rc>
    <rc><c>C </c><c>   1</c></rc>
    <rc><c>C </c><c>   1</c></rc>
    <rc><c>C </c><c>   1</c></rc>
    <rc><c>C </c><c>   1</c></rc>
    <rc><c>C </c><c>   1</c></rc>
    <rc><c>C </c><c>   1</c></rc>
    <rc><c>C </c><c>   1</c></rc>
    <rc><c>C </c><c>   1</c></rc>
    <rc><c>C </c><c>   1</c></rc>
    <rc><c>C </c><c>   1</c></rc>
    <rc><c>C </c><c>   1</c></rc>
    <rc><c>C </c><c>   1</c></rc>
    <rc><c>C </c><c>   1</c></rc>
    <rc><c>C </c><c>   1</c></rc>
    <rc><c>C </c><c>   1</c></rc>
    <rc><c>C </c><c>   1</c></rc>
    <rc><c>C </c><c>   1</c></rc>
    <rc><c>C </c><c>   1</c></rc>
    <rc><c>C </c><c>   1</c></rc>
    <rc><c>C </c><c>   1</c></rc>
    <rc><c>C </c><c>   1</c></rc>
    <rc><c>C </c><c>   1</c></rc>
    <rc><c>C </c><c>   1</c></rc>
    <rc><c>C </c><c>   1</c></rc>
    <rc><c>C </c><c>   1</c></rc>
    <rc><c>C </c><c>   1</c></rc>
    <rc><c>C </c><c>   1</c></rc>
    <rc><c>C </c><c>   1</c></rc>
    <rc><c>C </c><c>   1</c></rc>
    <rc><c>C </c><c>   1</c></rc>
    <rc><c>C </c><c>   1</c></rc>
    <rc><c>C </c><c>   1</c></rc>
    <rc><c>C </c><c>   1</c></rc>
    <rc><c>C </c><c>   1</c></rc>
    <rc><c>C </c><c>   1</c></rc>
    <rc><c>F </c><c>   2</c></rc>
    <rc><c>F </c><c>   2</c></rc>
    <rc><c>N </c><c>   3</c></rc>
    <rc><c>N </c><c>   3</c></rc>
    <rc><c>N </c><c>   3</c></rc>
    <rc><c>N </c><c>   3</c></rc>
    <rc><c>N </c><c>   3</c></rc>
    <rc><c>N </c><c>   3</c></rc>
    <rc><c>H </c><c>   4</c></rc>
    <rc><c>H </c><c>   4</c></rc>
    <rc><c>O </c><c>   5</c></rc>
   </set>
  </array>
  <array name="atomtypes" >
   <dimension dim="1">type</dimension>
   <field type="int">atomspertype</field>
   <field type="string">element</field>
   <field>mass</field>
   <field>valence</field>
   <field type="string">pseudopotential</field>
   <set>
    <rc><c>  82</c><c>C </c><c>     12.01100000</c><c>      4.00000000</c><c>  PAW_PBE C 08Apr2002                   </c></rc>
    <rc><c>   2</c><c>F </c><c>     18.99800000</c><c>      7.00000000</c><c>  PAW_PBE F 08Apr2002                   </c></rc>
    <rc><c>   6</c><c>N </c><c>     14.00100000</c><c>      5.00000000</c><c>  PAW_PBE N 08Apr2002                   </c></rc>
    <rc><c>   2</c><c>H </c><c>      1.00000000</c><c>      1.00000000</c><c>  PAW_PBE H 15Jun2001                   </c></rc>
    <rc><c>   1</c><c>O </c><c>     16.00000000</c><c>      6.00000000</c><c>  PAW_PBE O 08Apr2002                   </c></rc>
   </set>
  </array>
 </atominfo>
 <structure name="initialpos" >
  <crystal>
   <varray name="basis" >
    <v>      17.27103806       0.00000000       0.00000000 </v>
    <v>      -8.63551903      14.95715771       0.00000000 </v>
    <v>       0.00000000       0.00000000      15.00000000 </v>
   </varray>
   <i name="volume">   3874.88459904 </i>
   <varray name="rec_basis" >
    <v>       0.05790040       0.03342881      -0.00000000 </v>
    <v>       0.00000000       0.06685762       0.00000000 </v>
    <v>       0.00000000      -0.00000000       0.06666667 </v>
   </varray>
  </crystal>
  <varray name="positions" >
   <v>       0.99997561       0.99993404       0.50539306 </v>
   <v>       0.00023448       0.14297584       0.50507823 </v>
   <v>       0.00017374       0.28588198       0.50388964 </v>
   <v>       0.99982297       0.42883234       0.50289714 </v>
   <v>       0.00016912       0.57159961       0.50266372 </v>
   <v>       0.00109267       0.71461161       0.50281484 </v>
   <v>       0.00027877       0.85749712       0.50426253 </v>
   <v>       0.14380035       0.00104615       0.50575619 </v>
   <v>       0.14425546       0.14435247       0.50711563 </v>
   <v>       0.14379040       0.28642077       0.50739976 </v>
   <v>       0.14278598       0.42920615       0.50542954 </v>
   <v>       0.14384656       0.57172075       0.50392243 </v>
   <v>       0.14409888       0.71448452       0.50300912 </v>
   <v>       0.14367088       0.85772903       0.50371560 </v>
   <v>       0.28657750       0.00053423       0.50562287 </v>
   <v>       0.28732711       0.14412123       0.50930333 </v>
   <v>       0.28954209       0.28953523       0.51524010 </v>
   <v>       0.28520551       0.43278129       0.51508430 </v>
   <v>       0.28856876       0.56945387       0.50892344 </v>
   <v>       0.28747952       0.71425266       0.50485482 </v>
   <v>       0.28658758       0.85749833       0.50411967 </v>
   <v>       0.42942216       0.00040906       0.50546591 </v>
   <v>       0.42965413       0.14434488       0.50748186 </v>
   <v>       0.42945919       0.85641676       0.50519168 </v>
   <v>       0.57158778       0.99990109       0.50531472 </v>
   <v>       0.57169638       0.14356035       0.50544516 </v>
   <v>       0.57385816       0.29052861       0.50668854 </v>
   <v>       0.57363472       0.85540685       0.50640865 </v>
   <v>       0.71392870       0.99956589       0.50546508 </v>
   <v>       0.71435879       0.14308811       0.50435705 </v>
   <v>       0.71391445       0.28633608       0.50420820 </v>
   <v>       0.70941016       0.42630659       0.50556999 </v>
   <v>       0.70941208       0.85556550       0.50867089 </v>
   <v>       0.85663360       0.99941058       0.50570348 </v>
   <v>       0.85698938       0.14269590       0.50429008 </v>
   <v>       0.85692184       0.28579919       0.50326354 </v>
   <v>       0.85647308       0.42877291       0.50328853 </v>
   <v>       0.85659993       0.57139158       0.50416534 </v>
   <v>       0.85831935       0.71412109       0.50578084 </v>
   <v>       0.85539968       0.85560963       0.50640858 </v>
   <v>       0.04835898       0.09578753       0.50566729 </v>
   <v>       0.04804882       0.23828322       0.50511049 </v>
   <v>       0.04724188       0.38117711       0.50362009 </v>
   <v>       0.04820879       0.52420271       0.50290862 </v>
   <v>       0.04852712       0.66698728       0.50259774 </v>
   <v>       0.04817234       0.80992718       0.50339013 </v>
   <v>       0.04812751       0.95277015       0.50500639 </v>
   <v>       0.19173086       0.09637355       0.50759722 </v>
   <v>       0.19284665       0.24009054       0.50913402 </v>
   <v>       0.18997941       0.38162314       0.50835038 </v>
   <v>       0.19177535       0.52439391       0.50578922 </v>
   <v>       0.19186304       0.66701812       0.50383623 </v>
   <v>       0.19144465       0.81004159       0.50344872 </v>
   <v>       0.19143179       0.95312727       0.50501368 </v>
   <v>       0.33447195       0.09625067       0.50746460 </v>
   <v>       0.33883789       0.24014907       0.51289828 </v>
   <v>       0.33889683       0.66940865       0.50680908 </v>
   <v>       0.33437090       0.80941311       0.50453151 </v>
   <v>       0.33402094       0.95272506       0.50495048 </v>
   <v>       0.47681724       0.09589543       0.50611874 </v>
   <v>       0.47464009       0.24038631       0.50870884 </v>
   <v>       0.47442830       0.80524435       0.50598338 </v>
   <v>       0.47668670       0.95221416       0.50525112 </v>
   <v>       0.61895822       0.09538796       0.50495482 </v>
   <v>       0.61884612       0.23935375       0.50530029 </v>
   <v>       0.61874904       0.95146588       0.50562240 </v>
   <v>       0.76184355       0.09531838       0.50458847 </v>
   <v>       0.76175546       0.23831576       0.50379411 </v>
   <v>       0.76081575       0.38147764       0.50415301 </v>
   <v>       0.75975447       0.52625114       0.50640414 </v>
   <v>       0.76300142       0.66284480       0.51012443 </v>
   <v>       0.75855481       0.80602461       0.51018610 </v>
   <v>       0.76100930       0.95164964       0.50650369 </v>
   <v>       0.90459457       0.09474289       0.50488904 </v>
   <v>       0.90470105       0.23811658       0.50359651 </v>
   <v>       0.90424846       0.38132498       0.50292063 </v>
   <v>       0.90452340       0.52407467       0.50308388 </v>
   <v>       0.90554545       0.66657442       0.50392177 </v>
   <v>       0.90449740       0.80932868       0.50534144 </v>
   <v>       0.90406322       0.95139771       0.50551984 </v>
   <v>       0.71657454       0.71217373       0.51568838 </v>
   <v>       0.33120165       0.38316436       0.52335970 </v>
   <v>       0.62848118       0.66365981       0.52853797 </v>
   <v>       0.41832839       0.43078385       0.54184697 </v>
   <v>       0.42882100       0.28458320       0.51188707 </v>
   <v>       0.42882980       0.71480626       0.50695345 </v>
   <v>       0.71601010       0.57183817       0.51008531 </v>
   <v>       0.33221717       0.52382227       0.51475908 </v>
   <v>       0.61948675       0.38094410       0.50665116 </v>
   <v>       0.61943664       0.81118219       0.50819806 </v>
   <v>       0.48840819       0.56719832       0.43682757 </v>
   <v>       0.54162120       0.51794139       0.43365220 </v>
   <v>       0.51150304       0.54019120       0.39533618 </v>
  </varray>
  <varray name="selective"  type="logical" >
   <v type="logical" >  T  T  T </v>
   <v type="logical" >  T  T  T </v>
   <v type="logical" >  T  T  T </v>
   <v type="logical" >  T  T  T </v>
   <v type="logical" >  T  T  T </v>
   <v type="logical" >  T  T  T </v>
   <v type="logical" >  T  T  T </v>
   <v type="logical" >  T  T  T </v>
   <v type="logical" >  T  T  T </v>
   <v type="logical" >  T  T  T </v>
   <v type="logical" >  T  T  T </v>
   <v type="logical" >  T  T  T </v>
   <v type="logical" >  T  T  T </v>
   <v type="logical" >  T  T  T </v>
   <v type="logical" >  T  T  T </v>
   <v type="logical" >  T  T  T </v>
   <v type="logical" >  T  T  T </v>
   <v type="logical" >  T  T  T </v>
   <v type="logical" >  T  T  T </v>
   <v type="logical" >  T  T  T </v>
   <v type="logical" >  T  T  T </v>
   <v type="logical" >  T  T  T </v>
   <v type="logical" >  T  T  T </v>
   <v type="logical" >  T  T  T </v>
   <v type="logical" >  T  T  T </v>
   <v type="logical" >  T  T  T </v>
   <v type="logical" >  T  T  T </v>
   <v type="logical" >  T  T  T </v>
   <v type="logical" >  T  T  T </v>
   <v type="logical" >  T  T  T </v>
   <v type="logical" >  T  T  T </v>
   <v type="logical" >  T  T  T </v>
   <v type="logical" >  T  T  T </v>
   <v type="logical" >  T  T  T </v>
   <v type="logical" >  T  T  T </v>
   <v type="logical" >  T  T  T </v>
   <v type="logical" >  T  T  T </v>
   <v type="logical" >  T  T  T </v>
   <v type="logical" >  T  T  T </v>
   <v type="logical" >  T  T  T </v>
   <v type="logical" >  T  T  T </v>
   <v type="logical" >  T  T  T </v>
   <v type="logical" >  T  T  T </v>
   <v type="logical" >  T  T  T </v>
   <v type="logical" >  T  T  T </v>
   <v type="logical" >  T  T  T </v>
   <v type="logical" >  T  T  T </v>
   <v type="logical" >  T  T  T </v>
   <v type="logical" >  T  T  T </v>
   <v type="logical" >  T  T  T </v>
   <v type="logical" >  T  T  T </v>
   <v type="logical" >  T  T  T </v>
   <v type="logical" >  T  T  T </v>
   <v type="logical" >  T  T  T </v>
   <v type="logical" >  T  T  T </v>
   <v type="logical" >  T  T  T </v>
   <v type="logical" >  T  T  T </v>
   <v type="logical" >  T  T  T </v>
   <v type="logical" >  T  T  T </v>
   <v type="logical" >  T  T  T </v>
   <v type="logical" >  T  T  T </v>
   <v type="logical" >  T  T  T </v>
   <v type="logical" >  T  T  T </v>
   <v type="logical" >  T  T  T </v>
   <v type="logical" >  T  T  T </v>
   <v type="logical" >  T  T  T </v>
   <v type="logical" >  T  T  T </v>
   <v type="logical" >  T  T  T </v>
   <v type="logical" >  T  T  T </v>
   <v type="logical" >  T  T  T </v>
   <v type="logical" >  T  T  T </v>
   <v type="logical" >  T  T  T </v>
   <v type="logical" >  T  T  T </v>
   <v type="logical" >  T  T  T </v>
   <v type="logical" >  T  T  T </v>
   <v type="logical" >  T  T  T </v>
   <v type="logical" >  T  T  T </v>
   <v type="logical" >  T  T  T </v>
   <v type="logical" >  T  T  T </v>
   <v type="logical" >  T  T  T </v>
   <v type="logical" >  T  T  T </v>
   <v type="logical" >  T  T  T </v>
   <v type="logical" >  T  T  T </v>
   <v type="logical" >  T  T  T </v>
   <v type="logical" >  T  T  T </v>
   <v type="logical" >  T  T  T </v>
   <v type="logical" >  T  T  T </v>
   <v type="logical" >  T  T  T </v>
   <v type="logical" >  T  T  T </v>
   <v type="logical" >  T  T  T </v>
   <v type="logical" >  T  T  T </v>
   <v type="logical" >  T  T  T </v>
   <v type="logical" >  T  T  F </v>
  </varray>
  <nose>
   <v>      -3.00000000       0.00000000       0.00010000       0.00010000 </v>
  </nose>
 </structure>
 <calculation>
  <scstep>
   <time name="dav">   97.22   98.11</time>
   <time name="total">   98.41   99.31</time>
   <energy>
    <i name="alphaZ">    185.49599500 </i>
    <i name="ewald">  37677.19764769 </i>
    <i name="hartreedc"> -49457.68488781 </i>
    <i name="XCdc">   1308.32910883 </i>
    <i name="pawpsdc">  11553.19479004 </i>
    <i name="pawaedc"> -11618.78033184 </i>
    <i name="eentropy">     -0.04140003 </i>
    <i name="bandstr">  -1606.57636182 </i>
    <i name="atom">  15429.98794498 </i>
    <i name="e_fr_energy">   3471.12250504 </i>
    <i name="e_wo_entrp">   3471.16390507 </i>
    <i name="e_0_energy">   3471.14320505 </i>
   </energy>
  </scstep>
  <scstep>
   <time name="dav">  124.13  125.32</time>
   <time name="total">  124.15  125.33</time>
   <energy>
    <i name="e_fr_energy">   -186.18769333 </i>
    <i name="e_wo_entrp">   -186.18121994 </i>
    <i name="e_0_energy">   -186.18445664 </i>
   </energy>
  </scstep>
  <scstep>
   <time name="dav">  107.12  108.10</time>
   <time name="total">  107.13  108.11</time>
   <energy>
    <i name="e_fr_energy">   -840.51745115 </i>
    <i name="e_wo_entrp">   -840.51060346 </i>
    <i name="e_0_energy">   -840.51402730 </i>
   </energy>
  </scstep>
  <scstep>
   <time name="dav">  107.46  108.44</time>
   <time name="total">  107.47  108.45</time>
   <energy>
    <i name="e_fr_energy">   -863.20319422 </i>
    <i name="e_wo_entrp">   -863.19653484 </i>
    <i name="e_0_energy">   -863.19986453 </i>
   </energy>
  </scstep>
  <scstep>
   <time name="dav">  119.11  120.16</time>
   <time name="total">  120.15  121.21</time>
   <energy>
    <i name="e_fr_energy">   -863.91124621 </i>
    <i name="e_wo_entrp">   -863.90455835 </i>
    <i name="e_0_energy">   -863.90790228 </i>
   </energy>
  </scstep>
  <scstep>
   <time name="dav">  104.69  105.61</time>
   <time name="total">  106.95  107.89</time>
   <energy>
    <i name="e_fr_energy">   -847.55210877 </i>
    <i name="e_wo_entrp">   -847.54844997 </i>
    <i name="e_0_energy">   -847.55027937 </i>
   </energy>
  </scstep>
  <scstep>
   <time name="dav">  101.38  102.34</time>
   <time name="total">  103.56  104.54</time>
   <energy>
    <i name="e_fr_energy">   -827.69466450 </i>
    <i name="e_wo_entrp">   -827.69340707 </i>
    <i name="e_0_energy">   -827.69403578 </i>
   </energy>
  </scstep>
  <scstep>
   <time name="dav">  100.59  101.53</time>
   <time name="total">  102.74  103.70</time>
   <energy>
    <i name="e_fr_energy">   -823.06656161 </i>
    <i name="e_wo_entrp">   -823.06637728 </i>
    <i name="e_0_energy">   -823.06646945 </i>
   </energy>
  </scstep>
  <scstep>
   <time name="dav">  102.50  103.46</time>
   <time name="total">  104.67  105.64</time>
   <energy>
    <i name="e_fr_energy">   -823.09718207 </i>
    <i name="e_wo_entrp">   -823.09700389 </i>
    <i name="e_0_energy">   -823.09709298 </i>
   </energy>
  </scstep>
  <scstep>
   <time name="dav">   98.68   99.57</time>
   <time name="total">  100.79  101.69</time>
   <energy>
    <i name="e_fr_energy">   -822.95631512 </i>
    <i name="e_wo_entrp">   -822.95613668 </i>
    <i name="e_0_energy">   -822.95622590 </i>
   </energy>
  </scstep>
  <scstep>
   <time name="dav">  100.93  101.81</time>
   <time name="total">  103.10  103.99</time>
   <energy>
    <i name="e_fr_energy">   -822.94768559 </i>
    <i name="e_wo_entrp">   -822.94750749 </i>
    <i name="e_0_energy">   -822.94759654 </i>
   </energy>
  </scstep>
  <scstep>
   <time name="dav">  104.52  105.46</time>
   <time name="total">  106.69  107.64</time>
   <energy>
    <i name="e_fr_energy">   -822.94804328 </i>
    <i name="e_wo_entrp">   -822.94786267 </i>
    <i name="e_0_energy">   -822.94795297 </i>
   </energy>
  </scstep>
  <scstep>
   <time name="dav">  101.94  102.85</time>
   <time name="total">  104.14  105.07</time>
   <energy>
    <i name="e_fr_energy">   -822.94821119 </i>
    <i name="e_wo_entrp">   -822.94803078 </i>
    <i name="e_0_energy">   -822.94812099 </i>
   </energy>
  </scstep>
  <scstep>
   <time name="dav">  100.43  101.39</time>
   <time name="total">  102.59  103.56</time>
   <energy>
    <i name="e_fr_energy">   -822.94824355 </i>
    <i name="e_wo_entrp">   -822.94806335 </i>
    <i name="e_0_energy">   -822.94815345 </i>
   </energy>
  </scstep>
  <scstep>
   <time name="dav">   99.27  100.15</time>
   <time name="total">  101.34  102.24</time>
   <energy>
    <i name="e_fr_energy">   -822.94829006 </i>
    <i name="e_wo_entrp">   -822.94810983 </i>
    <i name="e_0_energy">   -822.94819995 </i>
   </energy>
  </scstep>
  <scstep>
   <time name="dav">  104.51  105.51</time>
   <time name="total">  106.70  107.71</time>
   <energy>
    <i name="e_fr_energy">   -822.94829310 </i>
    <i name="e_wo_entrp">   -822.94811281 </i>
    <i name="e_0_energy">   -822.94820295 </i>
   </energy>
  </scstep>
  <scstep>
   <time name="dav">   98.07   98.97</time>
   <time name="total">   99.23  100.15</time>
   <energy>
    <i name="alphaZ">    185.49599500 </i>
    <i name="ewald">  37677.19764769 </i>
    <i name="hartreedc"> -50870.83984081 </i>
    <i name="XCdc">   1356.36041387 </i>
    <i name="pawpsdc">  38361.50794096 </i>
    <i name="pawaedc"> -38438.08409703 </i>
    <i name="eentropy">     -0.00018029 </i>
    <i name="bandstr">  -4524.57411710 </i>
    <i name="atom">  15429.98794498 </i>
    <i name="e_fr_energy">   -822.94829274 </i>
    <i name="e_wo_entrp">   -822.94811244 </i>
    <i name="e_0_energy">   -822.94820259 </i>
   </energy>
  </scstep>
  <structure>
   <crystal>
    <varray name="basis" >
     <v>      17.27103806       0.00000000       0.00000000 </v>
     <v>      -8.63551903      14.95715771       0.00000000 </v>
     <v>       0.00000000       0.00000000      15.00000000 </v>
    </varray>
    <i name="volume">   3874.88459904 </i>
    <varray name="rec_basis" >
     <v>       0.05790040       0.03342881      -0.00000000 </v>
     <v>       0.00000000       0.06685762       0.00000000 </v>
     <v>       0.00000000      -0.00000000       0.06666667 </v>
    </varray>
   </crystal>
   <varray name="positions" >
    <v>       0.99997561       0.99993404       0.50539306 </v>
    <v>       0.00023448       0.14297584       0.50507823 </v>
    <v>       0.00017374       0.28588198       0.50388964 </v>
    <v>       0.99982297       0.42883234       0.50289714 </v>
    <v>       0.00016912       0.57159961       0.50266372 </v>
    <v>       0.00109267       0.71461161       0.50281484 </v>
    <v>       0.00027877       0.85749712       0.50426253 </v>
    <v>       0.14380035       0.00104615       0.50575619 </v>
    <v>       0.14425546       0.14435247       0.50711563 </v>
    <v>       0.14379040       0.28642077       0.50739976 </v>
    <v>       0.14278598       0.42920615       0.50542954 </v>
    <v>       0.14384656       0.57172075       0.50392243 </v>
    <v>       0.14409888       0.71448452       0.50300912 </v>
    <v>       0.14367088       0.85772903       0.50371560 </v>
    <v>       0.28657750       0.00053423       0.50562287 </v>
    <v>       0.28732711       0.14412123       0.50930333 </v>
    <v>       0.28954209       0.28953523       0.51524010 </v>
    <v>       0.28520551       0.43278129       0.51508430 </v>
    <v>       0.28856876       0.56945387       0.50892344 </v>
    <v>       0.28747952       0.71425266       0.50485482 </v>
    <v>       0.28658758       0.85749833       0.50411967 </v>
    <v>       0.42942216       0.00040906       0.50546591 </v>
    <v>       0.42965413       0.14434488       0.50748186 </v>
    <v>       0.42945919       0.85641676       0.50519168 </v>
    <v>       0.57158778       0.99990109       0.50531472 </v>
    <v>       0.57169638       0.14356035       0.50544516 </v>
    <v>       0.57385816       0.29052861       0.50668854 </v>
    <v>       0.57363472       0.85540685       0.50640865 </v>
    <v>       0.71392870       0.99956589       0.50546508 </v>
    <v>       0.71435879       0.14308811       0.50435705 </v>
    <v>       0.71391445       0.28633608       0.50420820 </v>
    <v>       0.70941016       0.42630659       0.50556999 </v>
    <v>       0.70941208       0.85556550       0.50867089 </v>
    <v>       0.85663360       0.99941058       0.50570348 </v>
    <v>       0.85698938       0.14269590       0.50429008 </v>
    <v>       0.85692184       0.28579919       0.50326354 </v>
    <v>       0.85647308       0.42877291       0.50328853 </v>
    <v>       0.85659993       0.57139158       0.50416534 </v>
    <v>       0.85831935       0.71412109       0.50578084 </v>
    <v>       0.85539968       0.85560963       0.50640858 </v>
    <v>       0.04835898       0.09578753       0.50566729 </v>
    <v>       0.04804882       0.23828322       0.50511049 </v>
    <v>       0.04724188       0.38117711       0.50362009 </v>
    <v>       0.04820879       0.52420271       0.50290862 </v>
    <v>       0.04852712       0.66698728       0.50259774 </v>
    <v>       0.04817234       0.80992718       0.50339013 </v>
    <v>       0.04812751       0.95277015       0.50500639 </v>
    <v>       0.19173086       0.09637355       0.50759722 </v>
    <v>       0.19284665       0.24009054       0.50913402 </v>
    <v>       0.18997941       0.38162314       0.50835038 </v>
    <v>       0.19177535       0.52439391       0.50578922 </v>
    <v>       0.19186304       0.66701812       0.50383623 </v>
    <v>       0.19144465       0.81004159       0.50344872 </v>
    <v>       0.19143179       0.95312727       0.50501368 </v>
    <v>       0.33447195       0.09625067       0.50746460 </v>
    <v>       0.33883789       0.24014907       0.51289828 </v>
    <v>       0.33889683       0.66940865       0.50680908 </v>
    <v>       0.33437090       0.80941311       0.50453151 </v>
    <v>       0.33402094       0.95272506       0.50495048 </v>
    <v>       0.47681724       0.09589543       0.50611874 </v>
    <v>       0.47464009       0.24038631       0.50870884 </v>
    <v>       0.47442830       0.80524435       0.50598338 </v>
    <v>       0.47668670       0.95221416       0.50525112 </v>
    <v>       0.61895822       0.09538796       0.50495482 </v>
    <v>       0.61884612       0.23935375       0.50530029 </v>
    <v>       0.61874904       0.95146588       0.50562240 </v>
    <v>       0.76184355       0.09531838       0.50458847 </v>
    <v>       0.76175546       0.23831576       0.50379411 </v>
    <v>       0.76081575       0.38147764       0.50415301 </v>
    <v>       0.75975447       0.52625114       0.50640414 </v>
    <v>       0.76300142       0.66284480       0.51012443 </v>
    <v>       0.75855481       0.80602461       0.51018610 </v>
    <v>       0.76100930       0.95164964       0.50650369 </v>
    <v>       0.90459457       0.09474289       0.50488904 </v>
    <v>       0.90470105       0.23811658       0.50359651 </v>
    <v>       0.90424846       0.38132498       0.50292063 </v>
    <v>       0.90452340       0.52407467       0.50308388 </v>
    <v>       0.90554545       0.66657442       0.50392177 </v>
    <v>       0.90449740       0.80932868       0.50534144 </v>
    <v>       0.90406322       0.95139771       0.50551984 </v>
    <v>       0.71657454       0.71217373       0.51568838 </v>
    <v>       0.33120165       0.38316436       0.52335970 </v>
    <v>       0.62848118       0.66365981       0.52853797 </v>
    <v>       0.41832839       0.43078385       0.54184697 </v>
    <v>       0.42882100       0.28458320       0.51188707 </v>
    <v>       0.42882980       0.71480626       0.50695345 </v>
    <v>       0.71601010       0.57183817       0.51008531 </v>
    <v>       0.33221717       0.52382227       0.51475908 </v>
    <v>       0.61948675       0.38094410       0.50665116 </v>
    <v>       0.61943664       0.81118219       0.50819806 </v>
    <v>       0.48840819       0.56719832       0.43682757 </v>
    <v>       0.54162120       0.51794139       0.43365220 </v>
    <v>       0.51150304       0.54019120       0.39533618 </v>
   </varray>
  </structure>
  <varray name="forces" >
   <v>      -0.00786469      -0.00315671      -0.02969695 </v>
   <v>      -0.00002138       0.01308015       0.00119445 </v>
   <v>       0.00658663       0.01129133       0.00413402 </v>
   <v>      -0.01297545      -0.00453534       0.00142082 </v>
   <v>      -0.00129767       0.01289911      -0.01198580 </v>
   <v>       0.00359064       0.03606610       0.01862867 </v>
   <v>      -0.00263524      -0.00383501       0.00716044 </v>
   <v>      -0.01983666       0.02273854      -0.00449578 </v>
   <v>       0.00092671      -0.00552540       0.00855263 </v>
   <v>      -0.00208749       0.00004017       0.00205872 </v>
   <v>       0.00860329       0.00726877       0.00640548 </v>
   <v>      -0.01311857       0.03387415      -0.00585252 </v>
   <v>      -0.00174792      -0.01039315       0.00509725 </v>
   <v>       0.00751858      -0.01110603      -0.00008641 </v>
   <v>      -0.00011721      -0.02776914       0.00425687 </v>
   <v>       0.02928788       0.00175686       0.00240937 </v>
   <v>      -0.01497574       0.03604912      -0.00488214 </v>
   <v>      -0.01608618       0.01077925      -0.00659494 </v>
   <v>      -0.00719576       0.00131347       0.00923110 </v>
   <v>       0.03465991       0.01467960       0.00912376 </v>
   <v>      -0.01123180       0.01626467       0.00018175 </v>
   <v>       0.03075335       0.01038110      -0.00887697 </v>
   <v>      -0.03735910       0.03985439      -0.00160562 </v>
   <v>       0.00521736      -0.03477759      -0.00052459 </v>
   <v>      -0.05002713       0.01596377      -0.01227921 </v>
   <v>      -0.01738995      -0.03701505       0.00260632 </v>
   <v>       0.02667345      -0.00243675       0.00923070 </v>
   <v>       0.00389957       0.04979192       0.01706539 </v>
   <v>      -0.00840886      -0.01664038       0.00991462 </v>
   <v>       0.02188197       0.03352659      -0.00223820 </v>
   <v>      -0.01420450       0.01774982       0.00717727 </v>
   <v>       0.00533497       0.00075173       0.00127557 </v>
   <v>      -0.02211460      -0.00372495       0.01234438 </v>
   <v>       0.00808115       0.02060536       0.00106910 </v>
   <v>      -0.02741306       0.01544078       0.00607555 </v>
   <v>      -0.00323626      -0.01535574       0.00333540 </v>
   <v>       0.01704069       0.03024257      -0.00397182 </v>
   <v>      -0.04072895       0.00738482       0.01053697 </v>
   <v>       0.00698654      -0.00769524      -0.00430929 </v>
   <v>       0.00342732       0.01049712       0.00300885 </v>
   <v>       0.00591093       0.01154344       0.00227573 </v>
   <v>       0.01038666      -0.00602854       0.00181436 </v>
   <v>       0.00252061      -0.01843116       0.00090620 </v>
   <v>      -0.00207161      -0.00847233       0.00370404 </v>
   <v>       0.02542230      -0.01022767       0.00054204 </v>
   <v>       0.00241093      -0.01780204       0.00243783 </v>
   <v>      -0.00345604       0.00696590       0.00453974 </v>
   <v>      -0.01870251      -0.03566844      -0.00346110 </v>
   <v>      -0.00722354      -0.00831109       0.00318277 </v>
   <v>       0.00786147       0.01068402       0.00562554 </v>
   <v>       0.02761949      -0.02065433       0.00435132 </v>
   <v>      -0.02569238      -0.03921296       0.00608288 </v>
   <v>      -0.00567059      -0.00814208       0.00008094 </v>
   <v>       0.00684155      -0.00938258       0.00157169 </v>
   <v>      -0.00141815       0.01880551       0.00496234 </v>
   <v>       0.02331463       0.00099595      -0.00503540 </v>
   <v>       0.00138069       0.00461627      -0.00844656 </v>
   <v>       0.02812374      -0.00781083       0.00794249 </v>
   <v>      -0.01699240      -0.02796349       0.00450283 </v>
   <v>       0.02981876      -0.01721221      -0.00348630 </v>
   <v>       0.01443595      -0.03695282      -0.00970480 </v>
   <v>      -0.02350434      -0.00502983       0.00933555 </v>
   <v>       0.00287837       0.04699622       0.00520673 </v>
   <v>      -0.02083068      -0.01450979       0.00300116 </v>
   <v>      -0.00839724       0.02939271       0.01309266 </v>
   <v>       0.01697259      -0.04661641       0.00639363 </v>
   <v>       0.00014383       0.00667103      -0.00935964 </v>
   <v>       0.02154772      -0.02454696      -0.00590439 </v>
   <v>      -0.01922441       0.00215476       0.00813199 </v>
   <v>       0.02029621       0.00552342       0.00184754 </v>
   <v>       0.01189307      -0.00635737       0.00253328 </v>
   <v>       0.00584146      -0.02521238       0.00130306 </v>
   <v>      -0.01471159      -0.00498378      -0.00104975 </v>
   <v>       0.00537748      -0.02369779      -0.00773385 </v>
   <v>      -0.00434970      -0.00884846      -0.00188549 </v>
   <v>       0.00352658       0.02345055       0.00059223 </v>
   <v>       0.01922870      -0.03807114       0.00955685 </v>
   <v>       0.01061935      -0.01042877      -0.01067502 </v>
   <v>       0.00273803      -0.00100835       0.00048275 </v>
   <v>       0.00419055      -0.01057651       0.01132744 </v>
   <v>      -0.00714231       0.01735708       0.01242605 </v>
   <v>       0.00460525      -0.01150870      -0.00418930 </v>
   <v>      -0.00277411      -0.00267226       0.00149701 </v>
   <v>      -0.00022185       0.01106702       0.01622352 </v>
   <v>      -0.01583272       0.00674397       0.00190916 </v>
   <v>      -0.00180350      -0.00030166       0.00015322 </v>
   <v>      -0.01343515       0.00911830      -0.00190874 </v>
   <v>       0.00599561      -0.00850848       0.00111214 </v>
   <v>      -0.00514604       0.00395733       0.00355250 </v>
   <v>       0.02098643      -0.00162614      -0.00266481 </v>
   <v>      -0.01490496       0.00260348       0.00026181 </v>
   <v>       0.01164164       0.00071316       0.00702261 </v>
   <v>      -0.00942063       0.01109243      -0.16207570 </v>
  </varray>
  <varray name="stress" >
   <v>      -9.23526035      -0.78225570       0.00613713 </v>
   <v>      -0.78225551     -11.66558125      -0.00544093 </v>
   <v>       0.00613743      -0.00544100      -0.18153898 </v>
  </varray>
  <energy>
   <i name="e_fr_energy">   -830.44235354 </i>
   <i name="e_wo_entrp">   -830.44217324 </i>
   <i name="e_0_energy">   -830.44226339 </i>
  </energy>
  <time name="totalsc"> 1937.21 1954.87</time>
 </calculation>
 <calculation>
  <scstep>
   <time name="dav">   95.59   96.47</time>
   <time name="total">   97.73   98.64</time>
   <energy>
    <i name="alphaZ">    185.49599500 </i>
    <i name="ewald">  37677.14982331 </i>
    <i name="hartreedc"> -50870.79462741 </i>
    <i name="XCdc">   1356.35990060 </i>
    <i name="pawpsdc">  38360.59379357 </i>
    <i name="pawaedc"> -38437.17002863 </i>
    <i name="eentropy">     -0.00017845 </i>
    <i name="bandstr">  -4524.57136584 </i>
    <i name="atom">  15429.98794498 </i>
    <i name="e_fr_energy">   -822.94874287 </i>
    <i name="e_wo_entrp">   -822.94856442 </i>
    <i name="e_0_energy">   -822.94865365 </i>
   </energy>
  </scstep>
  <scstep>
   <time name="dav">  106.71  107.76</time>
   <time name="total">  108.86  109.92</time>
   <energy>
    <i name="e_fr_energy">   -822.94876614 </i>
    <i name="e_wo_entrp">   -822.94858784 </i>
    <i name="e_0_energy">   -822.94867699 </i>
   </energy>
  </scstep>
  <scstep>
   <time name="dav">  103.02  104.01</time>
   <time name="total">  105.19  106.20</time>
   <energy>
    <i name="e_fr_energy">   -822.94874980 </i>
    <i name="e_wo_entrp">   -822.94857150 </i>
    <i name="e_0_energy">   -822.94866065 </i>
   </energy>
  </scstep>
  <scstep>
   <time name="dav">   93.26   94.12</time>
   <time name="total">   95.38   96.28</time>
   <energy>
    <i name="e_fr_energy">   -822.94874162 </i>
    <i name="e_wo_entrp">   -822.94856321 </i>
    <i name="e_0_energy">   -822.94865242 </i>
   </energy>
  </scstep>
  <scstep>
   <time name="dav">   86.08   86.89</time>
   <time name="total">   87.21   88.03</time>
   <energy>
    <i name="alphaZ">    185.49599500 </i>
    <i name="ewald">  37677.14982331 </i>
    <i name="hartreedc"> -50870.76122561 </i>
    <i name="XCdc">   1356.35888000 </i>
    <i name="pawpsdc">  38359.95192660 </i>
    <i name="pawaedc"> -38436.52756934 </i>
    <i name="eentropy">     -0.00017843 </i>
    <i name="bandstr">  -4524.60433831 </i>
    <i name="atom">  15429.98794498 </i>
    <i name="e_fr_energy">   -822.94874180 </i>
    <i name="e_wo_entrp">   -822.94856337 </i>
    <i name="e_0_energy">   -822.94865259 </i>
   </energy>
  </scstep>
  <structure>
   <crystal>
    <varray name="basis" >
     <v>      17.27103806       0.00000000       0.00000000 </v>
     <v>      -8.63551903      14.95715771       0.00000000 </v>
     <v>       0.00000000       0.00000000      15.00000000 </v>
    </varray>
    <i name="volume">   3874.88459904 </i>
    <varray name="rec_basis" >
     <v>       0.05790040       0.03342881      -0.00000000 </v>
     <v>       0.00000000       0.06685762       0.00000000 </v>
     <v>       0.00000000      -0.00000000       0.06666667 </v>
    </varray>
   </crystal>
   <varray name="positions" >
    <v>       0.99997020       0.99993200       0.50537396 </v>
    <v>       0.00023869       0.14298428       0.50507899 </v>
    <v>       0.00018106       0.28588927       0.50389230 </v>
    <v>       0.99981426       0.42882942       0.50289805 </v>
    <v>       0.00017256       0.57160793       0.50265601 </v>
    <v>       0.00110631       0.71463488       0.50282682 </v>
    <v>       0.00027606       0.85749465       0.50426713 </v>
    <v>       0.14379660       0.00106082       0.50575329 </v>
    <v>       0.14425420       0.14434890       0.50712113 </v>
    <v>       0.14378925       0.28642080       0.50740109 </v>
    <v>       0.14279313       0.42921084       0.50543366 </v>
    <v>       0.14385015       0.57174260       0.50391866 </v>
    <v>       0.14409455       0.71447782       0.50301239 </v>
    <v>       0.14367150       0.85772187       0.50371554 </v>
    <v>       0.28656847       0.00051631       0.50562560 </v>
    <v>       0.28734404       0.14412237       0.50930488 </v>
    <v>       0.28954535       0.28955848       0.51523696 </v>
    <v>       0.28520000       0.43278824       0.51508005 </v>
    <v>       0.28856516       0.56945471       0.50892938 </v>
    <v>       0.28750362       0.71426213       0.50486069 </v>
    <v>       0.28658655       0.85750883       0.50411978 </v>
    <v>       0.42944269       0.00041575       0.50546020 </v>
    <v>       0.42964611       0.14437059       0.50748083 </v>
    <v>       0.42945089       0.85639432       0.50519134 </v>
    <v>       0.57156498       0.99991139       0.50530682 </v>
    <v>       0.57167472       0.14353647       0.50544684 </v>
    <v>       0.57387228       0.29052704       0.50669448 </v>
    <v>       0.57365296       0.85543897       0.50641963 </v>
    <v>       0.71391863       0.99955515       0.50547146 </v>
    <v>       0.71438182       0.14310974       0.50435561 </v>
    <v>       0.71391224       0.28634753       0.50421282 </v>
    <v>       0.70941338       0.42630708       0.50557081 </v>
    <v>       0.70939852       0.85556310       0.50867883 </v>
    <v>       0.85664476       0.99942388       0.50570416 </v>
    <v>       0.85697905       0.14270586       0.50429399 </v>
    <v>       0.85691508       0.28578929       0.50326568 </v>
    <v>       0.85649235       0.42879241       0.50328598 </v>
    <v>       0.85657956       0.57139634       0.50417212 </v>
    <v>       0.85832077       0.71411613       0.50577807 </v>
    <v>       0.85540498       0.85561640       0.50641051 </v>
    <v>       0.04836600       0.09579498       0.50566876 </v>
    <v>       0.04805268       0.23827933       0.50511165 </v>
    <v>       0.04723734       0.38116522       0.50362067 </v>
    <v>       0.04820490       0.52419725       0.50291101 </v>
    <v>       0.04853802       0.66698068       0.50259809 </v>
    <v>       0.04816794       0.80991570       0.50339170 </v>
    <v>       0.04812782       0.95277464       0.50500931 </v>
    <v>       0.19170891       0.09635054       0.50759499 </v>
    <v>       0.19283993       0.24008518       0.50913606 </v>
    <v>       0.18998725       0.38163003       0.50835400 </v>
    <v>       0.19178412       0.52438059       0.50579202 </v>
    <v>       0.19183604       0.66699283       0.50384014 </v>
    <v>       0.19143885       0.81003633       0.50344878 </v>
    <v>       0.19143258       0.95312122       0.50501469 </v>
    <v>       0.33447723       0.09626280       0.50746780 </v>
    <v>       0.33885123       0.24014972       0.51289504 </v>
    <v>       0.33889909       0.66941163       0.50680364 </v>
    <v>       0.33438409       0.80940807       0.50453662 </v>
    <v>       0.33400243       0.95270702       0.50495337 </v>
    <v>       0.47682834       0.09588432       0.50611650 </v>
    <v>       0.47463623       0.24036247       0.50870260 </v>
    <v>       0.47441355       0.80524111       0.50598939 </v>
    <v>       0.47670347       0.95224448       0.50525447 </v>
    <v>       0.61894191       0.09537860       0.50495675 </v>
    <v>       0.61885091       0.23937271       0.50530871 </v>
    <v>       0.61874349       0.95143581       0.50562651 </v>
    <v>       0.76184578       0.09532268       0.50458245 </v>
    <v>       0.76175958       0.23829992       0.50379031 </v>
    <v>       0.76080570       0.38147903       0.50415824 </v>
    <v>       0.75976759       0.52625470       0.50640533 </v>
    <v>       0.76300601       0.66284070       0.51012606 </v>
    <v>       0.75854994       0.80600835       0.51018694 </v>
    <v>       0.76099948       0.95164642       0.50650302 </v>
    <v>       0.90458993       0.09472760       0.50488407 </v>
    <v>       0.90469577       0.23811087       0.50359530 </v>
    <v>       0.90425799       0.38134010       0.50292101 </v>
    <v>       0.90452186       0.52405011       0.50309002 </v>
    <v>       0.90554802       0.66656769       0.50391491 </v>
    <v>       0.90449861       0.80932803       0.50534176 </v>
    <v>       0.90406215       0.95139089       0.50552713 </v>
    <v>       0.71657615       0.71218492       0.51569638 </v>
    <v>       0.33120051       0.38315694       0.52335700 </v>
    <v>       0.62847876       0.66365809       0.52853893 </v>
    <v>       0.41833184       0.43079098       0.54185740 </v>
    <v>       0.42881434       0.28458755       0.51188830 </v>
    <v>       0.42882869       0.71480607       0.50695355 </v>
    <v>       0.71600554       0.57184405       0.51008408 </v>
    <v>       0.33221777       0.52381678       0.51475980 </v>
    <v>       0.61948516       0.38094666       0.50665344 </v>
    <v>       0.61944784       0.81118114       0.50819635 </v>
    <v>       0.48840071       0.56720000       0.43682774 </v>
    <v>       0.54162793       0.51794185       0.43365672 </v>
    <v>       0.51150135       0.54019835       0.39533618 </v>
   </varray>
  </structure>
  <varray name="forces" >
   <v>      -0.00385915       0.00030361      -0.02460277 </v>
   <v>       0.00133897       0.00396120       0.00089148 </v>
   <v>       0.00434316       0.00188521       0.00353032 </v>
   <v>      -0.00310151      -0.00400737       0.00161890 </v>
   <v>       0.00212001      -0.00133018      -0.00967274 </v>
   <v>       0.00909597       0.00871513       0.01541592 </v>
   <v>      -0.00127298      -0.00041204       0.00674051 </v>
   <v>      -0.00869002       0.00361359      -0.00392366 </v>
   <v>       0.00040630      -0.00382324       0.00770012 </v>
   <v>       0.00129289      -0.00044535       0.00242079 </v>
   <v>       0.00534038      -0.00112002       0.00597570 </v>
   <v>      -0.00309453       0.00247788      -0.00428330 </v>
   <v>      -0.00024975      -0.01078138       0.00480874 </v>
   <v>       0.00405686      -0.00857173       0.00002729 </v>
   <v>      -0.00175969      -0.01310396       0.00454578 </v>
   <v>       0.00713335      -0.00425410       0.00175909 </v>
   <v>      -0.00656614       0.01351689      -0.00580330 </v>
   <v>      -0.00542280       0.00704418      -0.00462488 </v>
   <v>      -0.00146877      -0.00158860       0.00767376 </v>
   <v>       0.01147630      -0.00124031       0.00791972 </v>
   <v>      -0.00346753      -0.00097583       0.00078250 </v>
   <v>       0.00746810       0.00322031      -0.00722542 </v>
   <v>      -0.00875844       0.01238206      -0.00250159 </v>
   <v>       0.00374889      -0.00573887       0.00085257 </v>
   <v>      -0.01413086       0.00616417      -0.00986130 </v>
   <v>      -0.00691549      -0.01099559       0.00286369 </v>
   <v>       0.01205318       0.00188398       0.00858170 </v>
   <v>       0.00361557       0.01498809       0.01554825 </v>
   <v>      -0.00513097      -0.01035479       0.00798819 </v>
   <v>       0.00479892       0.00735589      -0.00244194 </v>
   <v>      -0.00489635       0.00851535       0.00699285 </v>
   <v>       0.00114031       0.00361764       0.00213356 </v>
   <v>      -0.00606162      -0.00400752       0.01049188 </v>
   <v>       0.00067680       0.00416933       0.00119150 </v>
   <v>      -0.00962874       0.00012904       0.00404239 </v>
   <v>       0.00203654      -0.00162664       0.00223974 </v>
   <v>       0.00612289       0.01084877      -0.00238814 </v>
   <v>      -0.01015279      -0.00425058       0.00881570 </v>
   <v>       0.00818946      -0.00651944      -0.00438799 </v>
   <v>       0.00242218       0.00083858       0.00338030 </v>
   <v>      -0.00026476       0.00622990       0.00065516 </v>
   <v>       0.00506790       0.00068996       0.00217470 </v>
   <v>       0.00164912      -0.00769704       0.00142151 </v>
   <v>      -0.00265278       0.00007100       0.00195049 </v>
   <v>       0.00885224       0.00262354       0.00105605 </v>
   <v>       0.00080384      -0.00402087       0.00381056 </v>
   <v>      -0.00715541       0.00126946       0.00207431 </v>
   <v>      -0.00216377      -0.01132430      -0.00224396 </v>
   <v>      -0.00428939      -0.00164580       0.00290045 </v>
   <v>       0.00249884       0.00543703       0.00472139 </v>
   <v>       0.01093438      -0.00193949       0.00401926 </v>
   <v>      -0.00260918      -0.00964863       0.00577820 </v>
   <v>      -0.00081548      -0.00611408       0.00050794 </v>
   <v>      -0.00060828      -0.00620909       0.00139076 </v>
   <v>      -0.00135009       0.00388960       0.00429678 </v>
   <v>       0.00936254       0.00467834      -0.00389520 </v>
   <v>       0.00125586       0.00054718      -0.00616968 </v>
   <v>       0.01291172      -0.00283773       0.00704133 </v>
   <v>      -0.00149619      -0.01233791       0.00370678 </v>
   <v>       0.00060669      -0.00603854      -0.00340252 </v>
   <v>       0.00396442      -0.01021639      -0.00737785 </v>
   <v>      -0.00771497      -0.00259171       0.00878806 </v>
   <v>      -0.00244963       0.01215639       0.00305225 </v>
   <v>      -0.00724778      -0.00161312       0.00168132 </v>
   <v>       0.00012737       0.00759516       0.01246375 </v>
   <v>      -0.00418883      -0.01258527       0.00637142 </v>
   <v>      -0.00364887       0.00230489      -0.00741289 </v>
   <v>       0.00654911      -0.00360032      -0.00473142 </v>
   <v>      -0.00565586       0.00661659       0.00717592 </v>
   <v>       0.00313468       0.00504437       0.00225225 </v>
   <v>       0.00597350      -0.00374587       0.00286210 </v>
   <v>       0.00154168      -0.00792590       0.00178560 </v>
   <v>      -0.00675985       0.00059125       0.00093386 </v>
   <v>      -0.00202375      -0.00356911      -0.00649095 </v>
   <v>      -0.00280390       0.00058632      -0.00084096 </v>
   <v>       0.00165292       0.00602712       0.00047184 </v>
   <v>       0.00180229      -0.00676085       0.00806934 </v>
   <v>       0.00642947      -0.00003755      -0.00786194 </v>
   <v>       0.00257061      -0.00018914       0.00061974 </v>
   <v>       0.00144022      -0.00381404       0.00825759 </v>
   <v>      -0.00320248       0.00431420       0.01165542 </v>
   <v>       0.00205640       0.00406666      -0.00251138 </v>
   <v>      -0.00111476      -0.00105515       0.00156570 </v>
   <v>      -0.00353512       0.00807000       0.01470060 </v>
   <v>       0.00248277       0.00269690       0.00048792 </v>
   <v>       0.00385061       0.00179230       0.00015786 </v>
   <v>      -0.00660795       0.00538275      -0.00200342 </v>
   <v>       0.00318545      -0.00328189       0.00078723 </v>
   <v>      -0.00395601       0.00189709       0.00344196 </v>
   <v>       0.00195946       0.00135597      -0.00113432 </v>
   <v>      -0.01416815       0.00225652       0.00078559 </v>
   <v>       0.00309019       0.00480227       0.00117447 </v>
   <v>      -0.00151992       0.00732367      -0.15618695 </v>
  </varray>
  <varray name="stress" >
   <v>      -9.25328977      -0.77195974       0.00425181 </v>
   <v>      -0.77195954     -11.65183377      -0.00472384 </v>
   <v>       0.00425210      -0.00472391      -0.17814092 </v>
  </varray>
  <energy>
   <i name="e_fr_energy">   -830.44276418 </i>
   <i name="e_wo_entrp">   -830.44258575 </i>
   <i name="e_0_energy">   -830.44267496 </i>
  </energy>
  <time name="totalsc">  629.70  635.69</time>
 </calculation>
 <calculation>
  <scstep>
   <time name="dav">   95.04   95.93</time>
   <time name="total">   97.19   98.09</time>
   <energy>
    <i name="alphaZ">    185.49599500 </i>
    <i name="ewald">  37677.12832984 </i>
    <i name="hartreedc"> -50870.74605657 </i>
    <i name="XCdc">   1356.35875447 </i>
    <i name="pawpsdc">  38359.87520703 </i>
    <i name="pawaedc"> -38436.45081270 </i>
    <i name="eentropy">     -0.00017743 </i>
    <i name="bandstr">  -4524.59799092 </i>
    <i name="atom">  15429.98794498 </i>
    <i name="e_fr_energy">   -822.94880630 </i>
    <i name="e_wo_entrp">   -822.94862888 </i>
    <i name="e_0_energy">   -822.94871759 </i>
   </energy>
  </scstep>
  <scstep>
   <time name="dav">  106.59  107.58</time>
   <time name="total">  108.72  109.72</time>
   <energy>
    <i name="e_fr_energy">   -822.94881196 </i>
    <i name="e_wo_entrp">   -822.94863459 </i>
    <i name="e_0_energy">   -822.94872328 </i>
   </energy>
  </scstep>
  <scstep>
   <time name="dav">  100.31  101.20</time>
   <time name="total">  102.42  103.32</time>
   <energy>
    <i name="e_fr_energy">   -822.94880879 </i>
    <i name="e_wo_entrp">   -822.94863143 </i>
    <i name="e_0_energy">   -822.94872011 </i>
   </energy>
  </scstep>
  <scstep>
   <time name="dav">   89.57   90.36</time>
   <time name="total">   91.69   92.50</time>
   <energy>
    <i name="e_fr_energy">   -822.94880749 </i>
    <i name="e_wo_entrp">   -822.94863008 </i>
    <i name="e_0_energy">   -822.94871879 </i>
   </energy>
  </scstep>
  <scstep>
   <time name="dav">   68.03   68.62</time>
   <time name="total">   69.17   69.78</time>
   <energy>
    <i name="alphaZ">    185.49599500 </i>
    <i name="ewald">  37677.12832984 </i>
    <i name="hartreedc"> -50870.74272737 </i>
    <i name="XCdc">   1356.35853729 </i>
    <i name="pawpsdc">  38359.81313423 </i>
    <i name="pawaedc"> -38436.38854969 </i>
    <i name="eentropy">     -0.00017742 </i>
    <i name="bandstr">  -4524.60129437 </i>
    <i name="atom">  15429.98794498 </i>
    <i name="e_fr_energy">   -822.94880751 </i>
    <i name="e_wo_entrp">   -822.94863009 </i>
    <i name="e_0_energy">   -822.94871880 </i>
   </energy>
  </scstep>
  <structure>
   <crystal>
    <varray name="basis" >
     <v>      17.27103806       0.00000000       0.00000000 </v>
     <v>      -8.63551903      14.95715771       0.00000000 </v>
     <v>       0.00000000       0.00000000      15.00000000 </v>
    </varray>
[...]
   <v>       0.01420319       0.00595031      -0.00667100 </v>
   <v>       0.01305999      -0.01589112       0.01020436 </v>
   <v>      -0.01930685       0.00301964       0.02660201 </v>
   <v>      -0.00637580      -0.01641408       0.00124676 </v>
   <v>      -0.00040745       0.01590508      -0.03121868 </v>
   <v>      -0.02315882       0.00056222      -0.00021146 </v>
   <v>       0.01862155      -0.00091885      -0.00001650 </v>
   <v>      -0.01452046      -0.03447216      -0.00212088 </v>
   <v>      -0.01484600       0.02414193       0.05755702 </v>
   <v>      -0.01999316       0.00644390       0.02922449 </v>
   <v>      -0.01190785      -0.02646466       0.00222939 </v>
   <v>      -0.00054255       0.04430601       0.01536087 </v>
   <v>       0.00103823      -0.00459360      -0.01076698 </v>
   <v>      -0.00842179      -0.01410994      -0.00299277 </v>
   <v>      -0.02736464      -0.00146844       0.03008107 </v>
   <v>      -0.02785354       0.01585603       0.01902561 </v>
   <v>      -0.01097325       0.01076827       0.01739231 </v>
   <v>      -0.01326808      -0.00460179      -0.00205114 </v>
   <v>      -0.01373737       0.01892914      -0.00188218 </v>
   <v>       0.01906473      -0.02105756      -0.00933531 </v>
   <v>       0.01065683       0.01255089      -0.01313180 </v>
   <v>      -0.00290856       0.01306537       0.01311181 </v>
   <v>      -0.04232274      -0.01724400      -0.00632138 </v>
   <v>      -0.02491125      -0.00134433      -0.03123112 </v>
   <v>      -0.02427596      -0.00217496      -0.01698686 </v>
   <v>      -0.01357165      -0.00405442      -0.00528066 </v>
   <v>      -0.00514986      -0.02225432      -0.01922364 </v>
   <v>      -0.00354187       0.01400260       0.01391293 </v>
   <v>       0.02794265       0.03308173      -0.01505784 </v>
   <v>       0.02554640       0.02445328       0.01541183 </v>
   <v>      -0.00724370      -0.01340826       0.00173192 </v>
   <v>       0.00810321       0.01581835       0.01887691 </v>
   <v>      -0.00253177      -0.02332373       0.02496096 </v>
   <v>      -0.03849676      -0.00018198      -0.00284053 </v>
   <v>      -0.00958982       0.03070114      -0.02323575 </v>
   <v>       0.01897173      -0.00506894      -0.00996938 </v>
   <v>      -0.02438357       0.02101874       0.01233642 </v>
   <v>       0.00353005      -0.00804147      -0.01588172 </v>
   <v>       0.01475065       0.01127196      -0.01706782 </v>
   <v>      -0.00468535       0.00301050      -0.01053574 </v>
   <v>      -0.02685090       0.00216624      -0.00993415 </v>
   <v>      -0.02664345      -0.00430122      -0.01001634 </v>
   <v>      -0.00233059       0.03747341       0.00840765 </v>
   <v>      -0.00005977       0.00923875       0.00448187 </v>
   <v>       0.03081666       0.00525768       0.00480054 </v>
   <v>      -0.01286300       0.01838383      -0.01627524 </v>
   <v>      -0.04431001      -0.02204393      -0.00035758 </v>
   <v>       0.00159701       0.01804496       0.01158273 </v>
   <v>      -0.00210409      -0.00433128      -0.01151819 </v>
   <v>       0.02039641      -0.02210646      -0.02365855 </v>
   <v>      -0.01478044      -0.01376627      -0.03418368 </v>
   <v>      -0.00185638       0.00479824       0.01939498 </v>
   <v>       0.00458859      -0.02048963       0.00627454 </v>
   <v>       0.01128841      -0.00396639      -0.02335630 </v>
   <v>      -0.00946592      -0.00547442       0.00135932 </v>
   <v>       0.01706286       0.00677645      -0.01284510 </v>
   <v>      -0.00142301       0.01356582       0.00735274 </v>
   <v>      -0.00008881      -0.00135204       0.00329644 </v>
   <v>       0.01724386       0.02301584       0.00201169 </v>
   <v>       0.00243603       0.01005499      -0.00966449 </v>
   <v>       0.00661292       0.00324089      -0.04961763 </v>
  </varray>
  <varray name="stress" >
   <v>      -8.48772902      -1.12768253      -0.01698989 </v>
   <v>      -1.12768208     -12.18360416      -0.01912909 </v>
   <v>      -0.01698952      -0.01912936      -0.26280676 </v>
  </varray>
  <energy>
   <i name="e_fr_energy">   -830.49082748 </i>
   <i name="e_wo_entrp">   -830.49063967 </i>
   <i name="e_0_energy">   -830.49073357 </i>
  </energy>
  <time name="totalsc">  898.61  906.95</time>
 </calculation>
 <calculation>
  <scstep>
   <time name="dav">   89.75   90.60</time>
   <time name="total">   91.90   92.77</time>
   <energy>
    <i name="alphaZ">    185.49599500 </i>
    <i name="ewald">  37647.61111726 </i>
    <i name="hartreedc"> -50840.02800993 </i>
    <i name="XCdc">   1356.40340935 </i>
    <i name="pawpsdc">  38365.82427108 </i>
    <i name="pawaedc"> -38442.39442197 </i>
    <i name="eentropy">     -0.00018971 </i>
    <i name="bandstr">  -4525.89488621 </i>
    <i name="atom">  15429.98794498 </i>
    <i name="e_fr_energy">   -822.99477015 </i>
    <i name="e_wo_entrp">   -822.99458045 </i>
    <i name="e_0_energy">   -822.99467530 </i>
   </energy>
  </scstep>
  <scstep>
   <time name="dav">   89.30   90.14</time>
   <time name="total">   91.45   92.31</time>
   <energy>
    <i name="e_fr_energy">   -822.99555579 </i>
    <i name="e_wo_entrp">   -822.99536627 </i>
    <i name="e_0_energy">   -822.99546103 </i>
   </energy>
  </scstep>
  <scstep>
   <time name="dav">  103.99  104.93</time>
   <time name="total">  106.17  107.13</time>
   <energy>
    <i name="e_fr_energy">   -822.99544673 </i>
    <i name="e_wo_entrp">   -822.99525731 </i>
    <i name="e_0_energy">   -822.99535202 </i>
   </energy>
  </scstep>
  <scstep>
   <time name="dav">   98.66   99.53</time>
   <time name="total">  100.82  101.72</time>
   <energy>
    <i name="e_fr_energy">   -822.99545843 </i>
    <i name="e_wo_entrp">   -822.99526909 </i>
    <i name="e_0_energy">   -822.99536376 </i>
   </energy>
  </scstep>
  <scstep>
   <time name="dav">   94.73   95.54</time>
   <time name="total">   96.80   97.64</time>
   <energy>
    <i name="e_fr_energy">   -822.99546732 </i>
    <i name="e_wo_entrp">   -822.99527799 </i>
    <i name="e_0_energy">   -822.99537265 </i>
   </energy>
  </scstep>
  <scstep>
   <time name="dav">   90.49   91.30</time>
   <time name="total">   92.68   93.50</time>
   <energy>
    <i name="e_fr_energy">   -822.99546968 </i>
    <i name="e_wo_entrp">   -822.99528035 </i>
    <i name="e_0_energy">   -822.99537501 </i>
   </energy>
  </scstep>
  <scstep>
   <time name="dav">   76.66   77.36</time>
   <time name="total">   77.80   78.51</time>
   <energy>
    <i name="alphaZ">    185.49599500 </i>
    <i name="ewald">  37647.61111726 </i>
    <i name="hartreedc"> -50839.97636678 </i>
    <i name="XCdc">   1356.39932034 </i>
    <i name="pawpsdc">  38364.72009704 </i>
    <i name="pawaedc"> -38441.28915643 </i>
    <i name="eentropy">     -0.00018933 </i>
    <i name="bandstr">  -4525.94423218 </i>
    <i name="atom">  15429.98794498 </i>
    <i name="e_fr_energy">   -822.99547011 </i>
    <i name="e_wo_entrp">   -822.99528078 </i>
    <i name="e_0_energy">   -822.99537545 </i>
   </energy>
  </scstep>
  <structure>
   <crystal>
    <varray name="basis" >
     <v>      17.27103806       0.00000000       0.00000000 </v>
     <v>      -8.63551903      14.95715771       0.00000000 </v>
     <v>       0.00000000       0.00000000      15.00000000 </v>
    </varray>
    <i name="volume">   3874.88459904 </i>
    <varray name="rec_basis" >
     <v>       0.05790040       0.03342881      -0.00000000 </v>
     <v>       0.00000000       0.06685762       0.00000000 </v>
     <v>       0.00000000      -0.00000000       0.06666667 </v>
    </varray>
   </crystal>
   <varray name="positions" >
    <v>       0.00085454       0.99870407       0.51650577 </v>
    <v>       0.00110992       0.14174222       0.51527529 </v>
    <v>       0.00097000       0.28458678       0.51665811 </v>
    <v>       0.00048447       0.42743953       0.51943462 </v>
    <v>       0.00088078       0.57030816       0.52129789 </v>
    <v>       0.00197718       0.71342359       0.52093469 </v>
    <v>       0.00118301       0.85633400       0.51918421 </v>
    <v>       0.14467298      -0.00009605       0.51617940 </v>
    <v>       0.14536892       0.14338123       0.51500468 </v>
    <v>       0.14479673       0.28538201       0.51646164 </v>
    <v>       0.14347169       0.42797338       0.51941746 </v>
    <v>       0.14437039       0.57046667       0.52155390 </v>
    <v>       0.14476210       0.71324521       0.52129274 </v>
    <v>       0.14449803       0.85651747       0.51903074 </v>
    <v>       0.28749678      -0.00061764       0.51822462 </v>
    <v>       0.28840665       0.14310270       0.51690239 </v>
    <v>       0.29099682       0.28898319       0.51903157 </v>
    <v>       0.28618390       0.43194642       0.52248107 </v>
    <v>       0.28882874       0.56835066       0.52408608 </v>
    <v>       0.28801978       0.71308825       0.52369509 </v>
    <v>       0.28735302       0.85627296       0.52136414 </v>
    <v>       0.43029843      -0.00092455       0.52062477 </v>
    <v>       0.43056937       0.14306466       0.51872968 </v>
    <v>       0.43015849       0.85496937       0.52381998 </v>
    <v>       0.57228877       0.99842428       0.52164307 </v>
    <v>       0.57248750       0.14210186       0.51949293 </v>
    <v>       0.57490719       0.28913274       0.52024739 </v>
    <v>       0.57439451       0.85394652       0.52531893 </v>
    <v>       0.71465820       0.99806232       0.52131427 </v>
    <v>       0.71519755       0.14166061       0.51906408 </v>
    <v>       0.71479847       0.28497041       0.51984079 </v>
    <v>       0.71025571       0.42492246       0.52294475 </v>
    <v>       0.71020664       0.85417317       0.52660085 </v>
    <v>       0.85747772       0.99809208       0.51932574 </v>
    <v>       0.85775453       0.14124452       0.51745770 </v>
    <v>       0.85770726       0.28436327       0.51844272 </v>
    <v>       0.85730872       0.42740719       0.52124089 </v>
    <v>       0.85744678       0.57006961       0.52338382 </v>
    <v>       0.85931185       0.71289234       0.52418751 </v>
    <v>       0.85629633       0.85433449       0.52264972 </v>
    <v>       0.04935640       0.09463814       0.51484480 </v>
    <v>       0.04896554       0.23708580       0.51550504 </v>
    <v>       0.04796268       0.37986601       0.51817581 </v>
    <v>       0.04877558       0.52279929       0.52062138 </v>
    <v>       0.04928509       0.66571015       0.52115273 </v>
    <v>       0.04902266       0.80872694       0.51957766 </v>
    <v>       0.04902744       0.95159157       0.51685480 </v>
    <v>       0.19273269       0.09525926       0.51562654 </v>
    <v>       0.19402597       0.23920504       0.51623234 </v>
    <v>       0.19086458       0.38057642       0.51903932 </v>
    <v>       0.19222876       0.52309991       0.52168811 </v>
    <v>       0.19238094       0.66574356       0.52239250 </v>
    <v>       0.19218149       0.80878885       0.52063221 </v>
    <v>       0.19232224       0.95194515       0.51757945 </v>
    <v>       0.33547261       0.09515030       0.51777255 </v>
    <v>       0.34006719       0.23923787       0.51856461 </v>
    <v>       0.33924271       0.66819535       0.52487987 </v>
    <v>       0.33511103       0.80816925       0.52319304 </v>
    <v>       0.33485152       0.95148110       0.52021175 </v>
    <v>       0.47767862       0.09450023       0.51947926 </v>
    <v>       0.47565206       0.23899572       0.51936513 </v>
    <v>       0.47505375       0.80374007       0.52506113 </v>
    <v>       0.47746330       0.95082802       0.52222219 </v>
    <v>       0.61970564       0.09389181       0.51987943 </v>
    <v>       0.61978158       0.23796376       0.51957032 </v>
    <v>       0.61947902       0.94992316       0.52280853 </v>
    <v>       0.76261447       0.09381769       0.51916657 </v>
    <v>       0.76257583       0.23687406       0.51896188 </v>
    <v>       0.76165039       0.38007942       0.52128293 </v>
    <v>       0.76067636       0.52495222       0.52533373 </v>
    <v>       0.76404970       0.66157454       0.52915904 </v>
    <v>       0.75940055       0.80462088       0.52810776 </v>
    <v>       0.76182520       0.95023781       0.52231287 </v>
    <v>       0.90544701       0.09337587       0.51702884 </v>
    <v>       0.90545411       0.23665616       0.51711532 </v>
    <v>       0.90499805       0.37991652       0.51954960 </v>
    <v>       0.90527868       0.52267968       0.52193604 </v>
    <v>       0.90645595       0.66527090       0.52273106 </v>
    <v>       0.90547639       0.80811938       0.52195457 </v>
    <v>       0.90491722       0.95008299       0.51912187 </v>
    <v>       0.71745005       0.71078797       0.53413070 </v>
    <v>       0.33307656       0.38294128       0.52333420 </v>
    <v>       0.62917778       0.66176969       0.54569995 </v>
    <v>       0.42205586       0.43209477       0.52925931 </v>
    <v>       0.43000539       0.28346144       0.51945067 </v>
    <v>       0.42917868       0.71327261       0.52559452 </v>
    <v>       0.71706872       0.57062034       0.52923709 </v>
    <v>       0.33273111       0.52291987       0.52514387 </v>
    <v>       0.62036921       0.37952008       0.52201612 </v>
    <v>       0.62026569       0.80979270       0.52789782 </v>
    <v>       0.45906942       0.59549164       0.44774961 </v>
    <v>       0.51705097       0.55581352       0.42022646 </v>
    <v>       0.48704598       0.58582937       0.39533618 </v>
   </varray>
  </structure>
  <varray name="forces" >
   <v>      -0.00490359       0.02322729      -0.00886889 </v>
   <v>       0.03786559       0.01397521       0.00646559 </v>
   <v>       0.01879562      -0.01702189      -0.00093108 </v>
   <v>       0.00630740       0.01591831      -0.00704931 </v>
   <v>       0.00234021      -0.01562446      -0.00591312 </v>
   <v>      -0.00946525      -0.00061502       0.01465202 </v>
   <v>       0.01185105      -0.01855369      -0.00611329 </v>
   <v>       0.03881432       0.01808857       0.00652249 </v>
   <v>      -0.01494347      -0.04143903      -0.00228600 </v>
   <v>       0.00525900      -0.01218351       0.01207848 </v>
   <v>      -0.01150324      -0.00107549       0.00798916 </v>
   <v>      -0.00841421       0.00000107       0.00782551 </v>
   <v>       0.01242863      -0.00960277       0.02044038 </v>
   <v>       0.01274431       0.00848546       0.00189762 </v>
   <v>      -0.01104469      -0.04786358       0.00804154 </v>
   <v>       0.00061240      -0.01031435       0.02723291 </v>
   <v>       0.00672593       0.00169920       0.02242282 </v>
   <v>       0.02293656      -0.01579559      -0.00173562 </v>
   <v>       0.00118163       0.00639418      -0.00127264 </v>
   <v>       0.02914026      -0.01775475      -0.00516315 </v>
   <v>      -0.01225694       0.01561547      -0.00091282 </v>
   <v>      -0.01445730      -0.01775629       0.00126335 </v>
   <v>       0.00760255       0.01685861       0.01421259 </v>
   <v>       0.00830309       0.00684811      -0.03214142 </v>
   <v>       0.02210521       0.01743036      -0.01257807 </v>
   <v>       0.02461735      -0.00136394      -0.00096347 </v>
   <v>      -0.03511429      -0.00270204       0.00501007 </v>
   <v>      -0.00500075      -0.00154346      -0.00575489 </v>
   <v>       0.00488618      -0.00773074       0.00857877 </v>
   <v>      -0.01474550      -0.01157903       0.02136485 </v>
   <v>       0.00814838      -0.00810561       0.00271853 </v>
   <v>       0.00833343       0.01513652      -0.01034182 </v>
   <v>       0.00762342      -0.00124580      -0.01052416 </v>
   <v>       0.00986698      -0.01963257       0.01096628 </v>
   <v>      -0.01256550       0.01537597       0.02422903 </v>
   <v>      -0.00304378      -0.00965744       0.00131462 </v>
   <v>      -0.00790158       0.00678088      -0.03221898 </v>
   <v>      -0.00932528       0.00482804      -0.00191521 </v>
   <v>       0.01511387      -0.00069684      -0.00042853 </v>
   <v>      -0.01349009      -0.02494812      -0.00325771 </v>
   <v>      -0.01308855       0.01329922       0.05586431 </v>
   <v>      -0.00969080      -0.00358010       0.02826688 </v>
   <v>      -0.00655680      -0.02611886       0.00176331 </v>
   <v>       0.00139226       0.03970961       0.01631609 </v>
   <v>      -0.00374057      -0.00583271      -0.00983878 </v>
   <v>       0.00758714      -0.01578201      -0.00175380 </v>
   <v>      -0.01584907       0.00258117       0.02561848 </v>
   <v>      -0.01794609       0.01437533       0.01910779 </v>
   <v>      -0.00389181      -0.00075771       0.01598381 </v>
   <v>      -0.01112927       0.00241079      -0.00220240 </v>
   <v>      -0.01368885       0.01217257      -0.00070947 </v>
   <v>       0.02217523      -0.01992681      -0.00885826 </v>
   <v>       0.01324309       0.01838399      -0.01140516 </v>
   <v>      -0.00412527       0.00647104       0.01289866 </v>
   <v>      -0.03067647      -0.02349525      -0.00519211 </v>
   <v>      -0.01341481       0.00154326      -0.03050322 </v>
   <v>      -0.00749515      -0.00465303      -0.01849074 </v>
   <v>      -0.01824807       0.00252683      -0.00606922 </v>
   <v>      -0.01378469      -0.01671080      -0.01997547 </v>
   <v>       0.00322674       0.00486624       0.01782379 </v>
   <v>       0.01187523       0.03310176      -0.01560480 </v>
   <v>       0.02096401       0.01352089       0.01386240 </v>
   <v>      -0.00014227       0.00206987      -0.00143937 </v>
   <v>       0.01063692       0.01131028       0.02162839 </v>
   <v>      -0.00465857      -0.00734755       0.02358926 </v>
   <v>      -0.02389973      -0.00041412      -0.00125009 </v>
   <v>      -0.01727628       0.02386076      -0.02282387 </v>
   <v>       0.01730646      -0.00992198      -0.01282840 </v>
   <v>      -0.01461688       0.02122706       0.00914193 </v>
   <v>       0.00186752      -0.00678883      -0.01623234 </v>
   <v>       0.01833046       0.00671150      -0.01739123 </v>
   <v>      -0.00453162       0.01016549      -0.00693625 </v>
   <v>      -0.01446901      -0.00568920      -0.00851371 </v>
   <v>      -0.01134304      -0.00243853      -0.00994126 </v>
   <v>      -0.00035333       0.03218818       0.00913574 </v>
   <v>      -0.00239107       0.00566346       0.00401411 </v>
   <v>       0.02037668       0.00409058       0.00525954 </v>
   <v>      -0.00898369       0.01304571      -0.01440134 </v>
   <v>      -0.03543076      -0.01674227      -0.00021811 </v>
   <v>       0.00143006       0.00512977       0.00985396 </v>
   <v>      -0.00345031      -0.00007405      -0.01100517 </v>
   <v>       0.01665905      -0.01344595      -0.02352275 </v>
   <v>      -0.01599483      -0.01255060      -0.03339152 </v>
   <v>      -0.00112120      -0.00202408       0.01937500 </v>
   <v>       0.00426421      -0.02807242       0.00500909 </v>
   <v>       0.00469704       0.00725147      -0.02476791 </v>
   <v>      -0.01219431      -0.00455071       0.00317861 </v>
   <v>       0.01365336      -0.00032206      -0.00901316 </v>
   <v>       0.00656304       0.00463616       0.00631013 </v>
   <v>      -0.00555964       0.00784187       0.00426186 </v>
   <v>       0.02011054       0.02179478      -0.00256082 </v>
   <v>       0.00200536       0.00996525      -0.00949476 </v>
   <v>       0.00595047       0.00346749      -0.04678407 </v>
  </varray>
  <varray name="stress" >
   <v>      -8.48655141      -1.14726595      -0.01686172 </v>
   <v>      -1.14726552     -12.20998646      -0.01880195 </v>
   <v>      -0.01686138      -0.01880221      -0.26137310 </v>
  </varray>
  <energy>
   <i name="e_fr_energy">   -830.49156616 </i>
   <i name="e_wo_entrp">   -830.49137683 </i>
   <i name="e_0_energy">   -830.49147150 </i>
  </energy>
  <time name="totalsc">  792.94  800.15</time>
 </calculation>
