unknown system                          
            1
    17.271038    0.000000    0.000000
    -8.635519   14.957158    0.000000
     0.000000    0.000000   15.000000
   C    F    N    H    O 
    82     2     6     2     1
Direct configuration=     1
   0.99997561  0.99993404  0.50539306
   0.00023448  0.14297584  0.50507823
   0.00017374  0.28588198  0.50388964
   0.99982297  0.42883234  0.50289714
   0.00016912  0.57159961  0.50266372
   0.00109267  0.71461161  0.50281484
   0.00027877  0.85749712  0.50426253
   0.14380035  0.00104615  0.50575619
   0.14425546  0.14435247  0.50711563
   0.14379040  0.28642077  0.50739976
   0.14278598  0.42920615  0.50542954
   0.14384656  0.57172075  0.50392243
   0.14409888  0.71448452  0.50300912
   0.14367088  0.85772903  0.50371560
   0.28657750  0.00053423  0.50562287
   0.28732711  0.14412123  0.50930333
   0.28954209  0.28953523  0.51524010
   0.28520551  0.43278129  0.51508430
   0.28856876  0.56945387  0.50892344
   0.28747952  0.71425266  0.50485482
   0.28658758  0.85749833  0.50411967
   0.42942216  0.00040906  0.50546591
   0.42965413  0.14434488  0.50748186
   0.42945919  0.85641676  0.50519168
   0.57158778  0.99990109  0.50531472
   0.57169638  0.14356035  0.50544516
   0.57385816  0.29052861  0.50668854
   0.57363472  0.85540685  0.50640865
   0.71392870  0.99956589  0.50546508
   0.71435879  0.14308811  0.50435705
   0.71391445  0.28633608  0.50420820
   0.70941016  0.42630659  0.50556999
   0.70941208  0.85556550  0.50867089
   0.85663360  0.99941058  0.50570348
   0.85698938  0.14269590  0.50429008
   0.85692184  0.28579919  0.50326354
   0.85647308  0.42877291  0.50328853
   0.85659993  0.57139158  0.50416534
   0.85831935  0.71412109  0.50578084
   0.85539968  0.85560963  0.50640858
   0.04835898  0.09578753  0.50566729
   0.04804882  0.23828322  0.50511049
   0.04724188  0.38117711  0.50362009
   0.04820879  0.52420271  0.50290862
   0.04852712  0.66698728  0.50259774
   0.04817234  0.80992718  0.50339013
   0.04812751  0.95277015  0.50500639
   0.19173086  0.09637355  0.50759722
   0.19284665  0.24009054  0.50913402
   0.18997941  0.38162314  0.50835038
   0.19177535  0.52439391  0.50578922
   0.19186304  0.66701812  0.50383623
   0.19144465  0.81004159  0.50344872
   0.19143179  0.95312727  0.50501368
   0.33447195  0.09625067  0.50746460
   0.33883789  0.24014907  0.51289828
   0.33889683  0.66940865  0.50680908
   0.33437090  0.80941311  0.50453151
   0.33402094  0.95272506  0.50495048
   0.47681724  0.09589543  0.50611874
   0.47464009  0.24038631  0.50870884
   0.47442830  0.80524435  0.50598338
   0.47668670  0.95221416  0.50525112
   0.61895822  0.09538796  0.50495482
   0.61884612  0.23935375  0.50530029
   0.61874904  0.95146588  0.50562240
   0.76184355  0.09531838  0.50458847
   0.76175546  0.23831576  0.50379411
   0.76081575  0.38147764  0.50415301
   0.75975447  0.52625114  0.50640414
   0.76300142  0.66284480  0.51012443
   0.75855481  0.80602461  0.51018610
   0.76100930  0.95164964  0.50650369
   0.90459457  0.09474289  0.50488904
   0.90470105  0.23811658  0.50359651
   0.90424846  0.38132498  0.50292063
   0.90452340  0.52407467  0.50308388
   0.90554545  0.66657442  0.50392177
   0.90449740  0.80932868  0.50534144
   0.90406322  0.95139771  0.50551984
   0.71657454  0.71217373  0.51568838
   0.33120165  0.38316436  0.52335970
   0.62848118  0.66365981  0.52853797
   0.41832839  0.43078385  0.54184697
   0.42882100  0.28458320  0.51188707
   0.42882980  0.71480626  0.50695345
   0.71601010  0.57183817  0.51008531
   0.33221717  0.52382227  0.51475908
   0.61948675  0.38094410  0.50665116
   0.61943664  0.81118219  0.50819806
   0.48840819  0.56719832  0.43682757
   0.54162120  0.51794139  0.43365220
   0.51150304  0.54019120  0.39533618
Direct configuration=     2
   0.99997020  0.99993200  0.50537396
   0.00023869  0.14298428  0.50507899
   0.00018106  0.28588927  0.50389230
   0.99981426  0.42882942  0.50289805
   0.00017256  0.57160793  0.50265601
   0.00110631  0.71463488  0.50282682
   0.00027606  0.85749465  0.50426713
   0.14379660  0.00106082  0.50575329
   0.14425420  0.14434890  0.50712113
   0.14378925  0.28642080  0.50740109
   0.14279313  0.42921084  0.50543366
   0.14385015  0.57174260  0.50391866
   0.14409455  0.71447782  0.50301239
   0.14367150  0.85772187  0.50371554
   0.28656847  0.00051631  0.50562560
   0.28734404  0.14412237  0.50930488
   0.28954535  0.28955848  0.51523696
   0.28520000  0.43278824  0.51508005
   0.28856516  0.56945471  0.50892938
   0.28750362  0.71426213  0.50486069
   0.28658655  0.85750883  0.50411978
   0.42944269  0.00041575  0.50546020
   0.42964611  0.14437059  0.50748083
   0.42945089  0.85639432  0.50519134
   0.57156498  0.99991139  0.50530682
   0.57167472  0.14353647  0.50544684
   0.57387228  0.29052704  0.50669448
   0.57365296  0.85543897  0.50641963
   0.71391863  0.99955515  0.50547146
   0.71438182  0.14310974  0.50435561
   0.71391224  0.28634753  0.50421282
   0.70941338  0.42630708  0.50557081
   0.70939852  0.85556310  0.50867883
   0.85664476  0.99942388  0.50570416
   0.85697905  0.14270586  0.50429399
   0.85691508  0.28578929  0.50326568
   0.85649235  0.42879241  0.50328598
   0.85657956  0.57139634  0.50417212
   0.85832077  0.71411613  0.50577807
   0.85540498  0.85561640  0.50641051
   0.04836600  0.09579498  0.50566876
   0.04805268  0.23827933  0.50511165
   0.04723734  0.38116522  0.50362067
   0.04820490  0.52419725  0.50291101
   0.04853802  0.66698068  0.50259809
   0.04816794  0.80991570  0.50339170
   0.04812782  0.95277464  0.50500931
   0.19170891  0.09635054  0.50759499
   0.19283993  0.24008518  0.50913606
   0.18998725  0.38163003  0.50835400
   0.19178412  0.52438059  0.50579202
   0.19183604  0.66699283  0.50384014
   0.19143885  0.81003633  0.50344878
   0.19143258  0.95312122  0.50501469
   0.33447723  0.09626280  0.50746780
   0.33885123  0.24014972  0.51289504
   0.33889909  0.66941163  0.50680364
   0.33438409  0.80940807  0.50453662
   0.33400243  0.95270702  0.50495337
   0.47682834  0.09588432  0.50611650
   0.47463623  0.24036247  0.50870260
   0.47441355  0.80524111  0.50598939
   0.47670347  0.95224448  0.50525447
   0.61894191  0.09537860  0.50495675
   0.61885091  0.23937271  0.50530871
   0.61874349  0.95143581  0.50562651
   0.76184578  0.09532268  0.50458245
   0.76175958  0.23829992  0.50379031
   0.76080570  0.38147903  0.50415824
   0.75976759  0.52625470  0.50640533
   0.76300601  0.66284070  0.51012606
   0.75854994  0.80600835  0.51018694
   0.76099948  0.95164642  0.50650302
   0.90458993  0.09472760  0.50488407
   0.90469577  0.23811087  0.50359530
   0.90425799  0.38134010  0.50292101
   0.90452186  0.52405011  0.50309002
   0.90554802  0.66656769  0.50391491
   0.90449861  0.80932803  0.50534176
   0.90406215  0.95139089  0.50552713
   0.71657615  0.71218492  0.51569638
   0.33120051  0.38315694  0.52335700
   0.62847876  0.66365809  0.52853893
   0.41833184  0.43079098  0.54185740
   0.42881434  0.28458755  0.51188830
   0.42882869  0.71480607  0.50695355
   0.71600554  0.57184405  0.51008408
   0.33221777  0.52381678  0.51475980
   0.61948516  0.38094666  0.50665344
   0.61944784  0.81118114  0.50819635
   0.48840071  0.56720000  0.43682774
   0.54162793  0.51794185  0.43365672
   0.51150135  0.54019835  0.39533618
Direct configuration=     3
   0.99996766  0.99993105  0.50536501
   0.00024066  0.14298823  0.50507935
   0.00018449  0.28589268  0.50389354
   0.99981018  0.42882805  0.50289848
   0.00017417  0.57161183  0.50265239
   0.00111270  0.71464578  0.50283243
   0.00027479  0.85749349  0.50426929
   0.14379484  0.00106770  0.50575194
   0.14425360  0.14434723  0.50712371
   0.14378871  0.28642081  0.50740171
   0.14279648  0.42921303  0.50543559
   0.14385184  0.57175284  0.50391690
   0.14409253  0.71447468  0.50301393
   0.14367179  0.85771851  0.50371552
   0.28656425  0.00050792  0.50562689
   0.28735197  0.14412290  0.50930561
   0.28954688  0.28956938  0.51523549
   0.28519741  0.43279150  0.51507807
   0.28856348  0.56945511  0.50893216
   0.28751491  0.71426657  0.50486344
   0.28658607  0.85751374  0.50411984
   0.42945231  0.00041889  0.50545753
   0.42964236  0.14438263  0.50748035
   0.42944700  0.85638381  0.50519118
   0.57155430  0.99991621  0.50530312
   0.57166458  0.14352528  0.50544763
   0.57387889  0.29052630  0.50669726
   0.57366151  0.85545402  0.50642478
   0.71391392  0.99955012  0.50547445
   0.71439262  0.14311987  0.50435494
   0.71391120  0.28635289  0.50421498
   0.70941489  0.42630731  0.50557119
   0.70939217  0.85556197  0.50868255
   0.85664999  0.99943011  0.50570449
   0.85697421  0.14271053  0.50429582
   0.85691191  0.28578464  0.50326669
   0.85650139  0.42880156  0.50328478
   0.85657001  0.57139857  0.50417530
   0.85832143  0.71411380  0.50577677
   0.85540746  0.85561957  0.50641142
   0.04836930  0.09579846  0.50566944
   0.04805449  0.23827751  0.50511220
   0.04723522  0.38115965  0.50362095
   0.04820308  0.52419468  0.50291212
   0.04854313  0.66697759  0.50259825
   0.04816588  0.80991032  0.50339243
   0.04812797  0.95277675  0.50501068
   0.19169862  0.09633976  0.50759395
   0.19283678  0.24008266  0.50913702
   0.18999092  0.38163326  0.50835570
   0.19178823  0.52437435  0.50579333
   0.19182339  0.66698097  0.50384198
   0.19143614  0.81003387  0.50344880
   0.19143296  0.95311838  0.50501516
   0.33447970  0.09626848  0.50746929
   0.33885749  0.24015002  0.51289352
   0.33890015  0.66941303  0.50680110
   0.33439028  0.80940571  0.50453901
   0.33399376  0.95269857  0.50495473
   0.47683355  0.09587912  0.50611545
   0.47463443  0.24035130  0.50869968
   0.47440663  0.80523959  0.50599220
   0.47671132  0.95225869  0.50525603
   0.61893426  0.09537421  0.50495766
   0.61885315  0.23938160  0.50531266
   0.61874088  0.95142172  0.50562844
   0.76184683  0.09532470  0.50457963
   0.76176152  0.23829250  0.50378853
   0.76080100  0.38147969  0.50416069
   0.75977374  0.52625637  0.50640589
   0.76300816  0.66283878  0.51012682
   0.75854766  0.80600072  0.51018733
   0.76099487  0.95164492  0.50650270
   0.90458776  0.09472044  0.50488173
   0.90469329  0.23810819  0.50359473
   0.90426246  0.38134719  0.50292119
   0.90452114  0.52403860  0.50309291
   0.90554922  0.66656454  0.50391169
   0.90449917  0.80932772  0.50534190
   0.90406165  0.95138769  0.50553054
   0.71657690  0.71219017  0.51570012
   0.33119998  0.38315346  0.52335574
   0.62847763  0.66365728  0.52853938
   0.41833345  0.43079433  0.54186229
   0.42881121  0.28458959  0.51188887
   0.42882817  0.71480598  0.50695359
   0.71600340  0.57184681  0.51008350
   0.33221806  0.52381421  0.51476013
   0.61948441  0.38094785  0.50665451
   0.61945309  0.81118065  0.50819555
   0.48839720  0.56720078  0.43682782
   0.54163109  0.51794207  0.43365884
   0.51150056  0.54020170  0.39533618
Direct configuration=     4
   0.99996644  0.99993211  0.50534706
   0.00024230  0.14298907  0.50507998
   0.00018650  0.28589173  0.50389615
   0.99980869  0.42882499  0.50289980
   0.00017407  0.57160718  0.50264542
   0.00112009  0.71464574  0.50284368
   0.00027453  0.85749401  0.50427446
   0.14379036  0.00106571  0.50574902
   0.14425250  0.14434464  0.50712952
   0.14379005  0.28642033  0.50740370
   0.14279794  0.42921001  0.50544016
   0.14384895  0.57174681  0.50391395
   0.14408837  0.71446608  0.50301762
   0.14367073  0.85771237  0.50371557
   0.28655943  0.00050131  0.50563051
   0.28734954  0.14411801  0.50930681
   0.28954678  0.28957439  0.51523074
   0.28519836  0.43279600  0.51507497
   0.28856266  0.56945316  0.50893776
   0.28751520  0.71426156  0.50486934
   0.28658284  0.85750867  0.50412060
   0.42945262  0.00041957  0.50545229
   0.42964404  0.14438541  0.50747816
   0.42945061  0.85638661  0.50519220
   0.57155376  0.99991857  0.50529602
   0.57166119  0.14352323  0.50544993
   0.57388516  0.29052879  0.50670381
   0.57366541  0.85545699  0.50643655
   0.71390788  0.99954353  0.50548021
   0.71439176  0.14311905  0.50435297
   0.71391206  0.28635720  0.50422040
   0.70941663  0.42631087  0.50557308
   0.70939008  0.85555882  0.50869028
   0.85664839  0.99942918  0.50570545
   0.85696964  0.14270675  0.50429846
   0.85691553  0.28578678  0.50326816
   0.85650494  0.42880511  0.50328332
   0.85656661  0.57139224  0.50418176
   0.85832492  0.71410900  0.50577332
   0.85540800  0.85561777  0.50641416
   0.04836956  0.09580205  0.50566954
   0.04805786  0.23827974  0.50511400
   0.04723444  0.38115635  0.50362219
   0.04820222  0.52419691  0.50291320
   0.04854823  0.66698293  0.50259921
   0.04816623  0.80991067  0.50339577
   0.04812210  0.95277632  0.50501168
   0.19169938  0.09633702  0.50759250
   0.19283471  0.24008305  0.50913922
   0.18999284  0.38163619  0.50835916
   0.19179366  0.52437762  0.50579639
   0.19182659  0.66698091  0.50384642
   0.19143451  0.81002962  0.50344931
   0.19142889  0.95311433  0.50501620
   0.33447844  0.09626781  0.50747248
   0.33886293  0.24015455  0.51289077
   0.33890063  0.66941244  0.50679685
   0.33439528  0.80940477  0.50454429
   0.33399327  0.95269285  0.50495742
   0.47682659  0.09587717  0.50611281
   0.47463420  0.24035001  0.50869450
   0.47440417  0.80523822  0.50599894
   0.47670884  0.95225944  0.50525787
   0.61893334  0.09537624  0.50495863
   0.61885530  0.23938205  0.50532225
   0.61873277  0.95142045  0.50563341
   0.76184388  0.09532547  0.50457432
   0.76176391  0.23829491  0.50378513
   0.76080330  0.38148607  0.50416607
   0.75977412  0.52626022  0.50640775
   0.76300978  0.66283661  0.51012915
   0.75854678  0.80599876  0.51018887
   0.76099298  0.95164683  0.50650393
   0.90458592  0.09472273  0.50487697
   0.90469315  0.23811107  0.50359434
   0.90426338  0.38134757  0.50292153
   0.90451986  0.52404123  0.50309884
   0.90555392  0.66656715  0.50390626
   0.90450091  0.80932778  0.50534242
   0.90406137  0.95138643  0.50553622
   0.71657585  0.71219040  0.51570902
   0.33120418  0.38316044  0.52335417
   0.62847696  0.66365682  0.52854065
   0.41833320  0.43079996  0.54187353
   0.42881755  0.28459069  0.51188889
   0.42883282  0.71480795  0.50695373
   0.71600196  0.57184994  0.51008192
   0.33221899  0.52381300  0.51476067
   0.61948248  0.38094881  0.50665719
   0.61945115  0.81118257  0.50819505
   0.48838854  0.56720249  0.43682858
   0.54163377  0.51794684  0.43365831
   0.51150361  0.54020648  0.39533618
Direct configuration=     5
   0.99996338  0.99993477  0.50530222
   0.00024639  0.14299116  0.50508153
   0.00019151  0.28588936  0.50390268
   0.99980498  0.42881735  0.50290308
   0.00017384  0.57159558  0.50262799
   0.00113855  0.71464562  0.50287176
   0.00027387  0.85749530  0.50428736
   0.14377917  0.00106074  0.50574172
   0.14424973  0.14433819  0.50714401
   0.14379340  0.28641913  0.50740867
   0.14280157  0.42920246  0.50545157
   0.14384174  0.57173175  0.50390658
   0.14407798  0.71444461  0.50302683
   0.14366807  0.85769705  0.50371570
   0.28654740  0.00048479  0.50563957
   0.28734347  0.14410581  0.50930983
   0.28954654  0.28958688  0.51521889
   0.28520072  0.43280724  0.51506722
   0.28856062  0.56944829  0.50895174
   0.28751593  0.71424904  0.50488405
   0.28657480  0.85749600  0.50412251
   0.42945339  0.00042126  0.50543921
   0.42964825  0.14439234  0.50747271
   0.42945961  0.85639361  0.50519474
   0.57155242  0.99992444  0.50527829
   0.57165272  0.14351810  0.50545569
   0.57390082  0.29053500  0.50672016
   0.57367515  0.85546440  0.50646594
   0.71389280  0.99952708  0.50549459
   0.71438961  0.14311700  0.50434807
   0.71391419  0.28636796  0.50423395
   0.70942098  0.42631977  0.50557780
   0.70938485  0.85555096  0.50870959
   0.85664439  0.99942686  0.50570785
   0.85695825  0.14269731  0.50430506
   0.85692457  0.28579212  0.50327184
   0.85651380  0.42881397  0.50327966
   0.85655812  0.57137644  0.50419789
   0.85833363  0.71409702  0.50576469
   0.85540933  0.85561329  0.50642099
   0.04837023  0.09581101  0.50566979
   0.04806630  0.23828530  0.50511849
   0.04723251  0.38114809  0.50362530
   0.04820006  0.52420245  0.50291589
   0.04856097  0.66699628  0.50260160
   0.04816711  0.80991157  0.50340409
   0.04810744  0.95277525  0.50501416
   0.19170129  0.09633020  0.50758889
   0.19282955  0.24008401  0.50914471
   0.18999764  0.38164349  0.50836780
   0.19180723  0.52438579  0.50580404
   0.19183459  0.66698077  0.50385752
   0.19143044  0.81001901  0.50345057
   0.19141874  0.95310422  0.50501880
   0.33447530  0.09626614  0.50748045
   0.33887653  0.24016587  0.51288389
   0.33890182  0.66941098  0.50678624
   0.33440778  0.80940242  0.50455747
   0.33399206  0.95267856  0.50496415
   0.47680921  0.09587230  0.50610621
   0.47463362  0.24034680  0.50868157
   0.47439801  0.80523480  0.50601576
   0.47670265  0.95226133  0.50526247
   0.61893104  0.09538131  0.50496107
   0.61886067  0.23938319  0.50534620
   0.61871252  0.95141728  0.50564583
   0.76183653  0.09532739  0.50456107
   0.76176988  0.23830090  0.50377663
   0.76080905  0.38150202  0.50417949
   0.75977506  0.52626984  0.50641239
   0.76301383  0.66283118  0.51013498
   0.75854459  0.80599387  0.51019272
   0.76098824  0.95165160  0.50650702
   0.90458135  0.09472846  0.50486508
   0.90469281  0.23811824  0.50359336
   0.90426568  0.38134853  0.50292237
   0.90451665  0.52404781  0.50311366
   0.90556564  0.66657367  0.50389270
   0.90450526  0.80932792  0.50534373
   0.90406067  0.95138330  0.50555040
   0.71657320  0.71219098  0.51573123
   0.33121466  0.38317788  0.52335026
   0.62847526  0.66365566  0.52854382
   0.41833259  0.43081401  0.54190157
   0.42883339  0.28459343  0.51188893
   0.42884443  0.71481288  0.50695406
   0.71599837  0.57185776  0.51007796
   0.33222132  0.52380999  0.51476202
   0.61947767  0.38095120  0.50666388
   0.61944631  0.81118737  0.50819380
   0.48836691  0.56720676  0.43683047
   0.54164045  0.51795877  0.43365700
   0.51151121  0.54021841  0.39533618
Direct configuration=     6
   0.99996165  0.99993656  0.50528797
   0.00024615  0.14299324  0.50508185
   0.00019115  0.28588763  0.50390502
   0.99980574  0.42881655  0.50290451
   0.00017403  0.57159774  0.50262280
   0.00114148  0.71464646  0.50288085
   0.00027337  0.85749518  0.50429224
   0.14377532  0.00105673  0.50573938
   0.14425037  0.14433806  0.50714909
   0.14379509  0.28642100  0.50741109
   0.14280255  0.42920263  0.50545606
   0.14384311  0.57173041  0.50390482
   0.14408029  0.71444251  0.50303054
   0.14366692  0.85769371  0.50371603
   0.28654564  0.00048153  0.50564342
   0.28734398  0.14410654  0.50931084
   0.28954929  0.28959073  0.51521461
   0.28520287  0.43280962  0.51506512
   0.28856317  0.56944970  0.50895607
   0.28751769  0.71424758  0.50488940
   0.28657456  0.85748994  0.50412395
   0.42944921  0.00041944  0.50543507
   0.42964608  0.14439089  0.50747026
   0.42946104  0.85639578  0.50519702
   0.57155024  0.99992571  0.50527304
   0.57165027  0.14351867  0.50545835
   0.57390272  0.29053615  0.50672632
   0.57367165  0.85546367  0.50647664
   0.71388776  0.99952663  0.50549909
   0.71438800  0.14311856  0.50434572
   0.71391728  0.28637099  0.50423957
   0.70942118  0.42632430  0.50558055
   0.70938459  0.85555039  0.50871593
   0.85664287  0.99942699  0.50570884
   0.85695614  0.14269801  0.50430596
   0.85692595  0.28579406  0.50327255
   0.85651455  0.42881555  0.50327949
   0.85655879  0.57137827  0.50420358
   0.85833671  0.71409629  0.50576134
   0.85540950  0.85561127  0.50642419
   0.04836978  0.09581123  0.50566861
   0.04806825  0.23828573  0.50512077
   0.04723365  0.38114753  0.50362717
   0.04819855  0.52419916  0.50291555
   0.04856136  0.66699214  0.50260309
   0.04816809  0.80991152  0.50340867
   0.04810430  0.95277537  0.50501323
   0.19170035  0.09632831  0.50758798
   0.19282968  0.24008351  0.50914690
   0.18999843  0.38164314  0.50837086
   0.19180697  0.52438393  0.50580729
   0.19183496  0.66697617  0.50386170
   0.19142825  0.81001237  0.50345154
   0.19141430  0.95309977  0.50501975
   0.33447335  0.09626190  0.50748330
   0.33887837  0.24016800  0.51288131
   0.33890372  0.66940851  0.50678389
   0.33440856  0.80940020  0.50456239
   0.33399043  0.95267474  0.50496623
   0.47680661  0.09587295  0.50610332
   0.47463834  0.24034853  0.50867773
   0.47440108  0.80523604  0.50602229
   0.47670271  0.95226242  0.50526271
   0.61893038  0.09538283  0.50496105
   0.61886221  0.23938235  0.50535577
   0.61870948  0.95141871  0.50565122
   0.76183180  0.09532285  0.50455716
   0.76177093  0.23830389  0.50377421
   0.76081195  0.38150685  0.50418452
   0.75977310  0.52627051  0.50641433
   0.76301526  0.66283214  0.51013741
   0.75854372  0.80599315  0.51019558
   0.76098589  0.95164928  0.50651010
   0.90458063  0.09472883  0.50486141
   0.90469348  0.23811750  0.50359377
   0.90426676  0.38134943  0.50292267
   0.90451770  0.52404859  0.50311842
   0.90556953  0.66657075  0.50388946
   0.90450545  0.80932538  0.50534450
   0.90405914  0.95138272  0.50555362
   0.71657413  0.71218975  0.51573906
   0.33121649  0.38318318  0.52334851
   0.62847439  0.66365508  0.52854577
   0.41833292  0.43081994  0.54191290
   0.42883692  0.28459478  0.51188837
   0.42884599  0.71481292  0.50695428
   0.71599716  0.57185914  0.51007669
   0.33222303  0.52381160  0.51476254
   0.61947835  0.38095298  0.50666665
   0.61944595  0.81118841  0.50819517
   0.48835977  0.56720617  0.43682829
   0.54164311  0.51796418  0.43365688
   0.51151220  0.54022551  0.39533618
Direct configuration=     7
   0.99995646  0.99994195  0.50524521
   0.00024542  0.14299949  0.50508282
   0.00019006  0.28588245  0.50391204
   0.99980801  0.42881412  0.50290878
   0.00017462  0.57160422  0.50260722
   0.00115028  0.71464901  0.50290814
   0.00027188  0.85749482  0.50430689
   0.14376379  0.00104472  0.50573235
   0.14425230  0.14433768  0.50716434
   0.14380014  0.28642664  0.50741834
   0.14280550  0.42920316  0.50546951
   0.14384722  0.57172637  0.50389955
   0.14408721  0.71443623  0.50304165
   0.14366348  0.85768369  0.50371704
   0.28654037  0.00047176  0.50565498
   0.28734551  0.14410875  0.50931385
   0.28955755  0.28960226  0.51520177
   0.28520931  0.43281676  0.51505880
   0.28857083  0.56945396  0.50896906
   0.28752299  0.71424320  0.50490546
   0.28657382  0.85747179  0.50412825
   0.42943667  0.00041398  0.50542266
   0.42963954  0.14438655  0.50746291
   0.42946530  0.85640229  0.50520388
   0.57154370  0.99992952  0.50525730
   0.57164293  0.14352039  0.50546636
   0.57390843  0.29053960  0.50674478
   0.57366117  0.85546147  0.50650876
   0.71387266  0.99952528  0.50551258
   0.71438315  0.14312325  0.50433867
   0.71392654  0.28638006  0.50425645
   0.70942177  0.42633789  0.50558881
   0.70938384  0.85554866  0.50873494
   0.85663831  0.99942739  0.50571181
   0.85694978  0.14270012  0.50430866
   0.85693009  0.28579986  0.50327467
   0.85651681  0.42882028  0.50327899
   0.85656077  0.57138375  0.50422065
   0.85834597  0.71409410  0.50575129
   0.85540999  0.85560521  0.50643376
   0.04836841  0.09581189  0.50566506
   0.04807412  0.23828705  0.50512763
   0.04723707  0.38114586  0.50363277
   0.04819402  0.52418930  0.50291450
   0.04856252  0.66697973  0.50260754
   0.04817101  0.80991139  0.50342241
   0.04809489  0.95277574  0.50501041
   0.19169751  0.09632265  0.50758526
   0.19283009  0.24008204  0.50915346
   0.19000081  0.38164210  0.50838004
   0.19180619  0.52437835  0.50581703
   0.19183607  0.66696239  0.50387426
   0.19142169  0.80999245  0.50345443
   0.19140100  0.95308641  0.50502260
   0.33446752  0.09624920  0.50749185
   0.33888388  0.24017438  0.51287358
   0.33890939  0.66940110  0.50677682
   0.33441089  0.80939353  0.50457716
   0.33398554  0.95266327  0.50497247
   0.47679882  0.09587490  0.50609465
   0.47465251  0.24035373  0.50866622
   0.47441031  0.80523975  0.50604188
   0.47670291  0.95226570  0.50526344
   0.61892837  0.09538740  0.50496098
   0.61886684  0.23937985  0.50538445
   0.61870038  0.95142300  0.50566739
   0.76181762  0.09530924  0.50454541
   0.76177410  0.23831284  0.50376696
   0.76082062  0.38152133  0.50419964
   0.75976720  0.52627255  0.50642016
   0.76301955  0.66283501  0.51014472
   0.75854111  0.80599100  0.51020416
   0.76097882  0.95164230  0.50651934
   0.90457846  0.09472994  0.50485039
   0.90469549  0.23811530  0.50359502
   0.90426999  0.38135212  0.50292355
   0.90452085  0.52405093  0.50313273
   0.90558120  0.66656200  0.50387977
   0.90450604  0.80931779  0.50534681
   0.90405456  0.95138097  0.50556329
   0.71657690  0.71218606  0.51576257
   0.33122196  0.38319909  0.52334326
   0.62847179  0.66365333  0.52855162
   0.41833391  0.43083771  0.54194687
   0.42884750  0.28459882  0.51188667
   0.42885064  0.71481303  0.50695494
   0.71599353  0.57186329  0.51007288
   0.33222815  0.52381640  0.51476411
   0.61948041  0.38095830  0.50667496
   0.61944488  0.81119153  0.50819928
   0.48833835  0.56720440  0.43682174
   0.54165109  0.51798039  0.43365650
   0.51151520  0.54024682  0.39533618
Direct configuration=     8
   0.99995413  0.99994436  0.50522607
   0.00024510  0.14300228  0.50508326
   0.00018958  0.28588013  0.50391518
   0.99980903  0.42881304  0.50291069
   0.00017488  0.57160712  0.50260024
   0.00115422  0.71465015  0.50292035
   0.00027121  0.85749465  0.50431345
   0.14375863  0.00103934  0.50572921
   0.14425316  0.14433751  0.50717116
   0.14380240  0.28642917  0.50742159
   0.14280682  0.42920339  0.50547554
   0.14384906  0.57172456  0.50389719
   0.14409031  0.71443342  0.50304662
   0.14366194  0.85767920  0.50371749
   0.28653802  0.00046739  0.50566016
   0.28734619  0.14410974  0.50931520
   0.28956125  0.28960742  0.51519602
   0.28521219  0.43281995  0.51505598
   0.28857426  0.56945587  0.50897488
   0.28752537  0.71424124  0.50491264
   0.28657348  0.85746366  0.50413017
   0.42943105  0.00041153  0.50541710
   0.42963662  0.14438460  0.50745961
   0.42946721  0.85640520  0.50520695
   0.57154077  0.99993123  0.50525026
   0.57163965  0.14352116  0.50546994
   0.57391098  0.29054114  0.50675305
   0.57365647  0.85546049  0.50652313
   0.71386590  0.99952467  0.50551862
   0.71438098  0.14312535  0.50433552
   0.71393069  0.28638412  0.50426400
   0.70942204  0.42634398  0.50559251
   0.70938350  0.85554789  0.50874345
   0.85663627  0.99942757  0.50571314
   0.85694693  0.14270107  0.50430986
   0.85693195  0.28580245  0.50327562
   0.85651781  0.42882239  0.50327877
   0.85656166  0.57138620  0.50422829
   0.85835012  0.71409312  0.50574680
   0.85541021  0.85560250  0.50643805
   0.04836780  0.09581219  0.50566347
   0.04807675  0.23828764  0.50513070
   0.04723860  0.38114511  0.50363528
   0.04819199  0.52418489  0.50291404
   0.04856304  0.66697417  0.50260954
   0.04817232  0.80991133  0.50342856
   0.04809067  0.95277590  0.50500915
   0.19169624  0.09632012  0.50758404
   0.19283027  0.24008138  0.50915640
   0.19000187  0.38164163  0.50838415
   0.19180585  0.52437585  0.50582140
   0.19183656  0.66695622  0.50387989
   0.19141876  0.80998353  0.50345573
   0.19139504  0.95308043  0.50502387
   0.33446491  0.09624351  0.50749568
   0.33888635  0.24017724  0.51287012
   0.33891193  0.66939779  0.50677365
   0.33441193  0.80939054  0.50458376
   0.33398336  0.95265814  0.50497527
   0.47679533  0.09587577  0.50609077
   0.47465886  0.24035605  0.50866107
   0.47441444  0.80524141  0.50605064
   0.47670300  0.95226716  0.50526376
   0.61892748  0.09538944  0.50496094
   0.61886891  0.23937872  0.50539729
   0.61869630  0.95142492  0.50567463
   0.76181127  0.09530314  0.50454016
   0.76177552  0.23831685  0.50376371
   0.76082451  0.38152782  0.50420641
   0.75976456  0.52627346  0.50642277
   0.76302147  0.66283629  0.51014798
   0.75853994  0.80599003  0.51020800
   0.76097566  0.95163918  0.50652348
   0.90457749  0.09473044  0.50484545
   0.90469639  0.23811431  0.50359557
   0.90427144  0.38135333  0.50292395
   0.90452225  0.52405198  0.50313913
   0.90558642  0.66655808  0.50387543
   0.90450630  0.80931439  0.50534784
   0.90405251  0.95138019  0.50556762
   0.71657814  0.71218441  0.51577309
   0.33122441  0.38320621  0.52334091
   0.62847062  0.66365255  0.52855424
   0.41833436  0.43084567  0.54196207
   0.42885224  0.28460063  0.51188591
   0.42885273  0.71481308  0.50695524
   0.71599190  0.57186514  0.51007118
   0.33223044  0.52381855  0.51476481
   0.61948133  0.38096068  0.50667868
   0.61944440  0.81119292  0.50820112
   0.48832876  0.56720361  0.43681880
   0.54165467  0.51798764  0.43365634
   0.51151654  0.54025635  0.39533618
Direct configuration=     9
   0.99995140  0.99994378  0.50522488
   0.00024344  0.14300144  0.50508232
   0.00019022  0.28588123  0.50391693
   0.99981171  0.42881450  0.50291178
   0.00017458  0.57160549  0.50260144
   0.00115125  0.71464620  0.50292178
   0.00027129  0.85749348  0.50431634
   0.14375897  0.00103783  0.50572873
   0.14425349  0.14433862  0.50717235
   0.14380337  0.28642929  0.50742518
   0.14280574  0.42920423  0.50547939
   0.14384866  0.57172256  0.50389943
   0.14409373  0.71443106  0.50304991
   0.14366223  0.85767878  0.50371918
   0.28653595  0.00046544  0.50566382
   0.28734801  0.14411301  0.50931499
   0.28956603  0.28960806  0.51519366
   0.28521274  0.43281856  0.51505643
   0.28857626  0.56945669  0.50897467
   0.28752688  0.71423980  0.50491595
   0.28657378  0.85746115  0.50413347
   0.42942828  0.00041050  0.50541632
   0.42963339  0.14438154  0.50745678
   0.42946632  0.85640186  0.50521294
   0.57154030  0.99993288  0.50525150
   0.57164147  0.14352420  0.50547305
   0.57391035  0.29054059  0.50675714
   0.57365327  0.85545964  0.50652927
   0.71386683  0.99952623  0.50551954
   0.71438020  0.14312758  0.50433228
   0.71393321  0.28638568  0.50426992
   0.70942123  0.42634444  0.50559755