  98  98   0   0
  0.3953964E+02  0.1727104E-08  0.1727104E-08  0.1500000E-08  0.0000000E+00
  1.000000000000000E-004
  CAR 
 unknown system                          
      5.90960276    -25.62004050  301     -2.40495627      1.00000000
    -25.620  0.0000E+00  0.0000E+00  0.0000E+00  0.0000E+00
    -25.515  0.0000E+00  0.0000E+00  0.0000E+00  0.0000E+00
    -25.410  0.0000E+00  0.0000E+00  0.0000E+00  0.0000E+00
    -25.305  0.0000E+00  0.0000E+00  0.0000E+00  0.0000E+00
    -25.200  0.0000E+00  0.0000E+00  0.0000E+00  0.0000E+00
    -25.095  0.0000E+00  0.0000E+00  0.0000E+00  0.0000E+00
    -24.989  0.0000E+00  0.0000E+00  0.0000E+00  0.0000E+00
    -24.884  0.0000E+00  0.0000E+00  0.0000E+00  0.0000E+00
    -24.779  0.0000E+00  0.0000E+00  0.0000E+00  0.0000E+00
    -24.674  0.0000E+00  0.0000E+00  0.0000E+00  0.0000E+00
    -24.569  0.0000E+00  0.0000E+00  0.0000E+00  0.0000E+00
    -24.464  0.2179E-16  0.2179E-16  0.2290E-17  0.2290E-17
    -24.359  0.5451E-08  0.5451E-08  0.5729E-09  0.5729E-09
    -24.254  0.2782E-03  0.2782E-03  0.2924E-04  0.2924E-04
    -24.149  0.7905E-02  0.7905E-02  0.8600E-03  0.8600E-03
    -24.044  0.1331E-02  0.1331E-02  0.1000E-02  0.1000E-02
    -23.938  0.2404E-06  0.2404E-06  0.1000E-02  0.1000E-02
    -23.833  0.1013E-13  0.1013E-13  0.1000E-02  0.1000E-02
    -23.728  0.0000E+00  0.0000E+00  0.1000E-02  0.1000E-02
    -23.623  0.0000E+00  0.0000E+00  0.1000E-02  0.1000E-02
    -23.518  0.0000E+00  0.0000E+00  0.1000E-02  0.1000E-02
    -23.413  0.0000E+00  0.0000E+00  0.1000E-02  0.1000E-02
    -23.308  0.0000E+00  0.0000E+00  0.1000E-02  0.1000E-02
    -23.203  0.0000E+00  0.0000E+00  0.1000E-02  0.1000E-02
    -23.098  0.0000E+00  0.0000E+00  0.1000E-02  0.1000E-02
    -22.993  0.0000E+00  0.0000E+00  0.1000E-02  0.1000E-02
    -22.887  0.0000E+00  0.0000E+00  0.1000E-02  0.1000E-02
    -22.782  0.0000E+00  0.0000E+00  0.1000E-02  0.1000E-02
    -22.677  0.0000E+00  0.0000E+00  0.1000E-02  0.1000E-02
    -22.572  0.0000E+00  0.0000E+00  0.1000E-02  0.1000E-02
    -22.467  0.2393E-11  0.2393E-11  0.1000E-02  0.1000E-02
    -22.362  0.5562E-05  0.5562E-05  0.1001E-02  0.1001E-02
    -22.257  0.3723E-02  0.3723E-02  0.1392E-02  0.1392E-02
    -22.152  0.5753E-02  0.5753E-02  0.1997E-02  0.1997E-02
    -22.047  0.3323E-04  0.3323E-04  0.2000E-02  0.2000E-02
    -21.942  0.6830E-10  0.6830E-10  0.2000E-02  0.2000E-02
    -21.836  0.7759E-06  0.7759E-06  0.2000E-02  0.2000E-02
    -21.731  0.1371E-02  0.1371E-02  0.2144E-02  0.2144E-02
    -21.626  0.8483E-02  0.8483E-02  0.3036E-02  0.3036E-02
    -21.521  0.6352E-02  0.6352E-02  0.3703E-02  0.3703E-02
    -21.416  0.2585E-02  0.2585E-02  0.3975E-02  0.3975E-02
    -21.311  0.9720E-02  0.9720E-02  0.4997E-02  0.4997E-02
    -21.206  0.6093E-02  0.6093E-02  0.5637E-02  0.5637E-02
    -21.101  0.5042E-02  0.5042E-02  0.6167E-02  0.6167E-02
    -20.996  0.1532E-02  0.1532E-02  0.6328E-02  0.6328E-02
    -20.891  0.1218E-01  0.1218E-01  0.7608E-02  0.7608E-02
    -20.785  0.1059E-01  0.1059E-01  0.8721E-02  0.8721E-02
    -20.680  0.3069E-02  0.3069E-02  0.9044E-02  0.9044E-02
    -20.575  0.6086E-02  0.6086E-02  0.9684E-02  0.9684E-02
    -20.470  0.1375E-02  0.1375E-02  0.9828E-02  0.9828E-02
    -20.365  0.7655E-02  0.7655E-02  0.1063E-01  0.1063E-01
    -20.260  0.1362E-01  0.1362E-01  0.1206E-01  0.1206E-01
    -20.155  0.9011E-02  0.9011E-02  0.1301E-01  0.1301E-01
    -20.050  0.4310E-02  0.4310E-02  0.1346E-01  0.1346E-01
    -19.945  0.4938E-02  0.4938E-02  0.1398E-01  0.1398E-01
    -19.840  0.3187E-02  0.3187E-02  0.1432E-01  0.1432E-01
    -19.735  0.6311E-02  0.6311E-02  0.1498E-01  0.1498E-01
    -19.629  0.7194E-02  0.7194E-02  0.1574E-01  0.1574E-01
    -19.524  0.7854E-02  0.7854E-02  0.1656E-01  0.1656E-01
    -19.419  0.1407E-01  0.1407E-01  0.1804E-01  0.1804E-01
    -19.314  0.7847E-02  0.7847E-02  0.1887E-01  0.1887E-01
    -19.209  0.4255E-02  0.4255E-02  0.1931E-01  0.1931E-01
    -19.104  0.4420E-02  0.4420E-02  0.1978E-01  0.1978E-01
    -18.999  0.6376E-02  0.6376E-02  0.2045E-01  0.2045E-01
    -18.894  0.6954E-02  0.6954E-02  0.2118E-01  0.2118E-01
    -18.789  0.5795E-02  0.5795E-02  0.2179E-01  0.2179E-01
    -18.684  0.4279E-02  0.4279E-02  0.2224E-01  0.2224E-01
    -18.578  0.7809E-02  0.7809E-02  0.2306E-01  0.2306E-01
    -18.473  0.1729E-01  0.1729E-01  0.2488E-01  0.2488E-01
    -18.368  0.4674E-02  0.4674E-02  0.2537E-01  0.2537E-01
    -18.263  0.6543E-02  0.6543E-02  0.2606E-01  0.2606E-01
    -18.158  0.6848E-02  0.6848E-02  0.2677E-01  0.2677E-01
    -18.053  0.7360E-02  0.7360E-02  0.2755E-01  0.2755E-01
    -17.948  0.8381E-02  0.8381E-02  0.2843E-01  0.2843E-01
    -17.843  0.4428E-02  0.4428E-02  0.2889E-01  0.2889E-01
    -17.738  0.5457E-02  0.5457E-02  0.2947E-01  0.2947E-01
    -17.633  0.2546E-02  0.2546E-02  0.2974E-01  0.2974E-01
    -17.527  0.8269E-02  0.8269E-02  0.3060E-01  0.3060E-01
    -17.422  0.1491E-01  0.1491E-01  0.3217E-01  0.3217E-01
    -17.317  0.1016E-01  0.1016E-01  0.3324E-01  0.3324E-01
    -17.212  0.1001E-01  0.1001E-01  0.3429E-01  0.3429E-01
    -17.107  0.1169E-01  0.1169E-01  0.3552E-01  0.3552E-01
    -17.002  0.4181E-02  0.4181E-02  0.3596E-01  0.3596E-01
    -16.897  0.7208E-02  0.7208E-02  0.3672E-01  0.3672E-01
    -16.792  0.9095E-02  0.9095E-02  0.3767E-01  0.3767E-01
    -16.687  0.4565E-02  0.4565E-02  0.3815E-01  0.3815E-01
    -16.582  0.2598E-02  0.2598E-02  0.3843E-01  0.3843E-01
    -16.476  0.7137E-02  0.7137E-02  0.3918E-01  0.3918E-01
    -16.371  0.1256E-01  0.1256E-01  0.4050E-01  0.4050E-01
    -16.266  0.1580E-01  0.1580E-01  0.4216E-01  0.4216E-01
    -16.161  0.5069E-02  0.5069E-02  0.4269E-01  0.4269E-01
    -16.056  0.2854E-02  0.2854E-02  0.4299E-01  0.4299E-01
    -15.951  0.1050E-02  0.1050E-02  0.4310E-01  0.4310E-01
    -15.846  0.4610E-02  0.4610E-02  0.4358E-01  0.4358E-01
    -15.741  0.4176E-02  0.4176E-02  0.4402E-01  0.4402E-01
    -15.636  0.2346E-02  0.2346E-02  0.4427E-01  0.4427E-01
    -15.531  0.2280E-02  0.2280E-02  0.4451E-01  0.4451E-01
    -15.425  0.6770E-02  0.6770E-02  0.4522E-01  0.4522E-01
    -15.320  0.7217E-02  0.7217E-02  0.4598E-01  0.4598E-01
    -15.215  0.7775E-02  0.7775E-02  0.4680E-01  0.4680E-01
    -15.110  0.6562E-02  0.6562E-02  0.4749E-01  0.4749E-01
    -15.005  0.7147E-02  0.7147E-02  0.4824E-01  0.4824E-01
    -14.900  0.1174E-01  0.1174E-01  0.4947E-01  0.4947E-01
    -14.795  0.1353E-01  0.1353E-01  0.5089E-01  0.5089E-01
    -14.690  0.2882E-02  0.2882E-02  0.5120E-01  0.5120E-01
    -14.585  0.8531E-02  0.8531E-02  0.5209E-01  0.5209E-01
    -14.480  0.1143E-01  0.1143E-01  0.5329E-01  0.5329E-01
    -14.374  0.8545E-02  0.8545E-02  0.5419E-01  0.5419E-01
    -14.269  0.6539E-02  0.6539E-02  0.5488E-01  0.5488E-01
    -14.164  0.1151E-01  0.1151E-01  0.5609E-01  0.5609E-01
    -14.059  0.1002E-01  0.1002E-01  0.5714E-01  0.5714E-01
    -13.954  0.6615E-02  0.6615E-02  0.5784E-01  0.5784E-01
    -13.849  0.6827E-02  0.6827E-02  0.5856E-01  0.5856E-01
    -13.744  0.3030E-02  0.3030E-02  0.5887E-01  0.5887E-01
    -13.639  0.5346E-02  0.5346E-02  0.5944E-01  0.5944E-01
    -13.534  0.6661E-02  0.6661E-02  0.6014E-01  0.6014E-01
    -13.429  0.1038E-01  0.1038E-01  0.6123E-01  0.6123E-01
    -13.323  0.7657E-02  0.7657E-02  0.6203E-01  0.6203E-01
    -13.218  0.9226E-02  0.9226E-02  0.6300E-01  0.6300E-01
    -13.113  0.5058E-02  0.5058E-02  0.6353E-01  0.6353E-01
    -13.008  0.7025E-02  0.7025E-02  0.6427E-01  0.6427E-01
    -12.903  0.2184E-02  0.2184E-02  0.6450E-01  0.6450E-01
    -12.798  0.3529E-02  0.3529E-02  0.6487E-01  0.6487E-01
    -12.693  0.8834E-02  0.8834E-02  0.6580E-01  0.6580E-01
    -12.588  0.6934E-02  0.6934E-02  0.6653E-01  0.6653E-01
    -12.483  0.1182E-01  0.1182E-01  0.6777E-01  0.6777E-01
    -12.378  0.1479E-01  0.1479E-01  0.6933E-01  0.6933E-01
    -12.272  0.1139E-01  0.1139E-01  0.7052E-01  0.7052E-01
    -12.167  0.8438E-02  0.8438E-02  0.7141E-01  0.7141E-01
    -12.062  0.8665E-02  0.8665E-02  0.7232E-01  0.7232E-01
    -11.957  0.5772E-02  0.5772E-02  0.7293E-01  0.7293E-01
    -11.852  0.8106E-02  0.8106E-02  0.7378E-01  0.7378E-01
    -11.747  0.7290E-02  0.7290E-02  0.7454E-01  0.7454E-01
    -11.642  0.7385E-02  0.7385E-02  0.7532E-01  0.7532E-01
    -11.537  0.7654E-02  0.7654E-02  0.7613E-01  0.7613E-01
    -11.432  0.1249E-01  0.1249E-01  0.7744E-01  0.7744E-01
    -11.327  0.1120E-01  0.1120E-01  0.7861E-01  0.7861E-01
    -11.222  0.1148E-01  0.1148E-01  0.7982E-01  0.7982E-01
    -11.116  0.1124E-01  0.1124E-01  0.8100E-01  0.8100E-01
    -11.011  0.8720E-02  0.8720E-02  0.8192E-01  0.8192E-01
    -10.906  0.9017E-02  0.9017E-02  0.8287E-01  0.8287E-01
    -10.801  0.1217E-01  0.1217E-01  0.8415E-01  0.8415E-01
    -10.696  0.1183E-01  0.1183E-01  0.8539E-01  0.8539E-01
    -10.591  0.5276E-02  0.5276E-02  0.8594E-01  0.8594E-01
    -10.486  0.7792E-02  0.7792E-02  0.8676E-01  0.8676E-01
    -10.381  0.3150E-02  0.3150E-02  0.8709E-01  0.8709E-01
    -10.276  0.3122E-02  0.3122E-02  0.8742E-01  0.8742E-01
    -10.171  0.9421E-02  0.9421E-02  0.8841E-01  0.8841E-01
    -10.065  0.1948E-01  0.1948E-01  0.9046E-01  0.9046E-01
     -9.960  0.1668E-01  0.1668E-01  0.9221E-01  0.9221E-01
     -9.855  0.1443E-01  0.1443E-01  0.9373E-01  0.9373E-01
     -9.750  0.2046E-01  0.2046E-01  0.9588E-01  0.9588E-01
     -9.645  0.1720E-01  0.1720E-01  0.9769E-01  0.9769E-01
     -9.540  0.1320E-01  0.1320E-01  0.9907E-01  0.9907E-01
     -9.435  0.1487E-01  0.1487E-01  0.1006E+00  0.1006E+00
     -9.330  0.1897E-01  0.1897E-01  0.1026E+00  0.1026E+00
     -9.225  0.1538E-01  0.1538E-01  0.1042E+00  0.1042E+00
     -9.120  0.1675E-01  0.1675E-01  0.1060E+00  0.1060E+00
     -9.014  0.1679E-01  0.1679E-01  0.1078E+00  0.1078E+00
     -8.909  0.2654E-01  0.2654E-01  0.1106E+00  0.1106E+00
     -8.804  0.3180E-01  0.3180E-01  0.1139E+00  0.1139E+00
     -8.699  0.2567E-01  0.2567E-01  0.1166E+00  0.1166E+00
     -8.594  0.1643E-01  0.1643E-01  0.1183E+00  0.1183E+00
     -8.489  0.2071E-01  0.2071E-01  0.1205E+00  0.1205E+00
     -8.384  0.1924E-01  0.1924E-01  0.1225E+00  0.1225E+00
     -8.279  0.1642E-01  0.1642E-01  0.1243E+00  0.1243E+00
     -8.174  0.2289E-01  0.2289E-01  0.1267E+00  0.1267E+00
     -8.069  0.2599E-01  0.2599E-01  0.1294E+00  0.1294E+00
     -7.963  0.1844E-01  0.1844E-01  0.1313E+00  0.1313E+00
     -7.858  0.1563E-01  0.1563E-01  0.1330E+00  0.1330E+00
     -7.753  0.1485E-01  0.1485E-01  0.1345E+00  0.1345E+00
     -7.648  0.2025E-01  0.2025E-01  0.1367E+00  0.1367E+00
     -7.543  0.1378E-01  0.1378E-01  0.1381E+00  0.1381E+00
     -7.438  0.7894E-02  0.7894E-02  0.1389E+00  0.1389E+00
     -7.333  0.5808E-02  0.5808E-02  0.1396E+00  0.1396E+00
     -7.228  0.2316E-01  0.2316E-01  0.1420E+00  0.1420E+00
     -7.123  0.2332E-01  0.2332E-01  0.1444E+00  0.1444E+00
     -7.018  0.1803E-01  0.1803E-01  0.1463E+00  0.1463E+00
     -6.912  0.1572E-01  0.1572E-01  0.1480E+00  0.1480E+00
     -6.807  0.1042E-01  0.1042E-01  0.1491E+00  0.1491E+00
     -6.702  0.1172E-01  0.1172E-01  0.1503E+00  0.1503E+00
     -6.597  0.1116E-01  0.1116E-01  0.1515E+00  0.1515E+00
     -6.492  0.1049E-01  0.1049E-01  0.1526E+00  0.1526E+00
     -6.387  0.1130E-01  0.1130E-01  0.1538E+00  0.1538E+00
     -6.282  0.1404E-01  0.1404E-01  0.1552E+00  0.1552E+00
     -6.177  0.1309E-01  0.1309E-01  0.1566E+00  0.1566E+00
     -6.072  0.2500E-01  0.2500E-01  0.1593E+00  0.1593E+00
     -5.967  0.1526E-01  0.1526E-01  0.1609E+00  0.1609E+00
     -5.861  0.1340E-01  0.1340E-01  0.1623E+00  0.1623E+00
     -5.756  0.1209E-01  0.1209E-01  0.1635E+00  0.1635E+00
     -5.651  0.1657E-01  0.1657E-01  0.1653E+00  0.1653E+00
     -5.546  0.1113E-01  0.1113E-01  0.1664E+00  0.1664E+00
     -5.441  0.6894E-02  0.6894E-02  0.1672E+00  0.1672E+00
     -5.336  0.4853E-02  0.4853E-02  0.1677E+00  0.1677E+00
     -5.231  0.2126E-02  0.2126E-02  0.1679E+00  0.1679E+00
     -5.126  0.2298E-02  0.2298E-02  0.1681E+00  0.1681E+00
     -5.021  0.1414E-01  0.1414E-01  0.1696E+00  0.1696E+00
     -4.916  0.2219E-01  0.2219E-01  0.1720E+00  0.1720E+00
     -4.810  0.1565E-01  0.1565E-01  0.1736E+00  0.1736E+00
     -4.705  0.1377E-01  0.1377E-01  0.1751E+00  0.1751E+00
     -4.600  0.4875E-02  0.4875E-02  0.1756E+00  0.1756E+00
     -4.495  0.1337E-01  0.1337E-01  0.1770E+00  0.1770E+00
     -4.390  0.2644E-02  0.2644E-02  0.1772E+00  0.1772E+00
     -4.285  0.1925E-02  0.1925E-02  0.1775E+00  0.1775E+00
     -4.180  0.9113E-02  0.9113E-02  0.1784E+00  0.1784E+00
     -4.075  0.7073E-02  0.7073E-02  0.1792E+00  0.1792E+00
     -3.970  0.7498E-02  0.7498E-02  0.1799E+00  0.1799E+00
     -3.865  0.9533E-02  0.9533E-02  0.1809E+00  0.1809E+00
     -3.759  0.5353E-02  0.5353E-02  0.1815E+00  0.1815E+00
     -3.654  0.4399E-02  0.4399E-02  0.1820E+00  0.1820E+00
     -3.549  0.3025E-03  0.3025E-03  0.1820E+00  0.1820E+00
     -3.444  0.5010E-04  0.5010E-04  0.1820E+00  0.1820E+00
     -3.339  0.1955E-02  0.1955E-02  0.1822E+00  0.1822E+00
     -3.234  0.5090E-02  0.5090E-02  0.1827E+00  0.1827E+00
     -3.129  0.4329E-02  0.4329E-02  0.1832E+00  0.1832E+00
     -3.024  0.2122E-02  0.2122E-02  0.1834E+00  0.1834E+00
     -2.919  0.7261E-03  0.7261E-03  0.1835E+00  0.1835E+00
     -2.814  0.5931E-06  0.5931E-06  0.1835E+00  0.1835E+00
     -2.708  0.2164E-04  0.2164E-04  0.1835E+00  0.1835E+00
     -2.603  0.2168E-02  0.2168E-02  0.1837E+00  0.1837E+00
     -2.498  0.2525E-02  0.2525E-02  0.1840E+00  0.1840E+00
     -2.393  0.4266E-04  0.4266E-04  0.1840E+00  0.1840E+00
     -2.288  0.2104E-03  0.2104E-03  0.1840E+00  0.1840E+00
     -2.183  0.3870E-02  0.3870E-02  0.1844E+00  0.1844E+00
     -2.078  0.6772E-03  0.6772E-03  0.1845E+00  0.1845E+00
     -1.973  0.2475E-06  0.2475E-06  0.1845E+00  0.1845E+00
     -1.868  0.2142E-03  0.2142E-03  0.1845E+00  0.1845E+00
     -1.763  0.2703E-02  0.2703E-02  0.1848E+00  0.1848E+00
     -1.658  0.2645E-02  0.2645E-02  0.1851E+00  0.1851E+00
     -1.552  0.6334E-02  0.6334E-02  0.1858E+00  0.1858E+00
     -1.447  0.2366E-02  0.2366E-02  0.1860E+00  0.1860E+00
     -1.342  0.4372E-03  0.4372E-03  0.1860E+00  0.1860E+00
     -1.237  0.5170E-02  0.5170E-02  0.1866E+00  0.1866E+00
     -1.132  0.6402E-02  0.6402E-02  0.1873E+00  0.1873E+00
     -1.027  0.2282E-02  0.2282E-02  0.1875E+00  0.1875E+00
     -0.922  0.2906E-02  0.2906E-02  0.1878E+00  0.1878E+00
     -0.817  0.1321E-01  0.1321E-01  0.1892E+00  0.1892E+00
     -0.712  0.1485E-01  0.1485E-01  0.1908E+00  0.1908E+00
     -0.607  0.5184E-02  0.5184E-02  0.1913E+00  0.1913E+00
     -0.501  0.1027E-01  0.1027E-01  0.1924E+00  0.1924E+00
     -0.396  0.1002E-01  0.1002E-01  0.1934E+00  0.1934E+00
     -0.291  0.6386E-02  0.6386E-02  0.1941E+00  0.1941E+00
     -0.186  0.2331E-02  0.2331E-02  0.1943E+00  0.1943E+00
     -0.081  0.1027E-01  0.1027E-01  0.1954E+00  0.1954E+00
      0.024  0.8754E-02  0.8754E-02  0.1963E+00  0.1963E+00
      0.129  0.1072E-01  0.1072E-01  0.1975E+00  0.1975E+00
      0.234  0.1121E-01  0.1121E-01  0.1987E+00  0.1987E+00
      0.339  0.8321E-02  0.8321E-02  0.1995E+00  0.1995E+00
      0.444  0.3797E-02  0.3797E-02  0.1999E+00  0.1999E+00
      0.550  0.2659E-02  0.2659E-02  0.2002E+00  0.2002E+00
      0.655  0.5826E-02  0.5826E-02  0.2008E+00  0.2008E+00
      0.760  0.1117E-01  0.1117E-01  0.2020E+00  0.2020E+00
      0.865  0.1294E-01  0.1294E-01  0.2034E+00  0.2034E+00
      0.970  0.3987E-02  0.3987E-02  0.2038E+00  0.2038E+00
      1.075  0.1080E-01  0.1080E-01  0.2049E+00  0.2049E+00
      1.180  0.6749E-02  0.6749E-02  0.2056E+00  0.2056E+00
      1.285  0.9235E-02  0.9235E-02  0.2066E+00  0.2066E+00
      1.390  0.7723E-02  0.7723E-02  0.2074E+00  0.2074E+00
      1.495  0.1213E-01  0.1213E-01  0.2087E+00  0.2087E+00
      1.601  0.2002E-01  0.2002E-01  0.2108E+00  0.2108E+00
      1.706  0.1346E-01  0.1346E-01  0.2122E+00  0.2122E+00
      1.811  0.1147E-01  0.1147E-01  0.2134E+00  0.2134E+00
      1.916  0.9688E-02  0.9688E-02  0.2144E+00  0.2144E+00
      2.021  0.1760E-01  0.1760E-01  0.2163E+00  0.2163E+00
      2.126  0.1948E-01  0.1948E-01  0.2183E+00  0.2183E+00
      2.231  0.1561E-01  0.1561E-01  0.2200E+00  0.2200E+00
      2.336  0.2029E-01  0.2029E-01  0.2221E+00  0.2221E+00
      2.441  0.2925E-01  0.2925E-01  0.2252E+00  0.2252E+00
      2.546  0.8027E-02  0.8027E-02  0.2260E+00  0.2260E+00
      2.652  0.5403E-02  0.5403E-02  0.2266E+00  0.2266E+00
      2.757  0.1850E-01  0.1850E-01  0.2285E+00  0.2285E+00
      2.862  0.3105E-01  0.3105E-01  0.2318E+00  0.2318E+00
      2.967  0.3938E-01  0.3938E-01  0.2359E+00  0.2359E+00
      3.072  0.2198E-01  0.2198E-01  0.2382E+00  0.2382E+00
      3.177  0.1664E-01  0.1664E-01  0.2400E+00  0.2400E+00
      3.282  0.2546E-01  0.2546E-01  0.2427E+00  0.2427E+00
      3.387  0.1523E-01  0.1523E-01  0.2443E+00  0.2443E+00
      3.492  0.2252E-01  0.2251E-01  0.2466E+00  0.2466E+00
      3.597  0.2259E-01  0.2259E-01  0.2490E+00  0.2490E+00
      3.703  0.1333E-01  0.1333E-01  0.2504E+00  0.2504E+00
      3.808  0.2575E-01  0.2575E-01  0.2531E+00  0.2531E+00
      3.913  0.2256E-01  0.2256E-01  0.2555E+00  0.2555E+00
      4.018  0.2350E-01  0.2350E-01  0.2579E+00  0.2579E+00
      4.123  0.1748E-01  0.1748E-01  0.2598E+00  0.2598E+00
      4.228  0.1616E-01  0.1616E-01  0.2615E+00  0.2615E+00
      4.333  0.3225E-01  0.3225E-01  0.2649E+00  0.2649E+00
      4.438  0.3241E-01  0.3241E-01  0.2683E+00  0.2683E+00
      4.543  0.1625E-01  0.1625E-01  0.2700E+00  0.2700E+00
      4.648  0.1787E-03  0.1787E-03  0.2700E+00  0.2700E+00
      4.754  0.2153E-08  0.2153E-08  0.2700E+00  0.2700E+00
      4.859  0.6866E-17  0.6866E-17  0.2700E+00  0.2700E+00
      4.964  0.0000E+00  0.0000E+00  0.2700E+00  0.2700E+00
      5.069  0.0000E+00  0.0000E+00  0.2700E+00  0.2700E+00
      5.174  0.0000E+00  0.0000E+00  0.2700E+00  0.2700E+00
      5.279  0.0000E+00  0.0000E+00  0.2700E+00  0.2700E+00
      5.384  0.0000E+00  0.0000E+00  0.2700E+00  0.2700E+00
      5.489  0.0000E+00  0.0000E+00  0.2700E+00  0.2700E+00
      5.594  0.0000E+00  0.0000E+00  0.2700E+00  0.2700E+00
      5.699  0.0000E+00  0.0000E+00  0.2700E+00  0.2700E+00
      5.805  0.0000E+00  0.0000E+00  0.2700E+00  0.2700E+00
      5.910  0.0000E+00  0.0000E+00  0.2700E+00  0.2700E+00
