 vasp.6.4.2 20Jul23 (build Aug 26 2025 15:10:52) complex                        
  
 POSCAR found type information on POSCAR C H N O 
 04/POSCAR found :  4 types and      98 ions
 Reading from existing POTCAR
 scaLAPACK will be used
 -----------------------------------------------------------------------------
|                                                                             |
|           W    W    AA    RRRRR   N    N  II  N    N   GGGG   !!!           |
|           W    W   A  A   R    R  NN   N  II  NN   N  G    G  !!!           |
|           W    W  A    A  R    R  N N  N  II  N N  N  G       !!!           |
|           W WW W  AAAAAA  RRRRR   N  N N  II  N  N N  G  GGG   !            |
|           WW  WW  A    A  R   R   N   NN  II  N   NN  G    G                |
|           W    W  A    A  R    R  N    N  II  N    N   GGGG   !!!           |
|                                                                             |
|     For optimal performance we recommend to set                             |
|       NCORE = 2 up to number-of-cores-per-socket                            |
|     NCORE specifies how many cores store one orbital (NPAR=cpu/NCORE).      |
|     This setting can greatly improve the performance of VASP for DFT.       |
|     The default, NCORE=1 might be grossly inefficient on modern             |
|     multi-core architectures or massively parallel machines. Do your        |
|     own testing! More info at https://www.vasp.at/wiki/index.php/NCORE      |
|     Unfortunately you need to use the default for GW and RPA                |
|     calculations (for HF NCORE is supported but not extensively tested      |
|     yet).                                                                   |
|                                                                             |
 -----------------------------------------------------------------------------

 Reading from existing POTCAR
 LDA part: xc-table for Pade appr. of Perdew
 POSCAR found type information on POSCAR C H N O 
 00/POSCAR found :  4 types and      98 ions
 POSCAR found type information on POSCAR C H N O 
 06/POSCAR found :  4 types and      98 ions
 Jacobian:    33.7254124986634     
 POSCAR found type information on POSCAR C H N O 
 00/POSCAR found :  4 types and      98 ions
 POSCAR found type information on POSCAR C H N O 
 06/POSCAR found :  4 types and      98 ions
 POSCAR, INCAR and KPOINTS ok, starting setup
 FFT: planning ... GRIDC
 FFT: planning ... GRID_SOFT
 FFT: planning ... GRID
 WAVECAR not read
 entering main loop
       N       E                     dE             d eps       ncg     rms          rms(c)
DAV:   1     0.324898417388E+04    0.32490E+04   -0.13710E+05  4630   0.103E+03
DAV:   2    -0.260421895925E+03   -0.35094E+04   -0.32984E+04  6540   0.254E+02
DAV:   3    -0.870064191420E+03   -0.60964E+03   -0.60687E+03  5430   0.109E+02
DAV:   4    -0.892061185430E+03   -0.21997E+02   -0.21920E+02  5570   0.260E+01
DAV:   5    -0.892676953454E+03   -0.61577E+00   -0.61495E+00  6140   0.373E+00    0.520E+01
DAV:   6    -0.874965834955E+03    0.17711E+02   -0.22221E+01  5290   0.715E+00    0.338E+01
DAV:   7    -0.852230593597E+03    0.22735E+02   -0.33028E+01  5140   0.856E+00    0.205E+01
DAV:   8    -0.847362834710E+03    0.48678E+01   -0.24819E+01  5280   0.738E+00    0.824E+00
DAV:   9    -0.847215701198E+03    0.14713E+00   -0.11958E+00  5080   0.200E+00    0.315E+00
DAV:  10    -0.847140451583E+03    0.75250E-01   -0.38567E-01  5120   0.108E+00    0.928E-01
DAV:  11    -0.847127463314E+03    0.12988E-01   -0.78732E-02  4900   0.487E-01    0.307E-01
DAV:  12    -0.847126280668E+03    0.11826E-02   -0.68464E-03  5500   0.157E-01    0.159E-01
DAV:  13    -0.847125966730E+03    0.31394E-03   -0.26580E-03  5360   0.107E-01    0.711E-02
DAV:  14    -0.847126078958E+03   -0.11223E-03   -0.47011E-04  5090   0.398E-02    0.509E-02
DAV:  15    -0.847126118239E+03   -0.39280E-04   -0.85274E-05  5240   0.176E-02    0.257E-02
DAV:  16    -0.847126124947E+03   -0.67087E-05   -0.28466E-05  4920   0.103E-02    0.983E-03
DAV:  17    -0.847126125085E+03   -0.13752E-06   -0.84263E-06  5440   0.612E-03
   1 F= -.85494222E+03 E0= -.85494222E+03  d E =-.854942E+03  mag=     0.0002
quench:  g(F)=  0.000E+00 g(S)=  0.000E+00 dE (1.order)= 0.000E+00
 bond charge predicted
       N       E                     dE             d eps       ncg     rms          rms(c)
DAV:   1    -0.847126142290E+03   -0.17343E-04   -0.94954E-04  4620   0.604E-02    0.775E-03
DAV:   2    -0.847126143638E+03   -0.13478E-05   -0.22352E-05  5050   0.854E-03    0.641E-03
DAV:   3    -0.847126143074E+03    0.56398E-06   -0.93049E-07  3330   0.205E-03
   2 F= -.85494224E+03 E0= -.85494224E+03  d E =-.122399E-04  mag=    -0.0000
quench:  g(F)=  0.000E+00 g(S)=  0.000E+00 dE (1.order)= 0.000E+00
 bond charge predicted
       N       E                     dE             d eps       ncg     rms          rms(c)
DAV:   1    -0.847126147113E+03   -0.34753E-05   -0.18594E-03  4530   0.766E-02    0.112E-02
DAV:   2    -0.847126149210E+03   -0.20968E-05   -0.31739E-05  4740   0.944E-03    0.906E-03
DAV:   3    -0.847126148914E+03    0.29622E-06   -0.10432E-06  3840   0.221E-03
   3 F= -.85494223E+03 E0= -.85494223E+03  d E =0.548372E-05  mag=     0.0000
quench:  g(F)=  0.000E+00 g(S)=  0.000E+00 dE (1.order)= 0.000E+00
 bond charge predicted
       N       E                     dE             d eps       ncg     rms          rms(c)
DAV:   1    -0.847126179585E+03   -0.30375E-04   -0.34696E-03  4500   0.997E-02    0.148E-02
DAV:   2    -0.847126183226E+03   -0.36413E-05   -0.54609E-05  4630   0.120E-02    0.116E-02
DAV:   3    -0.847126183049E+03    0.17663E-06   -0.15949E-06  3920   0.271E-03
   4 F= -.85494225E+03 E0= -.85494225E+03  d E =-.185682E-04  mag=    -0.0000
quench:  g(F)=  0.000E+00 g(S)=  0.000E+00 dE (1.order)= 0.000E+00
 bond charge predicted
       N       E                     dE             d eps       ncg     rms          rms(c)
DAV:   1    -0.847126204604E+03   -0.21378E-04   -0.65542E-03  4500   0.140E-01    0.203E-02
DAV:   2    -0.847126211956E+03   -0.73523E-05   -0.10535E-04  4620   0.169E-02    0.161E-02
DAV:   3    -0.847126211586E+03    0.37083E-06   -0.31853E-06  4610   0.373E-03
   5 F= -.85494226E+03 E0= -.85494226E+03  d E =-.863383E-05  mag=     0.0000
quench:  g(F)=  0.000E+00 g(S)=  0.000E+00 dE (1.order)= 0.000E+00
 bond charge predicted
       N       E                     dE             d eps       ncg     rms          rms(c)
DAV:   1    -0.847126246520E+03   -0.34563E-04   -0.89492E-03  4500   0.158E-01    0.241E-02
DAV:   2    -0.847126255336E+03   -0.88160E-05   -0.13006E-04  4620   0.182E-02    0.188E-02
DAV:   3    -0.847126255474E+03   -0.13808E-06   -0.34729E-06  4570   0.393E-03
   6 F= -.85494228E+03 E0= -.85494228E+03  d E =-.185692E-04  mag=    -0.0000
quench:  g(F)=  0.000E+00 g(S)=  0.000E+00 dE (1.order)= 0.000E+00
 bond charge predicted
       N       E                     dE             d eps       ncg     rms          rms(c)
DAV:   1    -0.847126295880E+03   -0.40544E-04   -0.13547E-02  4520   0.198E-01    0.290E-02
DAV:   2    -0.847126310309E+03   -0.14430E-04   -0.20517E-04  4610   0.233E-02    0.227E-02
DAV:   3    -0.847126310018E+03    0.29129E-06   -0.58397E-06  5010   0.499E-03
   7 F= -.85494230E+03 E0= -.85494230E+03  d E =-.223672E-04  mag=     0.0000
quench:  g(F)=  0.000E+00 g(S)=  0.000E+00 dE (1.order)= 0.000E+00
 bond charge predicted
       N       E                     dE             d eps       ncg     rms          rms(c)
DAV:   1    -0.847126348811E+03   -0.38501E-04   -0.21957E-02  4520   0.248E-01    0.373E-02
DAV:   2    -0.847126370720E+03   -0.21909E-04   -0.31927E-04  4620   0.285E-02    0.290E-02
DAV:   3    -0.847126370710E+03    0.99099E-08   -0.84791E-06  4980   0.612E-03
   8 F= -.85494232E+03 E0= -.85494232E+03  d E =-.195529E-04  mag=    -0.0000
quench:  g(F)=  0.000E+00 g(S)=  0.000E+00 dE (1.order)= 0.000E+00
 bond charge predicted
       N       E                     dE             d eps       ncg     rms          rms(c)
DAV:   1    -0.847126403038E+03   -0.32319E-04   -0.37250E-02  4500   0.328E-01    0.478E-02
DAV:   2    -0.847126442316E+03   -0.39278E-04   -0.55809E-04  4640   0.383E-02    0.375E-02
DAV:   3    -0.847126441070E+03    0.12468E-05   -0.15890E-05  5310   0.831E-03    0.253E-02
DAV:   4    -0.847126450199E+03   -0.91291E-05   -0.19100E-05  4580   0.886E-03    0.567E-03
DAV:   5    -0.847126450111E+03    0.87697E-07   -0.64722E-06  5040   0.445E-03
   9 F= -.85494235E+03 E0= -.85494235E+03  d E =-.304237E-04  mag=     0.0000
quench:  g(F)=  0.000E+00 g(S)=  0.000E+00 dE (1.order)= 0.000E+00
 bond charge predicted
       N       E                     dE             d eps       ncg     rms          rms(c)
DAV:   1    -0.847126466943E+03   -0.16744E-04   -0.58011E-02  4440   0.407E-01    0.571E-02
DAV:   2    -0.847126530749E+03   -0.63806E-04   -0.91026E-04  4610   0.489E-02    0.449E-02
DAV:   3    -0.847126524898E+03    0.58509E-05   -0.25375E-05  5220   0.106E-02    0.307E-02
DAV:   4    -0.847126536594E+03   -0.11696E-04   -0.34292E-05  4600   0.118E-02    0.753E-03
DAV:   5    -0.847126536195E+03    0.39901E-06   -0.13101E-05  5000   0.651E-03    0.338E-03
DAV:   6    -0.847126536310E+03   -0.11514E-06   -0.10540E-06  3600   0.182E-03
  10 F= -.85494237E+03 E0= -.85494237E+03  d E =-.257273E-04  mag=     0.0000
quench:  g(F)=  0.000E+00 g(S)=  0.000E+00 dE (1.order)= 0.000E+00
 bond charge predicted
       N       E                     dE             d eps       ncg     rms          rms(c)
DAV:   1    -0.847126524236E+03    0.11959E-04   -0.89131E-02  4400   0.505E-01    0.707E-02
DAV:   2    -0.847126617074E+03   -0.92839E-04   -0.13551E-03  4680   0.601E-02    0.560E-02
DAV:   3    -0.847126607782E+03    0.92923E-05   -0.39058E-05  5230   0.133E-02    0.378E-02
DAV:   4    -0.847126625279E+03   -0.17497E-04   -0.52803E-05  4600   0.145E-02    0.920E-03
DAV:   5    -0.847126624589E+03    0.69015E-06   -0.21506E-05  4950   0.829E-03    0.402E-03
DAV:   6    -0.847126624783E+03   -0.19450E-06   -0.14676E-06  3780   0.212E-03
  11 F= -.85494239E+03 E0= -.85494239E+03  d E =-.146618E-04  mag=     0.0000
quench:  g(F)=  0.000E+00 g(S)=  0.000E+00 dE (1.order)= 0.000E+00
 bond charge predicted
       N       E                     dE             d eps       ncg     rms          rms(c)
DAV:   1    -0.847126539269E+03    0.85319E-04   -0.14701E-01  4360   0.648E-01    0.902E-02
DAV:   2    -0.847126699378E+03   -0.16011E-03   -0.23191E-03  4660   0.780E-02    0.707E-02
DAV:   3    -0.847126682459E+03    0.16919E-04   -0.65755E-05  5300   0.170E-02    0.482E-02
DAV:   4    -0.847126708205E+03   -0.25745E-04   -0.83138E-05  4610   0.185E-02    0.116E-02
DAV:   5    -0.847126708354E+03   -0.14964E-06   -0.30579E-05  4860   0.954E-03    0.555E-03
DAV:   6    -0.847126708523E+03   -0.16901E-06   -0.24878E-06  4300   0.282E-03
  12 F= -.85494238E+03 E0= -.85494238E+03  d E =0.754213E-05  mag=    -0.0000
quench:  g(F)=  0.000E+00 g(S)=  0.000E+00 dE (1.order)= 0.000E+00
 bond charge predicted
       N       E                     dE             d eps       ncg     rms          rms(c)
DAV:   1    -0.847126409753E+03    0.29860E-03   -0.22407E-01  4360   0.823E-01    0.110E-01
DAV:   2    -0.847126658325E+03   -0.24857E-03   -0.36220E-03  4650   0.101E-01    0.893E-02
DAV:   3    -0.847126624004E+03    0.34321E-04   -0.11508E-04  5360   0.223E-02    0.614E-02
DAV:   4    -0.847126659006E+03   -0.35002E-04   -0.14788E-04  4620   0.249E-02    0.163E-02
DAV:   5    -0.847126658887E+03    0.11874E-06   -0.50586E-05  4840   0.126E-02    0.781E-03
DAV:   6    -0.847126659375E+03   -0.48761E-06   -0.55664E-06  4800   0.410E-03
  13 F= -.85494223E+03 E0= -.85494223E+03  d E =0.154708E-03  mag=     0.0000
quench:  g(F)=  0.000E+00 g(S)=  0.000E+00 dE (1.order)= 0.000E+00
 bond charge predicted
       N       E                     dE             d eps       ncg     rms          rms(c)
DAV:   1    -0.847125296969E+03    0.13619E-02   -0.40464E-01  4340   0.116E+00    0.145E-01
DAV:   2    -0.847125856899E+03   -0.55993E-03   -0.77396E-03  4780   0.151E-01    0.122E-01
DAV:   3    -0.847125753389E+03    0.10351E-03   -0.27974E-04  5520   0.330E-02    0.877E-02
DAV:   4    -0.847125766790E+03   -0.13401E-04   -0.31714E-04  4610   0.374E-02    0.280E-02
DAV:   5    -0.847125772986E+03   -0.61961E-05   -0.86302E-05  4800   0.164E-02    0.136E-02
DAV:   6    -0.847125774189E+03   -0.12025E-05   -0.13663E-05  4940   0.636E-03    0.687E-03
DAV:   7    -0.847125773900E+03    0.28900E-06   -0.13876E-06  3760   0.259E-03
  14 F= -.85494122E+03 E0= -.85494122E+03  d E =0.100524E-02  mag=     0.0000
quench:  g(F)=  0.000E+00 g(S)=  0.000E+00 dE (1.order)= 0.000E+00
 bond charge predicted
       N       E                     dE             d eps       ncg     rms          rms(c)
DAV:   1    -0.847126868276E+03   -0.10941E-02   -0.62556E-02  4410   0.506E-01    0.565E-02
DAV:   2    -0.847126981815E+03   -0.11354E-03   -0.15981E-03  5440   0.733E-02    0.516E-02
DAV:   3    -0.847126951568E+03    0.30247E-04   -0.70729E-05  5840   0.155E-02    0.397E-02
DAV:   4    -0.847126922840E+03    0.28728E-04   -0.65697E-05  4490   0.172E-02    0.164E-02
DAV:   5    -0.847126921899E+03    0.94165E-06   -0.18599E-05  4710   0.775E-03    0.678E-03
DAV:   6    -0.847126922127E+03   -0.22879E-06   -0.16456E-06  3170   0.262E-03
  15 F= -.85494236E+03 E0= -.85494236E+03  d E =-.114190E-02  mag=     0.0000
quench:  g(F)=  0.000E+00 g(S)=  0.000E+00 dE (1.order)= 0.000E+00
 bond charge predicted
       N       E                     dE             d eps       ncg     rms          rms(c)
DAV:   1    -0.847126925648E+03   -0.37498E-05   -0.50621E-05  4480   0.137E-02    0.241E-03
DAV:   2    -0.847126925680E+03   -0.32102E-07   -0.10546E-06  3060   0.193E-03
  16 F= -.85494237E+03 E0= -.85494237E+03  d E =-.257347E-05  mag=     0.0000
quench:  g(F)=  0.000E+00 g(S)=  0.000E+00 dE (1.order)= 0.000E+00
 bond charge predicted
       N       E                     dE             d eps       ncg     rms          rms(c)
DAV:   1    -0.847126929337E+03   -0.36882E-05   -0.17306E-04  4480   0.250E-02    0.365E-03
DAV:   2    -0.847126929520E+03   -0.18370E-06   -0.32935E-06  4150   0.327E-03
  17 F= -.85494237E+03 E0= -.85494237E+03  d E =-.174728E-05  mag=     0.0000
quench:  g(F)=  0.000E+00 g(S)=  0.000E+00 dE (1.order)= 0.000E+00
 bond charge predicted
       N       E                     dE             d eps       ncg     rms          rms(c)
DAV:   1    -0.847126930178E+03   -0.84131E-06   -0.31732E-04  4480   0.331E-02    0.577E-03
DAV:   2    -0.847126930396E+03   -0.21794E-06   -0.56162E-06  4690   0.416E-03
  18 F= -.85494237E+03 E0= -.85494237E+03  d E =0.215427E-05  mag=     0.0000
quench:  g(F)=  0.000E+00 g(S)=  0.000E+00 dE (1.order)= 0.000E+00
 bond charge predicted
       N       E                     dE             d eps       ncg     rms          rms(c)
DAV:   1    -0.847126927872E+03    0.23059E-05   -0.44805E-04  4480   0.382E-02    0.724E-03
DAV:   2    -0.847126928116E+03   -0.24433E-06   -0.69753E-06  4730   0.452E-03
  19 F= -.85494236E+03 E0= -.85494236E+03  d E =0.618500E-05  mag=     0.0000
quench:  g(F)=  0.000E+00 g(S)=  0.000E+00 dE (1.order)= 0.000E+00
 bond charge predicted
       N       E                     dE             d eps       ncg     rms          rms(c)
DAV:   1    -0.847126925797E+03    0.20749E-05   -0.58369E-04  4460   0.428E-02    0.833E-03
DAV:   2    -0.847126926100E+03   -0.30264E-06   -0.82812E-06  4660   0.489E-03
  20 F= -.85494235E+03 E0= -.85494235E+03  d E =0.671816E-05  mag=     0.0000
quench:  g(F)=  0.000E+00 g(S)=  0.000E+00 dE (1.order)= 0.000E+00
 bond charge predicted
       N       E                     dE             d eps       ncg     rms          rms(c)
DAV:   1    -0.847126925015E+03    0.78245E-06   -0.78157E-04  4470   0.495E-02    0.951E-03
DAV:   2    -0.847126925472E+03   -0.45691E-06   -0.10969E-05  4810   0.566E-03    0.772E-03
DAV:   3    -0.847126925706E+03   -0.23432E-06   -0.69025E-07  3020   0.194E-03
  21 F= -.85494235E+03 E0= -.85494235E+03  d E =0.595319E-05  mag=     0.0000
quench:  g(F)=  0.000E+00 g(S)=  0.000E+00 dE (1.order)= 0.000E+00
 bond charge predicted
       N       E                     dE             d eps       ncg     rms          rms(c)
DAV:   1    -0.847126923412E+03    0.20593E-05   -0.12961E-03  4380   0.638E-02    0.859E-03
DAV:   2    -0.847126924759E+03   -0.13472E-05   -0.19073E-05  4670   0.743E-03    0.699E-03
DAV:   3    -0.847126924749E+03    0.10616E-07   -0.48563E-07  3500   0.163E-03
  22 F= -.85494234E+03 E0= -.85494234E+03  d E =0.814245E-05  mag=     0.0000
quench:  g(F)=  0.000E+00 g(S)=  0.000E+00 dE (1.order)= 0.000E+00
 bond charge predicted
       N       E                     dE             d eps       ncg     rms          rms(c)
DAV:   1    -0.847126918439E+03    0.63209E-05   -0.20595E-03  4360   0.800E-02    0.109E-02
DAV:   2    -0.847126920466E+03   -0.20276E-05   -0.29594E-05  4640   0.922E-03    0.883E-03
DAV:   3    -0.847126920397E+03    0.68940E-07   -0.82007E-07  3800   0.207E-03
  23 F= -.85494233E+03 E0= -.85494233E+03  d E =0.135348E-04  mag=     0.0000
quench:  g(F)=  0.000E+00 g(S)=  0.000E+00 dE (1.order)= 0.000E+00
 bond charge predicted
       N       E                     dE             d eps       ncg     rms          rms(c)
DAV:   1    -0.847126911113E+03    0.93527E-05   -0.32208E-03  4340   0.988E-02    0.137E-02
DAV:   2    -0.847126914252E+03   -0.31387E-05   -0.45654E-05  4600   0.113E-02    0.110E-02
DAV:   3    -0.847126914191E+03    0.60769E-07   -0.12426E-06  3780   0.252E-03
  24 F= -.85494231E+03 E0= -.85494231E+03  d E =0.178620E-04  mag=     0.0000
quench:  g(F)=  0.000E+00 g(S)=  0.000E+00 dE (1.order)= 0.000E+00
 bond charge predicted
       N       E                     dE             d eps       ncg     rms          rms(c)
DAV:   1    -0.847126904651E+03    0.96015E-05   -0.51575E-03  4340   0.124E-01    0.174E-02
DAV:   2    -0.847126909828E+03   -0.51771E-05   -0.74212E-05  4600   0.143E-02    0.138E-02
DAV:   3    -0.847126909706E+03    0.12191E-06   -0.20085E-06  3980   0.312E-03
  25 F= -.85494229E+03 E0= -.85494229E+03  d E =0.189890E-04  mag=     0.0000
quench:  g(F)=  0.000E+00 g(S)=  0.000E+00 dE (1.order)= 0.000E+00
 bond charge predicted
       N       E                     dE             d eps       ncg     rms          rms(c)
DAV:   1    -0.847126896174E+03    0.13654E-04   -0.83180E-03  4340   0.157E-01    0.222E-02
DAV:   2    -0.847126904736E+03   -0.85622E-05   -0.12175E-04  4600   0.181E-02    0.175E-02
DAV:   3    -0.847126904474E+03    0.26273E-06   -0.34138E-06  4580   0.395E-03
  26 F= -.85494227E+03 E0= -.85494227E+03  d E =0.236304E-04  mag=     0.0000
quench:  g(F)=  0.000E+00 g(S)=  0.000E+00 dE (1.order)= 0.000E+00
 bond charge predicted
       N       E                     dE             d eps       ncg     rms          rms(c)
DAV:   1    -0.847126889632E+03    0.15105E-04   -0.12937E-02  4340   0.195E-01    0.279E-02
DAV:   2    -0.847126902726E+03   -0.13094E-04   -0.18737E-04  4580   0.224E-02    0.219E-02
DAV:   3    -0.847126902314E+03    0.41223E-06   -0.53427E-06  4840   0.492E-03
  27 F= -.85494224E+03 E0= -.85494224E+03  d E =0.261295E-04  mag=     0.0000
quench:  g(F)=  0.000E+00 g(S)=  0.000E+00 dE (1.order)= 0.000E+00
 bond charge predicted
       N       E                     dE             d eps       ncg     rms          rms(c)
DAV:   1    -0.847126882963E+03    0.19763E-04   -0.19919E-02  4340   0.242E-01    0.346E-02
DAV:   2    -0.847126903050E+03   -0.20087E-04   -0.28728E-04  4540   0.279E-02    0.274E-02
DAV:   3    -0.847126902370E+03    0.68065E-06   -0.82720E-06  4960   0.609E-03
  28 F= -.85494221E+03 E0= -.85494221E+03  d E =0.290044E-04  mag=     0.0000
quench:  g(F)=  0.000E+00 g(S)=  0.000E+00 dE (1.order)= 0.000E+00
 bond charge predicted
       N       E                     dE             d eps       ncg     rms          rms(c)
DAV:   1    -0.847126869198E+03    0.33853E-04   -0.29449E-02  4340   0.295E-01    0.422E-02
DAV:   2    -0.847126898881E+03   -0.29684E-04   -0.42083E-04  4520   0.339E-02    0.335E-02
DAV:   3    -0.847126898005E+03    0.87571E-06   -0.12055E-05  5100   0.740E-03    0.220E-02
DAV:   4    -0.847126904995E+03   -0.69900E-05   -0.14636E-05  4510   0.776E-03    0.474E-03
DAV:   5    -0.847126904727E+03    0.26813E-06   -0.59626E-06  4980   0.435E-03
  29 F= -.85494218E+03 E0= -.85494218E+03  d E =0.308210E-04  mag=    -0.0000
quench:  g(F)=  0.000E+00 g(S)=  0.000E+00 dE (1.order)= 0.000E+00
 bond charge predicted
       N       E                     dE             d eps       ncg     rms          rms(c)
DAV:   1    -0.847126854115E+03    0.50880E-04   -0.44034E-02  4360   0.361E-01    0.491E-02
DAV:   2    -0.847126900705E+03   -0.46590E-04   -0.67548E-04  4530   0.432E-02    0.392E-02
DAV:   3    -0.847126895414E+03    0.52913E-05   -0.20254E-05  5080   0.965E-03    0.264E-02
DAV:   4    -0.847126903783E+03   -0.83685E-05   -0.26605E-05  4500   0.104E-02    0.668E-03
DAV:   5    -0.847126903322E+03    0.46082E-06   -0.11554E-05  4860   0.616E-03    0.276E-03
DAV:   6    -0.847126903451E+03   -0.12894E-06   -0.70414E-07  3720   0.148E-03
  30 F= -.85494214E+03 E0= -.85494214E+03  d E =0.427694E-04  mag=     0.0000
quench:  g(F)=  0.000E+00 g(S)=  0.000E+00 dE (1.order)= 0.000E+00
 bond charge predicted
       N       E                     dE             d eps       ncg     rms          rms(c)
DAV:   1    -0.847126834886E+03    0.68436E-04   -0.66842E-02  4340   0.442E-01    0.607E-02
DAV:   2    -0.847126904846E+03   -0.69960E-04   -0.10320E-03  4540   0.528E-02    0.480E-02
DAV:   3    -0.847126896584E+03    0.82620E-05   -0.30393E-05  5140   0.118E-02    0.323E-02
DAV:   4    -0.847126908436E+03   -0.11852E-04   -0.38654E-05  4500   0.125E-02    0.780E-03
DAV:   5    -0.847126908131E+03    0.30497E-06   -0.15696E-05  4880   0.694E-03    0.353E-03
DAV:   6    -0.847126908248E+03   -0.11700E-06   -0.98297E-07  3670   0.179E-03
  31 F= -.85494209E+03 E0= -.85494209E+03  d E =0.498565E-04  mag=     0.0000
quench:  g(F)=  0.000E+00 g(S)=  0.000E+00 dE (1.order)= 0.000E+00
 bond charge predicted
       N       E                     dE             d eps       ncg     rms          rms(c)
DAV:   1    -0.847126794957E+03    0.11317E-03   -0.10139E-01  4340   0.541E-01    0.749E-02
DAV:   2    -0.847126903274E+03   -0.10832E-03   -0.16019E-03  4580   0.650E-02    0.585E-02
DAV:   3    -0.847126891584E+03    0.11689E-04   -0.45257E-05  5220   0.143E-02    0.397E-02
DAV:   4    -0.847126908804E+03   -0.17219E-04   -0.56550E-05  4500   0.152E-02    0.932E-03
DAV:   5    -0.847126908827E+03   -0.23341E-07   -0.21328E-05  4860   0.786E-03    0.449E-03
DAV:   6    -0.847126908920E+03   -0.93132E-07   -0.14712E-06  3920   0.222E-03
  32 F= -.85494202E+03 E0= -.85494202E+03  d E =0.657874E-04  mag=     0.0000
quench:  g(F)=  0.000E+00 g(S)=  0.000E+00 dE (1.order)= 0.000E+00
 bond charge predicted
       N       E                     dE             d eps       ncg     rms          rms(c)
DAV:   1    -0.847126742849E+03    0.16598E-03   -0.14316E-01  4340   0.648E-01    0.889E-02
DAV:   2    -0.847126893726E+03   -0.15088E-03   -0.22421E-03  4600   0.779E-02    0.705E-02
DAV:   3    -0.847126876127E+03    0.17600E-04   -0.65926E-05  5160   0.173E-02    0.478E-02
DAV:   4    -0.847126902722E+03   -0.26595E-04   -0.87196E-05  4520   0.188E-02    0.118E-02
DAV:   5    -0.847126901768E+03    0.95430E-06   -0.34045E-05  4880   0.103E-02    0.540E-03
DAV:   6    -0.847126902098E+03   -0.33068E-06   -0.25549E-06  4280   0.282E-03
  33 F= -.85494194E+03 E0= -.85494194E+03  d E =0.844600E-04  mag=     0.0000
quench:  g(F)=  0.000E+00 g(S)=  0.000E+00 dE (1.order)= 0.000E+00
 bond charge predicted
       N       E                     dE             d eps       ncg     rms          rms(c)
DAV:   1    -0.847126574297E+03    0.32747E-03   -0.20059E-01  4340   0.775E-01    0.105E-01
DAV:   2    -0.847126791598E+03   -0.21730E-03   -0.32110E-03  4600   0.943E-02    0.843E-02
DAV:   3    -0.847126764065E+03    0.27533E-04   -0.99502E-05  5200   0.211E-02    0.574E-02
DAV:   4    -0.847126801427E+03   -0.37362E-04   -0.13264E-04  4580   0.233E-02    0.152E-02
DAV:   5    -0.847126799720E+03    0.17074E-05   -0.50858E-05  4860   0.129E-02    0.690E-03
DAV:   6    -0.847126800381E+03   -0.66125E-06   -0.45023E-06  4640   0.368E-03
  34 F= -.85494173E+03 E0= -.85494173E+03  d E =0.205703E-03  mag=     0.0000
quench:  g(F)=  0.000E+00 g(S)=  0.000E+00 dE (1.order)= 0.000E+00
 bond charge predicted
       N       E                     dE             d eps       ncg     rms          rms(c)
DAV:   1    -0.847125999224E+03    0.80050E-03   -0.31452E-01  4340   0.993E-01    0.131E-01
DAV:   2    -0.847126374059E+03   -0.37484E-03   -0.55459E-03  4680   0.125E-01    0.106E-01
DAV:   3    -0.847126309963E+03    0.64096E-04   -0.19413E-04  5420   0.283E-02    0.737E-02
DAV:   4    -0.847126350948E+03   -0.40985E-04   -0.21832E-04  4600   0.304E-02    0.223E-02
DAV:   5    -0.847126354494E+03   -0.35454E-05   -0.67460E-05  4840   0.142E-02    0.104E-02
DAV:   6    -0.847126355126E+03   -0.63193E-06   -0.87817E-06  4920   0.503E-03
  35 F= -.85494118E+03 E0= -.85494118E+03  d E =0.553861E-03  mag=     0.0000
quench:  g(F)=  0.000E+00 g(S)=  0.000E+00 dE (1.order)= 0.000E+00
 bond charge predicted
       N       E                     dE             d eps       ncg     rms          rms(c)
DAV:   1    -0.847126770605E+03   -0.41611E-03   -0.19055E-02  4380   0.279E-01    0.319E-02
DAV:   2    -0.847126803605E+03   -0.33000E-04   -0.49582E-04  5300   0.411E-02    0.290E-02
DAV:   3    -0.847126792706E+03    0.10899E-04   -0.25079E-05  5820   0.921E-03    0.218E-02
DAV:   4    -0.847126783982E+03    0.87239E-05   -0.22087E-05  4540   0.983E-03    0.959E-03
DAV:   5    -0.847126783579E+03    0.40283E-06   -0.57906E-06  4060   0.431E-03
  36 F= -.85494160E+03 E0= -.85494160E+03  d E =-.419678E-03  mag=    -0.0000
quench:  g(F)=  0.000E+00 g(S)=  0.000E+00 dE (1.order)= 0.000E+00
 bond charge predicted
       N       E                     dE             d eps       ncg     rms          rms(c)
DAV:   1    -0.847126449372E+03    0.33461E-03   -0.20156E-02  4340   0.286E-01    0.328E-02
DAV:   2    -0.847126485622E+03   -0.36250E-04   -0.51061E-04  5340   0.415E-02    0.290E-02
DAV:   3    -0.847126475209E+03    0.10413E-04   -0.26026E-05  5760   0.944E-03    0.216E-02
DAV:   4    -0.847126468225E+03    0.69841E-05   -0.22596E-05  4500   0.987E-03    0.954E-03
DAV:   5    -0.847126467979E+03    0.24616E-06   -0.53995E-06  3920   0.419E-03
  37 F= -.85494127E+03 E0= -.85494127E+03  d E =0.329360E-03  mag=     0.0000
quench:  g(F)=  0.000E+00 g(S)=  0.000E+00 dE (1.order)= 0.000E+00
 bond charge predicted
       N       E                     dE             d eps       ncg     rms          rms(c)
DAV:   1    -0.847126596133E+03   -0.12791E-03   -0.90268E-04  4420   0.608E-02    0.709E-03
DAV:   2    -0.847126597637E+03   -0.15045E-05   -0.25193E-05  5360   0.923E-03    0.666E-03
DAV:   3    -0.847126597023E+03    0.61413E-06   -0.10797E-06  2550   0.209E-03
  38 F= -.85494140E+03 E0= -.85494140E+03  d E =-.130177E-03  mag=    -0.0000
quench:  g(F)=  0.000E+00 g(S)=  0.000E+00 dE (1.order)= 0.000E+00
 bond charge predicted
       N       E                     dE             d eps       ncg     rms          rms(c)
DAV:   1    -0.847126738434E+03   -0.14080E-03   -0.27415E-03  4420   0.106E-01    0.134E-02
DAV:   2    -0.847126742725E+03   -0.42908E-05   -0.66427E-05  5500   0.151E-02    0.119E-02
DAV:   3    -0.847126740901E+03    0.18242E-05   -0.40681E-06  4520   0.384E-03    0.850E-03
DAV:   4    -0.847126739945E+03    0.95592E-06   -0.36358E-06  4020   0.397E-03
  39 F= -.85494154E+03 E0= -.85494154E+03  d E =-.144658E-03  mag=     0.0000
quench:  g(F)=  0.000E+00 g(S)=  0.000E+00 dE (1.order)= 0.000E+00
 bond charge predicted
       N       E                     dE             d eps       ncg     rms          rms(c)
DAV:   1    -0.847126761807E+03   -0.20906E-04   -0.40410E-03  4380   0.128E-01    0.155E-02
DAV:   2    -0.847126768924E+03   -0.71174E-05   -0.10282E-04  5380   0.188E-02    0.137E-02
DAV:   3    -0.847126766566E+03    0.23578E-05   -0.56169E-06  5360   0.442E-03    0.101E-02
DAV:   4    -0.847126765158E+03    0.14083E-05   -0.49216E-06  4260   0.462E-03    0.446E-03
DAV:   5    -0.847126765090E+03    0.67761E-07   -0.11302E-06  2840   0.195E-03
  40 F= -.85494157E+03 E0= -.85494157E+03  d E =-.264500E-04  mag=     0.0000
quench:  g(F)=  0.000E+00 g(S)=  0.000E+00 dE (1.order)= 0.000E+00
 bond charge predicted
       N       E                     dE             d eps       ncg     rms          rms(c)
DAV:   1    -0.847126765758E+03   -0.60014E-06   -0.26222E-06  3680   0.324E-03    0.922E-04
DAV:   2    -0.847126765761E+03   -0.24811E-08   -0.12796E-07  2400   0.703E-04
  41 F= -.85494157E+03 E0= -.85494157E+03  d E =-.473184E-06  mag=     0.0000
quench:  g(F)=  0.000E+00 g(S)=  0.000E+00 dE (1.order)= 0.000E+00
 bond charge predicted
       N       E                     dE             d eps       ncg     rms          rms(c)
DAV:   1    -0.847126766798E+03   -0.10399E-05   -0.78793E-06  4240   0.552E-03    0.801E-04
DAV:   2    -0.847126766809E+03   -0.10594E-07   -0.17528E-07  2400   0.817E-04
  42 F= -.85494157E+03 E0= -.85494157E+03  d E =-.656895E-06  mag=     0.0000
quench:  g(F)=  0.000E+00 g(S)=  0.000E+00 dE (1.order)= 0.000E+00
 bond charge predicted
       N       E                     dE             d eps       ncg     rms          rms(c)
DAV:   1    -0.847126767984E+03   -0.11854E-05   -0.17133E-05  4420   0.813E-03    0.131E-03
DAV:   2    -0.847126768002E+03   -0.17979E-07   -0.37374E-07  2480   0.117E-03
  43 F= -.85494157E+03 E0= -.85494157E+03  d E =-.611323E-06  mag=     0.0000
quench:  g(F)=  0.000E+00 g(S)=  0.000E+00 dE (1.order)= 0.000E+00
 bond charge predicted
       N       E                     dE             d eps       ncg     rms          rms(c)
DAV:   1    -0.847126768616E+03   -0.63277E-06   -0.27352E-05  4480   0.102E-02    0.177E-03
DAV:   2    -0.847126768637E+03   -0.21188E-07   -0.52691E-07  2540   0.139E-03
  44 F= -.85494157E+03 E0= -.85494157E+03  d E =0.127026E-06  mag=     0.0000
quench:  g(F)=  0.000E+00 g(S)=  0.000E+00 dE (1.order)= 0.000E+00
 bond charge predicted
       N       E                     dE             d eps       ncg     rms          rms(c)
DAV:   1    -0.847126768348E+03    0.26810E-06   -0.37345E-05  4440   0.118E-02    0.207E-03
DAV:   2    -0.847126768380E+03   -0.31367E-07   -0.68458E-07  2680   0.157E-03
  45 F= -.85494157E+03 E0= -.85494157E+03  d E =0.117064E-05  mag=     0.0000
quench:  g(F)=  0.000E+00 g(S)=  0.000E+00 dE (1.order)= 0.000E+00
 bond charge predicted
       N       E                     dE             d eps       ncg     rms          rms(c)
DAV:   1    -0.847126767002E+03    0.13462E-05   -0.46489E-05  4440   0.130E-02    0.233E-03
DAV:   2    -0.847126767042E+03   -0.39567E-07   -0.81967E-07  2860   0.169E-03
  46 F= -.85494157E+03 E0= -.85494157E+03  d E =0.237992E-05  mag=     0.0000
quench:  g(F)=  0.000E+00 g(S)=  0.000E+00 dE (1.order)= 0.000E+00
 bond charge predicted
       N       E                     dE             d eps       ncg     rms          rms(c)
DAV:   1    -0.847126764251E+03    0.27512E-05   -0.66608E-05  4420   0.152E-02    0.270E-03
DAV:   2    -0.847126764308E+03   -0.57051E-07   -0.11113E-06  3200   0.194E-03
  47 F= -.85494156E+03 E0= -.85494156E+03  d E =0.400996E-05  mag=     0.0000
quench:  g(F)=  0.000E+00 g(S)=  0.000E+00 dE (1.order)= 0.000E+00
 bond charge predicted
       N       E                     dE             d eps       ncg     rms          rms(c)
DAV:   1    -0.847126760092E+03    0.41591E-05   -0.93600E-05  4400   0.177E-02    0.320E-03
DAV:   2    -0.847126760164E+03   -0.72578E-07   -0.14598E-06  3200   0.217E-03
  48 F= -.85494156E+03 E0= -.85494156E+03  d E =0.567381E-05  mag=     0.0000
quench:  g(F)=  0.000E+00 g(S)=  0.000E+00 dE (1.order)= 0.000E+00
 bond charge predicted
       N       E                     dE             d eps       ncg     rms          rms(c)
DAV:   1    -0.847126754999E+03    0.50921E-05   -0.13261E-04  4400   0.205E-02    0.377E-03
DAV:   2    -0.847126755094E+03   -0.94871E-07   -0.19241E-06  3460   0.242E-03
  49 F= -.85494155E+03 E0= -.85494155E+03  d E =0.691359E-05  mag=     0.0000
quench:  g(F)=  0.000E+00 g(S)=  0.000E+00 dE (1.order)= 0.000E+00
 bond charge predicted
       N       E                     dE             d eps       ncg     rms          rms(c)
DAV:   1    -0.847126749339E+03    0.56606E-05   -0.19784E-04  4360   0.249E-02    0.454E-03
DAV:   2    -0.847126749472E+03   -0.13353E-06   -0.27734E-06  3720   0.287E-03
  50 F= -.85494154E+03 E0= -.85494154E+03  d E =0.782687E-05  mag=     0.0000
quench:  g(F)=  0.000E+00 g(S)=  0.000E+00 dE (1.order)= 0.000E+00
 bond charge predicted
       N       E                     dE             d eps       ncg     rms          rms(c)
DAV:   1    -0.847126743046E+03    0.62925E-05   -0.30931E-04  4360   0.312E-02    0.566E-03
DAV:   2    -0.847126743263E+03   -0.21690E-06   -0.44464E-06  4210   0.364E-03
  51 F= -.85494153E+03 E0= -.85494153E+03  d E =0.882013E-05  mag=     0.0000
quench:  g(F)=  0.000E+00 g(S)=  0.000E+00 dE (1.order)= 0.000E+00
 bond charge predicted
       N       E                     dE             d eps       ncg     rms          rms(c)
DAV:   1    -0.847126734654E+03    0.83925E-05   -0.48917E-04  4340   0.395E-02    0.717E-03
DAV:   2    -0.847126735005E+03   -0.35126E-06   -0.72346E-06  4490   0.465E-03
  52 F= -.85494152E+03 E0= -.85494152E+03  d E =0.115325E-04  mag=     0.0000
quench:  g(F)=  0.000E+00 g(S)=  0.000E+00 dE (1.order)= 0.000E+00
 bond charge predicted
       N       E                     dE             d eps       ncg     rms          rms(c)
DAV:   1    -0.847126722638E+03    0.12016E-04   -0.74043E-04  4340   0.485E-02    0.898E-03
DAV:   2    -0.847126723147E+03   -0.50903E-06   -0.10786E-05  4640   0.569E-03    0.734E-03
DAV:   3    -0.847126723195E+03   -0.48443E-07   -0.72582E-07  3060   0.194E-03
  53 F= -.85494151E+03 E0= -.85494151E+03  d E =0.159692E-04  mag=     0.0000
quench:  g(F)=  0.000E+00 g(S)=  0.000E+00 dE (1.order)= 0.000E+00
 bond charge predicted
       N       E                     dE             d eps       ncg     rms          rms(c)
DAV:   1    -0.847126706657E+03    0.16490E-04   -0.10921E-03  4340   0.583E-02    0.785E-03
DAV:   2    -0.847126707814E+03   -0.11572E-05   -0.15879E-05  4500   0.677E-03    0.636E-03
DAV:   3    -0.847126707782E+03    0.32633E-07   -0.41019E-07  3360   0.147E-03
  54 F= -.85494149E+03 E0= -.85494148E+03  d E =0.206244E-04  mag=     0.0000
quench:  g(F)=  0.000E+00 g(S)=  0.000E+00 dE (1.order)= 0.000E+00
 bond charge predicted
       N       E                     dE             d eps       ncg     rms          rms(c)
DAV:   1    -0.847126687203E+03    0.20611E-04   -0.16276E-03  4360   0.707E-02    0.947E-03
DAV:   2    -0.847126688885E+03   -0.16817E-05   -0.23504E-05  4500   0.816E-03    0.762E-03
DAV:   3    -0.847126688774E+03    0.11046E-06   -0.60669E-07  3420   0.179E-03
  55 F= -.85494146E+03 E0= -.85494146E+03  d E =0.254417E-04  mag=     0.0000
quench:  g(F)=  0.000E+00 g(S)=  0.000E+00 dE (1.order)= 0.000E+00
 bond charge predicted
       N       E                     dE             d eps       ncg     rms          rms(c)
DAV:   1    -0.847126663060E+03    0.25825E-04   -0.24491E-03  4340   0.867E-02    0.117E-02
DAV:   2    -0.847126665647E+03   -0.25876E-05   -0.35850E-05  4520   0.101E-02    0.939E-03
DAV:   3    -0.847126665476E+03    0.17139E-06   -0.97264E-07  3820   0.219E-03
  56 F= -.85494143E+03 E0= -.85494143E+03  d E =0.313434E-04  mag=     0.0000
quench:  g(F)=  0.000E+00 g(S)=  0.000E+00 dE (1.order)= 0.000E+00
 reached required accuracy - stopping structural energy minimisation
