<?xml version="1.0" encoding="ISO-8859-1"?>
<modeling>
 <generator>
  <i name="program" type="string">vasp </i>
  <i name="version" type="string">6.4.2  </i>
  <i name="subversion" type="string">20Jul23 (build Aug 26 2025 15:10:52) complex                          parallel </i>
  <i name="platform" type="string">LinuxIFC </i>
  <i name="date" type="string">2025 12 19 </i>
  <i name="time" type="string">05:36:36 </i>
 </generator>
 <incar>
  <i type="int" name="ISTART">     0</i>
  <i type="string" name="ALGO">Normal</i>
  <i type="logical" name="ADDGRID"> T  </i>
  <i type="int" name="ISPIN">     2</i>
  <i type="int" name="IMIX">     4</i>
  <i name="AMIX">      0.20000000</i>
  <i name="BMIX">      0.00010000</i>
  <i name="AMIX_MAG">      0.80000000</i>
  <i name="BMIX_MAG">      0.00010000</i>
  <i type="int" name="ICHARG">     2</i>
  <i type="int" name="NELM">   200</i>
  <i type="int" name="IBRION">     3</i>
  <i name="EDIFF">      0.00000100</i>
  <i name="EDIFFG">     -0.03000000</i>
  <i type="int" name="NSW">  1000</i>
  <i type="int" name="ISIF">     2</i>
  <i type="int" name="ISYM">     0</i>
  <i name="ENCUT">    520.00000000</i>
  <i name="POTIM">      0.00000000</i>
  <v name="MAGMOM">      0.60000000      0.60000000      0.60000000      0.60000000      0.60000000      0.60000000      0.60000000      0.60000000      0.60000000      0.60000000      0.60000000      0.60000000      0.60000000      0.60000000      0.60000000      0.60000000      0.60000000      0.60000000      0.60000000      0.60000000
      0.60000000      0.60000000      0.60000000      0.60000000      0.60000000      0.60000000      0.60000000      0.60000000      0.60000000      0.60000000      0.60000000      0.60000000      0.60000000      0.60000000      0.60000000      0.60000000      0.60000000      0.60000000      0.60000000      0.60000000
      0.60000000      0.60000000      0.60000000      0.60000000      0.60000000      0.60000000      0.60000000      0.60000000      0.60000000      0.60000000      0.60000000      0.60000000      0.60000000      0.60000000      0.60000000      0.60000000      0.60000000      0.60000000      0.60000000      0.60000000
      0.60000000      0.60000000      0.60000000      0.60000000      0.60000000      0.60000000      0.60000000      0.60000000      0.60000000      0.60000000      0.60000000      0.60000000      0.60000000      0.60000000      0.60000000      0.60000000      0.60000000      0.60000000      0.60000000      0.60000000
      0.60000000      0.60000000      0.60000000      0.60000000      0.60000000      0.60000000      0.60000000      0.60000000      0.60000000      0.60000000      0.60000000      0.60000000      0.60000000      0.60000000      0.60000000      0.60000000      0.60000000      0.60000000</v>
  <i type="string" name="LREAL">Auto</i>
  <i type="int" name="ISMEAR">     0</i>
  <i name="SIGMA">      0.05000000</i>
  <i type="logical" name="LWAVE"> F  </i>
  <i type="logical" name="LCHARG"> F  </i>
  <i type="logical" name="LASPH"> T  </i>
  <i type="int" name="IVDW">    12</i>
  <i name="SPRING">     -5.00000000</i>
 </incar>
 <primitive_cell>
  <structure name="primitive_cell" >
   <crystal>
    <varray name="basis" >
     <v>      17.27103806       0.00000000       0.00000000 </v>
     <v>      -8.63551903      14.95715771       0.00000000 </v>
     <v>       0.00000000       0.00000000      15.00000000 </v>
    </varray>
    <i name="volume">   3874.88459904 </i>
    <varray name="rec_basis" >
     <v>       0.05790040       0.03342881       0.00000000 </v>
     <v>       0.00000000       0.06685762       0.00000000 </v>
     <v>       0.00000000       0.00000000       0.06666667 </v>
    </varray>
   </crystal>
   <varray name="positions" >
    <v>       0.99989866       0.99988279       0.50118229 </v>
    <v>       0.99959738       0.14254553       0.49951034 </v>
    <v>       0.99985548       0.28561731       0.49794638 </v>
    <v>       0.00026870       0.42860223       0.49741575 </v>
    <v>       0.00066632       0.57157609       0.49883565 </v>
    <v>       0.00134237       0.71473321       0.50109739 </v>
    <v>       0.00098429       0.85774430       0.50188929 </v>
    <v>       0.14326028       0.00054725       0.50069079 </v>
    <v>       0.14277983       0.14317787       0.50163338 </v>
    <v>       0.14246670       0.28578234       0.50193058 </v>
    <v>       0.14314516       0.42926039       0.50064249 </v>
    <v>       0.14354262       0.57170085       0.49899561 </v>
    <v>       0.14364005       0.71448597       0.49900819 </v>
    <v>       0.14342206       0.85758685       0.49957959 </v>
    <v>       0.28590212       0.00021285       0.49899842 </v>
    <v>       0.28585243       0.14298910       0.50190285 </v>
    <v>       0.28594079       0.28734520       0.50658209 </v>
    <v>       0.28507199       0.42894201       0.50971367 </v>
    <v>       0.28785739       0.57249749       0.50485000 </v>
    <v>       0.28641727       0.71526525       0.50037927 </v>
    <v>       0.28569604       0.85777108       0.49854046 </v>
    <v>       0.42877285       0.99996653       0.49760592 </v>
    <v>       0.42866081       0.14261635       0.49901368 </v>
    <v>       0.42712599       0.28250993       0.50143124 </v>
    <v>       0.42786445       0.85681502       0.49921321 </v>
    <v>       0.57102790       0.99944334       0.49744679 </v>
    <v>       0.57151609       0.14231551       0.49709154 </v>
    <v>       0.57254800       0.28592184       0.49958377 </v>
    <v>       0.57009201       0.85530864       0.50089213 </v>
    <v>       0.71324809       0.99869120       0.49877302 </v>
    <v>       0.71425321       0.14229780       0.49637939 </v>
    <v>       0.71456875       0.28540329       0.49796743 </v>
    <v>       0.71433403       0.42761023       0.50400348 </v>
    <v>       0.71878640       0.57329926       0.51706510 </v>
    <v>       0.71804738       0.71506949       0.51608115 </v>
    <v>       0.71228742       0.85576356       0.50485378 </v>
    <v>       0.85653390       0.99932660       0.50079203 </v>
    <v>       0.85660379       0.14219476       0.49734500 </v>
    <v>       0.85711452       0.28528613       0.49662890 </v>
    <v>       0.85773272       0.42841538       0.49921070 </v>
    <v>       0.85837016       0.57185416       0.50374295 </v>
    <v>       0.85954823       0.71515039       0.50713860 </v>
    <v>       0.85738720       0.85679099       0.50481051 </v>
    <v>       0.04753512       0.09522616       0.50061756 </v>
    <v>       0.04704048       0.23773080       0.49942131 </v>
    <v>       0.04757355       0.38103736       0.49818804 </v>
    <v>       0.04826216       0.52395203       0.49799867 </v>
    <v>       0.04845033       0.66692031       0.49941057 </v>
    <v>       0.04832281       0.80990033       0.50083595 </v>
    <v>       0.04800261       0.95268095       0.50116569 </v>
    <v>       0.19059105       0.09543475       0.50165629 </v>
    <v>       0.19018569       0.23839312       0.50315255 </v>
    <v>       0.18960854       0.38096751       0.50345748 </v>
    <v>       0.19157402       0.52477160       0.50086207 </v>
    <v>       0.19113120       0.66706329       0.49944931 </v>
    <v>       0.19083703       0.80992604       0.49897290 </v>
    <v>       0.19091171       0.95275195       0.49974347 </v>
    <v>       0.33354197       0.09555268       0.49982109 </v>
    <v>       0.33417791       0.23825456       0.50372837 </v>
    <v>       0.33035921       0.38010682       0.51235733 </v>
    <v>       0.33140901       0.52353762       0.51179731 </v>
    <v>       0.33724790       0.67074292       0.50265578 </v>
    <v>       0.33314258       0.81004843       0.49924600 </v>
    <v>       0.33339330       0.95269444       0.49817768 </v>
    <v>       0.47635244       0.09496348       0.49765931 </v>
    <v>       0.47570834       0.23771110       0.49969812 </v>
    <v>       0.47247003       0.80617919       0.50072214 </v>
    <v>       0.47606087       0.95218961       0.49786744 </v>
    <v>       0.61883634       0.09460705       0.49666362 </v>
    <v>       0.61943805       0.23768924       0.49807778 </v>
    <v>       0.62139962       0.37921792       0.50234306 </v>
    <v>       0.61887444       0.81075163       0.50381171 </v>
    <v>       0.61784567       0.95099748       0.49885110 </v>
    <v>       0.76141664       0.09443233       0.49703339 </v>
    <v>       0.76206452       0.23751996       0.49657513 </v>
    <v>       0.76247743       0.38059330       0.50028945 </v>
    <v>       0.76272376       0.52482696       0.50845854 </v>
    <v>       0.76453478       0.66740203       0.51421792 </v>
    <v>       0.76146882       0.80758654       0.50871970 </v>
    <v>       0.76096249       0.95128336       0.50134488 </v>
    <v>       0.90415001       0.09438346       0.49893347 </v>
    <v>       0.90447342       0.23757720       0.49683163 </v>
    <v>       0.90494429       0.38084244       0.49732138 </v>
    <v>       0.90551698       0.52401768       0.50013665 </v>
    <v>       0.90621264       0.66701545       0.50409079 </v>
    <v>       0.90576175       0.80996855       0.50457982 </v>
    <v>       0.90460377       0.95188403       0.50198687 </v>
    <v>       0.46319707       0.35504357       0.50017601 </v>
    <v>       0.40282437       0.41801755       0.51722578 </v>
    <v>       0.40370398       0.56055691       0.52100694 </v>
    <v>       0.64562398       0.67602726       0.52197352 </v>
    <v>       0.64659706       0.53957213       0.52499759 </v>
    <v>       0.58542555       0.41578028       0.50307090 </v>
    <v>       0.58019131       0.73809204       0.50539346 </v>
    <v>       0.56997782       0.56056666       0.40516421 </v>
    <v>       0.48240635       0.55393841       0.43855482 </v>
    <v>       0.42729550       0.71565637       0.50241431 </v>
    <v>       0.52657754       0.53667628       0.45329054 </v>
   </varray>
  </structure>
  <varray name="primitive_index" >
   <v type="int" >        1 </v>
   <v type="int" >        2 </v>
   <v type="int" >        3 </v>
   <v type="int" >        4 </v>
   <v type="int" >        5 </v>
   <v type="int" >        6 </v>
   <v type="int" >        7 </v>
   <v type="int" >        8 </v>
   <v type="int" >        9 </v>
   <v type="int" >       10 </v>
   <v type="int" >       11 </v>
   <v type="int" >       12 </v>
   <v type="int" >       13 </v>
   <v type="int" >       14 </v>
   <v type="int" >       15 </v>
   <v type="int" >       16 </v>
   <v type="int" >       17 </v>
   <v type="int" >       18 </v>
   <v type="int" >       19 </v>
   <v type="int" >       20 </v>
   <v type="int" >       21 </v>
   <v type="int" >       22 </v>
   <v type="int" >       23 </v>
   <v type="int" >       24 </v>
   <v type="int" >       25 </v>
   <v type="int" >       26 </v>
   <v type="int" >       27 </v>
   <v type="int" >       28 </v>
   <v type="int" >       29 </v>
   <v type="int" >       30 </v>
   <v type="int" >       31 </v>
   <v type="int" >       32 </v>
   <v type="int" >       33 </v>
   <v type="int" >       34 </v>
   <v type="int" >       35 </v>
   <v type="int" >       36 </v>
   <v type="int" >       37 </v>
   <v type="int" >       38 </v>
   <v type="int" >       39 </v>
   <v type="int" >       40 </v>
   <v type="int" >       41 </v>
   <v type="int" >       42 </v>
   <v type="int" >       43 </v>
   <v type="int" >       44 </v>
   <v type="int" >       45 </v>
   <v type="int" >       46 </v>
   <v type="int" >       47 </v>
   <v type="int" >       48 </v>
   <v type="int" >       49 </v>
   <v type="int" >       50 </v>
   <v type="int" >       51 </v>
   <v type="int" >       52 </v>
   <v type="int" >       53 </v>
   <v type="int" >       54 </v>
   <v type="int" >       55 </v>
   <v type="int" >       56 </v>
   <v type="int" >       57 </v>
   <v type="int" >       58 </v>
   <v type="int" >       59 </v>
   <v type="int" >       60 </v>
   <v type="int" >       61 </v>
   <v type="int" >       62 </v>
   <v type="int" >       63 </v>
   <v type="int" >       64 </v>
   <v type="int" >       65 </v>
   <v type="int" >       66 </v>
   <v type="int" >       67 </v>
   <v type="int" >       68 </v>
   <v type="int" >       69 </v>
   <v type="int" >       70 </v>
   <v type="int" >       71 </v>
   <v type="int" >       72 </v>
   <v type="int" >       73 </v>
   <v type="int" >       74 </v>
   <v type="int" >       75 </v>
   <v type="int" >       76 </v>
   <v type="int" >       77 </v>
   <v type="int" >       78 </v>
   <v type="int" >       79 </v>
   <v type="int" >       80 </v>
   <v type="int" >       81 </v>
   <v type="int" >       82 </v>
   <v type="int" >       83 </v>
   <v type="int" >       84 </v>
   <v type="int" >       85 </v>
   <v type="int" >       86 </v>
   <v type="int" >       87 </v>
   <v type="int" >       88 </v>
   <v type="int" >       89 </v>
   <v type="int" >       90 </v>
   <v type="int" >       91 </v>
   <v type="int" >       92 </v>
   <v type="int" >       93 </v>
   <v type="int" >       94 </v>
   <v type="int" >       95 </v>
   <v type="int" >       96 </v>
   <v type="int" >       97 </v>
   <v type="int" >       98 </v>
  </varray>
 </primitive_cell>
 <kpoints>
  <generation param="Gamma">
   <v type="int" name="divisions">       2        2        1 </v>
   <v name="usershift">      0.00000000       0.00000000       0.00000000 </v>
   <v name="genvec1">      0.50000000       0.00000000       0.00000000 </v>
   <v name="genvec2">      0.00000000       0.50000000       0.00000000 </v>
   <v name="genvec3">      0.00000000       0.00000000       1.00000000 </v>
   <v name="shift">      0.00000000       0.00000000       0.00000000 </v>
  </generation>
  <varray name="kpointlist" >
   <v>       0.00000000       0.00000000       0.00000000 </v>
   <v>       0.50000000       0.00000000       0.00000000 </v>
   <v>       0.00000000       0.50000000       0.00000000 </v>
   <v>       0.50000000       0.50000000       0.00000000 </v>
  </varray>
  <varray name="weights" >
   <v>       0.25000000 </v>
   <v>       0.25000000 </v>
   <v>       0.25000000 </v>
   <v>       0.25000000 </v>
  </varray>
 </kpoints>
 <parameters>
  <separator name="general" >
   <i type="string" name="SYSTEM">unknown system</i>
   <i type="logical" name="LCOMPAT"> F  </i>
  </separator>
  <separator name="electronic" >
   <i type="string" name="PREC">normal</i>
   <i name="ENMAX">    520.00000000</i>
   <i name="ENAUG">    644.87300000</i>
   <i name="EDIFF">      0.00000100</i>
   <i type="int" name="IALGO">    38</i>
   <i type="int" name="IWAVPR">    11</i>
   <i type="int" name="NBANDS">   270</i>
   <i type="int" name="NBANDSLOW">    -1</i>
   <i type="int" name="NBANDSHIGH">    -1</i>
   <i name="NELECT">    368.00000000</i>
   <i type="int" name="TURBO">     0</i>
   <i type="int" name="IRESTART">     0</i>
   <i type="int" name="NREBOOT">     0</i>
   <i type="int" name="NMIN">     0</i>
   <i name="EREF">      0.00000000</i>
   <separator name="electronic smearing" >
    <i type="int" name="ISMEAR">     0</i>
    <i name="SIGMA">      0.05000000</i>
    <i name="KSPACING">      0.50000000</i>
    <i type="logical" name="KGAMMA"> T  </i>
    <i type="logical" name="KBLOWUP"> T  </i>
   </separator>
   <separator name="electronic projectors" >
    <i type="logical" name="LREAL"> T  </i>
    <v name="ROPT">     -0.00050000     -0.00050000     -0.00050000     -0.00050000</v>
    <i type="int" name="LMAXPAW">  -100</i>
    <i type="int" name="LMAXMIX">     2</i>
    <i type="logical" name="NLSPLINE"> F  </i>
   </separator>
   <separator name="electronic startup" >
    <i type="int" name="ISTART">     0</i>
    <i type="int" name="ICHARG">     2</i>
    <i type="int" name="INIWAV">     1</i>
   </separator>
   <separator name="electronic spin" >
    <i type="int" name="ISPIN">     2</i>
    <i type="logical" name="LNONCOLLINEAR"> F  </i>
    <v name="MAGMOM">      0.60000000      0.60000000      0.60000000      0.60000000      0.60000000      0.60000000      0.60000000      0.60000000      0.60000000      0.60000000      0.60000000      0.60000000      0.60000000      0.60000000      0.60000000      0.60000000      0.60000000      0.60000000      0.60000000      0.60000000
      0.60000000      0.60000000      0.60000000      0.60000000      0.60000000      0.60000000      0.60000000      0.60000000      0.60000000      0.60000000      0.60000000      0.60000000      0.60000000      0.60000000      0.60000000      0.60000000      0.60000000      0.60000000      0.60000000      0.60000000
      0.60000000      0.60000000      0.60000000      0.60000000      0.60000000      0.60000000      0.60000000      0.60000000      0.60000000      0.60000000      0.60000000      0.60000000      0.60000000      0.60000000      0.60000000      0.60000000      0.60000000      0.60000000      0.60000000      0.60000000
      0.60000000      0.60000000      0.60000000      0.60000000      0.60000000      0.60000000      0.60000000      0.60000000      0.60000000      0.60000000      0.60000000      0.60000000      0.60000000      0.60000000      0.60000000      0.60000000      0.60000000      0.60000000      0.60000000      0.60000000
      0.60000000      0.60000000      0.60000000      0.60000000      0.60000000      0.60000000      0.60000000      0.60000000      0.60000000      0.60000000      0.60000000      0.60000000      0.60000000      0.60000000      0.60000000      0.60000000      0.60000000      0.60000000</v>
    <i name="NUPDOWN">     -1.00000000</i>
    <i type="logical" name="LSORBIT"> F  </i>
    <v name="SAXIS">      0.00000000      0.00000000      1.00000000</v>
    <i type="logical" name="LSPIRAL"> F  </i>
    <v name="QSPIRAL">      0.00000000      0.00000000      0.00000000</v>
    <i type="logical" name="LZEROZ"> F  </i>
   </separator>
   <separator name="electronic exchange-correlation" >
    <i type="logical" name="LASPH"> T  </i>
    <i type="logical" name="LMETAGGA"> F  </i>
   </separator>
   <separator name="electronic convergence" >
    <i type="int" name="NELM">   200</i>
    <i type="int" name="NELMDL">    -5</i>
    <i type="int" name="NELMIN">     2</i>
    <i name="ENINI">    520.00000000</i>
    <separator name="electronic convergence detail" >
     <i type="logical" name="LDIAG"> T  </i>
     <i type="logical" name="LSUBROT"> F  </i>
     <i name="WEIMIN">      0.00100000</i>
     <i name="EBREAK">      0.00000000</i>
     <i name="DEPER">      0.30000000</i>
     <i type="int" name="NRMM">     4</i>
     <i name="TIME">      0.40000000</i>
    </separator>
   </separator>
   <separator name="electronic mixer" >
    <i name="AMIX">      0.20000000</i>
    <i name="BMIX">      0.00010000</i>
    <i name="AMIN">      0.10000000</i>
    <i name="AMIX_MAG">      0.80000000</i>
    <i name="BMIX_MAG">      0.00010000</i>
    <separator name="electronic mixer details" >
     <i type="int" name="IMIX">     4</i>
     <i type="logical" name="MIXFIRST"> F  </i>
     <i type="int" name="MAXMIX">   -45</i>
     <i name="WC">    100.00000000</i>
     <i type="int" name="INIMIX">     1</i>
     <i type="int" name="MIXPRE">     1</i>
     <i type="int" name="MREMOVE">     5</i>
    </separator>
   </separator>
   <separator name="electronic dipolcorrection" >
    <i type="logical" name="LDIPOL"> F  </i>
    <i type="logical" name="LMONO"> F  </i>
    <i type="int" name="IDIPOL">     0</i>
    <i name="EPSILON">      1.00000000</i>
    <v name="DIPOL">   -100.00000000   -100.00000000   -100.00000000</v>
    <i name="EFIELD">      0.00000000</i>
   </separator>
  </separator>
  <separator name="grids" >
   <i type="int" name="NGX">    96</i>
   <i type="int" name="NGY">    96</i>
   <i type="int" name="NGZ">    84</i>
   <i type="int" name="NGXF">   192</i>
   <i type="int" name="NGYF">   192</i>
   <i type="int" name="NGZF">   168</i>
   <i type="logical" name="ADDGRID"> T  </i>
  </separator>
  <separator name="ionic" >
   <i type="int" name="NSW">  1000</i>
   <i type="int" name="IBRION">     3</i>
   <i type="int" name="MDALGO">     0</i>
   <i type="int" name="ISIF">     2</i>
   <i name="PSTRESS">      0.00000000</i>
   <i name="EDIFFG">     -0.03000000</i>
   <i type="int" name="NFREE">     0</i>
   <i name="POTIM">      0.00000000</i>
   <i name="SMASS">     -3.00000000</i>
   <i name="SCALEE">      1.00000000</i>
  </separator>
  <separator name="ionic md" >
   <i name="TEBEG">      0.00010000</i>
   <i name="TEEND">      0.00010000</i>
   <i type="int" name="NBLOCK">     1</i>
   <i type="int" name="KBLOCK">  1000</i>
   <i type="int" name="NPACO">   256</i>
   <i name="APACO">     10.00000000</i>
  </separator>
  <separator name="symmetry" >
   <i type="int" name="ISYM">     0</i>
   <i name="SYMPREC">      0.00001000</i>
  </separator>
  <separator name="dos" >
   <i type="int" name="LORBIT">     0</i>
   <v name="RWIGS">     -1.00000000     -1.00000000     -1.00000000     -1.00000000</v>
   <i type="int" name="NEDOS">   301</i>
   <i name="EMIN">     10.00000000</i>
   <i name="EMAX">    -10.00000000</i>
   <i name="EFERMI">      0.00000000</i>
  </separator>
  <separator name="writing" >
   <i type="int" name="NWRITE">     2</i>
   <i type="logical" name="LWAVE"> F  </i>
   <i type="logical" name="LDOWNSAMPLE"> F  </i>
   <i type="logical" name="LCHARG"> F  </i>
   <i type="logical" name="LPARD"> F  </i>
   <i type="logical" name="LVTOT"> F  </i>
   <i type="logical" name="LVHAR"> F  </i>
   <i type="logical" name="LELF"> F  </i>
   <i type="logical" name="LOPTICS"> F  </i>
   <v name="STM">      0.00000000      0.00000000      0.00000000      0.00000000      0.00000000      0.00000000      0.00000000</v>
  </separator>
  <separator name="performance" >
   <i type="int" name="NPAR">    10</i>
   <i type="int" name="NSIM">     4</i>
   <i type="int" name="NBLK">    -1</i>
   <i type="logical" name="LPLANE"> T  </i>
   <i type="logical" name="LSCALAPACK"> T  </i>
   <i type="logical" name="LSCAAWARE"> F  </i>
   <i type="logical" name="LSCALU"> F  </i>
   <i type="logical" name="LASYNC"> F  </i>
   <i type="logical" name="LORBITALREAL"> F  </i>
  </separator>
  <separator name="miscellaneous" >
   <i type="int" name="IDIOT">     3</i>
   <i type="int" name="PHON_NSTRUCT">    -1</i>
   <i type="logical" name="LMUSIC"> F  </i>
   <v name="POMASS">     12.01100000      1.00000000     14.00100000     16.00000000</v>
   <v name="DARWINR">      0.00000000      0.00000000      0.00000000      0.00000000</v>
   <v name="DARWINV">      1.00000000      1.00000000      1.00000000      1.00000000</v>
   <i type="logical" name="LCORR"> T  </i>
  </separator>
  <i type="logical" name="GGA_COMPAT"> T  </i>
  <i type="logical" name="LBERRY"> F  </i>
  <i type="int" name="ICORELEVEL">     0</i>
  <i type="logical" name="LDAU"> F  </i>
  <i type="int" name="I_CONSTRAINED_M">     0</i>
  <separator name="electronic exchange-correlation" >
   <i type="string" name="GGA">--</i>
   <i type="int" name="VOSKOWN">     0</i>
   <i type="logical" name="LHFCALC"> F  </i>
   <i type="string" name="PRECFOCK"></i>
   <i type="logical" name="LSYMGRAD"> F  </i>
   <i type="logical" name="LHFONE"> F  </i>
   <i type="logical" name="LRHFCALC"> F  </i>
   <i type="logical" name="LTHOMAS"> F  </i>
   <i type="logical" name="LMODELHF"> F  </i>
   <i type="logical" name="LFOCKACE"> F  </i>
   <i name="ENCUT4O">     -1.00000000</i>
   <i type="int" name="EXXOEP">     0</i>
   <i type="int" name="FOURORBIT">     0</i>
   <i name="AEXX">      0.00000000</i>
   <i name="HFALPHA">      0.00000000</i>
   <i name="MCALPHA">      0.00000000</i>
   <i name="ALDAX">      1.00000000</i>
   <i name="AGGAX">      1.00000000</i>
   <i name="ALDAC">      1.00000000</i>
   <i name="AGGAC">      1.00000000</i>
   <i type="int" name="NKREDX">     1</i>
   <i type="int" name="NKREDY">     1</i>
   <i type="int" name="NKREDZ">     1</i>
   <i type="logical" name="SHIFTRED"> F  </i>
   <i type="logical" name="ODDONLY"> F  </i>
   <i type="logical" name="EVENONLY"> F  </i>
   <i type="int" name="LMAXFOCK">     0</i>
   <i type="int" name="NMAXFOCKAE">     0</i>
   <i type="logical" name="LFOCKAEDFT"> F  </i>
   <i name="HFSCREEN">      0.00000000</i>
   <i name="HFSCREENC">      0.00000000</i>
   <i type="int" name="NBANDSGWLOW">     0</i>
  </separator>
  <separator name="vdW DFT" >
   <i type="logical" name="LUSE_VDW"> F  </i>
   <i type="int" name="IVDW_NL">     1</i>
   <i type="logical" name="LSPIN_VDW"> F  </i>
   <i name="Zab_VDW">     -0.84910000</i>
   <i name="PARAM1">      0.12340000</i>
   <i name="PARAM2">      1.00000000</i>
   <i name="PARAM3">      0.00000000</i>
  </separator>
  <separator name="model GW" >
   <i type="int" name="MODEL_GW">     0</i>
   <i name="MODEL_EPS0">     23.72378326</i>
   <i name="MODEL_ALPHA">      1.00000000</i>
  </separator>
  <separator name="linear response parameters" >
   <i type="logical" name="LEPSILON"> F  </i>
   <i type="logical" name="LRPA"> F  </i>
   <i type="logical" name="LNABLA"> F  </i>
   <i type="logical" name="LVEL"> F  </i>
   <i name="CSHIFT">      0.10000000</i>
   <i name="OMEGAMAX">     -1.00000000</i>
   <i name="DEG_THRESHOLD">      0.00200000</i>
   <i name="RTIME">     -0.10000000</i>
   <i name="WPLASMAI">      0.00000000</i>
   <v name="DFIELD">      0.00000000      0.00000000      0.00000000</v>
   <v name="WPLASMA">      0.00000000      0.00000000      0.00000000      0.00000000      0.00000000      0.00000000      0.00000000      0.00000000      0.00000000</v>
  </separator>
  <separator name="orbital magnetization" >
   <i type="logical" name="NUCIND"> F  </i>
   <v name="MAGPOS">      0.00000000      0.00000000      0.00000000</v>
   <i type="logical" name="LNICSALL"> T  </i>
   <i type="logical" name="ORBITALMAG"> F  </i>
   <i type="logical" name="LMAGBLOCH"> F  </i>
   <i type="logical" name="LCHIMAG"> F  </i>
   <i type="logical" name="LGAUGE"> T  </i>
   <i type="int" name="MAGATOM">     0</i>
   <v name="MAGDIPOL">      0.00000000      0.00000000      0.00000000</v>
   <v name="AVECCONST">      0.00000000      0.00000000      0.00000000</v>
  </separator>
  <separator name="response functions" >
   <i type="logical" name="LALL_IN_ONE"> F  </i>
   <i type="int" name="IALL_IN_ONE">    -1</i>
   <i type="int" name="NBANDS_WAVE">    -1</i>
   <i type="logical" name="LFINITE_TEMPERATURE"> F  </i>
   <i type="logical" name="LADDER"> F  </i>
   <i type="logical" name="LRPAFORCE"> F  </i>
   <i type="logical" name="LFXC"> F  </i>
   <i type="logical" name="LHARTREE"> T  </i>
   <i type="int" name="IBSE">     0</i>
   <v type="int" name="KPOINT">    -1     0     0     0</v>
   <i type="logical" name="LTCTC"> F  </i>
   <i type="logical" name="LTCTE"> F  </i>
   <i type="logical" name="LTETE"> F  </i>
   <i type="logical" name="LTRIPLET"> F  </i>
   <i type="logical" name="LFXCEPS"> F  </i>
   <i type="logical" name="LFXHEG"> F  </i>
   <i type="int" name="NATURALO">     2</i>
   <i type="logical" name="LHOLEGF"> F  </i>
   <i type="logical" name="L2ORDER"> F  </i>
   <i type="logical" name="LDMP1"> F  </i>
   <i type="logical" name="LMP2LT"> F  </i>
   <i type="logical" name="LSMP2LT"> F  </i>
   <i type="logical" name="LGWLF"> F  </i>
   <i name="ENCUTGW">     -1.60000002</i>
   <i name="ENCUTGWSOFT">     -1.60000002</i>
   <i name="ENCUTLF">     -1.00000000</i>
   <i type="logical" name="LESF_SPLINES"> F  </i>
   <i type="int" name="LMAXMP2">    -1</i>
   <i name="SCISSOR">      0.00000000</i>
   <i type="int" name="NOMEGA">     0</i>
   <i type="int" name="NOMEGAR">     0</i>
   <i type="int" name="NBANDSGW">    -1</i>
   <i type="int" name="NBANDSO">    -1</i>
   <i type="int" name="NBANDSV">    -1</i>
   <i type="int" name="NELMGW">     1</i>
   <i type="int" name="NELMHF">     1</i>
   <i type="int" name="DIM">     3</i>
   <i type="int" name="IESPILON">     4</i>
   <i type="int" name="ANTIRES">     0</i>
   <i name="OMEGAMAX">    -30.00000000</i>
   <i name="OMEGAMIN">    -30.00000000</i>
   <i name="OMEGATL">   -200.00000000</i>
   <i type="int" name="OMEGAGRID">     0</i>
   <i name="CSHIFT">     -0.10000000</i>
   <i type="logical" name="LSELFENERGY"> F  </i>
   <i type="logical" name="LSPECTRAL"> F  </i>
   <i type="logical" name="LSPECTRALGW"> F  </i>
   <i type="logical" name="LSINGLES"> F  </i>
   <i type="logical" name="LFERMIGW"> F  </i>
   <i type="logical" name="ODDONLYGW"> F  </i>
   <i type="logical" name="EVENONLYGW"> F  </i>
   <i type="int" name="NKREDLFX">     1</i>
   <i type="int" name="NKREDLFY">     1</i>
   <i type="int" name="NKREDLFZ">     1</i>
   <i type="int" name="MAXMEM">  2800</i>
   <i type="int" name="TELESCOPE">     0</i>
   <i type="int" name="NTAUPAR">    -1</i>
   <i type="int" name="NOMEGAPAR">    -1</i>
   <i name="DAMP_NEWTON">      0.80000001</i>
   <i name="LAMBDA">      1.00000000</i>
  </separator>
  <separator name="External order field" >
   <i name="OFIELD_KAPPA">      0.00000000</i>
   <v name="OFIELD_K">      0.00000000      0.00000000      0.00000000</v>
   <i name="OFIELD_Q6_NEAR">      0.00000000</i>
   <i name="OFIELD_Q6_FAR">      0.00000000</i>
   <i name="OFIELD_A">      0.00000000</i>
  </separator>
  <separator name="optional k-points parameters" >
   <i type="int" name="KPOINTS_OPT_MODE">     1</i>
   <i type="logical" name="LKPOINTS_OPT"> F  </i>
  </separator>
 </parameters>
 <atominfo>
  <atoms>      98 </atoms>
  <types>       4 </types>
  <array name="atoms" >
   <dimension dim="1">ion</dimension>
   <field type="string">element</field>
   <field type="int">atomtype</field>
   <set>
    <rc><c>C </c><c>   1</c></rc>
    <rc><c>C </c><c>   1</c></rc>
    <rc><c>C </c><c>   1</c></rc>
    <rc><c>C </c><c>   1</c></rc>
    <rc><c>C </c><c>   1</c></rc>
    <rc><c>C </c><c>   1</c></rc>
    <rc><c>C </c><c>   1</c></rc>
    <rc><c>C </c><c>   1</c></rc>
    <rc><c>C </c><c>   1</c></rc>
    <rc><c>C </c><c>   1</c></rc>
    <rc><c>C </c><c>   1</c></rc>
    <rc><c>C </c><c>   1</c></rc>
    <rc><c>C </c><c>   1</c></rc>
    <rc><c>C </c><c>   1</c></rc>
    <rc><c>C </c><c>   1</c></rc>
    <rc><c>C </c><c>   1</c></rc>
    <rc><c>C </c><c>   1</c></rc>
    <rc><c>C </c><c>   1</c></rc>
    <rc><c>C </c><c>   1</c></rc>
    <rc><c>C </c><c>   1</c></rc>
    <rc><c>C </c><c>   1</c></rc>
    <rc><c>C </c><c>   1</c></rc>
    <rc><c>C </c><c>   1</c></rc>
    <rc><c>C </c><c>   1</c></rc>
    <rc><c>C </c><c>   1</c></rc>
    <rc><c>C </c><c>   1</c></rc>
    <rc><c>C </c><c>   1</c></rc>
    <rc><c>C </c><c>   1</c></rc>
    <rc><c>C </c><c>   1</c></rc>
    <rc><c>C </c><c>   1</c></rc>
    <rc><c>C </c><c>   1</c></rc>
    <rc><c>C </c><c>   1</c></rc>
    <rc><c>C </c><c>   1</c></rc>
    <rc><c>C </c><c>   1</c></rc>
    <rc><c>C </c><c>   1</c></rc>
    <rc><c>C </c><c>   1</c></rc>
    <rc><c>C </c><c>   1</c></rc>
    <rc><c>C </c><c>   1</c></rc>
    <rc><c>C </c><c>   1</c></rc>
    <rc><c>C </c><c>   1</c></rc>
    <rc><c>C </c><c>   1</c></rc>
    <rc><c>C </c><c>   1</c></rc>
    <rc><c>C </c><c>   1</c></rc>
    <rc><c>C </c><c>   1</c></rc>
    <rc><c>C </c><c>   1</c></rc>
    <rc><c>C </c><c>   1</c></rc>
    <rc><c>C </c><c>   1</c></rc>
    <rc><c>C </c><c>   1</c></rc>
    <rc><c>C </c><c>   1</c></rc>
    <rc><c>C </c><c>   1</c></rc>
    <rc><c>C </c><c>   1</c></rc>
    <rc><c>C </c><c>   1</c></rc>
    <rc><c>C </c><c>   1</c></rc>
    <rc><c>C </c><c>   1</c></rc>
    <rc><c>C </c><c>   1</c></rc>
    <rc><c>C </c><c>   1</c></rc>
    <rc><c>C </c><c>   1</c></rc>
    <rc><c>C </c><c>   1</c></rc>
    <rc><c>C </c><c>   1</c></rc>
    <rc><c>C </c><c>   1</c></rc>
    <rc><c>C </c><c>   1</c></rc>
    <rc><c>C </c><c>   1</c></rc>
    <rc><c>C </c><c>   1</c></rc>
    <rc><c>C </c><c>   1</c></rc>
    <rc><c>C </c><c>   1</c></rc>
    <rc><c>C </c><c>   1</c></rc>
    <rc><c>C </c><c>   1</c></rc>
    <rc><c>C </c><c>   1</c></rc>
    <rc><c>C </c><c>   1</c></rc>
    <rc><c>C </c><c>   1</c></rc>
    <rc><c>C </c><c>   1</c></rc>
    <rc><c>C </c><c>   1</c></rc>
    <rc><c>C </c><c>   1</c></rc>
    <rc><c>C </c><c>   1</c></rc>
    <rc><c>C </c><c>   1</c></rc>
    <rc><c>C </c><c>   1</c></rc>
    <rc><c>C </c><c>   1</c></rc>
    <rc><c>C </c><c>   1</c></rc>
    <rc><c>C </c><c>   1</c></rc>
    <rc><c>C </c><c>   1</c></rc>
    <rc><c>C </c><c>   1</c></rc>
    <rc><c>C </c><c>   1</c></rc>
    <rc><c>C </c><c>   1</c></rc>
    <rc><c>C </c><c>   1</c></rc>
    <rc><c>C </c><c>   1</c></rc>
    <rc><c>C </c><c>   1</c></rc>
    <rc><c>C </c><c>   1</c></rc>
    <rc><c>H </c><c>   2</c></rc>
    <rc><c>H </c><c>   2</c></rc>
    <rc><c>H </c><c>   2</c></rc>
    <rc><c>H </c><c>   2</c></rc>
    <rc><c>H </c><c>   2</c></rc>
    <rc><c>H </c><c>   2</c></rc>
    <rc><c>H </c><c>   2</c></rc>
    <rc><c>H </c><c>   2</c></rc>
    <rc><c>H </c><c>   2</c></rc>
    <rc><c>N </c><c>   3</c></rc>
    <rc><c>O </c><c>   4</c></rc>
   </set>
  </array>
  <array name="atomtypes" >
   <dimension dim="1">type</dimension>
   <field type="int">atomspertype</field>
   <field type="string">element</field>
   <field>mass</field>
   <field>valence</field>
   <field type="string">pseudopotential</field>
   <set>
    <rc><c>  87</c><c>C </c><c>     12.01100000</c><c>      4.00000000</c><c>  PAW_PBE C 08Apr2002                   </c></rc>
    <rc><c>   9</c><c>H </c><c>      1.00000000</c><c>      1.00000000</c><c>  PAW_PBE H 15Jun2001                   </c></rc>
    <rc><c>   1</c><c>N </c><c>     14.00100000</c><c>      5.00000000</c><c>  PAW_PBE N 08Apr2002                   </c></rc>
    <rc><c>   1</c><c>O </c><c>     16.00000000</c><c>      6.00000000</c><c>  PAW_PBE O 08Apr2002                   </c></rc>
   </set>
  </array>
 </atominfo>
 <structure name="initialpos" >
  <crystal>
   <varray name="basis" >
    <v>      17.27103806       0.00000000       0.00000000 </v>
    <v>      -8.63551903      14.95715771       0.00000000 </v>
    <v>       0.00000000       0.00000000      15.00000000 </v>
   </varray>
   <i name="volume">   3874.88459904 </i>
   <varray name="rec_basis" >
    <v>       0.05790040       0.03342881       0.00000000 </v>
    <v>       0.00000000       0.06685762       0.00000000 </v>
    <v>       0.00000000       0.00000000       0.06666667 </v>
   </varray>
  </crystal>
  <varray name="positions" >
   <v>       0.99989866       0.99988279       0.50118229 </v>
   <v>       0.99959738       0.14254553       0.49951034 </v>
   <v>       0.99985548       0.28561731       0.49794638 </v>
   <v>       0.00026870       0.42860223       0.49741575 </v>
   <v>       0.00066632       0.57157609       0.49883565 </v>
   <v>       0.00134237       0.71473321       0.50109739 </v>
   <v>       0.00098429       0.85774430       0.50188929 </v>
   <v>       0.14326028       0.00054725       0.50069079 </v>
   <v>       0.14277983       0.14317787       0.50163338 </v>
   <v>       0.14246670       0.28578234       0.50193058 </v>
   <v>       0.14314516       0.42926039       0.50064249 </v>
   <v>       0.14354262       0.57170085       0.49899561 </v>
   <v>       0.14364005       0.71448597       0.49900819 </v>
   <v>       0.14342206       0.85758685       0.49957959 </v>
   <v>       0.28590212       0.00021285       0.49899842 </v>
   <v>       0.28585243       0.14298910       0.50190285 </v>
   <v>       0.28594079       0.28734520       0.50658209 </v>
   <v>       0.28507199       0.42894201       0.50971367 </v>
   <v>       0.28785739       0.57249749       0.50485000 </v>
   <v>       0.28641727       0.71526525       0.50037927 </v>
   <v>       0.28569604       0.85777108       0.49854046 </v>
   <v>       0.42877285       0.99996653       0.49760592 </v>
   <v>       0.42866081       0.14261635       0.49901368 </v>
   <v>       0.42712599       0.28250993       0.50143124 </v>
   <v>       0.42786445       0.85681502       0.49921321 </v>
   <v>       0.57102790       0.99944334       0.49744679 </v>
   <v>       0.57151609       0.14231551       0.49709154 </v>
   <v>       0.57254800       0.28592184       0.49958377 </v>
   <v>       0.57009201       0.85530864       0.50089213 </v>
   <v>       0.71324809       0.99869120       0.49877302 </v>
   <v>       0.71425321       0.14229780       0.49637939 </v>
   <v>       0.71456875       0.28540329       0.49796743 </v>
   <v>       0.71433403       0.42761023       0.50400348 </v>
   <v>       0.71878640       0.57329926       0.51706510 </v>
   <v>       0.71804738       0.71506949       0.51608115 </v>
   <v>       0.71228742       0.85576356       0.50485378 </v>
   <v>       0.85653390       0.99932660       0.50079203 </v>
   <v>       0.85660379       0.14219476       0.49734500 </v>
   <v>       0.85711452       0.28528613       0.49662890 </v>
   <v>       0.85773272       0.42841538       0.49921070 </v>
   <v>       0.85837016       0.57185416       0.50374295 </v>
   <v>       0.85954823       0.71515039       0.50713860 </v>
   <v>       0.85738720       0.85679099       0.50481051 </v>
   <v>       0.04753512       0.09522616       0.50061756 </v>
   <v>       0.04704048       0.23773080       0.49942131 </v>
   <v>       0.04757355       0.38103736       0.49818804 </v>
   <v>       0.04826216       0.52395203       0.49799867 </v>
   <v>       0.04845033       0.66692031       0.49941057 </v>
   <v>       0.04832281       0.80990033       0.50083595 </v>
   <v>       0.04800261       0.95268095       0.50116569 </v>
   <v>       0.19059105       0.09543475       0.50165629 </v>
   <v>       0.19018569       0.23839312       0.50315255 </v>
   <v>       0.18960854       0.38096751       0.50345748 </v>
   <v>       0.19157402       0.52477160       0.50086207 </v>
   <v>       0.19113120       0.66706329       0.49944931 </v>
   <v>       0.19083703       0.80992604       0.49897290 </v>
   <v>       0.19091171       0.95275195       0.49974347 </v>
   <v>       0.33354197       0.09555268       0.49982109 </v>
   <v>       0.33417791       0.23825456       0.50372837 </v>
   <v>       0.33035921       0.38010682       0.51235733 </v>
   <v>       0.33140901       0.52353762       0.51179731 </v>
   <v>       0.33724790       0.67074292       0.50265578 </v>
   <v>       0.33314258       0.81004843       0.49924600 </v>
   <v>       0.33339330       0.95269444       0.49817768 </v>
   <v>       0.47635244       0.09496348       0.49765931 </v>
   <v>       0.47570834       0.23771110       0.49969812 </v>
   <v>       0.47247003       0.80617919       0.50072214 </v>
   <v>       0.47606087       0.95218961       0.49786744 </v>
   <v>       0.61883634       0.09460705       0.49666362 </v>
   <v>       0.61943805       0.23768924       0.49807778 </v>
   <v>       0.62139962       0.37921792       0.50234306 </v>
   <v>       0.61887444       0.81075163       0.50381171 </v>
   <v>       0.61784567       0.95099748       0.49885110 </v>
   <v>       0.76141664       0.09443233       0.49703339 </v>
   <v>       0.76206452       0.23751996       0.49657513 </v>
   <v>       0.76247743       0.38059330       0.50028945 </v>
   <v>       0.76272376       0.52482696       0.50845854 </v>
   <v>       0.76453478       0.66740203       0.51421792 </v>
   <v>       0.76146882       0.80758654       0.50871970 </v>
   <v>       0.76096249       0.95128336       0.50134488 </v>
   <v>       0.90415001       0.09438346       0.49893347 </v>
   <v>       0.90447342       0.23757720       0.49683163 </v>
   <v>       0.90494429       0.38084244       0.49732138 </v>
   <v>       0.90551698       0.52401768       0.50013665 </v>
   <v>       0.90621264       0.66701545       0.50409079 </v>
   <v>       0.90576175       0.80996855       0.50457982 </v>
   <v>       0.90460377       0.95188403       0.50198687 </v>
   <v>       0.46319707       0.35504357       0.50017601 </v>
   <v>       0.40282437       0.41801755       0.51722578 </v>
   <v>       0.40370398       0.56055691       0.52100694 </v>
   <v>       0.64562398       0.67602726       0.52197352 </v>
   <v>       0.64659706       0.53957213       0.52499759 </v>
   <v>       0.58542555       0.41578028       0.50307090 </v>
   <v>       0.58019131       0.73809204       0.50539346 </v>
   <v>       0.56997782       0.56056666       0.40516421 </v>
   <v>       0.48240635       0.55393841       0.43855482 </v>
   <v>       0.42729550       0.71565637       0.50241431 </v>
   <v>       0.52657754       0.53667628       0.45329054 </v>
  </varray>
  <varray name="selective"  type="logical" >
   <v type="logical" >  T  T  T </v>
   <v type="logical" >  T  T  T </v>
   <v type="logical" >  T  T  T </v>
   <v type="logical" >  T  T  T </v>
   <v type="logical" >  T  T  T </v>
   <v type="logical" >  T  T  T </v>
   <v type="logical" >  T  T  T </v>
   <v type="logical" >  T  T  T </v>
   <v type="logical" >  T  T  T </v>
   <v type="logical" >  T  T  T </v>
   <v type="logical" >  T  T  T </v>
   <v type="logical" >  T  T  T </v>
   <v type="logical" >  T  T  T </v>
   <v type="logical" >  T  T  T </v>
   <v type="logical" >  T  T  T </v>
   <v type="logical" >  T  T  T </v>
   <v type="logical" >  T  T  T </v>
   <v type="logical" >  T  T  T </v>
   <v type="logical" >  T  T  T </v>
   <v type="logical" >  T  T  T </v>
   <v type="logical" >  T  T  T </v>
   <v type="logical" >  T  T  T </v>
   <v type="logical" >  T  T  T </v>
   <v type="logical" >  T  T  T </v>
   <v type="logical" >  T  T  T </v>
   <v type="logical" >  T  T  T </v>
   <v type="logical" >  T  T  T </v>
   <v type="logical" >  T  T  T </v>
   <v type="logical" >  T  T  T </v>
   <v type="logical" >  T  T  T </v>
   <v type="logical" >  T  T  T </v>
   <v type="logical" >  T  T  T </v>
   <v type="logical" >  T  T  T </v>
   <v type="logical" >  T  T  T </v>
   <v type="logical" >  T  T  T </v>
   <v type="logical" >  T  T  T </v>
   <v type="logical" >  T  T  T </v>
   <v type="logical" >  T  T  T </v>
   <v type="logical" >  T  T  T </v>
   <v type="logical" >  T  T  T </v>
   <v type="logical" >  T  T  T </v>
   <v type="logical" >  T  T  T </v>
   <v type="logical" >  T  T  T </v>
   <v type="logical" >  T  T  T </v>
   <v type="logical" >  T  T  T </v>
   <v type="logical" >  T  T  T </v>
   <v type="logical" >  T  T  T </v>
   <v type="logical" >  T  T  T </v>
   <v type="logical" >  T  T  T </v>
   <v type="logical" >  T  T  T </v>
   <v type="logical" >  T  T  T </v>
   <v type="logical" >  T  T  T </v>
   <v type="logical" >  T  T  T </v>
   <v type="logical" >  T  T  T </v>
   <v type="logical" >  T  T  T </v>
   <v type="logical" >  T  T  T </v>
   <v type="logical" >  T  T  T </v>
   <v type="logical" >  T  T  T </v>
   <v type="logical" >  T  T  T </v>
   <v type="logical" >  T  T  T </v>
   <v type="logical" >  T  T  T </v>
   <v type="logical" >  T  T  T </v>
   <v type="logical" >  T  T  T </v>
   <v type="logical" >  T  T  T </v>
   <v type="logical" >  T  T  T </v>
   <v type="logical" >  T  T  T </v>
   <v type="logical" >  T  T  T </v>
   <v type="logical" >  T  T  T </v>
   <v type="logical" >  T  T  T </v>
   <v type="logical" >  T  T  T </v>
   <v type="logical" >  T  T  T </v>
   <v type="logical" >  T  T  T </v>
   <v type="logical" >  T  T  T </v>
   <v type="logical" >  T  T  T </v>
   <v type="logical" >  T  T  T </v>
   <v type="logical" >  T  T  T </v>
   <v type="logical" >  T  T  T </v>
   <v type="logical" >  T  T  T </v>
   <v type="logical" >  T  T  T </v>
   <v type="logical" >  T  T  T </v>
   <v type="logical" >  T  T  T </v>
   <v type="logical" >  T  T  T </v>
   <v type="logical" >  T  T  T </v>
   <v type="logical" >  T  T  T </v>
   <v type="logical" >  T  T  T </v>
   <v type="logical" >  T  T  T </v>
   <v type="logical" >  T  T  T </v>
   <v type="logical" >  T  T  T </v>
   <v type="logical" >  T  T  T </v>
   <v type="logical" >  T  T  T </v>
   <v type="logical" >  T  T  T </v>
   <v type="logical" >  T  T  T </v>
   <v type="logical" >  T  T  T </v>
   <v type="logical" >  T  T  T </v>
   <v type="logical" >  T  T  T </v>
   <v type="logical" >  T  T  T </v>
   <v type="logical" >  T  T  T </v>
   <v type="logical" >  T  T  T </v>
  </varray>
  <nose>
   <v>      -3.00000000       0.00000000       0.00010000       0.00010000 </v>
  </nose>
 </structure>
 <calculation>
  <scstep>
   <time name="dav">   39.21   39.49</time>
   <time name="total">   42.39   42.71</time>
   <energy>
    <i name="alphaZ">    176.01131809 </i>
    <i name="ewald">  36566.18059329 </i>
    <i name="hartreedc"> -46659.29744717 </i>
    <i name="XCdc">   1220.47381888 </i>
    <i name="pawpsdc">  10007.03170968 </i>
    <i name="pawaedc"> -10059.36457306 </i>
    <i name="eentropy">     -0.03648721 </i>
    <i name="bandstr">  -1613.24527159 </i>
    <i name="atom">  13611.23051297 </i>
    <i name="e_fr_energy">   3248.98417388 </i>
    <i name="e_wo_entrp">   3249.02066109 </i>
    <i name="e_0_energy">   3249.00241748 </i>
   </energy>
  </scstep>
  <scstep>
   <time name="dav">   53.47   53.87</time>
   <time name="total">   53.47   53.87</time>
   <energy>
    <i name="e_fr_energy">   -260.42189592 </i>
    <i name="e_wo_entrp">   -260.42165376 </i>
    <i name="e_0_energy">   -260.42177484 </i>
   </energy>
  </scstep>
  <scstep>
   <time name="dav">   45.50   45.84</time>
   <time name="total">   45.50   45.84</time>
   <energy>
    <i name="e_fr_energy">   -870.06419142 </i>
    <i name="e_wo_entrp">   -870.06418284 </i>
    <i name="e_0_energy">   -870.06418713 </i>
   </energy>
  </scstep>
  <scstep>
   <time name="dav">   46.52   46.87</time>
   <time name="total">   46.52   46.88</time>
   <energy>
    <i name="e_fr_energy">   -892.06118543 </i>
    <i name="e_wo_entrp">   -892.06117169 </i>
    <i name="e_0_energy">   -892.06117856 </i>
   </energy>
  </scstep>
  <scstep>
   <time name="dav">   50.82   51.19</time>
   <time name="total">   53.98   54.38</time>
   <energy>
    <i name="e_fr_energy">   -892.67695345 </i>
    <i name="e_wo_entrp">   -892.67693889 </i>
    <i name="e_0_energy">   -892.67694617 </i>
   </energy>
  </scstep>
  <scstep>
   <time name="dav">   44.44   44.77</time>
   <time name="total">   50.68   51.05</time>
   <energy>
    <i name="e_fr_energy">   -874.96583496 </i>
    <i name="e_wo_entrp">   -874.96305177 </i>
    <i name="e_0_energy">   -874.96444336 </i>
   </energy>
  </scstep>
  <scstep>
   <time name="dav">   42.72   43.03</time>
   <time name="total">   48.93   49.29</time>
   <energy>
    <i name="e_fr_energy">   -852.23059360 </i>
    <i name="e_wo_entrp">   -852.23057141 </i>
    <i name="e_0_energy">   -852.23058250 </i>
   </energy>
  </scstep>
  <scstep>
   <time name="dav">   43.84   44.17</time>
   <time name="total">   50.03   50.40</time>
   <energy>
    <i name="e_fr_energy">   -847.36283471 </i>
    <i name="e_wo_entrp">   -847.36283438 </i>
    <i name="e_0_energy">   -847.36283454 </i>
   </energy>
  </scstep>
  <scstep>
   <time name="dav">   42.91   43.23</time>
   <time name="total">   49.11   49.48</time>
   <energy>
    <i name="e_fr_energy">   -847.21570120 </i>
    <i name="e_wo_entrp">   -847.21570094 </i>
    <i name="e_0_energy">   -847.21570107 </i>
   </energy>
  </scstep>
  <scstep>
   <time name="dav">   42.57   42.88</time>
   <time name="total">   48.70   49.07</time>
   <energy>
    <i name="e_fr_energy">   -847.14045158 </i>
    <i name="e_wo_entrp">   -847.14045140 </i>
    <i name="e_0_energy">   -847.14045149 </i>
   </energy>
  </scstep>
  <scstep>
   <time name="dav">   42.51   42.80</time>
   <time name="total">   48.69   49.03</time>
   <energy>
    <i name="e_fr_energy">   -847.12746331 </i>
    <i name="e_wo_entrp">   -847.12746314 </i>
    <i name="e_0_energy">   -847.12746323 </i>
   </energy>
  </scstep>
  <scstep>
   <time name="dav">   46.04   46.35</time>
   <time name="total">   52.18   52.54</time>
   <energy>
    <i name="e_fr_energy">   -847.12628067 </i>
    <i name="e_wo_entrp">   -847.12628049 </i>
    <i name="e_0_energy">   -847.12628058 </i>
   </energy>
  </scstep>
  <scstep>
   <time name="dav">   44.87   45.18</time>
   <time name="total">   50.75   51.11</time>
   <energy>
    <i name="e_fr_energy">   -847.12596673 </i>
    <i name="e_wo_entrp">   -847.12596655 </i>
    <i name="e_0_energy">   -847.12596664 </i>
   </energy>
  </scstep>
  <scstep>
   <time name="dav">   43.48   43.79</time>
   <time name="total">   49.44   49.80</time>
   <energy>
    <i name="e_fr_energy">   -847.12607896 </i>
    <i name="e_wo_entrp">   -847.12607878 </i>
    <i name="e_0_energy">   -847.12607887 </i>
   </energy>
  </scstep>
  <scstep>
   <time name="dav">   44.02   44.33</time>
   <time name="total">   50.25   50.60</time>
   <energy>
    <i name="e_fr_energy">   -847.12611824 </i>
    <i name="e_wo_entrp">   -847.12611806 </i>
    <i name="e_0_energy">   -847.12611815 </i>
   </energy>
  </scstep>
  <scstep>
   <time name="dav">   40.60   40.87</time>
   <time name="total">   46.86   47.18</time>
   <energy>
    <i name="e_fr_energy">   -847.12612495 </i>
    <i name="e_wo_entrp">   -847.12612477 </i>
    <i name="e_0_energy">   -847.12612486 </i>
   </energy>
  </scstep>
  <scstep>
   <time name="dav">   44.29   44.58</time>
   <time name="total">   47.29   47.61</time>
   <energy>
    <i name="alphaZ">    176.01131809 </i>
    <i name="ewald">  36566.18059329 </i>
    <i name="hartreedc"> -48196.39540784 </i>
    <i name="XCdc">   1270.94519427 </i>
    <i name="pawpsdc">  37342.67431791 </i>
    <i name="pawaedc"> -37405.88600404 </i>
    <i name="eentropy">     -0.00000018 </i>
    <i name="bandstr">  -4211.88664956 </i>
    <i name="atom">  13611.23051297 </i>
    <i name="e_fr_energy">   -847.12612508 </i>
    <i name="e_wo_entrp">   -847.12612491 </i>
    <i name="e_0_energy">   -847.12612500 </i>
   </energy>
  </scstep>
  <structure>
   <crystal>
    <varray name="basis" >
     <v>      17.27103806       0.00000000       0.00000000 </v>
     <v>      -8.63551903      14.95715771       0.00000000 </v>
     <v>       0.00000000       0.00000000      15.00000000 </v>
    </varray>
    <i name="volume">   3874.88459904 </i>
    <varray name="rec_basis" >
     <v>       0.05790040       0.03342881       0.00000000 </v>
     <v>       0.00000000       0.06685762       0.00000000 </v>
     <v>       0.00000000       0.00000000       0.06666667 </v>
    </varray>
   </crystal>
   <varray name="positions" >
    <v>       0.99989866       0.99988279       0.50118229 </v>
    <v>       0.99959738       0.14254553       0.49951034 </v>
    <v>       0.99985548       0.28561731       0.49794638 </v>
    <v>       0.00026870       0.42860223       0.49741575 </v>
    <v>       0.00066632       0.57157609       0.49883565 </v>
    <v>       0.00134237       0.71473321       0.50109739 </v>
    <v>       0.00098429       0.85774430       0.50188929 </v>
    <v>       0.14326028       0.00054725       0.50069079 </v>
    <v>       0.14277983       0.14317787       0.50163338 </v>
    <v>       0.14246670       0.28578234       0.50193058 </v>
    <v>       0.14314516       0.42926039       0.50064249 </v>
    <v>       0.14354262       0.57170085       0.49899561 </v>
    <v>       0.14364005       0.71448597       0.49900819 </v>
    <v>       0.14342206       0.85758685       0.49957959 </v>
    <v>       0.28590212       0.00021285       0.49899842 </v>
    <v>       0.28585243       0.14298910       0.50190285 </v>
    <v>       0.28594079       0.28734520       0.50658209 </v>
    <v>       0.28507199       0.42894201       0.50971367 </v>
    <v>       0.28785739       0.57249749       0.50485000 </v>
    <v>       0.28641727       0.71526525       0.50037927 </v>
    <v>       0.28569604       0.85777108       0.49854046 </v>
    <v>       0.42877285       0.99996653       0.49760592 </v>
    <v>       0.42866081       0.14261635       0.49901368 </v>
    <v>       0.42712599       0.28250993       0.50143124 </v>
    <v>       0.42786445       0.85681502       0.49921321 </v>
    <v>       0.57102790       0.99944334       0.49744679 </v>
    <v>       0.57151609       0.14231551       0.49709154 </v>
    <v>       0.57254800       0.28592184       0.49958377 </v>
    <v>       0.57009201       0.85530864       0.50089213 </v>
    <v>       0.71324809       0.99869120       0.49877302 </v>
    <v>       0.71425321       0.14229780       0.49637939 </v>
    <v>       0.71456875       0.28540329       0.49796743 </v>
    <v>       0.71433403       0.42761023       0.50400348 </v>
    <v>       0.71878640       0.57329926       0.51706510 </v>
    <v>       0.71804738       0.71506949       0.51608115 </v>
    <v>       0.71228742       0.85576356       0.50485378 </v>
    <v>       0.85653390       0.99932660       0.50079203 </v>
    <v>       0.85660379       0.14219476       0.49734500 </v>
    <v>       0.85711452       0.28528613       0.49662890 </v>
    <v>       0.85773272       0.42841538       0.49921070 </v>
    <v>       0.85837016       0.57185416       0.50374295 </v>
    <v>       0.85954823       0.71515039       0.50713860 </v>
    <v>       0.85738720       0.85679099       0.50481051 </v>
    <v>       0.04753512       0.09522616       0.50061756 </v>
    <v>       0.04704048       0.23773080       0.49942131 </v>
    <v>       0.04757355       0.38103736       0.49818804 </v>
    <v>       0.04826216       0.52395203       0.49799867 </v>
    <v>       0.04845033       0.66692031       0.49941057 </v>
    <v>       0.04832281       0.80990033       0.50083595 </v>
    <v>       0.04800261       0.95268095       0.50116569 </v>
    <v>       0.19059105       0.09543475       0.50165629 </v>
    <v>       0.19018569       0.23839312       0.50315255 </v>
    <v>       0.18960854       0.38096751       0.50345748 </v>
    <v>       0.19157402       0.52477160       0.50086207 </v>
    <v>       0.19113120       0.66706329       0.49944931 </v>
    <v>       0.19083703       0.80992604       0.49897290 </v>
    <v>       0.19091171       0.95275195       0.49974347 </v>
    <v>       0.33354197       0.09555268       0.49982109 </v>
    <v>       0.33417791       0.23825456       0.50372837 </v>
    <v>       0.33035921       0.38010682       0.51235733 </v>
    <v>       0.33140901       0.52353762       0.51179731 </v>
    <v>       0.33724790       0.67074292       0.50265578 </v>
    <v>       0.33314258       0.81004843       0.49924600 </v>
    <v>       0.33339330       0.95269444       0.49817768 </v>
    <v>       0.47635244       0.09496348       0.49765931 </v>
    <v>       0.47570834       0.23771110       0.49969812 </v>
    <v>       0.47247003       0.80617919       0.50072214 </v>
    <v>       0.47606087       0.95218961       0.49786744 </v>
    <v>       0.61883634       0.09460705       0.49666362 </v>
    <v>       0.61943805       0.23768924       0.49807778 </v>
    <v>       0.62139962       0.37921792       0.50234306 </v>
    <v>       0.61887444       0.81075163       0.50381171 </v>
    <v>       0.61784567       0.95099748       0.49885110 </v>
    <v>       0.76141664       0.09443233       0.49703339 </v>
    <v>       0.76206452       0.23751996       0.49657513 </v>
    <v>       0.76247743       0.38059330       0.50028945 </v>
    <v>       0.76272376       0.52482696       0.50845854 </v>
    <v>       0.76453478       0.66740203       0.51421792 </v>
    <v>       0.76146882       0.80758654       0.50871970 </v>
    <v>       0.76096249       0.95128336       0.50134488 </v>
    <v>       0.90415001       0.09438346       0.49893347 </v>
    <v>       0.90447342       0.23757720       0.49683163 </v>
    <v>       0.90494429       0.38084244       0.49732138 </v>
    <v>       0.90551698       0.52401768       0.50013665 </v>
    <v>       0.90621264       0.66701545       0.50409079 </v>
    <v>       0.90576175       0.80996855       0.50457982 </v>
    <v>       0.90460377       0.95188403       0.50198687 </v>
    <v>       0.46319707       0.35504357       0.50017601 </v>
    <v>       0.40282437       0.41801755       0.51722578 </v>
    <v>       0.40370398       0.56055691       0.52100694 </v>
    <v>       0.64562398       0.67602726       0.52197352 </v>
    <v>       0.64659706       0.53957213       0.52499759 </v>
    <v>       0.58542555       0.41578028       0.50307090 </v>
    <v>       0.58019131       0.73809204       0.50539346 </v>
    <v>       0.56997782       0.56056666       0.40516421 </v>
    <v>       0.48240635       0.55393841       0.43855482 </v>
    <v>       0.42729550       0.71565637       0.50241431 </v>
    <v>       0.52657754       0.53667628       0.45329054 </v>
   </varray>
  </structure>
  <varray name="forces" >
   <v>      -0.00133812       0.00123835       0.00316502 </v>
   <v>       0.00025233      -0.00062372       0.00111906 </v>
   <v>      -0.00031418       0.00464614      -0.00135218 </v>
   <v>      -0.00051282       0.00053460      -0.00116608 </v>
   <v>       0.00036044      -0.00401825       0.00071995 </v>
   <v>       0.00099650      -0.00123763       0.00301494 </v>
   <v>       0.00035917       0.00161100       0.00450445 </v>
   <v>      -0.00052741      -0.00146945       0.00116287 </v>
   <v>       0.00023118      -0.00205064       0.00089662 </v>
   <v>      -0.00077312       0.00264689       0.00040101 </v>
   <v>      -0.00214530       0.00250483      -0.00067351 </v>
   <v>      -0.00218835      -0.00790295      -0.00095374 </v>
   <v>      -0.00121681      -0.00208407      -0.00118805 </v>
   <v>      -0.00026874       0.00024542       0.00057070 </v>
   <v>      -0.00176176      -0.00019644      -0.00063861 </v>
   <v>      -0.00398195      -0.00368010      -0.00053900 </v>
   <v>      -0.00109100      -0.00089265       0.00396978 </v>
   <v>      -0.00232700       0.00020759       0.00620205 </v>
   <v>      -0.00465766      -0.00544777       0.00288752 </v>
   <v>      -0.00836520      -0.00471328      -0.00161183 </v>
   <v>      -0.00355142      -0.00092113      -0.00112613 </v>
   <v>      -0.00188322      -0.00010280      -0.00154264 </v>
   <v>      -0.00285672      -0.00263293      -0.00067346 </v>
   <v>      -0.00119653      -0.00382988       0.00082357 </v>
   <v>      -0.00170959       0.00087543      -0.00043177 </v>
   <v>       0.00025849       0.00071092      -0.00018784 </v>
   <v>      -0.00077569       0.00163522      -0.00115984 </v>
   <v>       0.00162488       0.00081378       0.00094204 </v>
   <v>       0.00388891       0.00181672       0.00200058 </v>
   <v>       0.00609561       0.00012060       0.00145607 </v>
   <v>       0.00131268       0.00714452       0.00006123 </v>
   <v>       0.00103414       0.00648267       0.00052644 </v>
   <v>       0.00419095      -0.00057710       0.00289398 </v>
   <v>       0.00466869      -0.00746517       0.00718399 </v>
   <v>      -0.00020036       0.00384830       0.00843144 </v>
   <v>       0.00582685       0.00651067       0.00382024 </v>
   <v>       0.00115455       0.00284024       0.00269390 </v>
   <v>       0.00297226       0.00200319       0.00029645 </v>
   <v>       0.00170331       0.01409818      -0.00051889 </v>
   <v>       0.00173401      -0.00024844       0.00125573 </v>
   <v>       0.00109554      -0.00455737       0.00368965 </v>
   <v>       0.00143984      -0.00075783       0.00651288 </v>
   <v>      -0.00261421       0.00574043       0.00473006 </v>
   <v>       0.00104783       0.00083824       0.00155075 </v>
   <v>       0.00180088      -0.00074934      -0.00028915 </v>
   <v>       0.00015781      -0.00455335      -0.00072133 </v>
   <v>       0.00081697       0.00443588      -0.00071919 </v>
   <v>      -0.00083087       0.00339390       0.00052695 </v>
   <v>      -0.00122028      -0.00023015       0.00301145 </v>
   <v>      -0.00003735      -0.00286131       0.00275284 </v>
   <v>       0.00063912       0.00442057       0.00187082 </v>
   <v>       0.00170573       0.00070056       0.00100756 </v>
   <v>       0.00548291      -0.00431071       0.00233936 </v>
   <v>       0.00385759       0.00373914      -0.00042089 </v>
   <v>       0.00486597       0.00714058      -0.00027071 </v>
   <v>       0.00159048       0.00098653      -0.00123961 </v>
   <v>       0.00057373      -0.00114263       0.00028709 </v>
   <v>       0.00352962       0.00173426      -0.00030184 </v>
   <v>       0.00298859       0.00186018       0.00235123 </v>
   <v>       0.00245840       0.00096347       0.00791967 </v>
   <v>       0.00390524       0.00223816       0.00983203 </v>
   <v>       0.00382541       0.00300137       0.00138099 </v>
   <v>       0.00375935       0.00162154      -0.00157414 </v>
   <v>       0.00217035      -0.00048217      -0.00170541 </v>
   <v>       0.00249094      -0.00032283      -0.00041864 </v>
   <v>       0.00102591       0.00082060       0.00067607 </v>
   <v>       0.00069008      -0.00073544       0.00107060 </v>
   <v>       0.00158694      -0.00114841      -0.00095867 </v>
   <v>       0.00059558      -0.00180929       0.00009223 </v>
   <v>      -0.00145336      -0.00339097       0.00040461 </v>
   <v>      -0.00356696      -0.00201347       0.00197512 </v>
   <v>      -0.00977993      -0.00722324       0.00362942 </v>
   <v>      -0.00183414      -0.00209608       0.00090642 </v>
   <v>      -0.00237433      -0.00097191       0.00046013 </v>
   <v>      -0.00122165      -0.01615580      -0.00157466 </v>
   <v>      -0.00370148      -0.00211055       0.00157406 </v>
   <v>      -0.00606587       0.00367477       0.00650075 </v>
   <v>      -0.00174081       0.00284198       0.00775817 </v>
   <v>       0.00204653      -0.00745010       0.00643541 </v>
   <v>      -0.00750111      -0.00174442       0.00303251 </v>
   <v>      -0.00079223       0.00137614       0.00153587 </v>
   <v>       0.00124104      -0.00478069      -0.00094716 </v>
   <v>       0.00015653      -0.00435151      -0.00052679 </v>
   <v>      -0.00234578       0.00379127       0.00256231 </v>
   <v>      -0.00284031       0.00279073       0.00604786 </v>
   <v>      -0.00043445      -0.00244502       0.00678472 </v>
   <v>       0.00264226      -0.00850862       0.00383408 </v>
   <v>       0.00082438      -0.00003649       0.00101252 </v>
   <v>       0.00052732      -0.00034525       0.00943250 </v>
   <v>      -0.00142834      -0.00028276       0.02277174 </v>
   <v>      -0.00159708      -0.00205866       0.01088309 </v>
   <v>      -0.00244239      -0.00023643       0.00632177 </v>
   <v>       0.00062565      -0.00103206       0.00221565 </v>
   <v>       0.00096632       0.00298716       0.00592831 </v>
   <v>       0.04108204       0.02188488      -0.05767869 </v>
   <v>      -0.03939633      -0.00804861      -0.08793602 </v>
   <v>      -0.00012363      -0.00065187       0.00152806 </v>
   <v>      -0.00389203       0.00417219      -0.05509049 </v>
  </varray>
  <varray name="stress" >
   <v>       3.17092199      -0.79693332      -0.00199319 </v>
   <v>      -0.79693412      -0.97922014      -0.02376273 </v>
   <v>      -0.00199303      -0.02376290      -0.20917372 </v>
  </varray>
  <energy>
   <i name="e_fr_energy">   -854.94222437 </i>
   <i name="e_wo_entrp">   -854.94222419 </i>
   <i name="e_0_energy">   -854.94222428 </i>
  </energy>
  <time name="totalsc">  961.82  968.66</time>
 </calculation>
 <calculation>
  <scstep>
   <time name="dav">   39.86   40.16</time>
   <time name="total">   45.81   46.16</time>
   <energy>
    <i name="alphaZ">    176.01131809 </i>
    <i name="ewald">  36566.15115608 </i>
    <i name="hartreedc"> -48196.34944451 </i>
    <i name="XCdc">   1270.94523794 </i>
    <i name="pawpsdc">  37342.49054485 </i>
    <i name="pawaedc"> -37405.70208228 </i>
    <i name="eentropy">     -0.00000018 </i>
    <i name="bandstr">  -4211.90338525 </i>
    <i name="atom">  13611.23051297 </i>
    <i name="e_fr_energy">   -847.12614229 </i>
    <i name="e_wo_entrp">   -847.12614211 </i>
    <i name="e_0_energy">   -847.12614220 </i>
   </energy>
  </scstep>
  <scstep>
   <time name="dav">   42.40   42.71</time>
   <time name="total">   48.65   49.01</time>
   <energy>
    <i name="e_fr_energy">   -847.12614364 </i>
    <i name="e_wo_entrp">   -847.12614346 </i>
    <i name="e_0_energy">   -847.12614355 </i>
   </energy>
  </scstep>
  <scstep>
   <time name="dav">   31.48   31.72</time>
   <time name="total">   34.52   34.79</time>
   <energy>
    <i name="alphaZ">    176.01131809 </i>
    <i name="ewald">  36566.15115608 </i>
    <i name="hartreedc"> -48196.33962515 </i>
    <i name="XCdc">   1270.94525222 </i>
    <i name="pawpsdc">  37342.32685053 </i>
    <i name="pawaedc"> -37405.53840639 </i>
    <i name="eentropy">     -0.00000018 </i>
    <i name="bandstr">  -4211.91320126 </i>
    <i name="atom">  13611.23051297 </i>
    <i name="e_fr_energy">   -847.12614307 </i>
    <i name="e_wo_entrp">   -847.12614290 </i>
    <i name="e_0_energy">   -847.12614299 </i>
   </energy>
  </scstep>
  <structure>
   <crystal>
    <varray name="basis" >
     <v>      17.27103806       0.00000000       0.00000000 </v>
     <v>      -8.63551903      14.95715771       0.00000000 </v>
     <v>       0.00000000       0.00000000      15.00000000 </v>
    </varray>
    <i name="volume">   3874.88459904 </i>
    <varray name="rec_basis" >
     <v>       0.05790040       0.03342881       0.00000000 </v>
     <v>       0.00000000       0.06685762       0.00000000 </v>
     <v>       0.00000000       0.00000000       0.06666667 </v>
    </varray>
   </crystal>
   <varray name="positions" >
    <v>       0.99989825       0.99988370       0.50118514 </v>
    <v>       0.99959705       0.14254506       0.49951191 </v>
    <v>       0.99985650       0.28562034       0.49794594 </v>
    <v>       0.00026827       0.42860255       0.49741508 </v>
    <v>       0.00066508       0.57157345       0.49883604 </v>
    <v>       0.00134264       0.71473251       0.50109930 </v>
    <v>       0.00098516       0.85774554       0.50189269 </v>
    <v>       0.14325944       0.00054634       0.50069290 </v>
    <v>       0.14277901       0.14317643       0.50163527 </v>
    <v>       0.14246669       0.28578395       0.50193143 </v>
    <v>       0.14314426       0.42926195       0.50064199 </v>
    <v>       0.14353836       0.57169554       0.49899499 </v>
    <v>       0.14363860       0.71448463       0.49900753 </v>
    <v>       0.14342201       0.85758710       0.49958073 </v>
    <v>       0.28590097       0.00021275       0.49899974 </v>
    <v>       0.28584871       0.14298662       0.50190432 </v>
    <v>       0.28593937       0.28734441       0.50658507 </v>
    <v>       0.28507008       0.42894190       0.50971538 </v>
    <v>       0.28785221       0.57249371       0.50485035 </v>
    <v>       0.28641069       0.71526207       0.50037791 </v>
    <v>       0.28569362       0.85777048       0.49854046 </v>
    <v>       0.42877163       0.99996644       0.49760637 </v>
    <v>       0.42865813       0.14261457       0.49901562 </v>
    <v>       0.42712379       0.28250727       0.50143523 </v>
    <v>       0.42786364       0.85681552       0.49921329 </v>
    <v>       0.57102814       0.99944377       0.49744750 </v>
    <v>       0.57151602       0.14231658       0.49709231 </v>
    <v>       0.57254907       0.28592239       0.49958660 </v>
    <v>       0.57009475       0.85530980       0.50089339 </v>
    <v>       0.71325150       0.99869125       0.49877431 </v>
    <v>       0.71425614       0.14230253       0.49638011 </v>
    <v>       0.71457132       0.28540760       0.49796840 </v>
    <v>       0.71433621       0.42760991       0.50400478 </v>
    <v>       0.71878678       0.57329448       0.51706430 </v>
    <v>       0.71804908       0.71507235       0.51608191 </v>
    <v>       0.71229304       0.85576799       0.50485522 </v>
    <v>       0.85653542       0.99932853       0.50079400 </v>
    <v>       0.85660593       0.14219605       0.49734573 </v>
    <v>       0.85711995       0.28529552       0.49662879 </v>
    <v>       0.85773346       0.42841522       0.49921124 </v>
    <v>       0.85836940       0.57185121       0.50374437 </v>
    <v>       0.85954911       0.71515009       0.50714130 </v>
    <v>       0.85738783       0.85679506       0.50481297 </v>
    <v>       0.04753580       0.09522672       0.50061962 </v>
    <v>       0.04704090       0.23773021       0.49942186 </v>
    <v>       0.04757171       0.38103423       0.49818781 </v>
    <v>       0.04826384       0.52395496       0.49799825 </v>
    <v>       0.04845098       0.66692264       0.49941092 </v>
    <v>       0.04832211       0.80990030       0.50083832 </v>
    <v>       0.04800164       0.95267915       0.50116841 </v>
    <v>       0.19059274       0.09543773       0.50165900 </v>
    <v>       0.19018649       0.23839344       0.50315411 </v>
    <v>       0.18960967       0.38096442       0.50345877 </v>
    <v>       0.19157695       0.52477400       0.50086156 </v>
    <v>       0.19113624       0.66706806       0.49944901 </v>
    <v>       0.19083826       0.80992675       0.49897258 </v>
    <v>       0.19091164       0.95275127       0.49974496 </v>
    <v>       0.33354447       0.09555386       0.49982309 </v>
    <v>       0.33418000       0.23825576       0.50373182 </v>
    <v>       0.33036037       0.38010728       0.51236026 </v>
    <v>       0.33141112       0.52353880       0.51179961 </v>
    <v>       0.33725086       0.67074482       0.50265583 </v>
    <v>       0.33314519       0.81004948       0.49924524 </v>
    <v>       0.33339433       0.95269414       0.49817795 </v>
    <v>       0.47635362       0.09496324       0.49766092 </v>
    <v>       0.47570906       0.23771164       0.49970157 </v>
    <v>       0.47247005       0.80617858       0.50072284 </v>
    <v>       0.47606128       0.95218878       0.49786773 </v>
    <v>       0.61883588       0.09460579       0.49666469 </v>
    <v>       0.61943590       0.23768695       0.49807951 </v>
    <v>       0.62139679       0.37921662       0.50234560 </v>
    <v>       0.61886646       0.81074696       0.50381327 </v>
    <v>       0.61784375       0.95099602       0.49885207 </v>
    <v>       0.76141471       0.09443163       0.49703426 </v>
    <v>       0.76205816       0.23750910       0.49657456 </v>
    <v>       0.76247441       0.38059189       0.50029034 </v>
    <v>       0.76272164       0.52482958       0.50846043 </v>
    <v>       0.76453501       0.66740408       0.51421882 </v>
    <v>       0.76146781       0.80758183       0.50872180 </v>
    <v>       0.76095749       0.95128224       0.50134673 </v>
    <v>       0.90414979       0.09438436       0.49893506 </v>
    <v>       0.90447224       0.23757393       0.49683143 </v>
    <v>       0.90494265       0.38083949       0.49732106 </v>
    <v>       0.90551685       0.52402024       0.50013800 </v>
    <v>       0.90621209       0.66701742       0.50409387 </v>
    <v>       0.90576087       0.80996710       0.50458380 </v>
    <v>       0.90460248       0.95187848       0.50198961 </v>
    <v>       0.46319741       0.35504345       0.50018178 </v>
    <v>       0.40282396       0.41801739       0.51722784 </v>
    <v>       0.40370228       0.56055678       0.52101194 </v>
    <v>       0.64562296       0.67602621       0.52197326 </v>
    <v>       0.64659563       0.53957251       0.52499234 </v>
    <v>       0.58542557       0.41577970       0.50307430 </v>
    <v>       0.58019297       0.73809423       0.50539591 </v>
    <v>       0.56996471       0.56057618       0.40514561 </v>
    <v>       0.48240413       0.55394587       0.43857150 </v>
    <v>       0.42729499       0.71565575       0.50241494 </v>
    <v>       0.52657676       0.53667929       0.45328224 </v>
   </varray>
  </structure>
  <varray name="forces" >
   <v>      -0.00002883      -0.00069398       0.00327937 </v>
   <v>       0.00062476       0.00018581       0.00116152 </v>
   <v>       0.00058327      -0.00051930      -0.00127135 </v>
   <v>       0.00025019      -0.00002299      -0.00114580 </v>
   <v>      -0.00044216       0.00050617       0.00077078 </v>
   <v>      -0.00072492       0.00008997       0.00320411 </v>
   <v>      -0.00060600      -0.00081836       0.00472787 </v>
   <v>      -0.00018593      -0.00057540       0.00134542 </v>
   <v>       0.00036215       0.00018805       0.00108387 </v>
   <v>       0.00092393      -0.00011262       0.00049928 </v>
   <v>       0.00110182       0.00000782      -0.00047339 </v>
   <v>       0.00041123      -0.00077222      -0.00093794 </v>
   <v>       0.00016017       0.00041068      -0.00114128 </v>
   <v>      -0.00014511      -0.00049598       0.00060972 </v>
   <v>       0.00045075       0.00000652      -0.00061290 </v>
   <v>       0.00153154       0.00013321       0.00128258 </v>
   <v>       0.00078785       0.00019230       0.00414695 </v>
   <v>       0.00127808       0.00035167       0.00660292 </v>
   <v>       0.00036732      -0.00086309       0.00313674 </v>
   <v>       0.00289231       0.00150552      -0.00070834 </v>
   <v>       0.00017014      -0.00042764      -0.00124274 </v>
   <v>       0.00056343      -0.00049453      -0.00148718 </v>
   <v>       0.00034193      -0.00067352      -0.00049673 </v>
   <v>       0.00067943      -0.00100850       0.00111946 </v>
   <v>       0.00086198      -0.00021653      -0.00044051 </v>
   <v>       0.00056090      -0.00024745      -0.00012018 </v>
   <v>       0.00049717      -0.00057652      -0.00096027 </v>
   <v>      -0.00003698      -0.00081456       0.00106071 </v>
   <v>      -0.00028000      -0.00031611       0.00200529 </v>
   <v>      -0.00046134       0.00013024       0.00144943 </v>
   <v>       0.00014895      -0.00083074       0.00002564 </v>
   <v>      -0.00000950      -0.00122112       0.00037769 </v>
   <v>      -0.00111557      -0.00059936       0.00314290 </v>
   <v>      -0.00222047       0.00148943       0.00845526 </v>
   <v>      -0.00106833      -0.00130679       0.00881616 </v>
   <v>      -0.00068881      -0.00078725       0.00408497 </v>
   <v>      -0.00005031       0.00020626       0.00287311 </v>
   <v>      -0.00016033      -0.00002553       0.00031202 </v>
   <v>       0.00003284      -0.00303563      -0.00092170 </v>
   <v>      -0.00035297      -0.00019240       0.00131260 </v>
   <v>      -0.00138032       0.00015208       0.00411041 </v>
   <v>      -0.00070929      -0.00003306       0.00687016 </v>
   <v>      -0.00024110      -0.00110447       0.00517196 </v>
   <v>       0.00011401      -0.00025149       0.00167993 </v>
   <v>       0.00054082       0.00049081      -0.00029236 </v>
   <v>      -0.00059580      -0.00003151      -0.00085410 </v>
   <v>      -0.00003734      -0.00002039      -0.00077799 </v>
   <v>      -0.00018217      -0.00046635       0.00054986 </v>
   <v>      -0.00018882      -0.00008088       0.00309975 </v>
   <v>      -0.00027932      -0.00034043       0.00294488 </v>
   <v>      -0.00057013      -0.00300466       0.00042296 </v>
   <v>       0.00027267      -0.00023717       0.00113928 </v>
   <v>      -0.00008590       0.00167272       0.00081678 </v>
   <v>      -0.00008770      -0.00026379      -0.00059691 </v>
   <v>      -0.00044327      -0.00032874      -0.00052757 </v>
   <v>      -0.00046039      -0.00049723      -0.00117710 </v>
   <v>      -0.00039619      -0.00050392       0.00038828 </v>
   <v>      -0.00017312      -0.00053282      -0.00028025 </v>
   <v>      -0.00052230       0.00060380       0.00102721 </v>
   <v>       0.00039972       0.00033847       0.00788221 </v>
   <v>       0.00023535       0.00008433       0.00957494 </v>
   <v>      -0.00010928      -0.00026477       0.00128739 </v>
   <v>      -0.00061304      -0.00013756      -0.00159658 </v>
   <v>      -0.00051096      -0.00036754      -0.00159469 </v>
   <v>       0.00023842      -0.00043318      -0.00045495 </v>
   <v>       0.00068554      -0.00063786       0.00076417 </v>
   <v>       0.00036702       0.00009617       0.00105820 </v>
   <v>      -0.00003928       0.00013192      -0.00094540 </v>
   <v>       0.00023483       0.00033352       0.00005307 </v>
   <v>       0.00040850       0.00021334       0.00047606 </v>
   <v>       0.00040342      -0.00041775       0.00220776 </v>
   <v>      -0.00088534      -0.00056000       0.00381838 </v>
   <v>       0.00101835       0.00038243       0.00094900 </v>
   <v>       0.00098323       0.00043915       0.00053178 </v>
   <v>       0.00062054      -0.00196139      -0.00130205 </v>
   <v>       0.00042970       0.00046777       0.00161194 </v>
   <v>      -0.00024210      -0.00119894       0.00583599 </v>
   <v>      -0.00040554      -0.00053224       0.00785140 </v>
   <v>      -0.00116058       0.00080954       0.00560887 </v>
   <v>      -0.00047735       0.00028228       0.00307282 </v>
   <v>       0.00078888       0.00029389       0.00162232 </v>
   <v>       0.00051268       0.00124577      -0.00093852 </v>
   <v>       0.00013896       0.00117374      -0.00048393 </v>
   <v>      -0.00045664      -0.00021958       0.00245742 </v>
   <v>      -0.00022335      -0.00075820       0.00593484 </v>
   <v>      -0.00044442       0.00019328       0.00676590 </v>
   <v>      -0.00068692       0.00205284       0.00323624 </v>
   <v>       0.00069074      -0.00124526       0.00105013 </v>
   <v>       0.00117779      -0.00008684       0.00948620 </v>
   <v>      -0.00025315       0.00045521       0.02294868 </v>
   <v>      -0.00052638      -0.00126021       0.01072318 </v>
   <v>      -0.00153052      -0.00035947       0.00615468 </v>
   <v>      -0.00028436      -0.00075225       0.00224159 </v>
   <v>       0.00037347      -0.00028741       0.00598103 </v>
   <v>       0.04157863       0.02200878      -0.05817923 </v>
   <v>      -0.04037131      -0.00779188      -0.08848285 </v>
   <v>       0.00019691       0.00042965       0.00155380 </v>
   <v>      -0.00384102       0.00486222      -0.05740301 </v>
  </varray>
  <varray name="stress" >
   <v>       3.17122019      -0.79678944      -0.00079770 </v>
   <v>      -0.79679023      -0.97664520      -0.02572518 </v>
   <v>      -0.00079755      -0.02572536      -0.20620834 </v>
  </varray>
  <energy>
   <i name="e_fr_energy">   -854.94223661 </i>
   <i name="e_wo_entrp">   -854.94223643 </i>
   <i name="e_0_energy">   -854.94223652 </i>
  </energy>
  <time name="totalsc">  204.49  206.05</time>
 </calculation>
 <calculation>
  <scstep>
   <time name="dav">   38.60   38.90</time>
   <time name="total">   44.64   45.00</time>
   <energy>
    <i name="alphaZ">    176.01131809 </i>
    <i name="ewald">  36566.08724706 </i>
    <i name="hartreedc"> -48196.25904594 </i>
    <i name="XCdc">   1270.94502970 </i>
    <i name="pawpsdc">  37342.12425831 </i>
    <i name="pawaedc"> -37405.33583286 </i>
    <i name="eentropy">     -0.00000018 </i>
    <i name="bandstr">  -4211.92963427 </i>
    <i name="atom">  13611.23051297 </i>
    <i name="e_fr_energy">   -847.12614711 </i>
    <i name="e_wo_entrp">   -847.12614694 </i>
    <i name="e_0_energy">   -847.12614702 </i>
   </energy>
  </scstep>
  <scstep>
   <time name="dav">   40.61   40.95</time>
   <time name="total">   46.76   47.15</time>
   <energy>
    <i name="e_fr_energy">   -847.12614921 </i>
    <i name="e_wo_entrp">   -847.12614903 </i>
    <i name="e_0_energy">   -847.12614912 </i>
   </energy>
  </scstep>
  <scstep>
   <time name="dav">   34.54   34.79</time>
   <time name="total">   37.62   37.90</time>
   <energy>
    <i name="alphaZ">    176.01131809 </i>
    <i name="ewald">  36566.08724706 </i>
[...]
       <r>   -13.9541     6.6146    57.8378 </r>
       <r>   -13.8490     6.8272    58.5553 </r>
       <r>   -13.7439     3.0301    58.8738 </r>
       <r>   -13.6388     5.3461    59.4357 </r>
       <r>   -13.5337     6.6608    60.1357 </r>
       <r>   -13.4286    10.3784    61.2265 </r>
       <r>   -13.3235     7.6569    62.0312 </r>
       <r>   -13.2184     9.2264    63.0009 </r>
       <r>   -13.1133     5.0577    63.5325 </r>
       <r>   -13.0082     7.0251    64.2708 </r>
       <r>   -12.9031     2.1844    64.5004 </r>
       <r>   -12.7980     3.5288    64.8712 </r>
       <r>   -12.6929     8.8345    65.7997 </r>
       <r>   -12.5878     6.9345    66.5285 </r>
       <r>   -12.4827    11.8202    67.7708 </r>
       <r>   -12.3776    14.7904    69.3253 </r>
       <r>   -12.2725    11.3904    70.5224 </r>
       <r>   -12.1674     8.4380    71.4092 </r>
       <r>   -12.0623     8.6652    72.3199 </r>
       <r>   -11.9572     5.7716    72.9265 </r>
       <r>   -11.8521     8.1057    73.7784 </r>
       <r>   -11.7470     7.2898    74.5445 </r>
       <r>   -11.6419     7.3849    75.3207 </r>
       <r>   -11.5368     7.6537    76.1251 </r>
       <r>   -11.4317    12.4867    77.4374 </r>
       <r>   -11.3266    11.2002    78.6145 </r>
       <r>   -11.2215    11.4806    79.8211 </r>
       <r>   -11.1164    11.2408    81.0025 </r>
       <r>   -11.0113     8.7199    81.9190 </r>
       <r>   -10.9062     9.0171    82.8667 </r>
       <r>   -10.8011    12.1714    84.1459 </r>
       <r>   -10.6960    11.8305    85.3892 </r>
       <r>   -10.5909     5.2761    85.9438 </r>
       <r>   -10.4858     7.7915    86.7626 </r>
       <r>   -10.3807     3.1501    87.0937 </r>
       <r>   -10.2756     3.1215    87.4218 </r>
       <r>   -10.1705     9.4211    88.4119 </r>
       <r>   -10.0654    19.4818    90.4594 </r>
       <r>    -9.9603    16.6845    92.2129 </r>
       <r>    -9.8552    14.4350    93.7300 </r>
       <r>    -9.7501    20.4584    95.8802 </r>
       <r>    -9.6450    17.1959    97.6875 </r>
       <r>    -9.5399    13.1996    99.0747 </r>
       <r>    -9.4348    14.8733   100.6379 </r>
       <r>    -9.3297    18.9749   102.6321 </r>
       <r>    -9.2246    15.3838   104.2489 </r>
       <r>    -9.1195    16.7523   106.0096 </r>
       <r>    -9.0144    16.7912   107.7743 </r>
       <r>    -8.9093    26.5437   110.5640 </r>
       <r>    -8.8042    31.8001   113.9062 </r>
       <r>    -8.6991    25.6654   116.6036 </r>
       <r>    -8.5940    16.4324   118.3306 </r>
       <r>    -8.4889    20.7143   120.5077 </r>
       <r>    -8.3838    19.2424   122.5300 </r>
       <r>    -8.2787    16.4197   124.2557 </r>
       <r>    -8.1736    22.8898   126.6614 </r>
       <r>    -8.0685    25.9910   129.3930 </r>
       <r>    -7.9634    18.4385   131.3309 </r>
       <r>    -7.8583    15.6282   132.9734 </r>
       <r>    -7.7532    14.8526   134.5344 </r>
       <r>    -7.6481    20.2503   136.6627 </r>
       <r>    -7.5430    13.7808   138.1110 </r>
       <r>    -7.4379     7.8937   138.9406 </r>
       <r>    -7.3328     5.8080   139.5510 </r>
       <r>    -7.2277    23.1565   141.9848 </r>
       <r>    -7.1226    23.3189   144.4355 </r>
       <r>    -7.0176    18.0340   146.3309 </r>
       <r>    -6.9125    15.7159   147.9826 </r>
       <r>    -6.8074    10.4237   149.0781 </r>
       <r>    -6.7023    11.7151   150.3094 </r>
       <r>    -6.5972    11.1646   151.4828 </r>
       <r>    -6.4921    10.4915   152.5854 </r>
       <r>    -6.3870    11.2970   153.7727 </r>
       <r>    -6.2819    14.0369   155.2480 </r>
       <r>    -6.1768    13.0914   156.6239 </r>
       <r>    -6.0717    24.9994   159.2513 </r>
       <r>    -5.9666    15.2613   160.8552 </r>
       <r>    -5.8615    13.3977   162.2633 </r>
       <r>    -5.7564    12.0852   163.5334 </r>
       <r>    -5.6513    16.5660   165.2745 </r>
       <r>    -5.5462    11.1270   166.4439 </r>
       <r>    -5.4411     6.8936   167.1685 </r>
       <r>    -5.3360     4.8532   167.6785 </r>
       <r>    -5.2309     2.1259   167.9019 </r>
       <r>    -5.1258     2.2980   168.1435 </r>
       <r>    -5.0207    14.1422   169.6298 </r>
       <r>    -4.9156    22.1926   171.9622 </r>
       <r>    -4.8105    15.6528   173.6073 </r>
       <r>    -4.7054    13.7665   175.0541 </r>
       <r>    -4.6003     4.8751   175.5665 </r>
       <r>    -4.4952    13.3744   176.9721 </r>
       <r>    -4.3901     2.6436   177.2500 </r>
       <r>    -4.2850     1.9249   177.4523 </r>
       <r>    -4.1799     9.1127   178.4100 </r>
       <r>    -4.0748     7.0726   179.1533 </r>
       <r>    -3.9697     7.4985   179.9414 </r>
       <r>    -3.8646     9.5329   180.9433 </r>
       <r>    -3.7595     5.3525   181.5058 </r>
       <r>    -3.6544     4.3994   181.9682 </r>
       <r>    -3.5493     0.3025   182.0000 </r>
       <r>    -3.4442     0.0501   182.0053 </r>
       <r>    -3.3391     1.9546   182.2107 </r>
       <r>    -3.2340     5.0903   182.7457 </r>
       <r>    -3.1289     4.3291   183.2006 </r>
       <r>    -3.0238     2.1216   183.4236 </r>
       <r>    -2.9187     0.7261   183.4999 </r>
       <r>    -2.8136     0.0006   183.5000 </r>
       <r>    -2.7085     0.0216   183.5023 </r>
       <r>    -2.6034     2.1683   183.7302 </r>
       <r>    -2.4983     2.5248   183.9955 </r>
       <r>    -2.3932     0.0427   184.0000 </r>
       <r>    -2.2881     0.2104   184.0221 </r>
       <r>    -2.1830     3.8696   184.4288 </r>
       <r>    -2.0779     0.6772   184.5000 </r>
       <r>    -1.9728     0.0002   184.5000 </r>
       <r>    -1.8677     0.2142   184.5225 </r>
       <r>    -1.7626     2.7033   184.8066 </r>
       <r>    -1.6575     2.6453   185.0846 </r>
       <r>    -1.5524     6.3345   185.7504 </r>
       <r>    -1.4473     2.3661   185.9991 </r>
       <r>    -1.3422     0.4372   186.0450 </r>
       <r>    -1.2371     5.1701   186.5884 </r>
       <r>    -1.1320     6.4018   187.2612 </r>
       <r>    -1.0269     2.2818   187.5010 </r>
       <r>    -0.9218     2.9063   187.8065 </r>
       <r>    -0.8167    13.2110   189.1949 </r>
       <r>    -0.7116    14.8523   190.7559 </r>
       <r>    -0.6065     5.1836   191.3007 </r>
       <r>    -0.5014    10.2749   192.3806 </r>
       <r>    -0.3963    10.0194   193.4336 </r>
       <r>    -0.2912     6.3864   194.1048 </r>
       <r>    -0.1861     2.3313   194.3498 </r>
       <r>    -0.0810    10.2660   195.4287 </r>
       <r>     0.0241     8.7537   196.3487 </r>
       <r>     0.1292    10.7185   197.4753 </r>
       <r>     0.2343    11.2099   198.6534 </r>
       <r>     0.3394     8.3214   199.5280 </r>
       <r>     0.4445     3.7966   199.9270 </r>
       <r>     0.5496     2.6588   200.2064 </r>
       <r>     0.6547     5.8264   200.8188 </r>
       <r>     0.7598    11.1690   201.9926 </r>
       <r>     0.8649    12.9403   203.3526 </r>
       <r>     0.9700     3.9873   203.7717 </r>
       <r>     1.0751    10.8015   204.9069 </r>
       <r>     1.1802     6.7487   205.6162 </r>
       <r>     1.2853     9.2350   206.5868 </r>
       <r>     1.3904     7.7230   207.3985 </r>
       <r>     1.4955    12.1304   208.6733 </r>
       <r>     1.6006    20.0218   210.7776 </r>
       <r>     1.7057    13.4568   212.1919 </r>
       <r>     1.8107    11.4699   213.3974 </r>
       <r>     1.9158     9.6877   214.4156 </r>
       <r>     2.0209    17.6049   216.2658 </r>
       <r>     2.1260    19.4786   218.3130 </r>
       <r>     2.2311    15.6101   219.9536 </r>
       <r>     2.3362    20.2910   222.0861 </r>
       <r>     2.4413    29.2452   225.1598 </r>
       <r>     2.5464     8.0268   226.0034 </r>
       <r>     2.6515     5.4033   226.5713 </r>
       <r>     2.7566    18.5017   228.5158 </r>
       <r>     2.8617    31.0520   231.7793 </r>
       <r>     2.9668    39.3762   235.9177 </r>
       <r>     3.0719    21.9811   238.2279 </r>
       <r>     3.1770    16.6382   239.9765 </r>
       <r>     3.2821    25.4551   242.6518 </r>
       <r>     3.3872    15.2284   244.2523 </r>
       <r>     3.4923    22.5150   246.6186 </r>
       <r>     3.5974    22.5942   248.9932 </r>
       <r>     3.7025    13.3344   250.3947 </r>
       <r>     3.8076    25.7539   253.1014 </r>
       <r>     3.9127    22.5609   255.4725 </r>
       <r>     4.0178    23.5046   257.9428 </r>
       <r>     4.1229    17.4787   259.7798 </r>
       <r>     4.2280    16.1563   261.4778 </r>
       <r>     4.3331    32.2548   264.8677 </r>
       <r>     4.4382    32.4062   268.2736 </r>
       <r>     4.5433    16.2479   269.9812 </r>
       <r>     4.6484     0.1787   270.0000 </r>
       <r>     4.7535     0.0000   270.0000 </r>
       <r>     4.8586     0.0000   270.0000 </r>
       <r>     4.9637     0.0000   270.0000 </r>
       <r>     5.0688     0.0000   270.0000 </r>
       <r>     5.1739     0.0000   270.0000 </r>
       <r>     5.2790     0.0000   270.0000 </r>
       <r>     5.3841     0.0000   270.0000 </r>
       <r>     5.4892     0.0000   270.0000 </r>
       <r>     5.5943     0.0000   270.0000 </r>
       <r>     5.6994     0.0000   270.0000 </r>
       <r>     5.8045     0.0000   270.0000 </r>
       <r>     5.9096     0.0000   270.0000 </r>
      </set>
     </set>
    </array>
   </total>
  </dos>
 </calculation>
 <structure name="finalpos" >
  <crystal>
   <varray name="basis" >
    <v>      17.27103806       0.00000000       0.00000000 </v>
    <v>      -8.63551903      14.95715771       0.00000000 </v>
    <v>       0.00000000       0.00000000      15.00000000 </v>
   </varray>
   <i name="volume">   3874.88459904 </i>
   <varray name="rec_basis" >
    <v>       0.05790040       0.03342881       0.00000000 </v>
    <v>       0.00000000       0.06685762       0.00000000 </v>
    <v>       0.00000000       0.00000000       0.06666667 </v>
   </varray>
  </crystal>
  <varray name="positions" >
   <v>       0.99985344       0.99985835       0.50198493 </v>
   <v>       0.99955994       0.14251967       0.49998406 </v>
   <v>       0.99982890       0.28560055       0.49790326 </v>
   <v>       0.00023822       0.42858696       0.49718175 </v>
   <v>       0.00062267       0.57155730       0.49888991 </v>
   <v>       0.00130593       0.71470778       0.50171375 </v>
   <v>       0.00094262       0.85772332       0.50279621 </v>
   <v>       0.14322170       0.00051528       0.50149344 </v>
   <v>       0.14274666       0.14314851       0.50245995 </v>
   <v>       0.14242513       0.28575753       0.50231745 </v>
   <v>       0.14311662       0.42923845       0.50055624 </v>
   <v>       0.14349359       0.57167527       0.49867875 </v>
   <v>       0.14359991       0.71446441       0.49894137 </v>
   <v>       0.14338436       0.85756260       0.49997451 </v>
   <v>       0.28585534       0.00017851       0.49949060 </v>
   <v>       0.28579849       0.14294342       0.50283293 </v>
   <v>       0.28589231       0.28730024       0.50751637 </v>
   <v>       0.28502019       0.42890368       0.51028738 </v>
   <v>       0.28775986       0.57247217       0.50496576 </v>
   <v>       0.28636497       0.71523475       0.50016270 </v>
   <v>       0.28564916       0.85773990       0.49854283 </v>
   <v>       0.42873353       0.99993257       0.49795784 </v>
   <v>       0.42859587       0.14255621       0.49993713 </v>
   <v>       0.42707091       0.28244006       0.50293397 </v>
   <v>       0.42781763       0.85676987       0.49920587 </v>
   <v>       0.57098457       0.99939772       0.49762320 </v>
   <v>       0.57147516       0.14228010       0.49754371 </v>
   <v>       0.57249141       0.28585164       0.50056217 </v>
   <v>       0.57004787       0.85526513       0.50111228 </v>
   <v>       0.71320711       0.99865204       0.49912026 </v>
   <v>       0.71421241       0.14226337       0.49652294 </v>
   <v>       0.71452930       0.28537306       0.49819341 </v>
   <v>       0.71426633       0.42756448       0.50429565 </v>
   <v>       0.71861966       0.57326192       0.51646460 </v>
   <v>       0.71797503       0.71501508       0.51601188 </v>
   <v>       0.71224582       0.85573755       0.50532185 </v>
   <v>       0.85649226       0.99930784       0.50143308 </v>
   <v>       0.85656443       0.14217455       0.49755778 </v>
   <v>       0.85708792       0.28528137       0.49655231 </v>
   <v>       0.85769002       0.42839795       0.49926418 </v>
   <v>       0.85829932       0.57181079       0.50422233 </v>
   <v>       0.85953120       0.71513610       0.50791630 </v>
   <v>       0.85734290       0.85677019       0.50563342 </v>
   <v>       0.04749815       0.09519468       0.50134769 </v>
   <v>       0.04700346       0.23770813       0.49965591 </v>
   <v>       0.04754990       0.38101464       0.49799513 </v>
   <v>       0.04822202       0.52393677       0.49776541 </v>
   <v>       0.04841433       0.66690348       0.49959895 </v>
   <v>       0.04828336       0.80988001       0.50150076 </v>
   <v>       0.04796328       0.95266009       0.50203108 </v>
   <v>       0.19055339       0.09539951       0.50251237 </v>
   <v>       0.19014204       0.23836776       0.50387737 </v>
   <v>       0.18957822       0.38094220       0.50370612 </v>
   <v>       0.19151047       0.52474671       0.50067522 </v>
   <v>       0.19109178       0.66704529       0.49916713 </v>
   <v>       0.19079454       0.80990126       0.49904764 </v>
   <v>       0.19086813       0.95272043       0.50027257 </v>
   <v>       0.33349431       0.09550740       0.50065342 </v>
   <v>       0.33411796       0.23821014       0.50487724 </v>
   <v>       0.33030413       0.38007458       0.51313877 </v>
   <v>       0.33123461       0.52349121       0.51245521 </v>
   <v>       0.33719199       0.67071537       0.50264579 </v>
   <v>       0.33309717       0.81001436       0.49911421 </v>
   <v>       0.33335361       0.95266352       0.49845708 </v>
   <v>       0.47630465       0.09492520       0.49826641 </v>
   <v>       0.47565140       0.23764370       0.50097191 </v>
   <v>       0.47242803       0.80613583       0.50080222 </v>
   <v>       0.47601860       0.95214792       0.49800921 </v>
   <v>       0.61878876       0.09456270       0.49688586 </v>
   <v>       0.61939735       0.23764052       0.49859201 </v>
   <v>       0.62132399       0.37913972       0.50315461 </v>
   <v>       0.61882401       0.81071211       0.50415969 </v>
   <v>       0.61779810       0.95095050       0.49907799 </v>
   <v>       0.76136922       0.09439288       0.49726350 </v>
   <v>       0.76202120       0.23747929       0.49662976 </v>
   <v>       0.76242046       0.38056210       0.50046378 </v>
   <v>       0.76262553       0.52479979       0.50854785 </v>
   <v>       0.76447555       0.66736869       0.51428948 </v>
   <v>       0.76141787       0.80755741       0.50919652 </v>
   <v>       0.76091333       0.95125489       0.50184909 </v>
   <v>       0.90410923       0.09436045       0.49938834 </v>
   <v>       0.90443697       0.23755584       0.49681309 </v>
   <v>       0.90491325       0.38083151       0.49720380 </v>
   <v>       0.90546619       0.52399764       0.50037727 </v>
   <v>       0.90617584       0.66698146       0.50484296 </v>
   <v>       0.90572068       0.80995294       0.50551698 </v>
   <v>       0.90455275       0.95185933       0.50279704 </v>
   <v>       0.46318368       0.35497290       0.50188620 </v>
   <v>       0.40278534       0.41800034       0.51782130 </v>
   <v>       0.40341170       0.56064509       0.52251808 </v>
   <v>       0.64551022       0.67583360       0.52121296 </v>
   <v>       0.64628606       0.53967036       0.52288261 </v>
   <v>       0.58536241       0.41570457       0.50413587 </v>
   <v>       0.58018244       0.73806637       0.50584248 </v>
   <v>       0.56564411       0.56300049       0.39985248 </v>
   <v>       0.48166694       0.55602097       0.44354036 </v>
   <v>       0.42723992       0.71560438       0.50252294 </v>
   <v>       0.52642477       0.53800695       0.45110177 </v>
  </varray>
  <varray name="selective"  type="logical" >
   <v type="logical" >  T  T  T </v>
   <v type="logical" >  T  T  T </v>
   <v type="logical" >  T  T  T </v>
   <v type="logical" >  T  T  T </v>
   <v type="logical" >  T  T  T </v>
   <v type="logical" >  T  T  T </v>
   <v type="logical" >  T  T  T </v>
   <v type="logical" >  T  T  T </v>
   <v type="logical" >  T  T  T </v>
   <v type="logical" >  T  T  T </v>
   <v type="logical" >  T  T  T </v>
   <v type="logical" >  T  T  T </v>
   <v type="logical" >  T  T  T </v>
   <v type="logical" >  T  T  T </v>
   <v type="logical" >  T  T  T </v>
   <v type="logical" >  T  T  T </v>
   <v type="logical" >  T  T  T </v>
   <v type="logical" >  T  T  T </v>
   <v type="logical" >  T  T  T </v>
   <v type="logical" >  T  T  T </v>
   <v type="logical" >  T  T  T </v>
   <v type="logical" >  T  T  T </v>
   <v type="logical" >  T  T  T </v>
   <v type="logical" >  T  T  T </v>
   <v type="logical" >  T  T  T </v>
   <v type="logical" >  T  T  T </v>
   <v type="logical" >  T  T  T </v>
   <v type="logical" >  T  T  T </v>
   <v type="logical" >  T  T  T </v>
   <v type="logical" >  T  T  T </v>
   <v type="logical" >  T  T  T </v>
   <v type="logical" >  T  T  T </v>
   <v type="logical" >  T  T  T </v>
   <v type="logical" >  T  T  T </v>
   <v type="logical" >  T  T  T </v>
   <v type="logical" >  T  T  T </v>
   <v type="logical" >  T  T  T </v>
   <v type="logical" >  T  T  T </v>
   <v type="logical" >  T  T  T </v>
   <v type="logical" >  T  T  T </v>
   <v type="logical" >  T  T  T </v>
   <v type="logical" >  T  T  T </v>
   <v type="logical" >  T  T  T </v>
   <v type="logical" >  T  T  T </v>
   <v type="logical" >  T  T  T </v>
   <v type="logical" >  T  T  T </v>
   <v type="logical" >  T  T  T </v>
   <v type="logical" >  T  T  T </v>
   <v type="logical" >  T  T  T </v>
   <v type="logical" >  T  T  T </v>
   <v type="logical" >  T  T  T </v>
   <v type="logical" >  T  T  T </v>
   <v type="logical" >  T  T  T </v>
   <v type="logical" >  T  T  T </v>
   <v type="logical" >  T  T  T </v>
   <v type="logical" >  T  T  T </v>
   <v type="logical" >  T  T  T </v>
   <v type="logical" >  T  T  T </v>
   <v type="logical" >  T  T  T </v>
   <v type="logical" >  T  T  T </v>
   <v type="logical" >  T  T  T </v>
   <v type="logical" >  T  T  T </v>
   <v type="logical" >  T  T  T </v>
   <v type="logical" >  T  T  T </v>
   <v type="logical" >  T  T  T </v>
   <v type="logical" >  T  T  T </v>
   <v type="logical" >  T  T  T </v>
   <v type="logical" >  T  T  T </v>
   <v type="logical" >  T  T  T </v>
   <v type="logical" >  T  T  T </v>
   <v type="logical" >  T  T  T </v>
   <v type="logical" >  T  T  T </v>
   <v type="logical" >  T  T  T </v>
   <v type="logical" >  T  T  T </v>
   <v type="logical" >  T  T  T </v>
   <v type="logical" >  T  T  T </v>
   <v type="logical" >  T  T  T </v>
   <v type="logical" >  T  T  T </v>
   <v type="logical" >  T  T  T </v>
   <v type="logical" >  T  T  T </v>
   <v type="logical" >  T  T  T </v>
   <v type="logical" >  T  T  T </v>
   <v type="logical" >  T  T  T </v>
   <v type="logical" >  T  T  T </v>
   <v type="logical" >  T  T  T </v>
   <v type="logical" >  T  T  T </v>
   <v type="logical" >  T  T  T </v>
   <v type="logical" >  T  T  T </v>
   <v type="logical" >  T  T  T </v>
   <v type="logical" >  T  T  T </v>
   <v type="logical" >  T  T  T </v>
   <v type="logical" >  T  T  T </v>
   <v type="logical" >  T  T  T </v>
   <v type="logical" >  T  T  T </v>
   <v type="logical" >  T  T  T </v>
   <v type="logical" >  T  T  T </v>
   <v type="logical" >  T  T  T </v>
   <v type="logical" >  T  T  T </v>
  </varray>
  <nose>
   <v>      -3.00000000       0.00000000       0.00010000       0.00010000 </v>
  </nose>
 </structure>
</modeling>
