unknown system                          
           1
    17.271038    0.000000    0.000000
    -8.635519   14.957158    0.000000
     0.000000    0.000000   15.000000
   C    H    N    O 
    87     9     1     1
Direct configuration=     1
   0.99989825  0.99988370  0.50118514
   0.99959705  0.14254506  0.49951191
   0.99985650  0.28562034  0.49794594
   0.00026827  0.42860255  0.49741508
   0.00066508  0.57157345  0.49883604
   0.00134264  0.71473251  0.50109930
   0.00098516  0.85774554  0.50189269
   0.14325944  0.00054634  0.50069290
   0.14277901  0.14317643  0.50163527
   0.14246669  0.28578395  0.50193143
   0.14314426  0.42926195  0.50064199
   0.14353836  0.57169554  0.49899499
   0.14363860  0.71448463  0.49900753
   0.14342201  0.85758710  0.49958073
   0.28590097  0.00021275  0.49899974
   0.28584871  0.14298662  0.50190432
   0.28593937  0.28734441  0.50658507
   0.28507008  0.42894190  0.50971538
   0.28785221  0.57249371  0.50485035
   0.28641069  0.71526207  0.50037791
   0.28569362  0.85777048  0.49854046
   0.42877163  0.99996644  0.49760637
   0.42865813  0.14261457  0.49901562
   0.42712379  0.28250727  0.50143523
   0.42786364  0.85681552  0.49921329
   0.57102814  0.99944377  0.49744750
   0.57151602  0.14231658  0.49709231
   0.57254907  0.28592239  0.49958660
   0.57009475  0.85530980  0.50089339
   0.71325150  0.99869125  0.49877431
   0.71425614  0.14230253  0.49638011
   0.71457132  0.28540760  0.49796840
   0.71433621  0.42760991  0.50400478
   0.71878678  0.57329448  0.51706430
   0.71804908  0.71507235  0.51608191
   0.71229304  0.85576799  0.50485522
   0.85653542  0.99932853  0.50079400
   0.85660593  0.14219605  0.49734573
   0.85711995  0.28529552  0.49662879
   0.85773346  0.42841522  0.49921124
   0.85836940  0.57185121  0.50374437
   0.85954911  0.71515009  0.50714130
   0.85738783  0.85679506  0.50481297
   0.04753580  0.09522672  0.50061962
   0.04704090  0.23773021  0.49942186
   0.04757171  0.38103423  0.49818781
   0.04826384  0.52395496  0.49799825
   0.04845098  0.66692264  0.49941092
   0.04832211  0.80990030  0.50083832
   0.04800164  0.95267915  0.50116841
   0.19059274  0.09543773  0.50165900
   0.19018649  0.23839344  0.50315411
   0.18960967  0.38096442  0.50345877
   0.19157695  0.52477400  0.50086156
   0.19113624  0.66706806  0.49944901
   0.19083826  0.80992675  0.49897258
   0.19091164  0.95275127  0.49974496
   0.33354447  0.09555386  0.49982309
   0.33418000  0.23825576  0.50373182
   0.33036037  0.38010728  0.51236026
   0.33141112  0.52353880  0.51179961
   0.33725086  0.67074482  0.50265583
   0.33314519  0.81004948  0.49924524
   0.33339433  0.95269414  0.49817795
   0.47635362  0.09496324  0.49766092
   0.47570906  0.23771164  0.49970157
   0.47247005  0.80617858  0.50072284
   0.47606128  0.95218878  0.49786773
   0.61883588  0.09460579  0.49666469
   0.61943590  0.23768695  0.49807951
   0.62139679  0.37921662  0.50234560
   0.61886646  0.81074696  0.50381327
   0.61784375  0.95099602  0.49885207
   0.76141471  0.09443163  0.49703426
   0.76205816  0.23750910  0.49657456
   0.76247441  0.38059189  0.50029034
   0.76272164  0.52482958  0.50846043
   0.76453501  0.66740408  0.51421882
   0.76146781  0.80758183  0.50872180
   0.76095749  0.95128224  0.50134673
   0.90414979  0.09438436  0.49893506
   0.90447224  0.23757393  0.49683143
   0.90494265  0.38083949  0.49732106
   0.90551685  0.52402024  0.50013800
   0.90621209  0.66701742  0.50409387
   0.90576087  0.80996710  0.50458380
   0.90460248  0.95187848  0.50198961
   0.46319741  0.35504345  0.50018178
   0.40282396  0.41801739  0.51722784
   0.40370228  0.56055678  0.52101194
   0.64562296  0.67602621  0.52197326
   0.64659563  0.53957251  0.52499234
   0.58542557  0.41577970  0.50307430
   0.58019297  0.73809423  0.50539591
   0.56996471  0.56057618  0.40514561
   0.48240413  0.55394587  0.43857150
   0.42729499  0.71565575  0.50241494
   0.52657676  0.53667929  0.45328224
Direct configuration=     2
   0.99989756  0.99988408  0.50119100
   0.99959693  0.14254473  0.49951513
   0.99985719  0.28562259  0.49794511
   0.00026768  0.42860278  0.49741375
   0.00066376  0.57157150  0.49883687
   0.00134257  0.71473208  0.50110330
   0.00098538  0.85774621  0.50189972
   0.14325832  0.00054517  0.50069731
   0.14277827  0.14317519  0.50163924
   0.14246672  0.28578514  0.50193321
   0.14314361  0.42926323  0.50064111
   0.14353410  0.57169015  0.49899373
   0.14363751  0.71448381  0.49900622
   0.14342171  0.85758707  0.49958307
   0.28590017  0.00021270  0.49900246
   0.28584619  0.14298447  0.50190867
   0.28593814  0.28734362  0.50659123
   0.28506861  0.42894178  0.50971910
   0.28784672  0.57248950  0.50485124
   0.28640703  0.71526031  0.50037583
   0.28569132  0.85776965  0.49854039
   0.42877059  0.99996595  0.49760734
   0.42865552  0.14261245  0.49901970
   0.42712162  0.28250402  0.50144354
   0.42786326  0.85681572  0.49921345
   0.57102845  0.99944391  0.49744900
   0.57151586  0.14231707  0.49709404
   0.57254955  0.28592227  0.49959244
   0.57009677  0.85531055  0.50089596
   0.71325412  0.99869135  0.49877692
   0.71425832  0.14230611  0.49638156
   0.71457294  0.28541053  0.49797026
   0.71433716  0.42760927  0.50400757
   0.71878643  0.57329154  0.51706357
   0.71805000  0.71507428  0.51608368
   0.71229744  0.85577147  0.50485831
   0.85653672  0.99933045  0.50079812
   0.85660745  0.14219713  0.49734724
   0.85712342  0.28530165  0.49662827
   0.85773363  0.42841494  0.49921237
   0.85836801  0.57184879  0.50374755
   0.85954977  0.71515003  0.50714700
   0.85738809  0.85679815  0.50481827
   0.04753616  0.09522703  0.50062391
   0.04704138  0.23772994  0.49942298
   0.04756918  0.38103128  0.49818724
   0.04826500  0.52395755  0.49799735
   0.04845126  0.66692445  0.49941165
   0.04832141  0.80990035  0.50084319
   0.04800046  0.95267742  0.50117406
   0.19059257  0.09543819  0.50166341
   0.19018682  0.23839338  0.50315739
   0.18961058  0.38096268  0.50346024
   0.19157880  0.52477584  0.50086041
   0.19114018  0.66707209  0.49944821
   0.19083886  0.80992709  0.49897200
   0.19091109  0.95275036  0.49974806
   0.33354627  0.09555453  0.49982717
   0.33418146  0.23825725  0.50373782
   0.33036112  0.38010773  0.51236612
   0.33141218  0.52353956  0.51180403
   0.33725304  0.67074620  0.50265585
   0.33314697  0.81005030  0.49924369
   0.33339471  0.95269363  0.49817860
   0.47635450  0.09496266  0.49766416
   0.47570973  0.23771162  0.49970864
   0.47247019  0.80617797  0.50072426
   0.47606154  0.95218806  0.49786834
   0.61883553  0.09460486  0.49666683
   0.61943412  0.23768502  0.49808307
   0.62139425  0.37921518  0.50235093
   0.61885859  0.81074252  0.50381655
   0.61784265  0.95099494  0.49885408
   0.76141352  0.09443127  0.49703607
   0.76205183  0.23749780  0.49657362
   0.76247196  0.38059096  0.50029216
   0.76271932  0.52483120  0.50846372
   0.76453509  0.66740570  0.51422067
   0.76146680  0.80757851  0.50872538
   0.76095270  0.95128151  0.50135050
   0.90414996  0.09438537  0.49893834
   0.90447162  0.23757186  0.49683104
   0.90494140  0.38083767  0.49732043
   0.90551631  0.52402240  0.50014065
   0.90621135  0.66701876  0.50410001
   0.90576007  0.80996614  0.50459181
   0.90460168  0.95187519  0.50199470
   0.46319756  0.35504230  0.50019353
   0.40282365  0.41801727  0.51723200
   0.40369989  0.56055708  0.52102207
   0.64562192  0.67602468  0.52197252
   0.64659330  0.53957321  0.52498147
   0.58542513  0.41577874  0.50308122
   0.58019472  0.73809620  0.50540087
   0.56993802  0.56059544  0.40510790
   0.48239941  0.55396128  0.43860575
   0.42729457  0.71565530  0.50241622
   0.52657546  0.53668590  0.45326409
Direct configuration=     3
   0.99989683  0.99988305  0.50119972
   0.99959737  0.14254504  0.49951990
   0.99985640  0.28562086  0.49794401
   0.00026704  0.42860266  0.49741183
   0.00066325  0.57157305  0.49883812
   0.00134160  0.71473255  0.50110941
   0.00098379  0.85774493  0.50191035
   0.14325707  0.00054402  0.50070399
   0.14277807  0.14317518  0.50164526
   0.14246669  0.28578422  0.50193590
   0.14314360  0.42926245  0.50063999
   0.14353568  0.57169281  0.49899098
   0.14363794  0.71448459  0.49900438
   0.14342087  0.85758626  0.49958655
   0.28590042  0.00021244  0.49900648
   0.28584519  0.14298390  0.50191478
   0.28593821  0.28734364  0.50660040
   0.28506939  0.42894179  0.50972492
   0.28784765  0.57249061  0.50485256
   0.28641045  0.71526221  0.50037317
   0.28569122  0.85776893  0.49854008
   0.42877077  0.99996486  0.49760889
   0.42865569  0.14261145  0.49902600
   0.42712155  0.28250233  0.50145614
   0.42786398  0.85681505  0.49921365
   0.57102859  0.99944326  0.49745130
   0.57151556  0.14231564  0.49709693
   0.57254821  0.28592060  0.49960120
   0.57009523  0.85530978  0.50089972
   0.71325231  0.99869166  0.49878078
   0.71425614  0.14230255  0.49638362
   0.71457085  0.28540716  0.49797281
   0.71433419  0.42760839  0.50401196
   0.71878411  0.57329376  0.51706298
   0.71804815  0.71507212  0.51608650
   0.71229393  0.85576915  0.50486312
   0.85653602  0.99933058  0.50080436
   0.85660608  0.14219672  0.49734947
   0.85712025  0.28529711  0.49662720
   0.85773227  0.42841489  0.49921407
   0.85836612  0.57184967  0.50375278
   0.85954903  0.71515043  0.50715582
   0.85738707  0.85679622  0.50482654
   0.04753533  0.09522639  0.50063039
   0.04704146  0.23773055  0.49942463
   0.04756925  0.38103299  0.49818522
   0.04826323  0.52395502  0.49799501
   0.04845018  0.66692332  0.49941277
   0.04832108  0.80990035  0.50085047
   0.04799955  0.95267724  0.50118266
   0.19058966  0.09543466  0.50166946
   0.19018574  0.23839244  0.50316245
   0.18960977  0.38096420  0.50346176
   0.19157610  0.52477423  0.50085856
   0.19113783  0.66707018  0.49944670
   0.19083726  0.80992621  0.49897123
   0.19090997  0.95274969  0.49975277
   0.33354466  0.09555338  0.49983326
   0.33417946  0.23825634  0.50374644
   0.33036002  0.38010758  0.51237468
   0.33140931  0.52353848  0.51181027
   0.33725123  0.67074478  0.50265579
   0.33314550  0.81004979  0.49924144
   0.33339313  0.95269295  0.49817971
   0.47635364  0.09496161  0.49766884
   0.47570931  0.23770972  0.49971916
   0.47247041  0.80617800  0.50072631
   0.47606115  0.95218800  0.49786927
   0.61883553  0.09460521  0.49666991
   0.61943476  0.23768558  0.49808837
   0.62139440  0.37921452  0.50235904
   0.61886269  0.81074489  0.50382202
   0.61784428  0.95099557  0.49885708
   0.76141498  0.09443190  0.49703882
   0.76205412  0.23750166  0.49657414
   0.76247277  0.38059162  0.50029487
   0.76271838  0.52482904  0.50846785
   0.76453452  0.66740482  0.51422351
   0.76146727  0.80758091  0.50873019
   0.76095528  0.95128248  0.50135559
   0.90415068  0.09438565  0.49894325
   0.90447244  0.23757415  0.49683047
   0.90494172  0.38083977  0.49731954
   0.90551501  0.52401964  0.50014476
   0.90621062  0.66701728  0.50410885
   0.90575989  0.80996713  0.50460355
   0.90460199  0.95187929  0.50200108
   0.46319702  0.35503939  0.50021089
   0.40282376  0.41801728  0.51723814
   0.40369760  0.56055823  0.52103703
   0.64562142  0.67602303  0.52197116
   0.64659032  0.53957411  0.52496522
   0.58542380  0.41577755  0.50309144
   0.58019488  0.73809550  0.50540818
   0.56989872  0.56062388  0.40505198
   0.48239189  0.55398426  0.43865670
   0.42729475  0.71565526  0.50241811
   0.52657358  0.53669558  0.45323718
Direct configuration=     4
   0.99989619  0.99988172  0.50121122
   0.99959802  0.14254574  0.49952624
   0.99985508  0.28561760  0.49794264
   0.00026621  0.42860226  0.49740916
   0.00066294  0.57157550  0.49883970
   0.00134198  0.71473477  0.50111736
   0.00098143  0.85774288  0.50192474
   0.14325543  0.00054245  0.50071304
   0.14277767  0.14317532  0.50165342
   0.14246652  0.28578233  0.50193945
   0.14314327  0.42926033  0.50063848
   0.14353872  0.57169782  0.49898762
   0.14363861  0.71448554  0.49900207
   0.14341959  0.85758504  0.49959122
   0.28590049  0.00021153  0.49901183
   0.28584487  0.14298409  0.50192281
   0.28593881  0.28734415  0.50661249
   0.28507083  0.42894177  0.50973276
   0.28785265  0.57249546  0.50485415
   0.28641735  0.71526555  0.50036994
   0.28569228  0.85776843  0.49853927
   0.42877118  0.99996333  0.49761106
   0.42865776  0.14261113  0.49903478
   0.42712257  0.28250144  0.50147339
   0.42786489  0.85681394  0.49921374
   0.57102909  0.99944263  0.49745311
   0.57151515  0.14231339  0.49710131
   0.57254614  0.28591817  0.49961308
   0.57009222  0.85530842  0.50090471
   0.71324890  0.99869210  0.49878598
   0.71425192  0.14229532  0.49638627
   0.71456755  0.28540120  0.49797612
   0.71432968  0.42760746  0.50401798
   0.71878074  0.57329860  0.51706196
   0.71804513  0.71506827  0.51608998
   0.71228691  0.85576425  0.50486973
   0.85653417  0.99932970  0.50081267
   0.85660396  0.14219587  0.49735245
   0.85711353  0.28528713  0.49662554
   0.85773014  0.42841481  0.49921631
   0.85836422  0.57185156  0.50376039
   0.85954751  0.71515087  0.50716803
   0.85738566  0.85679257  0.50483783
   0.04753396  0.09522517  0.50063922
   0.04704117  0.23773128  0.49942680
   0.04757154  0.38103722  0.49818164
   0.04826008  0.52395196  0.49799230
   0.04844832  0.66692084  0.49941434
   0.04832052  0.80989994  0.50086025
   0.04799846  0.95267755  0.50119448
   0.19058549  0.09542914  0.50167730
   0.19018411  0.23839107  0.50316963
   0.18960820  0.38096737  0.50346345
   0.19157127  0.52477096  0.50085595
   0.19113221  0.66706499  0.49944411
   0.19083455  0.80992460  0.49897035
   0.19090884  0.95274916  0.49975916
   0.33354075  0.09555111  0.49984138
   0.33417520  0.23825323  0.50375802
   0.33035801  0.38010685  0.51238606
   0.33140426  0.52353648  0.51181864
   0.33724770  0.67074213  0.50265561
   0.33314282  0.81004863  0.49923851
   0.33339083  0.95269200  0.49818139
   0.47635167  0.09495995  0.49767480
   0.47570774  0.23770612  0.49973325
   0.47247051  0.80617819  0.50072897
   0.47606077  0.95218797  0.49787054
   0.61883550  0.09460546  0.49667380
   0.61943635  0.23768666  0.49809537
   0.62139529  0.37921384  0.50237011
   0.61887034  0.81074942  0.50382923
   0.61784663  0.95099688  0.49886115
   0.76141705  0.09443254  0.49704252
   0.76206176  0.23751544  0.49657612
   0.76247439  0.38059213  0.50029852
   0.76271759  0.52482523  0.50847290
   0.76453314  0.66740239  0.51422753
   0.76146757  0.80758555  0.50873659
   0.76096211  0.95128424  0.50136205
   0.90415128  0.09438573  0.49894979
   0.90447327  0.23757783  0.49682967
   0.90494214  0.38084293  0.49731830
   0.90551320  0.52401682  0.50014985
   0.90620969  0.66701455  0.50412032
   0.90575966  0.80996872  0.50461906
   0.90460266  0.95188714  0.50200923
   0.46319612  0.35503519  0.50023389
   0.40282396  0.41801721  0.51724620
   0.40369488  0.56055992  0.52105670
   0.64562089  0.67602088  0.52196906
   0.64658629  0.53957529  0.52494345
   0.58542187  0.41577602  0.50310494
   0.58019433  0.73809330  0.50541776
   0.56984695  0.56066185  0.40497716
   0.48238138  0.55401510  0.43872493
   0.42729498  0.71565500  0.50242055
   0.52657089  0.53670822  0.45320187
Direct configuration=     5
   0.99989554  0.99988204  0.50122533
   0.99959805  0.14254601  0.49953410
   0.99985521  0.28561823  0.49794087
   0.00026508  0.42860217  0.49740550
   0.00066129  0.57157468  0.49884148
   0.00134286  0.71473587  0.50112729
   0.00098026  0.85774241  0.50194292
   0.14325307  0.00053986  0.50072449
   0.14277612  0.14317372  0.50166372
   0.14246636  0.28578236  0.50194379
   0.14314192  0.42925963  0.50063630
   0.14353779  0.57169830  0.49898346
   0.14363721  0.71448418  0.49899932
   0.14341831  0.85758428  0.49959707
   0.28589859  0.00020995  0.49901847
   0.28584248  0.14298241  0.50193289
   0.28593811  0.28734386  0.50662728
   0.28506969  0.42894142  0.50974237
   0.28785204  0.57249614  0.50485588
   0.28641540  0.71526408  0.50036535
   0.28569159  0.85776784  0.49853771
   0.42877006  0.99996166  0.49761392
   0.42865764  0.14260932  0.49904622
   0.42712122  0.28249830  0.50149554
   0.42786455  0.85681342  0.49921359
   0.57102950  0.99944235  0.49745466
   0.57151453  0.14231249  0.49710744
   0.57254538  0.28591641  0.49962814
   0.57009192  0.85530810  0.50091096
   0.71324988  0.99869207  0.49879262
   0.71425180  0.14229465  0.49638960
   0.71456764  0.28540108  0.49798042
   0.71432837  0.42760656  0.50402557
   0.71877770  0.57329698  0.51705883
   0.71804432  0.71506803  0.51609349
   0.71228653  0.85576438  0.50487807
   0.85653393  0.99933065  0.50082278
   0.85660506  0.14219678  0.49735621
   0.85711382  0.28528894  0.49662362
   0.85772874  0.42841450  0.49921899
   0.85836264  0.57185042  0.50377056
   0.85954679  0.71515058  0.50718373
   0.85738549  0.85679432  0.50485198
   0.04753344  0.09522452  0.50065044
   0.04704090  0.23773102  0.49942947
   0.04757146  0.38103706  0.49817764
   0.04825840  0.52395260  0.49798924
   0.04844747  0.66692090  0.49941641
   0.04831935  0.80989953  0.50087256
   0.04799640  0.95267606  0.50120974
   0.19058429  0.09542857  0.50168829
   0.19018364  0.23839032  0.50317917
   0.18960800  0.38096831  0.50346560
   0.19157004  0.52477044  0.50085268
   0.19113145  0.66706398  0.49944020
   0.19083335  0.80992370  0.49896938
   0.19090807  0.95274806  0.49976726
   0.33353849  0.09554974  0.49985142
   0.33417289  0.23824980  0.50377156
   0.33035735  0.38010626  0.51240034
   0.33140149  0.52353590  0.51182963
   0.33724772  0.67074198  0.50265530
   0.33314318  0.81004849  0.49923494
   0.33339107  0.95269029  0.49818231
   0.47635091  0.09495955  0.49768070
   0.47570613  0.23770260  0.49975097
   0.47247022  0.80617739  0.50073220
   0.47606136  0.95218694  0.49787205
   0.61883509  0.09460382  0.49667825
   0.61943553  0.23768449  0.49810400
   0.62139283  0.37921154  0.50238421
   0.61887096  0.81074986  0.50383814
   0.61784630  0.95099675  0.49886619
   0.76141622  0.09443181  0.49704712
   0.76206184  0.23751623  0.49657747
   0.76247222  0.38059015  0.50030310
   0.76271438  0.52482460  0.50847934
   0.76453155  0.66740173  0.51423284
   0.76146499  0.80758515  0.50874524
   0.76096141  0.95128520  0.50136991
   0.90415106  0.09438687  0.49895789
   0.90447216  0.23757710  0.49682859
   0.90494029  0.38084168  0.49731655
   0.90551151  0.52401777  0.50015585
   0.90620890  0.66701458  0.50413438
   0.90575843  0.80996851  0.50463835
   0.90460147  0.95188733  0.50202046
   0.46319576  0.35503125  0.50026226
   0.40282361  0.41801680  0.51725607
   0.40369046  0.56056141  0.52108071
   0.64561928  0.67601762  0.52196617
   0.64658065  0.53957695  0.52491635
   0.58541998  0.41577393  0.50312154
   0.58019505  0.73809268  0.50542937
   0.56978349  0.56070919  0.40488394
   0.48236803  0.55405368  0.43880977
   0.42729455  0.71565389  0.50242347
   0.52656724  0.53672453  0.45315968
Direct configuration=     6
   0.99989450  0.99988329  0.50124215
   0.99959728  0.14254573  0.49954358
   0.99985614  0.28562188  0.49793868
   0.00026379  0.42860232  0.49740076
   0.00065825  0.57157163  0.49884347
   0.00134257  0.71473472  0.50113949
   0.00097973  0.85774307  0.50196515
   0.14325075  0.00053743  0.50073866
   0.14277420  0.14317123  0.50167650
   0.14246640  0.28578439  0.50194898
   0.14314036  0.42926113  0.50063332
   0.14353253  0.57169331  0.49897836
   0.14363421  0.71448122  0.49899623
   0.14341718  0.85758380  0.49960426
   0.28589580  0.00020806  0.49902636
   0.28583824  0.14297861  0.50194535
   0.28593614  0.28734206  0.50664469
   0.28506617  0.42894013  0.50975244
   0.28784524  0.57249202  0.50485778
   0.28641043  0.71526167  0.50036140
   0.28568917  0.85776665  0.49853517
   0.42876840  0.99996035  0.49761731
   0.42865364  0.14260551  0.49906041
   0.42711672  0.28249199  0.50152282
   0.42786326  0.85681325  0.49921320
   0.57102948  0.99944192  0.49745641
   0.57151362  0.14231236  0.49711546
   0.57254529  0.28591466  0.49964655
   0.57009438  0.85530949  0.50091710
   0.71325385  0.99869160  0.49880073
   0.71425585  0.14230122  0.49639367
   0.71456980  0.28540568  0.49798581
   0.71432926  0.42760514  0.50403488
   0.71877448  0.57328968  0.51705347
   0.71804510  0.71507100  0.51609701
   0.71229280  0.85577007  0.50488831
   0.85653376  0.99933237  0.50083334
   0.85660775  0.14220083  0.49736004
   0.85712027  0.28530051  0.49662144
   0.85772776  0.42841386  0.49922208
   0.85836107  0.57184745  0.50378365
   0.85954661  0.71514962  0.50720327
   0.85738546  0.85680004  0.50486928
   0.04753337  0.09522459  0.50066420
   0.04704090  0.23773027  0.49943271
   0.04756819  0.38103279  0.49817316
   0.04825840  0.52395612  0.49798581
   0.04844760  0.66692310  0.49941911
   0.04831743  0.80989977  0.50088612
   0.04799377  0.95267334  0.50122874
   0.19058324  0.09542818  0.50170118
   0.19018466  0.23839064  0.50318995
   0.18960881  0.38096605  0.50346844
   0.19157236  0.52477304  0.50084871
   0.19113541  0.66706770  0.49943469
   0.19083363  0.80992348  0.49896840
   0.19090765  0.95274606  0.49977580
   0.33353856  0.09554892  0.49986348
   0.33417347  0.23824781  0.50378790
   0.33035782  0.38010609  0.51241761
   0.33140005  0.52353650  0.51184196
   0.33725042  0.67074408  0.50265481
   0.33314375  0.81004718  0.49923186
   0.33339185  0.95268895  0.49818431
   0.47635129  0.09495925  0.49768687
   0.47570509  0.23770020  0.49977262
   0.47246954  0.80617558  0.50073596
   0.47606223  0.95218526  0.49787369
   0.61883447  0.09460133  0.49668310
   0.61943269  0.23768007  0.49811443
   0.62138963  0.37920810  0.50240091
   0.61886345  0.81074559  0.50384892
   0.61784381  0.95099497  0.49887218
   0.76141380  0.09443051  0.49705269
   0.76205414  0.23750329  0.49657826
   0.76246722  0.38058720  0.50030879
   0.76270975  0.52482496  0.50848564
   0.76453016  0.66740286  0.51423957
   0.76146119  0.80758050  0.50875641
   0.76095670  0.95128506  0.50137892
   0.90415055  0.09438868  0.49896760
   0.90447038  0.23757353  0.49682726
   0.90493716  0.38083767  0.49731427
   0.90550987  0.52402102  0.50016280
   0.90620869  0.66701720  0.50415112
   0.90575644  0.80996701  0.50466157
   0.90459897  0.95188056  0.50203539
   0.46319602  0.35502797  0.50029590
   0.40282272  0.41801605  0.51726779
   0.40368434  0.56056271  0.52110903
   0.64561681  0.67601345  0.52196230
   0.64657342  0.53957901  0.52488385
   0.58541800  0.41577134  0.50314121
   0.58019727  0.73809427  0.50544292
   0.56970773  0.56076532  0.40477354
   0.48235193  0.55409989  0.43891081
   0.42729370  0.71565239  0.50242684
   0.52656334  0.53674541  0.45310926
Direct configuration=     7
   0.99989264  0.99988253  0.50126448
   0.99959629  0.14254571  0.49955617
   0.99985835  0.28562006  0.49793680
   0.00026256  0.42860238  0.49739421
   0.00065541  0.57157201  0.49884596
   0.00134015  0.71473342  0.50115595
   0.00097710  0.85774228  0.50199484
   0.14324891  0.00053561  0.50075782
   0.14277343  0.14317034  0.50169393
   0.14246653  0.28578523  0.50195579
   0.14314016  0.42926268  0.50062914
   0.14352859  0.57168990  0.49897132
   0.14363284  0.71448009  0.49899242
   0.14341574  0.85758245  0.49961375
   0.28589477  0.00020609  0.49903643
   0.28583484  0.14297433  0.50196238
   0.28593247  0.28733466  0.50666579
   0.28506428  0.42893878  0.50976497
   0.28784252  0.57249179  0.50485816
   0.28640931  0.71526069  0.50035937
   0.28568749  0.85776373  0.49853304
   0.42876876  0.99995964  0.49762152
   0.42864849  0.14260138  0.49907939
   0.42711181  0.28248488  0.50155745
   0.42786212  0.85681160  0.49921270
   0.57102918  0.99944065  0.49745916
   0.57151248  0.14230999  0.49712646
   0.57254337  0.28591070  0.49967118
   0.57009493  0.85531001  0.50092419
   0.71325367  0.99869162  0.49881133
   0.71425709  0.14230390  0.49639905
   0.71456794  0.28540477  0.49799297
   0.71432767  0.42760297  0.50404557
   0.71876910  0.57328758  0.51704629
   0.71804301  0.71507088  0.51610150
   0.71229463  0.85577339  0.50490227
   0.85653254  0.99933310  0.50084605
   0.85660663  0.14220123  0.49736560
   0.85711988  0.28530048  0.49661828
   0.85772519  0.42841333  0.49922595
   0.85835866  0.57184796  0.50380192
   0.85954523  0.71514931  0.50722994
   0.85738263  0.85680017  0.50489305
   0.04753149  0.09522093  0.50068010
   0.04704103  0.23773110  0.49943702
   0.04756377  0.38103063  0.49816740
   0.04825691  0.52395709  0.49798133
   0.04844632  0.66692272  0.49942301
   0.04831574  0.80990033  0.50090330
   0.04799178  0.95267263  0.50125469
   0.19057997  0.09542500  0.50171801
   0.19018530  0.23839286  0.50320222
   0.18960777  0.38096374  0.50347228
   0.19157173  0.52477433  0.50084321
   0.19113621  0.66706915  0.49942659
   0.19083265  0.80992244  0.49896736
   0.19090602  0.95274369  0.49978636
   0.33353723  0.09554629  0.49987952
   0.33417227  0.23824499  0.50381067
   0.33035660  0.38010561  0.51244003
   0.33139829  0.52353755  0.51185599
   0.33725026  0.67074461  0.50265425
   0.33314135  0.81004461  0.49922879
   0.33339038  0.95268827  0.49818803
   0.47635038  0.09495740  0.49769486
   0.47570471  0.23769824  0.49980003
   0.47246896  0.80617447  0.50074051
   0.47606146  0.95218410  0.49787547
   0.61883446  0.09460125  0.49668893
   0.61943151  0.23767825  0.49812857
   0.62138998  0.37920589  0.50242134
   0.61885874  0.81074378  0.50386325
   0.61784380  0.95099403  0.49887973
   0.76141455  0.09443153  0.49706004
   0.76205201  0.23749886  0.49657950
   0.76246534  0.38058722  0.50031660
   0.76270717  0.52482202  0.50849208
   0.76452821  0.66740161  0.51424879
   0.76146027  0.80757901  0.50877003
   0.76095524  0.95128537  0.50139065
   0.90415028  0.09438990  0.49898010
   0.90447134  0.23757613  0.49682544
   0.90493646  0.38083912  0.49731107
   0.90550625  0.52401760  0.50016828
   0.90620861  0.66701787  0.50417327
   0.90575439  0.80996714  0.50469231
   0.90459800  0.95188032  0.50205596
   0.46319587  0.35502355  0.50033947
   0.40282203  0.41801538  0.51728312
   0.40367678  0.56056485  0.52114573
   0.64561467  0.67600896  0.52195639
   0.64656420  0.53958150  0.52484108
   0.58541553  0.41576796  0.50316661
   0.58019925  0.73809554  0.50546023
   0.56960836  0.56083757  0.40463163
   0.48233097  0.55416017  0.43904157
   0.42729343  0.71565131  0.50243108
   0.52655945  0.53677429  0.45304411
Direct configuration=     8
   0.99988982  0.99987815  0.50129423
   0.99959700  0.14254635  0.49957027
   0.99985477  0.28561571  0.49793377
   0.00026013  0.42860224  0.49738540
   0.00065294  0.57157516  0.49884865
   0.00133738  0.71473412  0.50117777
   0.00097532  0.85773998  0.50203282
   0.14324660  0.00053312  0.50078333
   0.14277293  0.14317129  0.50171680
   0.14246626  0.28578351  0.50196444
   0.14313943  0.42926108  0.50062352
   0.14352994  0.57169427  0.49896142
   0.14363408  0.71448175  0.49898764
   0.14341550  0.85758317  0.49962312
   0.28589496  0.00020324  0.49904915
   0.28583361  0.14297046  0.50198565
   0.28593144  0.28732956  0.50669213
   0.28506646  0.42893836  0.50978130
   0.28784757  0.57249767  0.50485694
   0.28641351  0.71526153  0.50035846
   0.28568719  0.85776083  0.49853132
   0.42876975  0.99995861  0.49762656
   0.42864735  0.14259932  0.49910402
   0.42711307  0.28248236  0.50159956
   0.42786072  0.85680776  0.49921232
   0.57102873  0.99943902  0.49746372
   0.57151121  0.14230568  0.49714078
   0.57254048  0.28590632  0.49970349
   0.57009034  0.85530770  0.50093324
   0.71324530  0.99869057  0.49882311
   0.71425191  0.14229587  0.49640588
   0.71456224  0.28539629  0.49800252
   0.71432339  0.42760086  0.50405809
   0.71876154  0.57329189  0.51703620
   0.71803708  0.71506438  0.51610727
   0.71228442  0.85576940  0.50491890
   0.85653117  0.99933245  0.50086242
   0.85660224  0.14219865  0.49737347
   0.85711085  0.28528660  0.49661383
   0.85772111  0.42841235  0.49923023
   0.85835557  0.57185044  0.50382570
   0.85954280  0.71515030  0.50726570
   0.85737824  0.85679271  0.50492545
   0.04752838  0.09521699  0.50069964
   0.04704200  0.23773147  0.49944302
   0.04756372  0.38103395  0.49815980
   0.04825230  0.52395324  0.49797511
   0.04844212  0.66691880  0.49942862
   0.04831362  0.80989920  0.50092620
   0.04799067  0.95267384  0.50128974
   0.19057546  0.09542000  0.50174047
   0.19018252  0.23839189  0.50321764
   0.18960411  0.38096512  0.50347725
   0.19156536  0.52477124  0.50083535
   0.19112909  0.66706300  0.49941574
   0.19082913  0.80991961  0.49896648
   0.19090304  0.95274173  0.49980046
   0.33353155  0.09554082  0.49990090
   0.33416442  0.23823665  0.50384271
   0.33035095  0.38010045  0.51246812
   0.33139148  0.52353616  0.51187223
   0.33724565  0.67074179  0.50265401
   0.33313727  0.81004212  0.49922573
   0.33338836  0.95268601  0.49819164
   0.47634679  0.09495368  0.49770640
   0.47570184  0.23769343  0.49983570
   0.47246873  0.80617512  0.50074566
   0.47605909  0.95218324  0.49787720
   0.61883500  0.09460305  0.49669619
   0.61943235  0.23767888  0.49814790
   0.62139107  0.37920359  0.50244722
   0.61886998  0.81074764  0.50387952
   0.61784750  0.95099564  0.49888892
   0.76141776  0.09443454  0.49706969
   0.76206263  0.23751697  0.49658151
   0.76246466  0.38058618  0.50032535
   0.76270655  0.52481765  0.50849962
   0.76452460  0.66739672  0.51426108
   0.76146184  0.80758428  0.50878742
   0.76096207  0.95128985  0.50140499
   0.90415105  0.09438827  0.49899478
   0.90447484  0.23758330  0.49682318
   0.90493744  0.38084571  0.49730656
   0.90550132  0.52401043  0.50017345
   0.90620639  0.66701466  0.50420312
   0.90575160  0.80996873  0.50473313
   0.90459372  0.95189115  0.50208275
   0.46319397  0.35501598  0.50039500
   0.40282158  0.41801470  0.51730294
   0.40366933  0.56056900  0.52119253
   0.64561266  0.67600416  0.52194739