  95  95   0   0
  0.4078826E+02  0.1727104E-08  0.1727104E-08  0.1500000E-08  0.0000000E+00
  1.000000000000000E-004
  CAR 
 unknown system                          
      5.70225949    -24.03402916  301     -2.74749801      1.00000000
    -24.034  0.0000E+00  0.0000E+00  0.0000E+00  0.0000E+00
    -23.935  0.0000E+00  0.0000E+00  0.0000E+00  0.0000E+00
    -23.836  0.0000E+00  0.0000E+00  0.0000E+00  0.0000E+00
    -23.737  0.0000E+00  0.0000E+00  0.0000E+00  0.0000E+00
    -23.638  0.0000E+00  0.0000E+00  0.0000E+00  0.0000E+00
    -23.538  0.0000E+00  0.0000E+00  0.0000E+00  0.0000E+00
    -23.439  0.0000E+00  0.0000E+00  0.0000E+00  0.0000E+00
    -23.340  0.0000E+00  0.0000E+00  0.0000E+00  0.0000E+00
    -23.241  0.0000E+00  0.0000E+00  0.0000E+00  0.0000E+00
    -23.142  0.0000E+00  0.0000E+00  0.0000E+00  0.0000E+00
    -23.043  0.0000E+00  0.0000E+00  0.0000E+00  0.0000E+00
    -22.944  0.7115E-15  0.7115E-15  0.7053E-16  0.7053E-16
    -22.845  0.2217E-07  0.2217E-07  0.2197E-08  0.2197E-08
    -22.745  0.3719E-03  0.3719E-03  0.3687E-04  0.3687E-04
    -22.646  0.8153E-02  0.8153E-02  0.8450E-03  0.8450E-03
    -22.547  0.1563E-02  0.1563E-02  0.1000E-02  0.1000E-02
    -22.448  0.9663E-03  0.9663E-03  0.1096E-02  0.1096E-02
    -22.349  0.1525E-01  0.1525E-01  0.2607E-02  0.2607E-02
    -22.250  0.1746E-01  0.1746E-01  0.4338E-02  0.4338E-02
    -22.151  0.6638E-02  0.6638E-02  0.4996E-02  0.4996E-02
    -22.052  0.3970E-04  0.3970E-04  0.5000E-02  0.5000E-02
    -21.952  0.3904E-09  0.3904E-09  0.5000E-02  0.5000E-02
    -21.853  0.4233E-06  0.4233E-06  0.5000E-02  0.5000E-02
    -21.754  0.1233E-02  0.1233E-02  0.5122E-02  0.5122E-02
    -21.655  0.1248E-01  0.1248E-01  0.6360E-02  0.6360E-02
    -21.556  0.6717E-02  0.6717E-02  0.7025E-02  0.7025E-02
    -21.457  0.4587E-02  0.4587E-02  0.7480E-02  0.7480E-02
    -21.358  0.3625E-02  0.3625E-02  0.7840E-02  0.7840E-02
    -21.259  0.4592E-02  0.4592E-02  0.8295E-02  0.8295E-02
    -21.160  0.5178E-02  0.5178E-02  0.8808E-02  0.8808E-02
    -21.060  0.6892E-02  0.6892E-02  0.9491E-02  0.9491E-02
    -20.961  0.5811E-02  0.5811E-02  0.1007E-01  0.1007E-01
    -20.862  0.5078E-02  0.5078E-02  0.1057E-01  0.1057E-01
    -20.763  0.7751E-02  0.7751E-02  0.1134E-01  0.1134E-01
    -20.664  0.7236E-02  0.7236E-02  0.1206E-01  0.1206E-01
    -20.565  0.5276E-02  0.5276E-02  0.1258E-01  0.1258E-01
    -20.466  0.8109E-02  0.8109E-02  0.1338E-01  0.1338E-01
    -20.367  0.7442E-02  0.7442E-02  0.1412E-01  0.1412E-01
    -20.267  0.8097E-02  0.8097E-02  0.1492E-01  0.1492E-01
    -20.168  0.5150E-02  0.5150E-02  0.1543E-01  0.1543E-01
    -20.069  0.6784E-03  0.6784E-03  0.1550E-01  0.1550E-01
    -19.970  0.3836E-02  0.3836E-02  0.1588E-01  0.1588E-01
    -19.871  0.1293E-01  0.1293E-01  0.1716E-01  0.1716E-01
    -19.772  0.2747E-02  0.2747E-02  0.1743E-01  0.1743E-01
    -19.673  0.8414E-02  0.8414E-02  0.1827E-01  0.1827E-01
    -19.574  0.1340E-01  0.1340E-01  0.1960E-01  0.1960E-01
    -19.474  0.7539E-02  0.7539E-02  0.2034E-01  0.2034E-01
    -19.375  0.6651E-02  0.6651E-02  0.2100E-01  0.2100E-01
    -19.276  0.4780E-02  0.4780E-02  0.2148E-01  0.2148E-01
    -19.177  0.2970E-02  0.2970E-02  0.2177E-01  0.2177E-01
    -19.078  0.7127E-02  0.7127E-02  0.2248E-01  0.2248E-01
    -18.979  0.2503E-02  0.2503E-02  0.2273E-01  0.2273E-01
    -18.880  0.3607E-02  0.3607E-02  0.2308E-01  0.2308E-01
    -18.781  0.1115E-01  0.1115E-01  0.2419E-01  0.2419E-01
    -18.681  0.1771E-01  0.1771E-01  0.2594E-01  0.2594E-01
    -18.582  0.8096E-02  0.8096E-02  0.2675E-01  0.2675E-01
    -18.483  0.2341E-02  0.2341E-02  0.2698E-01  0.2698E-01
    -18.384  0.7025E-02  0.7025E-02  0.2768E-01  0.2768E-01
    -18.285  0.9659E-02  0.9659E-02  0.2863E-01  0.2863E-01
    -18.186  0.5107E-02  0.5107E-02  0.2914E-01  0.2914E-01
    -18.087  0.2183E-02  0.2183E-02  0.2936E-01  0.2936E-01
    -17.988  0.5191E-02  0.5191E-02  0.2987E-01  0.2987E-01
    -17.889  0.7498E-02  0.7498E-02  0.3061E-01  0.3061E-01
    -17.789  0.7823E-02  0.7823E-02  0.3139E-01  0.3139E-01
    -17.690  0.7469E-02  0.7469E-02  0.3213E-01  0.3213E-01
    -17.591  0.1416E-01  0.1416E-01  0.3353E-01  0.3353E-01
    -17.492  0.1173E-01  0.1173E-01  0.3470E-01  0.3470E-01
    -17.393  0.1160E-01  0.1160E-01  0.3584E-01  0.3584E-01
    -17.294  0.5564E-02  0.5564E-02  0.3640E-01  0.3640E-01
    -17.195  0.5044E-02  0.5044E-02  0.3690E-01  0.3690E-01
    -17.096  0.9457E-02  0.9457E-02  0.3783E-01  0.3783E-01
    -16.996  0.4472E-02  0.4472E-02  0.3828E-01  0.3828E-01
    -16.897  0.3302E-02  0.3302E-02  0.3860E-01  0.3860E-01
    -16.798  0.7119E-02  0.7119E-02  0.3931E-01  0.3931E-01
    -16.699  0.5386E-02  0.5386E-02  0.3984E-01  0.3984E-01
    -16.600  0.1288E-01  0.1288E-01  0.4112E-01  0.4112E-01
    -16.501  0.1922E-01  0.1922E-01  0.4303E-01  0.4303E-01
    -16.402  0.5658E-02  0.5658E-02  0.4359E-01  0.4359E-01
    -16.303  0.3275E-02  0.3275E-02  0.4391E-01  0.4391E-01
    -16.203  0.8949E-03  0.8949E-03  0.4400E-01  0.4400E-01
    -16.104  0.1792E-05  0.1792E-05  0.4400E-01  0.4400E-01
    -16.005  0.1374E-03  0.1374E-03  0.4401E-01  0.4401E-01
    -15.906  0.2440E-02  0.2440E-02  0.4426E-01  0.4426E-01
    -15.807  0.5699E-02  0.5699E-02  0.4482E-01  0.4482E-01
    -15.708  0.5644E-02  0.5644E-02  0.4538E-01  0.4538E-01
    -15.609  0.6446E-02  0.6446E-02  0.4602E-01  0.4602E-01
    -15.510  0.6239E-02  0.6239E-02  0.4664E-01  0.4664E-01
    -15.411  0.7106E-02  0.7106E-02  0.4734E-01  0.4734E-01
    -15.311  0.4293E-02  0.4293E-02  0.4777E-01  0.4777E-01
    -15.212  0.1572E-01  0.1572E-01  0.4933E-01  0.4933E-01
    -15.113  0.1314E-01  0.1314E-01  0.5063E-01  0.5063E-01
    -15.014  0.4481E-02  0.4481E-02  0.5107E-01  0.5107E-01
    -14.915  0.5579E-02  0.5579E-02  0.5162E-01  0.5162E-01
    -14.816  0.1027E-01  0.1027E-01  0.5264E-01  0.5264E-01
    -14.717  0.1036E-01  0.1036E-01  0.5367E-01  0.5367E-01
    -14.618  0.6341E-02  0.6341E-02  0.5430E-01  0.5430E-01
    -14.518  0.7560E-02  0.7560E-02  0.5505E-01  0.5505E-01
    -14.419  0.1143E-01  0.1143E-01  0.5618E-01  0.5618E-01
    -14.320  0.1268E-01  0.1268E-01  0.5744E-01  0.5744E-01
    -14.221  0.5792E-02  0.5792E-02  0.5801E-01  0.5801E-01
    -14.122  0.6170E-02  0.6170E-02  0.5862E-01  0.5862E-01
    -14.023  0.2198E-02  0.2198E-02  0.5884E-01  0.5884E-01
    -13.924  0.4264E-02  0.4264E-02  0.5926E-01  0.5926E-01
    -13.825  0.5240E-02  0.5240E-02  0.5978E-01  0.5978E-01
    -13.725  0.8805E-02  0.8805E-02  0.6066E-01  0.6066E-01
    -13.626  0.1293E-01  0.1293E-01  0.6194E-01  0.6194E-01
    -13.527  0.8306E-02  0.8306E-02  0.6276E-01  0.6276E-01
    -13.428  0.6615E-02  0.6615E-02  0.6342E-01  0.6342E-01
    -13.329  0.4791E-02  0.4791E-02  0.6389E-01  0.6389E-01
    -13.230  0.5718E-02  0.5718E-02  0.6446E-01  0.6446E-01
    -13.131  0.1136E-02  0.1136E-02  0.6457E-01  0.6457E-01
    -13.032  0.6137E-02  0.6137E-02  0.6518E-01  0.6518E-01
    -12.932  0.5711E-02  0.5711E-02  0.6575E-01  0.6575E-01
    -12.833  0.8210E-02  0.8210E-02  0.6656E-01  0.6656E-01
    -12.734  0.7055E-02  0.7055E-02  0.6726E-01  0.6726E-01
    -12.635  0.1758E-01  0.1758E-01  0.6900E-01  0.6900E-01
    -12.536  0.1151E-01  0.1151E-01  0.7014E-01  0.7014E-01
    -12.437  0.9871E-02  0.9871E-02  0.7112E-01  0.7112E-01
    -12.338  0.6237E-02  0.6237E-02  0.7174E-01  0.7174E-01
    -12.239  0.4447E-02  0.4447E-02  0.7218E-01  0.7218E-01
    -12.140  0.4035E-02  0.4035E-02  0.7258E-01  0.7258E-01
    -12.040  0.7526E-02  0.7526E-02  0.7332E-01  0.7332E-01
    -11.941  0.5679E-02  0.5679E-02  0.7389E-01  0.7389E-01
    -11.842  0.7548E-02  0.7548E-02  0.7464E-01  0.7464E-01
    -11.743  0.9050E-02  0.9050E-02  0.7553E-01  0.7553E-01
    -11.644  0.1122E-01  0.1122E-01  0.7665E-01  0.7665E-01
    -11.545  0.9361E-02  0.9361E-02  0.7757E-01  0.7757E-01
    -11.446  0.1514E-01  0.1514E-01  0.7907E-01  0.7907E-01
    -11.347  0.9892E-02  0.9892E-02  0.8005E-01  0.8005E-01
    -11.247  0.8665E-02  0.8665E-02  0.8091E-01  0.8091E-01
    -11.148  0.1010E-01  0.1010E-01  0.8191E-01  0.8191E-01
    -11.049  0.1226E-01  0.1226E-01  0.8313E-01  0.8313E-01
    -10.950  0.7924E-02  0.7924E-02  0.8392E-01  0.8392E-01
    -10.851  0.7647E-02  0.7647E-02  0.8467E-01  0.8467E-01
    -10.752  0.9275E-02  0.9275E-02  0.8559E-01  0.8559E-01
    -10.653  0.1010E-01  0.1010E-01  0.8659E-01  0.8659E-01
    -10.554  0.4800E-02  0.4800E-02  0.8707E-01  0.8707E-01
    -10.454  0.8304E-02  0.8304E-02  0.8789E-01  0.8789E-01
    -10.355  0.1218E-01  0.1218E-01  0.8910E-01  0.8910E-01
    -10.256  0.1536E-01  0.1536E-01  0.9062E-01  0.9062E-01
    -10.157  0.1464E-01  0.1464E-01  0.9207E-01  0.9207E-01
    -10.058  0.2016E-01  0.2016E-01  0.9407E-01  0.9407E-01
     -9.959  0.1646E-01  0.1646E-01  0.9570E-01  0.9570E-01
     -9.860  0.1631E-01  0.1631E-01  0.9732E-01  0.9732E-01
     -9.761  0.1300E-01  0.1300E-01  0.9861E-01  0.9861E-01
     -9.661  0.1838E-01  0.1838E-01  0.1004E+00  0.1004E+00
     -9.562  0.1868E-01  0.1868E-01  0.1023E+00  0.1023E+00
     -9.463  0.1829E-01  0.1829E-01  0.1041E+00  0.1041E+00
     -9.364  0.1499E-01  0.1499E-01  0.1056E+00  0.1056E+00
     -9.265  0.1535E-01  0.1535E-01  0.1071E+00  0.1071E+00
     -9.166  0.2320E-01  0.2320E-01  0.1094E+00  0.1094E+00
     -9.067  0.2746E-01  0.2746E-01  0.1121E+00  0.1121E+00
     -8.968  0.2570E-01  0.2570E-01  0.1147E+00  0.1147E+00
     -8.869  0.2338E-01  0.2338E-01  0.1170E+00  0.1170E+00
     -8.769  0.1671E-01  0.1671E-01  0.1186E+00  0.1186E+00
     -8.670  0.1558E-01  0.1558E-01  0.1202E+00  0.1202E+00
     -8.571  0.1643E-01  0.1643E-01  0.1218E+00  0.1218E+00
     -8.472  0.1573E-01  0.1573E-01  0.1234E+00  0.1234E+00
     -8.373  0.1813E-01  0.1813E-01  0.1252E+00  0.1252E+00
     -8.274  0.2580E-01  0.2580E-01  0.1277E+00  0.1277E+00
     -8.175  0.1816E-01  0.1816E-01  0.1295E+00  0.1295E+00
     -8.076  0.1561E-01  0.1561E-01  0.1311E+00  0.1311E+00
     -7.976  0.1618E-01  0.1618E-01  0.1327E+00  0.1327E+00
     -7.877  0.1858E-01  0.1858E-01  0.1345E+00  0.1345E+00
     -7.778  0.5260E-02  0.5260E-02  0.1350E+00  0.1350E+00
     -7.679  0.9990E-02  0.9990E-02  0.1360E+00  0.1360E+00
     -7.580  0.1292E-01  0.1292E-01  0.1373E+00  0.1373E+00
     -7.481  0.1973E-01  0.1973E-01  0.1393E+00  0.1393E+00
     -7.382  0.2073E-01  0.2073E-01  0.1413E+00  0.1413E+00
     -7.283  0.1863E-01  0.1863E-01  0.1432E+00  0.1432E+00
     -7.183  0.1343E-01  0.1343E-01  0.1445E+00  0.1445E+00
     -7.084  0.1354E-01  0.1354E-01  0.1458E+00  0.1458E+00
     -6.985  0.1506E-01  0.1506E-01  0.1473E+00  0.1473E+00
     -6.886  0.1020E-01  0.1020E-01  0.1484E+00  0.1484E+00
     -6.787  0.8732E-02  0.8732E-02  0.1492E+00  0.1492E+00
     -6.688  0.1262E-01  0.1262E-01  0.1505E+00  0.1505E+00
     -6.589  0.1723E-01  0.1723E-01  0.1522E+00  0.1522E+00
     -6.490  0.1272E-01  0.1272E-01  0.1534E+00  0.1534E+00
     -6.390  0.1576E-01  0.1576E-01  0.1550E+00  0.1550E+00
     -6.291  0.2254E-01  0.2254E-01  0.1572E+00  0.1572E+00
     -6.192  0.1573E-01  0.1573E-01  0.1588E+00  0.1588E+00
     -6.093  0.6515E-02  0.6515E-02  0.1594E+00  0.1594E+00
     -5.994  0.1159E-01  0.1159E-01  0.1606E+00  0.1606E+00
     -5.895  0.1320E-01  0.1320E-01  0.1619E+00  0.1619E+00
     -5.796  0.9583E-02  0.9583E-02  0.1628E+00  0.1628E+00
     -5.697  0.3902E-02  0.3902E-02  0.1632E+00  0.1632E+00
     -5.598  0.4958E-02  0.4958E-02  0.1637E+00  0.1637E+00
     -5.498  0.2026E-02  0.2026E-02  0.1639E+00  0.1639E+00
     -5.399  0.4463E-02  0.4463E-02  0.1644E+00  0.1644E+00
     -5.300  0.7787E-02  0.7787E-02  0.1651E+00  0.1651E+00
     -5.201  0.2073E-01  0.2073E-01  0.1672E+00  0.1672E+00
     -5.102  0.1431E-01  0.1431E-01  0.1686E+00  0.1686E+00
     -5.003  0.1918E-01  0.1918E-01  0.1705E+00  0.1705E+00
     -4.904  0.1376E-01  0.1376E-01  0.1719E+00  0.1719E+00
     -4.805  0.8780E-02  0.8780E-02  0.1727E+00  0.1727E+00
     -4.705  0.1078E-01  0.1078E-01  0.1738E+00  0.1738E+00
     -4.606  0.1088E-01  0.1088E-01  0.1749E+00  0.1749E+00
     -4.507  0.2520E-01  0.2520E-01  0.1774E+00  0.1774E+00
     -4.408  0.1264E-01  0.1264E-01  0.1786E+00  0.1786E+00
     -4.309  0.5657E-02  0.5657E-02  0.1792E+00  0.1792E+00
     -4.210  0.1137E-01  0.1137E-01  0.1803E+00  0.1803E+00
     -4.111  0.7968E-02  0.7968E-02  0.1811E+00  0.1811E+00
     -4.012  0.8323E-02  0.8323E-02  0.1819E+00  0.1819E+00
     -3.912  0.5273E-03  0.5273E-03  0.1820E+00  0.1820E+00
     -3.813  0.8007E-03  0.8007E-03  0.1821E+00  0.1821E+00
     -3.714  0.1752E-02  0.1752E-02  0.1823E+00  0.1823E+00
     -3.615  0.4004E-02  0.4004E-02  0.1827E+00  0.1827E+00
     -3.516  0.3617E-02  0.3617E-02  0.1830E+00  0.1830E+00
     -3.417  0.2125E-02  0.2125E-02  0.1832E+00  0.1832E+00
     -3.318  0.5555E-03  0.5555E-03  0.1833E+00  0.1833E+00
     -3.219  0.2111E-02  0.2111E-02  0.1835E+00  0.1835E+00
     -3.120  0.1678E-03  0.1678E-03  0.1835E+00  0.1835E+00
     -3.020  0.6735E-03  0.6735E-03  0.1836E+00  0.1836E+00
     -2.921  0.2520E-02  0.2520E-02  0.1838E+00  0.1838E+00
     -2.822  0.1817E-02  0.1817E-02  0.1840E+00  0.1840E+00
     -2.723  0.3330E-04  0.3330E-04  0.1840E+00  0.1840E+00
     -2.624  0.5245E-03  0.5245E-03  0.1841E+00  0.1841E+00
     -2.525  0.3563E-02  0.3563E-02  0.1844E+00  0.1844E+00
     -2.426  0.9548E-03  0.9548E-03  0.1845E+00  0.1845E+00
     -2.327  0.1881E-05  0.1881E-05  0.1845E+00  0.1845E+00
     -2.227  0.2364E-04  0.2364E-04  0.1845E+00  0.1845E+00
     -2.128  0.2890E-02  0.2890E-02  0.1848E+00  0.1848E+00
     -2.029  0.2147E-02  0.2147E-02  0.1850E+00  0.1850E+00
     -1.930  0.2748E-02  0.2748E-02  0.1853E+00  0.1853E+00
     -1.831  0.4244E-02  0.4244E-02  0.1857E+00  0.1857E+00
     -1.732  0.2839E-02  0.2839E-02  0.1860E+00  0.1860E+00
     -1.633  0.2726E-03  0.2726E-03  0.1860E+00  0.1860E+00
     -1.534  0.4149E-02  0.4149E-02  0.1864E+00  0.1864E+00
     -1.434  0.8553E-02  0.8553E-02  0.1873E+00  0.1873E+00
     -1.335  0.2340E-02  0.2340E-02  0.1875E+00  0.1875E+00
     -1.236  0.2209E-03  0.2209E-03  0.1875E+00  0.1875E+00
     -1.137  0.5763E-02  0.5763E-02  0.1881E+00  0.1881E+00
     -1.038  0.1632E-01  0.1632E-01  0.1897E+00  0.1897E+00
     -0.939  0.1189E-01  0.1189E-01  0.1909E+00  0.1909E+00
     -0.840  0.5227E-02  0.5227E-02  0.1914E+00  0.1914E+00
     -0.741  0.1047E-01  0.1047E-01  0.1924E+00  0.1924E+00
     -0.641  0.1110E-01  0.1110E-01  0.1935E+00  0.1935E+00
     -0.542  0.5316E-02  0.5316E-02  0.1941E+00  0.1941E+00
     -0.443  0.3433E-02  0.3433E-02  0.1944E+00  0.1944E+00
     -0.344  0.8592E-02  0.8592E-02  0.1953E+00  0.1953E+00
     -0.245  0.9424E-02  0.9424E-02  0.1962E+00  0.1962E+00
     -0.146  0.1072E-01  0.1072E-01  0.1973E+00  0.1973E+00
     -0.047  0.1020E-01  0.1020E-01  0.1983E+00  0.1983E+00
      0.052  0.1154E-01  0.1154E-01  0.1994E+00  0.1994E+00
      0.151  0.4607E-02  0.4607E-02  0.1999E+00  0.1999E+00
      0.251  0.1349E-02  0.1349E-02  0.2000E+00  0.2000E+00
      0.350  0.1836E-02  0.1836E-02  0.2002E+00  0.2002E+00
      0.449  0.7983E-02  0.7983E-02  0.2010E+00  0.2010E+00
      0.548  0.8800E-02  0.8800E-02  0.2018E+00  0.2018E+00
      0.647  0.6345E-02  0.6345E-02  0.2025E+00  0.2025E+00
      0.746  0.4929E-02  0.4929E-02  0.2030E+00  0.2030E+00
      0.845  0.5430E-02  0.5430E-02  0.2035E+00  0.2035E+00
      0.944  0.8453E-02  0.8453E-02  0.2043E+00  0.2043E+00
      1.044  0.1201E-01  0.1201E-01  0.2055E+00  0.2055E+00
      1.143  0.3204E-02  0.3204E-02  0.2058E+00  0.2058E+00
      1.242  0.8932E-02  0.8932E-02  0.2067E+00  0.2067E+00
      1.341  0.1790E-01  0.1790E-01  0.2085E+00  0.2085E+00
      1.440  0.2168E-01  0.2168E-01  0.2107E+00  0.2107E+00
      1.539  0.7929E-02  0.7929E-02  0.2114E+00  0.2114E+00
      1.638  0.8047E-02  0.8047E-02  0.2122E+00  0.2122E+00
      1.737  0.6945E-02  0.6944E-02  0.2129E+00  0.2129E+00
      1.837  0.9714E-02  0.9714E-02  0.2139E+00  0.2139E+00
      1.936  0.1786E-01  0.1786E-01  0.2157E+00  0.2157E+00
      2.035  0.2905E-01  0.2905E-01  0.2185E+00  0.2185E+00
      2.134  0.9514E-02  0.9514E-02  0.2195E+00  0.2195E+00
      2.233  0.1339E-01  0.1339E-01  0.2208E+00  0.2208E+00
      2.332  0.1924E-01  0.1924E-01  0.2227E+00  0.2227E+00
      2.431  0.2407E-01  0.2407E-01  0.2251E+00  0.2251E+00
      2.530  0.1242E-01  0.1242E-01  0.2263E+00  0.2263E+00
      2.630  0.8722E-02  0.8722E-02  0.2272E+00  0.2272E+00
      2.729  0.1522E-01  0.1522E-01  0.2287E+00  0.2287E+00
      2.828  0.2582E-01  0.2582E-01  0.2313E+00  0.2313E+00
      2.927  0.5617E-01  0.5617E-01  0.2368E+00  0.2368E+00
      3.026  0.2382E-01  0.2382E-01  0.2392E+00  0.2392E+00
      3.125  0.9647E-02  0.9647E-02  0.2402E+00  0.2402E+00
      3.224  0.1252E-01  0.1252E-01  0.2414E+00  0.2414E+00
      3.323  0.1549E-01  0.1549E-01  0.2429E+00  0.2429E+00
      3.422  0.2298E-01  0.2298E-01  0.2452E+00  0.2452E+00
      3.522  0.2335E-01  0.2336E-01  0.2475E+00  0.2475E+00
      3.621  0.8911E-02  0.8911E-02  0.2484E+00  0.2484E+00
      3.720  0.1772E-01  0.1772E-01  0.2502E+00  0.2502E+00
      3.819  0.2899E-01  0.2899E-01  0.2530E+00  0.2530E+00
      3.918  0.2862E-01  0.2862E-01  0.2559E+00  0.2559E+00
      4.017  0.1810E-01  0.1810E-01  0.2577E+00  0.2577E+00
      4.116  0.1719E-01  0.1719E-01  0.2594E+00  0.2594E+00
      4.215  0.1426E-01  0.1426E-01  0.2608E+00  0.2608E+00
      4.315  0.3295E-01  0.3296E-01  0.2641E+00  0.2641E+00
      4.414  0.9442E-02  0.9443E-02  0.2650E+00  0.2650E+00
      4.513  0.1247E-03  0.1248E-03  0.2650E+00  0.2650E+00
      4.612  0.5819E-08  0.5825E-08  0.2650E+00  0.2650E+00
      4.711  0.1837E-15  0.1840E-15  0.2650E+00  0.2650E+00
      4.810  0.0000E+00  0.0000E+00  0.2650E+00  0.2650E+00
      4.909  0.0000E+00  0.0000E+00  0.2650E+00  0.2650E+00
      5.008  0.0000E+00  0.0000E+00  0.2650E+00  0.2650E+00
      5.108  0.0000E+00  0.0000E+00  0.2650E+00  0.2650E+00
      5.207  0.0000E+00  0.0000E+00  0.2650E+00  0.2650E+00
      5.306  0.0000E+00  0.0000E+00  0.2650E+00  0.2650E+00
      5.405  0.0000E+00  0.0000E+00  0.2650E+00  0.2650E+00
      5.504  0.0000E+00  0.0000E+00  0.2650E+00  0.2650E+00
      5.603  0.0000E+00  0.0000E+00  0.2650E+00  0.2650E+00
      5.702  0.0000E+00  0.0000E+00  0.2650E+00  0.2650E+00
