       N       E                     dE             d eps       ncg     rms          rms(c)
DAV:   1     0.329019857637E+04    0.32902E+04   -0.13743E+05  4570   0.105E+03
DAV:   2    -0.232886264751E+03   -0.35231E+04   -0.33176E+04  6410   0.258E+02
DAV:   3    -0.852916538550E+03   -0.62003E+03   -0.61720E+03  5320   0.112E+02
DAV:   4    -0.875156732197E+03   -0.22240E+02   -0.22153E+02  5370   0.267E+01
DAV:   5    -0.875804880515E+03   -0.64815E+00   -0.64732E+00  6030   0.384E+00    0.513E+01
DAV:   6    -0.859367996000E+03    0.16437E+02   -0.21077E+01  5130   0.701E+00    0.334E+01
DAV:   7    -0.838305457571E+03    0.21063E+02   -0.30714E+01  4980   0.824E+00    0.202E+01
DAV:   8    -0.833611170883E+03    0.46943E+01   -0.23412E+01  5060   0.708E+00    0.795E+00
DAV:   9    -0.833521643188E+03    0.89528E-01   -0.10159E+00  5020   0.176E+00    0.319E+00
DAV:  10    -0.833425109836E+03    0.96533E-01   -0.36984E-01  4910   0.998E-01    0.841E-01
DAV:  11    -0.833414158994E+03    0.10951E-01   -0.64208E-02  4880   0.423E-01    0.258E-01
DAV:  12    -0.833413674973E+03    0.48402E-03   -0.65082E-03  5320   0.156E-01    0.129E-01
DAV:  13    -0.833413582834E+03    0.92140E-04   -0.14303E-03  5200   0.762E-02    0.697E-02
DAV:  14    -0.833413648020E+03   -0.65186E-04   -0.25453E-04  5120   0.316E-02    0.431E-02
DAV:  15    -0.833413682315E+03   -0.34295E-04   -0.54978E-05  4850   0.150E-02    0.179E-02
DAV:  16    -0.833413684063E+03   -0.17478E-05   -0.11254E-05  5080   0.667E-03    0.896E-03
DAV:  17    -0.833413683398E+03    0.66444E-06   -0.60683E-06  5065   0.511E-03
   1 F= -.84103870E+03 E0= -.84103870E+03  d E =-.841039E+03  mag=     0.0001
       N       E                     dE             d eps       ncg     rms          rms(c)
DAV:   1    -0.833413683153E+03    0.90976E-06   -0.15476E-04  4600   0.208E-02    0.305E-03
DAV:   2    -0.833413683269E+03   -0.11549E-06   -0.31743E-06  3530   0.284E-03
   2 F= -.84103870E+03 E0= -.84103870E+03  d E =-.116213E-05  mag=    -0.0000
       N       E                     dE             d eps       ncg     rms          rms(c)
DAV:   1    -0.833413681119E+03    0.20337E-05   -0.37839E-04  4510   0.297E-02    0.515E-03
DAV:   2    -0.833413681370E+03   -0.25047E-06   -0.64463E-06  3750   0.369E-03
   3 F= -.84103870E+03 E0= -.84103870E+03  d E =-.101777E-05  mag=     0.0000
       N       E                     dE             d eps       ncg     rms          rms(c)
DAV:   1    -0.833413680816E+03    0.30363E-06   -0.61598E-04  4500   0.406E-02    0.677E-03
DAV:   2    -0.833413681264E+03   -0.44809E-06   -0.99920E-06  4260   0.499E-03
   4 F= -.84103870E+03 E0= -.84103870E+03  d E =-.340695E-05  mag=    -0.0000
       N       E                     dE             d eps       ncg     rms          rms(c)
DAV:   1    -0.833413681926E+03   -0.11107E-05   -0.86901E-04  4440   0.507E-02    0.860E-03
DAV:   2    -0.833413682536E+03   -0.60911E-06   -0.13699E-05  4650   0.614E-03    0.729E-03
DAV:   3    -0.833413682284E+03    0.25133E-06   -0.77137E-07  3160   0.191E-03
   5 F= -.84103871E+03 E0= -.84103871E+03  d E =-.462556E-05  mag=     0.0000
       N       E                     dE             d eps       ncg     rms          rms(c)
DAV:   1    -0.833413689450E+03   -0.69145E-05   -0.11714E-03  4400   0.595E-02    0.680E-03
DAV:   2    -0.833413690784E+03   -0.13336E-05   -0.17905E-05  4570   0.700E-03    0.580E-03
DAV:   3    -0.833413690632E+03    0.15133E-06   -0.45125E-07  3120   0.143E-03
   6 F= -.84103872E+03 E0= -.84103872E+03  d E =-.932933E-05  mag=    -0.0000
       N       E                     dE             d eps       ncg     rms          rms(c)
DAV:   1    -0.833413705325E+03   -0.14542E-04   -0.16418E-03  4340   0.699E-02    0.808E-03
DAV:   2    -0.833413707283E+03   -0.19579E-05   -0.26205E-05  4480   0.832E-03    0.674E-03
DAV:   3    -0.833413707065E+03    0.21829E-06   -0.62837E-07  3240   0.166E-03
   7 F= -.84103873E+03 E0= -.84103873E+03  d E =-.141744E-04  mag=     0.0000
       N       E                     dE             d eps       ncg     rms          rms(c)
DAV:   1    -0.833413734387E+03   -0.27104E-04   -0.30138E-03  4360   0.912E-02    0.114E-02
DAV:   2    -0.833413738001E+03   -0.36136E-05   -0.49032E-05  4420   0.108E-02    0.915E-03
DAV:   3    -0.833413737652E+03    0.34885E-06   -0.11257E-06  3490   0.211E-03
   8 F= -.84103875E+03 E0= -.84103875E+03  d E =-.229649E-04  mag=     0.0000
       N       E                     dE             d eps       ncg     rms          rms(c)
DAV:   1    -0.833413780191E+03   -0.42191E-04   -0.65782E-03  4360   0.125E-01    0.180E-02
DAV:   2    -0.833413788007E+03   -0.78162E-05   -0.11141E-04  4400   0.149E-02    0.134E-02
DAV:   3    -0.833413787483E+03    0.52446E-06   -0.23501E-06  3650   0.291E-03
   9 F= -.84103879E+03 E0= -.84103879E+03  d E =-.350051E-04  mag=     0.0000
       N       E                     dE             d eps       ncg     rms          rms(c)
DAV:   1    -0.833413846391E+03   -0.58383E-04   -0.15232E-02  4330   0.173E-01    0.286E-02
DAV:   2    -0.833413862174E+03   -0.15783E-04   -0.26413E-04  4380   0.206E-02    0.200E-02
DAV:   3    -0.833413862092E+03    0.81920E-07   -0.51583E-06  3895   0.402E-03
  10 F= -.84103884E+03 E0= -.84103884E+03  d E =-.473336E-04  mag=     0.0000
       N       E                     dE             d eps       ncg     rms          rms(c)
DAV:   1    -0.833413932653E+03   -0.70479E-04   -0.31637E-02  4310   0.234E-01    0.422E-02
DAV:   2    -0.833413964161E+03   -0.31508E-04   -0.55353E-04  4370   0.280E-02    0.289E-02
DAV:   3    -0.833413964694E+03   -0.53256E-06   -0.10208E-05  4295   0.541E-03    0.210E-02
DAV:   4    -0.833413977668E+03   -0.12974E-04   -0.16469E-05  4175   0.661E-03    0.435E-03
DAV:   5    -0.833413977839E+03   -0.17101E-06   -0.25760E-06  3540   0.257E-03
  11 F= -.84103891E+03 E0= -.84103891E+03  d E =-.732601E-04  mag=     0.0000
       N       E                     dE             d eps       ncg     rms          rms(c)
DAV:   1    -0.833414042519E+03   -0.64852E-04   -0.53880E-02  4350   0.296E-01    0.532E-02
DAV:   2    -0.833414105084E+03   -0.62565E-04   -0.99231E-04  4370   0.366E-02    0.372E-02
DAV:   3    -0.833414102984E+03    0.20999E-05   -0.16081E-05  4520   0.680E-03    0.277E-02
DAV:   4    -0.833414124720E+03   -0.21736E-04   -0.42156E-05  4245   0.978E-03    0.750E-03
DAV:   5    -0.833414124182E+03    0.53756E-06   -0.56835E-06  4060   0.386E-03
  12 F= -.84103900E+03 E0= -.84103900E+03  d E =-.872148E-04  mag=    -0.0000
       N       E                     dE             d eps       ncg     rms          rms(c)
DAV:   1    -0.833414146116E+03   -0.21397E-04   -0.96930E-02  4300   0.387E-01    0.721E-02
DAV:   2    -0.833414264577E+03   -0.11846E-03   -0.18383E-03  4420   0.484E-02    0.490E-02
DAV:   3    -0.833414260355E+03    0.42221E-05   -0.29507E-05  4820   0.910E-03    0.364E-02
DAV:   4    -0.833414295686E+03   -0.35331E-04   -0.69449E-05  4300   0.127E-02    0.920E-03
DAV:   5    -0.833414295864E+03   -0.17855E-06   -0.93989E-06  4460   0.490E-03
  13 F= -.84103909E+03 E0= -.84103909E+03  d E =-.924212E-04  mag=     0.0000
       N       E                     dE             d eps       ncg     rms          rms(c)
DAV:   1    -0.833414175383E+03    0.12030E-03   -0.13423E-01  4260   0.508E-01    0.846E-02
DAV:   2    -0.833414355805E+03   -0.18042E-03   -0.26918E-03  4475   0.664E-02    0.604E-02
DAV:   3    -0.833414342190E+03    0.13615E-04   -0.55122E-05  4960   0.134E-02    0.453E-02
DAV:   4    -0.833414382902E+03   -0.40712E-04   -0.11002E-04  4405   0.180E-02    0.136E-02
DAV:   5    -0.833414385058E+03   -0.21554E-05   -0.16901E-05  4540   0.707E-03    0.890E-03
DAV:   6    -0.833414384951E+03    0.10678E-06   -0.10456E-05  3935   0.476E-03    0.394E-03
DAV:   7    -0.833414384832E+03    0.11847E-06   -0.95574E-07  3530   0.169E-03
  14 F= -.84103908E+03 E0= -.84103908E+03  d E =0.463091E-05  mag=     0.0000
       N       E                     dE             d eps       ncg     rms          rms(c)
DAV:   1    -0.833414527697E+03   -0.14275E-03   -0.82246E-03  4305   0.184E-01    0.208E-02
DAV:   2    -0.833414542278E+03   -0.14580E-04   -0.21070E-04  5360   0.272E-02    0.184E-02
DAV:   3    -0.833414538051E+03    0.42269E-05   -0.10218E-05  5600   0.602E-03    0.138E-02
DAV:   4    -0.833414534767E+03    0.32843E-05   -0.81338E-06  4280   0.602E-03    0.626E-03
DAV:   5    -0.833414534586E+03    0.18098E-06   -0.22219E-06  3220   0.278E-03
  15 F= -.84103923E+03 E0= -.84103923E+03  d E =-.150356E-03  mag=    -0.0000
       N       E                     dE             d eps       ncg     rms          rms(c)
DAV:   1    -0.833414536620E+03   -0.18531E-05   -0.10289E-05  4080   0.632E-03    0.129E-03
DAV:   2    -0.833414536632E+03   -0.12406E-07   -0.30555E-07  2320   0.107E-03
  16 F= -.84103924E+03 E0= -.84103924E+03  d E =-.159154E-05  mag=    -0.0000
       N       E                     dE             d eps       ncg     rms          rms(c)
DAV:   1    -0.833414540231E+03   -0.36116E-05   -0.35356E-05  4300   0.113E-02    0.165E-03
DAV:   2    -0.833414540280E+03   -0.48560E-07   -0.68592E-07  2660   0.153E-03
  17 F= -.84103924E+03 E0= -.84103924E+03  d E =-.257428E-05  mag=    -0.0000
       N       E                     dE             d eps       ncg     rms          rms(c)
DAV:   1    -0.833414544620E+03   -0.43891E-05   -0.67580E-05  4290   0.150E-02    0.255E-03
DAV:   2    -0.833414544692E+03   -0.71581E-07   -0.12536E-06  2940   0.198E-03
  18 F= -.84103924E+03 E0= -.84103924E+03  d E =-.277596E-05  mag=    -0.0000
       N       E                     dE             d eps       ncg     rms          rms(c)
DAV:   1    -0.833414549642E+03   -0.50212E-05   -0.96235E-05  4285   0.170E-02    0.321E-03
DAV:   2    -0.833414549713E+03   -0.71799E-07   -0.17063E-06  3300   0.214E-03
  19 F= -.84103924E+03 E0= -.84103924E+03  d E =-.289416E-05  mag=    -0.0000
       N       E                     dE             d eps       ncg     rms          rms(c)
DAV:   1    -0.833414555770E+03   -0.61282E-05   -0.12202E-04  4265   0.178E-02    0.370E-03
DAV:   2    -0.833414555843E+03   -0.73211E-07   -0.20252E-06  3050   0.213E-03
  20 F= -.84103925E+03 E0= -.84103925E+03  d E =-.354196E-05  mag=    -0.0000
       N       E                     dE             d eps       ncg     rms          rms(c)
DAV:   1    -0.833414563513E+03   -0.77436E-05   -0.15478E-04  4270   0.198E-02    0.415E-03
DAV:   2    -0.833414563633E+03   -0.11954E-06   -0.25526E-06  3030   0.236E-03
  21 F= -.84103925E+03 E0= -.84103925E+03  d E =-.485577E-05  mag=    -0.0000
       N       E                     dE             d eps       ncg     rms          rms(c)
DAV:   1    -0.833414573171E+03   -0.96572E-05   -0.24544E-04  4260   0.253E-02    0.509E-03
DAV:   2    -0.833414573385E+03   -0.21455E-06   -0.42101E-06  3410   0.308E-03
  22 F= -.84103926E+03 E0= -.84103926E+03  d E =-.616598E-05  mag=    -0.0000
       N       E                     dE             d eps       ncg     rms          rms(c)
DAV:   1    -0.833414584301E+03   -0.11130E-04   -0.37529E-04  4280   0.315E-02    0.641E-03
DAV:   2    -0.833414584576E+03   -0.27443E-06   -0.63529E-06  3660   0.381E-03
  23 F= -.84103927E+03 E0= -.84103926E+03  d E =-.674164E-05  mag=    -0.0000
       N       E                     dE             d eps       ncg     rms          rms(c)
DAV:   1    -0.833414597493E+03   -0.13191E-04   -0.51066E-04  4260   0.367E-02    0.761E-03
DAV:   2    -0.833414597822E+03   -0.32945E-06   -0.84747E-06  3760   0.441E-03
  24 F= -.84103927E+03 E0= -.84103927E+03  d E =-.779605E-05  mag=    -0.0000
       N       E                     dE             d eps       ncg     rms          rms(c)
DAV:   1    -0.833414613428E+03   -0.15935E-04   -0.72232E-04  4280   0.441E-02    0.890E-03
DAV:   2    -0.833414613912E+03   -0.48397E-06   -0.12045E-05  4270   0.532E-03    0.703E-03
DAV:   3    -0.833414614033E+03   -0.12133E-06   -0.54100E-07  2920   0.162E-03
  25 F= -.84103928E+03 E0= -.84103928E+03  d E =-.974535E-05  mag=    -0.0000
       N       E                     dE             d eps       ncg     rms          rms(c)
DAV:   1    -0.833414630508E+03   -0.16596E-04   -0.10308E-03  4280   0.529E-02    0.721E-03
DAV:   2    -0.833414631765E+03   -0.12571E-05   -0.17279E-05  4360   0.631E-03    0.542E-03
DAV:   3    -0.833414631721E+03    0.43568E-07   -0.36247E-07  3240   0.128E-03
  26 F= -.84103929E+03 E0= -.84103929E+03  d E =-.105546E-04  mag=    -0.0000
       N       E                     dE             d eps       ncg     rms          rms(c)
DAV:   1    -0.833414647747E+03   -0.15983E-04   -0.12880E-03  4280   0.616E-02    0.785E-03
DAV:   2    -0.833414649257E+03   -0.15097E-05   -0.21265E-05  4440   0.738E-03    0.610E-03
DAV:   3    -0.833414649143E+03    0.11368E-06   -0.50560E-07  3170   0.156E-03
  27 F= -.84103930E+03 E0= -.84103930E+03  d E =-.109312E-04  mag=    -0.0000
       N       E                     dE             d eps       ncg     rms          rms(c)
DAV:   1    -0.833414665433E+03   -0.16176E-04   -0.16001E-03  4260   0.714E-02    0.864E-03
DAV:   2    -0.833414667264E+03   -0.18308E-05   -0.26052E-05  4440   0.856E-03    0.692E-03
DAV:   3    -0.833414667097E+03    0.16705E-06   -0.70094E-07  3560   0.184E-03
  28 F= -.84103932E+03 E0= -.84103932E+03  d E =-.115663E-04  mag=    -0.0000
       N       E                     dE             d eps       ncg     rms          rms(c)
DAV:   1    -0.833414682542E+03   -0.15279E-04   -0.20842E-03  4280   0.829E-02    0.959E-03
DAV:   2    -0.833414684841E+03   -0.22986E-05   -0.32900E-05  4380   0.989E-03    0.790E-03
DAV:   3    -0.833414684574E+03    0.26691E-06   -0.97633E-07  3580   0.213E-03
  29 F= -.84103933E+03 E0= -.84103933E+03  d E =-.122641E-04  mag=    -0.0000
       N       E                     dE             d eps       ncg     rms          rms(c)
DAV:   1    -0.833414697609E+03   -0.12768E-04   -0.29572E-03  4260   0.992E-02    0.111E-02
DAV:   2    -0.833414701003E+03   -0.33936E-05   -0.47296E-05  4360   0.119E-02    0.943E-03
DAV:   3    -0.833414700566E+03    0.43710E-06   -0.13803E-06  3860   0.249E-03
  30 F= -.84103934E+03 E0= -.84103934E+03  d E =-.125538E-04  mag=    -0.0000
       N       E                     dE             d eps       ncg     rms          rms(c)
DAV:   1    -0.833414715289E+03   -0.14286E-04   -0.37643E-03  4250   0.115E-01    0.124E-02
DAV:   2    -0.833414719219E+03   -0.39302E-05   -0.56639E-05  4400   0.135E-02    0.108E-02
DAV:   3    -0.833414718643E+03    0.57617E-06   -0.19280E-06  4040   0.298E-03
  31 F= -.84103936E+03 E0= -.84103936E+03  d E =-.148876E-04  mag=    -0.0000
       N       E                     dE             d eps       ncg     rms          rms(c)
DAV:   1    -0.833414735041E+03   -0.15822E-04   -0.55386E-03  4270   0.140E-01    0.150E-02
DAV:   2    -0.833414740731E+03   -0.56895E-05   -0.82917E-05  4400   0.165E-02    0.131E-02
DAV:   3    -0.833414739805E+03    0.92517E-06   -0.29665E-06  4400   0.369E-03
  32 F= -.84103937E+03 E0= -.84103937E+03  d E =-.168129E-04  mag=    -0.0000
       N       E                     dE             d eps       ncg     rms          rms(c)
DAV:   1    -0.833414756607E+03   -0.15877E-04   -0.87730E-03  4260   0.174E-01    0.188E-02
DAV:   2    -0.833414766287E+03   -0.96802E-05   -0.13759E-04  4380   0.208E-02    0.163E-02
DAV:   3    -0.833414764744E+03    0.15437E-05   -0.46304E-06  4810   0.446E-03    0.118E-02
DAV:   4    -0.833414765255E+03   -0.51117E-06   -0.58976E-06  4080   0.523E-03
  33 F= -.84103939E+03 E0= -.84103939E+03  d E =-.220816E-04  mag=    -0.0000
       N       E                     dE             d eps       ncg     rms          rms(c)
DAV:   1    -0.833414780845E+03   -0.16101E-04   -0.11665E-02  4330   0.203E-01    0.216E-02
DAV:   2    -0.833414793575E+03   -0.12730E-04   -0.18879E-04  4380   0.249E-02    0.185E-02
DAV:   3    -0.833414791091E+03    0.24837E-05   -0.66723E-06  5240   0.540E-03    0.132E-02
DAV:   4    -0.833414791355E+03   -0.26415E-06   -0.72280E-06  4200   0.592E-03
  34 F= -.84103942E+03 E0= -.84103942E+03  d E =-.247001E-04  mag=    -0.0000
       N       E                     dE             d eps       ncg     rms          rms(c)
DAV:   1    -0.833414801617E+03   -0.10526E-04   -0.22984E-04  4260   0.306E-02    0.410E-03
DAV:   2    -0.833414801971E+03   -0.35455E-06   -0.62422E-06  4780   0.462E-03
  35 F= -.84103943E+03 E0= -.84103943E+03  d E =-.838644E-05  mag=    -0.0000
       N       E                     dE             d eps       ncg     rms          rms(c)
DAV:   1    -0.833414808638E+03   -0.70208E-05   -0.46754E-04  4260   0.418E-02    0.696E-03
DAV:   2    -0.833414809077E+03   -0.43974E-06   -0.10743E-05  4810   0.589E-03    0.575E-03
DAV:   3    -0.833414808643E+03    0.43491E-06   -0.76602E-07  2800   0.197E-03
  36 F= -.84103943E+03 E0= -.84103943E+03  d E =-.206961E-05  mag=    -0.0000
       N       E                     dE             d eps       ncg     rms          rms(c)
DAV:   1    -0.833414818657E+03   -0.95795E-05   -0.54920E-04  4260   0.345E-02    0.603E-03
DAV:   2    -0.833414819310E+03   -0.65302E-06   -0.98572E-06  3660   0.416E-03
  37 F= -.84103943E+03 E0= -.84103943E+03  d E =-.417754E-05  mag=    -0.0000
       N       E                     dE             d eps       ncg     rms          rms(c)
DAV:   1    -0.833414839895E+03   -0.21238E-04   -0.12833E-03  4260   0.492E-02    0.104E-02
DAV:   2    -0.833414841066E+03   -0.11707E-05   -0.23555E-05  4320   0.619E-03    0.773E-03
DAV:   3    -0.833414841119E+03   -0.53456E-07   -0.61173E-07  3080   0.149E-03
  38 F= -.84103945E+03 E0= -.84103945E+03  d E =-.130854E-04  mag=    -0.0000
       N       E                     dE             d eps       ncg     rms          rms(c)
DAV:   1    -0.833414862899E+03   -0.21833E-04   -0.25159E-03  4260   0.674E-02    0.123E-02
DAV:   2    -0.833414865949E+03   -0.30498E-05   -0.45725E-05  4440   0.840E-03    0.865E-03
DAV:   3    -0.833414865889E+03    0.59525E-07   -0.85451E-07  3480   0.170E-03
  39 F= -.84103946E+03 E0= -.84103946E+03  d E =-.122627E-04  mag=    -0.0000
       N       E                     dE             d eps       ncg     rms          rms(c)
DAV:   1    -0.833414891979E+03   -0.26030E-04   -0.43179E-03  4250   0.761E-02    0.161E-02
DAV:   2    -0.833414896516E+03   -0.45369E-05   -0.73877E-05  4380   0.908E-03    0.110E-02
DAV:   3    -0.833414896738E+03   -0.22272E-06   -0.11345E-06  3200   0.171E-03
  40 F= -.84103947E+03 E0= -.84103947E+03  d E =-.130227E-04  mag=    -0.0000
       N       E                     dE             d eps       ncg     rms          rms(c)
DAV:   1    -0.833414938486E+03   -0.41970E-04   -0.97033E-03  4290   0.109E-01    0.238E-02
DAV:   2    -0.833414947699E+03   -0.92131E-05   -0.16429E-04  4380   0.131E-02    0.160E-02
DAV:   3    -0.833414947960E+03   -0.26160E-06   -0.24933E-06  3315   0.244E-03
  41 F= -.84103950E+03 E0= -.84103950E+03  d E =-.233153E-04  mag=    -0.0000
       N       E                     dE             d eps       ncg     rms          rms(c)
DAV:   1    -0.833414999078E+03   -0.51379E-04   -0.21812E-02  4280   0.157E-01    0.359E-02
DAV:   2    -0.833415018574E+03   -0.19496E-04   -0.36596E-04  4340   0.187E-02    0.239E-02
DAV:   3    -0.833415019353E+03   -0.77939E-06   -0.56662E-06  3695   0.345E-03
  42 F= -.84103953E+03 E0= -.84103952E+03  d E =-.297735E-04  mag=    -0.0000
       N       E                     dE             d eps       ncg     rms          rms(c)
DAV:   1    -0.833415082526E+03   -0.63952E-04   -0.45974E-02  4280   0.218E-01    0.520E-02
DAV:   2    -0.833415123946E+03   -0.41421E-04   -0.74850E-04  4290   0.256E-02    0.344E-02
DAV:   3    -0.833415125318E+03   -0.13716E-05   -0.11586E-05  4095   0.461E-03    0.250E-02
DAV:   4    -0.833415145983E+03   -0.20665E-04   -0.23755E-05  3890   0.600E-03    0.476E-03
DAV:   5    -0.833415146031E+03   -0.48720E-07   -0.25223E-06  3360   0.216E-03
  43 F= -.84103959E+03 E0= -.84103959E+03  d E =-.656699E-04  mag=     0.0000
       N       E                     dE             d eps       ncg     rms          rms(c)
DAV:   1    -0.833415179947E+03   -0.33964E-04   -0.86961E-02  4300   0.296E-01    0.682E-02
DAV:   2    -0.833415270499E+03   -0.90553E-04   -0.14712E-03  4290   0.357E-02    0.459E-02
DAV:   3    -0.833415269998E+03    0.50124E-06   -0.20863E-05  4400   0.635E-03    0.341E-02
DAV:   4    -0.833415305670E+03   -0.35672E-04   -0.64202E-05  4100   0.946E-03    0.875E-03
DAV:   5    -0.833415304971E+03    0.69837E-06   -0.62954E-06  3760   0.338E-03
  44 F= -.84103967E+03 E0= -.84103966E+03  d E =-.741490E-04  mag=    -0.0000
       N       E                     dE             d eps       ncg     rms          rms(c)
DAV:   1    -0.833415302068E+03    0.36014E-05   -0.15305E-01  4300   0.386E-01    0.903E-02
DAV:   2    -0.833415469671E+03   -0.16760E-03   -0.25649E-03  4355   0.464E-02    0.610E-02
DAV:   3    -0.833415462879E+03    0.67930E-05   -0.36225E-05  4500   0.821E-03    0.455E-02
DAV:   4    -0.833415523245E+03   -0.60366E-04   -0.11571E-04  4150   0.122E-02    0.121E-02
DAV:   5    -0.833415521785E+03    0.14595E-05   -0.11030E-05  4220   0.437E-03    0.101E-02
DAV:   6    -0.833415520219E+03    0.15664E-05   -0.15200E-05  4020   0.445E-03    0.349E-03
DAV:   7    -0.833415520144E+03    0.74557E-07   -0.89294E-07  3340   0.131E-03
  45 F= -.84103977E+03 E0= -.84103977E+03  d E =-.101112E-03  mag=     0.0000
       N       E                     dE             d eps       ncg     rms          rms(c)
DAV:   1    -0.833415434502E+03    0.85716E-04   -0.22969E-01  4300   0.479E-01    0.112E-01
DAV:   2    -0.833415698825E+03   -0.26432E-03   -0.38372E-03  4360   0.575E-02    0.759E-02
DAV:   3    -0.833415685311E+03    0.13515E-04   -0.57012E-05  4620   0.104E-02    0.562E-02
DAV:   4    -0.833415761324E+03   -0.76013E-04   -0.17741E-04  4230   0.153E-02    0.148E-02
DAV:   5    -0.833415759098E+03    0.22259E-05   -0.17386E-05  4500   0.558E-03    0.121E-02
DAV:   6    -0.833415757020E+03    0.20773E-05   -0.22923E-05  4000   0.553E-03    0.445E-03
DAV:   7    -0.833415756863E+03    0.15772E-06   -0.13401E-06  3300   0.164E-03
  46 F= -.84103986E+03 E0= -.84103986E+03  d E =-.950424E-04  mag=    -0.0000
       N       E                     dE             d eps       ncg     rms          rms(c)
DAV:   1    -0.833415505521E+03    0.25150E-03   -0.35102E-01  4300   0.606E-01    0.139E-01
DAV:   2    -0.833415948476E+03   -0.44296E-03   -0.61841E-03  4420   0.743E-02    0.916E-02
DAV:   3    -0.833415925565E+03    0.22911E-04   -0.95052E-05  4760   0.138E-02    0.676E-02
DAV:   4    -0.833416009804E+03   -0.84239E-04   -0.23182E-04  4335   0.188E-02    0.156E-02
DAV:   5    -0.833416009993E+03   -0.18871E-06   -0.25440E-05  4530   0.697E-03    0.123E-02
DAV:   6    -0.833416008395E+03    0.15979E-05   -0.23132E-05  4020   0.611E-03    0.545E-03
DAV:   7    -0.833416008126E+03    0.26861E-06   -0.17754E-06  3760   0.205E-03
  47 F= -.84103995E+03 E0= -.84103995E+03  d E =-.851050E-04  mag=    -0.0000
       N       E                     dE             d eps       ncg     rms          rms(c)
DAV:   1    -0.833416031730E+03   -0.23334E-04   -0.21182E-03  4260   0.807E-02    0.102E-02
DAV:   2    -0.833416035264E+03   -0.35343E-05   -0.47799E-05  4480   0.114E-02    0.807E-03
DAV:   3    -0.833416034564E+03    0.69937E-06   -0.14584E-06  3880   0.245E-03
  48 F= -.84103998E+03 E0= -.84103998E+03  d E =-.340775E-04  mag=     0.0000
       N       E                     dE             d eps       ncg     rms          rms(c)
DAV:   1    -0.833415991018E+03    0.44246E-04   -0.58461E-03  4240   0.117E-01    0.190E-02
DAV:   2    -0.833415998752E+03   -0.77333E-05   -0.11557E-04  4500   0.155E-02    0.140E-02
DAV:   3    -0.833415997682E+03    0.10692E-05   -0.34264E-06  4100   0.353E-03    0.100E-02
DAV:   4    -0.833415998159E+03   -0.47706E-06   -0.45944E-06  3980   0.420E-03
  49 F= -.84103996E+03 E0= -.84103996E+03  d E =0.202869E-04  mag=    -0.0000
       N       E                     dE             d eps       ncg     rms          rms(c)
DAV:   1    -0.833415933849E+03    0.63834E-04   -0.91169E-03  4290   0.102E-01    0.224E-02
DAV:   2    -0.833415944586E+03   -0.10737E-04   -0.15501E-04  4380   0.125E-02    0.151E-02
DAV:   3    -0.833415944463E+03    0.12289E-06   -0.24232E-06  3400   0.236E-03
  50 F= -.84103993E+03 E0= -.84103993E+03  d E =0.284957E-04  mag=    -0.0000
       N       E                     dE             d eps       ncg     rms          rms(c)
DAV:   1    -0.833415900548E+03    0.44037E-04   -0.15264E-02  4240   0.139E-01    0.294E-02
DAV:   2    -0.833415917168E+03   -0.16620E-04   -0.25123E-04  4360   0.171E-02    0.203E-02
DAV:   3    -0.833415916986E+03    0.18295E-06   -0.46042E-06  3600   0.347E-03
  51 F= -.84103994E+03 E0= -.84103994E+03  d E =-.727300E-05  mag=    -0.0000
       N       E                     dE             d eps       ncg     rms          rms(c)
DAV:   1    -0.833415820746E+03    0.96422E-04   -0.24308E-02  4240   0.181E-01    0.374E-02
DAV:   2    -0.833415847828E+03   -0.27082E-04   -0.40007E-04  4400   0.221E-02    0.262E-02
DAV:   3    -0.833415847538E+03    0.29039E-06   -0.72468E-06  3880   0.436E-03
  52 F= -.84103991E+03 E0= -.84103991E+03  d E =0.244858E-04  mag=    -0.0000
       N       E                     dE             d eps       ncg     rms          rms(c)
DAV:   1    -0.833415719490E+03    0.12834E-03   -0.33857E-02  4280   0.187E-01    0.435E-02
DAV:   2    -0.833415753104E+03   -0.33614E-04   -0.50443E-04  4310   0.217E-02    0.302E-02
DAV:   3    -0.833415753780E+03   -0.67674E-06   -0.84450E-06  3860   0.414E-03
  53 F= -.84103988E+03 E0= -.84103988E+03  d E =0.389861E-04  mag=    -0.0000
       N       E                     dE             d eps       ncg     rms          rms(c)
DAV:   1    -0.833415604736E+03    0.14837E-03   -0.56415E-02  4260   0.252E-01    0.552E-02
DAV:   2    -0.833415665122E+03   -0.60386E-04   -0.87981E-04  4350   0.302E-02    0.381E-02
DAV:   3    -0.833415664795E+03    0.32739E-06   -0.15490E-05  4420   0.588E-03    0.278E-02
DAV:   4    -0.833415681117E+03   -0.16322E-04   -0.28174E-05  4135   0.722E-03    0.561E-03
DAV:   5    -0.833415681271E+03   -0.15444E-06   -0.35161E-06  3370   0.278E-03
  54 F= -.84103987E+03 E0= -.84103987E+03  d E =0.455441E-05  mag=     0.0000
       N       E                     dE             d eps       ncg     rms          rms(c)
DAV:   1    -0.833415439062E+03    0.24206E-03   -0.81581E-02  4260   0.298E-01    0.637E-02
DAV:   2    -0.833415535978E+03   -0.96917E-04   -0.13384E-03  4390   0.367E-02    0.438E-02
DAV:   3    -0.833415530878E+03    0.51001E-05   -0.21938E-05  4560   0.698E-03    0.324E-02
DAV:   4    -0.833415551345E+03   -0.20467E-04   -0.50069E-05  4080   0.937E-03    0.721E-03
DAV:   5    -0.833415551543E+03   -0.19838E-06   -0.61218E-06  3760   0.359E-03
  55 F= -.84103982E+03 E0= -.84103982E+03  d E =0.551975E-04  mag=    -0.0000
       N       E                     dE             d eps       ncg     rms          rms(c)
DAV:   1    -0.833415560217E+03   -0.88715E-05   -0.69026E-05  4320   0.169E-02    0.303E-03
DAV:   2    -0.833415560194E+03    0.22876E-07   -0.15567E-06  3500   0.247E-03
  56 F= -.84103982E+03 E0= -.84103982E+03  d E =-.813571E-05  mag=    -0.0000
       N       E                     dE             d eps       ncg     rms          rms(c)
DAV:   1    -0.833415569983E+03   -0.97666E-05   -0.20982E-04  4270   0.291E-02    0.390E-03
DAV:   2    -0.833415570276E+03   -0.29313E-06   -0.49161E-06  4600   0.417E-03
  57 F= -.84103983E+03 E0= -.84103983E+03  d E =-.889034E-05  mag=    -0.0000
       N       E                     dE             d eps       ncg     rms          rms(c)
DAV:   1    -0.833415574834E+03   -0.48509E-05   -0.30894E-04  4250   0.345E-02    0.608E-03
DAV:   2    -0.833415575038E+03   -0.20401E-06   -0.69817E-06  5260   0.488E-03
  58 F= -.84103984E+03 E0= -.84103984E+03  d E =-.276064E-05  mag=    -0.0000
       N       E                     dE             d eps       ncg     rms          rms(c)
DAV:   1    -0.833415575109E+03   -0.27506E-06   -0.14133E-06  2740   0.254E-03    0.291E-03
DAV:   2    -0.833415575089E+03    0.19776E-07   -0.25512E-07  2180   0.102E-03
  59 F= -.84103984E+03 E0= -.84103983E+03  d E =0.102649E-06  mag=    -0.0000
       N       E                     dE             d eps       ncg     rms          rms(c)
DAV:   1    -0.833415575936E+03   -0.82724E-06   -0.24086E-06  3090   0.297E-03    0.774E-04
DAV:   2    -0.833415575950E+03   -0.14115E-07   -0.12877E-07  2175   0.738E-04
  60 F= -.84103984E+03 E0= -.84103984E+03  d E =-.551131E-06  mag=    -0.0000
       N       E                     dE             d eps       ncg     rms          rms(c)
DAV:   1    -0.833415577174E+03   -0.12375E-05   -0.46940E-06  3695   0.387E-03    0.659E-04
DAV:   2    -0.833415577181E+03   -0.70431E-08   -0.11198E-07  2210   0.635E-04
  61 F= -.84103984E+03 E0= -.84103984E+03  d E =-.769826E-06  mag=    -0.0000
       N       E                     dE             d eps       ncg     rms          rms(c)
DAV:   1    -0.833415578648E+03   -0.14739E-05   -0.74681E-06  3890   0.482E-03    0.871E-04
DAV:   2    -0.833415578657E+03   -0.93205E-08   -0.15736E-07  2230   0.717E-04
  62 F= -.84103984E+03 E0= -.84103984E+03  d E =-.865242E-06  mag=    -0.0000
       N       E                     dE             d eps       ncg     rms          rms(c)
DAV:   1    -0.833415580316E+03   -0.16684E-05   -0.10493E-05  4020   0.557E-03    0.108E-03
DAV:   2    -0.833415580327E+03   -0.11380E-07   -0.20638E-07  2270   0.784E-04
  63 F= -.84103984E+03 E0= -.84103984E+03  d E =-.897870E-06  mag=    -0.0000
       N       E                     dE             d eps       ncg     rms          rms(c)
DAV:   1    -0.833415582192E+03   -0.18760E-05   -0.13491E-05  4020   0.611E-03    0.126E-03
DAV:   2    -0.833415582203E+03   -0.11329E-07   -0.25770E-07  2320   0.842E-04
  64 F= -.84103984E+03 E0= -.84103984E+03  d E =-.939721E-06  mag=    -0.0000
       N       E                     dE             d eps       ncg     rms          rms(c)
DAV:   1    -0.833415584475E+03   -0.22825E-05   -0.20281E-05  4020   0.719E-03    0.151E-03
DAV:   2    -0.833415584489E+03   -0.14465E-07   -0.37387E-07  2440   0.969E-04
  65 F= -.84103984E+03 E0= -.84103984E+03  d E =-.109228E-05  mag=    -0.0000
       N       E                     dE             d eps       ncg     rms          rms(c)
DAV:   1    -0.833415587298E+03   -0.28234E-05   -0.29912E-05  4040   0.836E-03    0.182E-03
DAV:   2    -0.833415587316E+03   -0.17812E-07   -0.53383E-07  2560   0.110E-03
  66 F= -.84103984E+03 E0= -.84103984E+03  d E =-.133032E-05  mag=    -0.0000
       N       E                     dE             d eps       ncg     rms          rms(c)
DAV:   1    -0.833415590800E+03   -0.35016E-05   -0.44052E-05  4100   0.982E-03    0.221E-03
DAV:   2    -0.833415590822E+03   -0.22534E-07   -0.75743E-07  2720   0.125E-03
  67 F= -.84103984E+03 E0= -.84103984E+03  d E =-.166019E-05  mag=    -0.0000
       N       E                     dE             d eps       ncg     rms          rms(c)
DAV:   1    -0.833415595209E+03   -0.44091E-05   -0.65266E-05  4170   0.118E-02    0.270E-03
DAV:   2    -0.833415595242E+03   -0.33666E-07   -0.11149E-06  2930   0.147E-03
  68 F= -.84103985E+03 E0= -.84103985E+03  d E =-.217421E-05  mag=    -0.0000
       N       E                     dE             d eps       ncg     rms          rms(c)
DAV:   1    -0.833415600547E+03   -0.53385E-05   -0.97030E-05  4260   0.146E-02    0.332E-03
DAV:   2    -0.833415600593E+03   -0.45809E-07   -0.16231E-06  2980   0.177E-03
  69 F= -.84103985E+03 E0= -.84103985E+03  d E =-.266971E-05  mag=    -0.0000
       N       E                     dE             d eps       ncg     rms          rms(c)
DAV:   1    -0.833415606923E+03   -0.63757E-05   -0.14095E-04  4250   0.178E-02    0.403E-03
DAV:   2    -0.833415606989E+03   -0.66313E-07   -0.23624E-06  2990   0.216E-03
  70 F= -.84103985E+03 E0= -.84103985E+03  d E =-.319840E-05  mag=    -0.0000
       N       E                     dE             d eps       ncg     rms          rms(c)
DAV:   1    -0.833415613993E+03   -0.70702E-05   -0.19848E-04  4240   0.214E-02    0.480E-03
DAV:   2    -0.833415614079E+03   -0.86300E-07   -0.33397E-06  3050   0.261E-03
  71 F= -.84103986E+03 E0= -.84103985E+03  d E =-.364340E-05  mag=    -0.0000
       N       E                     dE             d eps       ncg     rms          rms(c)
DAV:   1    -0.833415622095E+03   -0.81016E-05   -0.26830E-04  4250   0.250E-02    0.560E-03
DAV:   2    -0.833415622209E+03   -0.11449E-06   -0.44974E-06  3240   0.302E-03
  72 F= -.84103986E+03 E0= -.84103986E+03  d E =-.424890E-05  mag=    -0.0000
       N       E                     dE             d eps       ncg     rms          rms(c)
DAV:   1    -0.833415631265E+03   -0.91702E-05   -0.35530E-04  4320   0.295E-02    0.641E-03
DAV:   2    -0.833415631405E+03   -0.14016E-06   -0.57209E-06  3450   0.349E-03
  73 F= -.84103986E+03 E0= -.84103986E+03  d E =-.499420E-05  mag=    -0.0000
       N       E                     dE             d eps       ncg     rms          rms(c)
DAV:   1    -0.833415641440E+03   -0.10175E-04   -0.46184E-04  4320   0.349E-02    0.720E-03
DAV:   2    -0.833415641652E+03   -0.21228E-06   -0.74442E-06  3780   0.418E-03
  74 F= -.84103987E+03 E0= -.84103987E+03  d E =-.591597E-05  mag=    -0.0000
       N       E                     dE             d eps       ncg     rms          rms(c)
DAV:   1    -0.833415651902E+03   -0.10462E-04   -0.58880E-04  4280   0.411E-02    0.800E-03
DAV:   2    -0.833415652204E+03   -0.30208E-06   -0.94320E-06  4140   0.493E-03
  75 F= -.84103988E+03 E0= -.84103988E+03  d E =-.622875E-05  mag=    -0.0000
       N       E                     dE             d eps       ncg     rms          rms(c)
DAV:   1    -0.833415662101E+03   -0.10199E-04   -0.72027E-04  4300   0.466E-02    0.870E-03
DAV:   2    -0.833415662472E+03   -0.37043E-06   -0.10990E-05  4380   0.552E-03    0.703E-03
DAV:   3    -0.833415662553E+03   -0.81476E-07   -0.60573E-07  2930   0.174E-03
  76 F= -.84103988E+03 E0= -.84103988E+03  d E =-.692431E-05  mag=     0.0000
       N       E                     dE             d eps       ncg     rms          rms(c)
DAV:   1    -0.833415671803E+03   -0.93311E-05   -0.93728E-04  4300   0.542E-02    0.634E-03
DAV:   2    -0.833415672788E+03   -0.98522E-06   -0.13972E-05  4400   0.632E-03    0.518E-03
DAV:   3    -0.833415672709E+03    0.79373E-07   -0.33596E-07  2940   0.129E-03
  77 F= -.84103989E+03 E0= -.84103989E+03  d E =-.742488E-05  mag=    -0.0000
       N       E                     dE             d eps       ncg     rms          rms(c)
DAV:   1    -0.833415680048E+03   -0.72604E-05   -0.13505E-03  4300   0.648E-02    0.727E-03
DAV:   2    -0.833415681479E+03   -0.14305E-05   -0.19819E-05  4380   0.752E-03    0.611E-03
DAV:   3    -0.833415681306E+03    0.17338E-06   -0.51121E-07  3300   0.156E-03
  78 F= -.84103990E+03 E0= -.84103990E+03  d E =-.747613E-05  mag=    -0.0000
       N       E                     dE             d eps       ncg     rms          rms(c)
DAV:   1    -0.833415686845E+03   -0.53657E-05   -0.21249E-03  4300   0.794E-02    0.896E-03
DAV:   2    -0.833415689173E+03   -0.23288E-05   -0.31156E-05  4495   0.919E-03    0.763E-03
DAV:   3    -0.833415688879E+03    0.29414E-06   -0.73714E-07  3360   0.184E-03
  79 F= -.84103991E+03 E0= -.84103991E+03  d E =-.859360E-05  mag=    -0.0000
       N       E                     dE             d eps       ncg     rms          rms(c)
DAV:   1    -0.833415692356E+03   -0.31823E-05   -0.35598E-03  4300   0.996E-02    0.115E-02
DAV:   2    -0.833415696370E+03   -0.40145E-05   -0.52154E-05  4510   0.115E-02    0.973E-03
DAV:   3    -0.833415695930E+03    0.44057E-06   -0.12095E-06  3620   0.225E-03
  80 F= -.84103992E+03 E0= -.84103992E+03  d E =-.916893E-05  mag=    -0.0000
       N       E                     dE             d eps       ncg     rms          rms(c)
DAV:   1    -0.833415693444E+03    0.29258E-05   -0.57829E-03  4300   0.125E-01    0.150E-02
DAV:   2    -0.833415700037E+03   -0.65922E-05   -0.85660E-05  4460   0.144E-02    0.125E-02
DAV:   3    -0.833415699367E+03    0.66983E-06   -0.21045E-06  3760   0.290E-03
  81 F= -.84103992E+03 E0= -.84103992E+03  d E =-.840124E-05  mag=    -0.0000
       N       E                     dE             d eps       ncg     rms          rms(c)
DAV:   1    -0.833415693733E+03    0.63040E-05   -0.87910E-03  4280   0.154E-01    0.188E-02
DAV:   2    -0.833415703640E+03   -0.99077E-05   -0.13112E-04  4400   0.179E-02    0.156E-02
DAV:   3    -0.833415702637E+03    0.10036E-05   -0.35237E-06  4230   0.372E-03    0.116E-02
DAV:   4    -0.833415703191E+03   -0.55414E-06   -0.55764E-06  3930   0.470E-03
  82 F= -.84103994E+03 E0= -.84103993E+03  d E =-.104121E-04  mag=    -0.0000
       N       E                     dE             d eps       ncg     rms          rms(c)
DAV:   1    -0.833415696016E+03    0.66209E-05   -0.11169E-02  4300   0.176E-01    0.201E-02
DAV:   2    -0.833415710113E+03   -0.14097E-04   -0.17979E-04  4420   0.213E-02    0.171E-02
DAV:   3    -0.833415708463E+03    0.16507E-05   -0.42583E-06  4280   0.412E-03    0.131E-02
DAV:   4    -0.833415708473E+03   -0.10092E-07   -0.85971E-06  4160   0.579E-03
  83 F= -.84103995E+03 E0= -.84103995E+03  d E =-.150166E-04  mag=    -0.0000
       N       E                     dE             d eps       ncg     rms          rms(c)
DAV:   1    -0.833415716569E+03   -0.81062E-05   -0.13671E-04  4300   0.199E-02    0.318E-03
DAV:   2    -0.833415716731E+03   -0.16209E-06   -0.29995E-06  3400   0.286E-03
  84 F= -.84103995E+03 E0= -.84103995E+03  d E =-.433706E-05  mag=    -0.0000
       N       E                     dE             d eps       ncg     rms          rms(c)
DAV:   1    -0.833415728663E+03   -0.12095E-04   -0.64954E-04  4240   0.344E-02    0.688E-03
DAV:   2    -0.833415729291E+03   -0.62733E-06   -0.12151E-05  3770   0.449E-03    0.505E-03
DAV:   3    -0.833415729193E+03    0.97498E-07   -0.39068E-07  3080   0.129E-03
  85 F= -.84103996E+03 E0= -.84103996E+03  d E =-.388846E-05  mag=    -0.0000
       N       E                     dE             d eps       ncg     rms          rms(c)
DAV:   1    -0.833415744486E+03   -0.15195E-04   -0.13797E-03  4240   0.410E-02    0.915E-03
DAV:   2    -0.833415745878E+03   -0.13920E-05   -0.23000E-05  3690   0.486E-03    0.619E-03
DAV:   3    -0.833415745915E+03   -0.37551E-07   -0.42682E-07  3300   0.109E-03
  86 F= -.84103996E+03 E0= -.84103996E+03  d E =-.529976E-05  mag=    -0.0000
       N       E                     dE             d eps       ncg     rms          rms(c)
DAV:   1    -0.833415766375E+03   -0.20498E-04   -0.22989E-03  4300   0.518E-02    0.115E-02
DAV:   2    -0.833415768650E+03   -0.22742E-05   -0.37813E-05  4200   0.615E-03    0.776E-03
DAV:   3    -0.833415768735E+03   -0.85573E-07   -0.61280E-07  3220   0.120E-03
  87 F= -.84103997E+03 E0= -.84103997E+03  d E =-.996463E-05  mag=    -0.0000
       N       E                     dE             d eps       ncg     rms          rms(c)
DAV:   1    -0.833415790345E+03   -0.21696E-04   -0.32522E-03  4300   0.643E-02    0.139E-02
DAV:   2    -0.833415793653E+03   -0.33074E-05   -0.54866E-05  4300   0.775E-03    0.938E-03
DAV:   3    -0.833415793723E+03   -0.70184E-07   -0.91295E-07  3300   0.153E-03
  88 F= -.84103998E+03 E0= -.84103998E+03  d E =-.112092E-04  mag=    -0.0000
       N       E                     dE             d eps       ncg     rms          rms(c)
DAV:   1    -0.833415817167E+03   -0.23514E-04   -0.39354E-03  4300   0.685E-02    0.154E-02
DAV:   2    -0.833415821033E+03   -0.38662E-05   -0.65200E-05  4280   0.809E-03    0.104E-02
DAV:   3    -0.833415821170E+03   -0.13708E-06   -0.10244E-06  3300   0.155E-03
  89 F= -.84104000E+03 E0= -.84104000E+03  d E =-.115440E-04  mag=    -0.0000
       N       E                     dE             d eps       ncg     rms          rms(c)
DAV:   1    -0.833415851642E+03   -0.30609E-04   -0.49866E-03  4300   0.814E-02    0.171E-02
DAV:   2    -0.833415856800E+03   -0.51579E-05   -0.84457E-05  4320   0.978E-03    0.116E-02
DAV:   3    -0.833415856922E+03   -0.12194E-06   -0.13645E-06  3380   0.189E-03
  90 F= -.84104001E+03 E0= -.84104001E+03  d E =-.154052E-04  mag=    -0.0000
       N       E                     dE             d eps       ncg     rms          rms(c)
DAV:   1    -0.833415887838E+03   -0.31037E-04   -0.55302E-03  4300   0.903E-02    0.182E-02
DAV:   2    -0.833415893488E+03   -0.56502E-05   -0.95055E-05  4380   0.108E-02    0.123E-02
DAV:   3    -0.833415893627E+03   -0.13899E-06   -0.15609E-06  3440   0.210E-03
  91 F= -.84104003E+03 E0= -.84104003E+03  d E =-.152658E-04  mag=    -0.0000
       N       E                     dE             d eps       ncg     rms          rms(c)
DAV:   1    -0.833415896240E+03   -0.27525E-05   -0.12319E-05  4000   0.624E-03    0.185E-03
DAV:   2    -0.833415896258E+03   -0.17659E-07   -0.69827E-07  3190   0.146E-03
  92 F= -.84104003E+03 E0= -.84104003E+03  d E =-.311875E-05  mag=    -0.0000
       N       E                     dE             d eps       ncg     rms          rms(c)
DAV:   1    -0.833415896478E+03   -0.23747E-06   -0.23248E-05  4280   0.914E-03    0.139E-03
DAV:   2    -0.833415896506E+03   -0.28063E-07   -0.46565E-07  2380   0.130E-03
  93 F= -.84104003E+03 E0= -.84104003E+03  d E =-.100329E-05  mag=    -0.0000
       N       E                     dE             d eps       ncg     rms          rms(c)
DAV:   1    -0.833415896446E+03    0.32109E-07   -0.37092E-05  4240   0.113E-02    0.187E-03
DAV:   2    -0.833415896475E+03   -0.29329E-07   -0.69375E-07  2550   0.156E-03
  94 F= -.84104003E+03 E0= -.84104003E+03  d E =-.744722E-06  mag=    -0.0000
       N       E                     dE             d eps       ncg     rms          rms(c)
DAV:   1    -0.833415896482E+03   -0.35972E-07   -0.38993E-05  4240   0.113E-02    0.211E-03
DAV:   2    -0.833415896503E+03   -0.20926E-07   -0.66512E-07  2760   0.149E-03
  95 F= -.84104003E+03 E0= -.84104003E+03  d E =-.487973E-06  mag=    -0.0000
       N       E                     dE             d eps       ncg     rms          rms(c)
DAV:   1    -0.833415897484E+03   -0.10025E-05   -0.34760E-05  4160   0.103E-02    0.195E-03
DAV:   2    -0.833415897503E+03   -0.19223E-07   -0.54883E-07  2530   0.129E-03
  96 F= -.84104003E+03 E0= -.84104003E+03  d E =-.892236E-06  mag=    -0.0000
       N       E                     dE             d eps       ncg     rms          rms(c)
DAV:   1    -0.833415899902E+03   -0.24176E-05   -0.38793E-05  4210   0.106E-02    0.196E-03
DAV:   2    -0.833415899922E+03   -0.20678E-07   -0.61369E-07  2680   0.131E-03
  97 F= -.84104003E+03 E0= -.84104003E+03  d E =-.150475E-05  mag=    -0.0000
       N       E                     dE             d eps       ncg     rms          rms(c)
DAV:   1    -0.833415904467E+03   -0.45653E-05   -0.74462E-05  4240   0.141E-02    0.261E-03
DAV:   2    -0.833415904520E+03   -0.53253E-07   -0.12746E-06  2980   0.175E-03
  98 F= -.84104004E+03 E0= -.84104004E+03  d E =-.259416E-05  mag=    -0.0000
       N       E                     dE             d eps       ncg     rms          rms(c)
DAV:   1    -0.833415911039E+03   -0.65719E-05   -0.15277E-04  4240   0.185E-02    0.391E-03
DAV:   2    -0.833415911143E+03   -0.10395E-06   -0.26540E-06  2990   0.232E-03
  99 F= -.84104004E+03 E0= -.84104004E+03  d E =-.337534E-05  mag=    -0.0000
       N       E                     dE             d eps       ncg     rms          rms(c)
DAV:   1    -0.833415920206E+03   -0.91676E-05   -0.30220E-04  4240   0.231E-02    0.566E-03
DAV:   2    -0.833415920381E+03   -0.17429E-06   -0.50900E-06  3150   0.283E-03
 100 F= -.84104005E+03 E0= -.84104004E+03  d E =-.427961E-05  mag=    -0.0000
       N       E                     dE             d eps       ncg     rms          rms(c)
DAV:   1    -0.833415932595E+03   -0.12389E-04   -0.56486E-04  4240   0.288E-02    0.788E-03
DAV:   2    -0.833415932827E+03   -0.23119E-06   -0.90988E-06  3280   0.343E-03
 101 F= -.84104005E+03 E0= -.84104005E+03  d E =-.553834E-05  mag=    -0.0000
       N       E                     dE             d eps       ncg     rms          rms(c)
DAV:   1    -0.833415948265E+03   -0.15669E-04   -0.93498E-04  4280   0.367E-02    0.104E-02
DAV:   2    -0.833415948571E+03   -0.30686E-06   -0.14912E-05  3600   0.435E-03    0.781E-03
DAV:   3    -0.833415948976E+03   -0.40416E-06   -0.53350E-07  3015   0.130E-03
 102 F= -.84104006E+03 E0= -.84104006E+03  d E =-.769417E-05  mag=    -0.0000
       N       E                     dE             d eps       ncg     rms          rms(c)
DAV:   1    -0.833415966283E+03   -0.17711E-04   -0.13717E-03  4240   0.462E-02    0.900E-03
DAV:   2    -0.833415967640E+03   -0.13573E-05   -0.22798E-05  4100   0.547E-03    0.622E-03
DAV:   3    -0.833415967706E+03   -0.66633E-07   -0.41534E-07  3250   0.111E-03
 103 F= -.84104007E+03 E0= -.84104007E+03  d E =-.951055E-05  mag=    -0.0000
       N       E                     dE             d eps       ncg     rms          rms(c)
DAV:   1    -0.833415985822E+03   -0.18182E-04   -0.16424E-03  4280   0.559E-02    0.960E-03
DAV:   2    -0.833415987529E+03   -0.17073E-05   -0.27913E-05  4330   0.663E-03    0.682E-03
DAV:   3    -0.833415987514E+03    0.15025E-07   -0.52881E-07  3280   0.133E-03
 104 F= -.84104008E+03 E0= -.84104008E+03  d E =-.106020E-04  mag=    -0.0000
       N       E                     dE             d eps       ncg     rms          rms(c)
DAV:   1    -0.833415988160E+03   -0.63101E-06   -0.44471E-06  3820   0.398E-03    0.106E-03
DAV:   2    -0.833415988179E+03   -0.19500E-07   -0.24656E-07  2860   0.913E-04
 105 F= -.84104008E+03 E0= -.84104008E+03  d E =-.873028E-06  mag=    -0.0000
       N       E                     dE             d eps       ncg     rms          rms(c)
DAV:   1    -0.833415988093E+03    0.67426E-07   -0.10708E-05  4020   0.647E-03    0.937E-04
DAV:   2    -0.833415988113E+03   -0.20664E-07   -0.22412E-07  2150   0.948E-04
 106 F= -.84104008E+03 E0= -.84104008E+03  d E =-.329188E-06  mag=    -0.0000
       N       E                     dE             d eps       ncg     rms          rms(c)
DAV:   1    -0.833415987697E+03    0.39595E-06   -0.17602E-05  4140   0.812E-03    0.128E-03
DAV:   2    -0.833415987720E+03   -0.22963E-07   -0.32963E-07  2230   0.111E-03
 107 F= -.84104008E+03 E0= -.84104008E+03  d E =-.143286E-06  mag=    -0.0000
       N       E                     dE             d eps       ncg     rms          rms(c)
DAV:   1    -0.833415987082E+03    0.61454E-06   -0.23680E-05  4160   0.913E-03    0.153E-03
DAV:   2    -0.833415987106E+03   -0.24105E-07   -0.40262E-07  2290   0.118E-03
 108 F= -.84104008E+03 E0= -.84104008E+03  d E =-.100143E-06  mag=    -0.0000
       N       E                     dE             d eps       ncg     rms          rms(c)
DAV:   1    -0.833415986471E+03    0.61055E-06   -0.30630E-05  4160   0.101E-02    0.170E-03
DAV:   2    -0.833415986500E+03   -0.28158E-07   -0.49187E-07  2350   0.127E-03
 109 F= -.84104008E+03 E0= -.84104008E+03  d E =-.274019E-06  mag=    -0.0000
       N       E                     dE             d eps       ncg     rms          rms(c)
DAV:   1    -0.833415985961E+03    0.51098E-06   -0.41932E-05  4240   0.118E-02    0.196E-03
DAV:   2    -0.833415985994E+03   -0.33535E-07   -0.64430E-07  2560   0.144E-03
 110 F= -.84104008E+03 E0= -.84104008E+03  d E =-.536325E-06  mag=    -0.0000
       N       E                     dE             d eps       ncg     rms          rms(c)
DAV:   1    -0.833415985212E+03    0.74853E-06   -0.69459E-05  4240   0.152E-02    0.244E-03
DAV:   2    -0.833415985265E+03   -0.52634E-07   -0.10678E-06  2900   0.185E-03
 111 F= -.84104008E+03 E0= -.84104008E+03  d E =-.748289E-06  mag=    -0.0000
       N       E                     dE             d eps       ncg     rms          rms(c)
DAV:   1    -0.833415984043E+03    0.11693E-05   -0.10944E-04  4240   0.191E-02    0.310E-03
DAV:   2    -0.833415984120E+03   -0.76805E-07   -0.16831E-06  2980   0.233E-03
 112 F= -.84104008E+03 E0= -.84104008E+03  d E =-.844858E-06  mag=    -0.0000
       N       E                     dE             d eps       ncg     rms          rms(c)
DAV:   1    -0.833415983022E+03    0.10212E-05   -0.16399E-04  4280   0.233E-02    0.380E-03
DAV:   2    -0.833415983131E+03   -0.10920E-06   -0.24669E-06  3300   0.278E-03
 113 F= -.84104008E+03 E0= -.84104008E+03  d E =-.133578E-05  mag=    -0.0000
       N       E                     dE             d eps       ncg     rms          rms(c)
DAV:   1    -0.833415982010E+03    0.10118E-05   -0.25586E-04  4320   0.293E-02    0.472E-03
DAV:   2    -0.833415982173E+03   -0.16307E-06   -0.37471E-06  3600   0.345E-03
 114 F= -.84104009E+03 E0= -.84104008E+03  d E =-.150358E-05  mag=    -0.0000
       N       E                     dE             d eps       ncg     rms          rms(c)
DAV:   1    -0.833415980365E+03    0.16444E-05   -0.38756E-04  4240   0.358E-02    0.586E-03
DAV:   2    -0.833415980623E+03   -0.25793E-06   -0.58285E-06  3780   0.424E-03
 115 F= -.84104009E+03 E0= -.84104009E+03  d E =-.182072E-05  mag=    -0.0000
       N       E                     dE             d eps       ncg     rms          rms(c)
DAV:   1    -0.833415977719E+03    0.26463E-05   -0.63782E-04  4240   0.455E-02    0.750E-03
DAV:   2    -0.833415978186E+03   -0.46696E-06   -0.10108E-05  4280   0.543E-03    0.623E-03
DAV:   3    -0.833415978069E+03    0.11704E-06   -0.51454E-07  2840   0.164E-03
 116 F= -.84104009E+03 E0= -.84104009E+03  d E =-.197600E-05  mag=    -0.0000
       N       E                     dE             d eps       ncg     rms          rms(c)
DAV:   1    -0.833415971490E+03    0.66959E-05   -0.11127E-03  4280   0.580E-02    0.717E-03
DAV:   2    -0.833415972762E+03   -0.12718E-05   -0.17587E-05  4410   0.679E-03    0.583E-03
DAV:   3    -0.833415972642E+03    0.11975E-06   -0.39749E-07  3040   0.137E-03
 117 F= -.84104009E+03 E0= -.84104009E+03  d E =-.143144E-05  mag=    -0.0000
       N       E                     dE             d eps       ncg     rms          rms(c)
DAV:   1    -0.833415961481E+03    0.11281E-04   -0.18927E-03  4240   0.740E-02    0.933E-03
DAV:   2    -0.833415963646E+03   -0.21655E-05   -0.30534E-05  4380   0.870E-03    0.745E-03
DAV:   3    -0.833415963453E+03    0.19374E-06   -0.72870E-07  3310   0.176E-03
 118 F= -.84104009E+03 E0= -.84104009E+03  d E =-.335854E-06  mag=    -0.0000
       N       E                     dE             d eps       ncg     rms          rms(c)
DAV:   1    -0.833415945594E+03    0.18052E-04   -0.34754E-03  4280   0.965E-02    0.130E-02
DAV:   2    -0.833415949408E+03   -0.38137E-05   -0.56417E-05  4400   0.113E-02    0.100E-02
DAV:   3    -0.833415949156E+03    0.25125E-06   -0.12674E-06  3480   0.227E-03
 119 F= -.84104009E+03 E0= -.84104009E+03  d E =0.626986E-06  mag=    -0.0000
       N       E                     dE             d eps       ncg     rms          rms(c)
DAV:   1    -0.833415920785E+03    0.28622E-04   -0.65776E-03  4240   0.127E-01    0.182E-02
DAV:   2    -0.833415928186E+03   -0.74007E-05   -0.11068E-04  4380   0.150E-02    0.135E-02
DAV:   3    -0.833415927788E+03    0.39748E-06   -0.24715E-06  3600   0.302E-03
 120 F= -.84104009E+03 E0= -.84104009E+03  d E =0.204054E-05  mag=    -0.0000
       N       E                     dE             d eps       ncg     rms          rms(c)
DAV:   1    -0.833415884659E+03    0.43527E-04   -0.11284E-02  4240   0.162E-01    0.241E-02
DAV:   2    -0.833415897493E+03   -0.12834E-04   -0.19069E-04  4380   0.191E-02    0.177E-02
DAV:   3    -0.833415896718E+03    0.77531E-06   -0.43107E-06  3980   0.389E-03
 121 F= -.84104009E+03 E0= -.84104009E+03  d E =0.205764E-05  mag=    -0.0000
       N       E                     dE             d eps       ncg     rms          rms(c)
DAV:   1    -0.833415848998E+03    0.48495E-04   -0.15360E-02  4240   0.195E-01    0.279E-02
DAV:   2    -0.833415866611E+03   -0.17613E-04   -0.25740E-04  4360   0.232E-02    0.210E-02
DAV:   3    -0.833415865410E+03    0.12005E-05   -0.61290E-06  4460   0.476E-03    0.152E-02
DAV:   4    -0.833415868459E+03   -0.30491E-05   -0.90464E-06  4150   0.580E-03    0.345E-03
DAV:   5    -0.833415868575E+03   -0.11549E-06   -0.18803E-06  3480   0.236E-03
 122 F= -.84104009E+03 E0= -.84104009E+03  d E =-.391659E-05  mag=    -0.0000
       N       E                     dE             d eps       ncg     rms          rms(c)
DAV:   1    -0.833415873102E+03   -0.46421E-05   -0.64354E-05  4280   0.159E-02    0.210E-03
DAV:   2    -0.833415873172E+03   -0.70395E-07   -0.14181E-06  2900   0.231E-03
 123 F= -.84104009E+03 E0= -.84104009E+03  d E =-.361448E-05  mag=    -0.0000
       N       E                     dE             d eps       ncg     rms          rms(c)
DAV:   1    -0.833415877227E+03   -0.41253E-05   -0.17147E-04  4240   0.251E-02    0.383E-03
DAV:   2    -0.833415877390E+03   -0.16325E-06   -0.37735E-06  3920   0.358E-03
 124 F= -.84104010E+03 E0= -.84104010E+03  d E =-.255759E-05  mag=    -0.0000
       N       E                     dE             d eps       ncg     rms          rms(c)
DAV:   1    -0.833415880778E+03   -0.35507E-05   -0.19986E-04  4240   0.241E-02    0.470E-03
DAV:   2    -0.833415880871E+03   -0.93132E-07   -0.35673E-06  3120   0.313E-03
 125 F= -.84104010E+03 E0= -.84104010E+03  d E =-.113342E-05  mag=    -0.0000
       N       E                     dE             d eps       ncg     rms          rms(c)
DAV:   1    -0.833415887594E+03   -0.68162E-05   -0.23996E-04  4240   0.232E-02    0.482E-03
DAV:   2    -0.833415887751E+03   -0.15760E-06   -0.39362E-06  3120   0.279E-03
 126 F= -.84104010E+03 E0= -.84104010E+03  d E =-.374382E-05  mag=    -0.0000
       N       E                     dE             d eps       ncg     rms          rms(c)
DAV:   1    -0.833415897609E+03   -0.10015E-04   -0.38111E-04  4240   0.307E-02    0.592E-03
DAV:   2    -0.833415897919E+03   -0.31041E-06   -0.67847E-06  3620   0.391E-03
 127 F= -.84104011E+03 E0= -.84104011E+03  d E =-.618458E-05  mag=    -0.0000
       N       E                     dE             d eps       ncg     rms          rms(c)
DAV:   1    -0.833415906896E+03   -0.92878E-05   -0.50122E-04  4240   0.359E-02    0.742E-03
DAV:   2    -0.833415907232E+03   -0.33580E-06   -0.88654E-06  4060   0.455E-03
 128 F= -.84104011E+03 E0= -.84104011E+03  d E =-.516133E-05  mag=    -0.0000
       N       E                     dE             d eps       ncg     rms          rms(c)
DAV:   1    -0.833415917511E+03   -0.10615E-04   -0.68411E-04  4240   0.396E-02    0.874E-03
DAV:   2    -0.833415917922E+03   -0.41019E-06   -0.11229E-05  4000   0.477E-03    0.692E-03
DAV:   3    -0.833415917972E+03   -0.50379E-07   -0.54574E-07  3025   0.156E-03
 129 F= -.84104012E+03 E0= -.84104012E+03  d E =-.588206E-05  mag=    -0.0000
       N       E                     dE             d eps       ncg     rms          rms(c)
DAV:   1    -0.833415930866E+03   -0.12944E-04   -0.10233E-03  4240   0.493E-02    0.711E-03
DAV:   2    -0.833415932100E+03   -0.12340E-05   -0.17429E-05  4300   0.597E-03    0.529E-03
DAV:   3    -0.833415932032E+03    0.67543E-07   -0.38992E-07  3160   0.125E-03
 130 F= -.84104013E+03 E0= -.84104013E+03  d E =-.859096E-05  mag=    -0.0000
       N       E                     dE             d eps       ncg     rms          rms(c)
DAV:   1    -0.833415944492E+03   -0.12392E-04   -0.14671E-03  4260   0.605E-02    0.838E-03
DAV:   2    -0.833415946254E+03   -0.17617E-05   -0.24925E-05  4400   0.730E-03    0.641E-03
DAV:   3    -0.833415946102E+03    0.15194E-06   -0.60216E-07  3300   0.153E-03
 131 F= -.84104013E+03 E0= -.84104013E+03  d E =-.814191E-05  mag=    -0.0000
       N       E                     dE             d eps       ncg     rms          rms(c)
DAV:   1    -0.833415959394E+03   -0.13139E-04   -0.19089E-03  4280   0.701E-02    0.925E-03
DAV:   2    -0.833415961617E+03   -0.22235E-05   -0.31065E-05  4420   0.831E-03    0.724E-03
DAV:   3    -0.833415961408E+03    0.20926E-06   -0.74375E-07  3500   0.171E-03
 132 F= -.84104014E+03 E0= -.84104014E+03  d E =-.986819E-05  mag=    -0.0000
       N       E                     dE             d eps       ncg     rms          rms(c)
DAV:   1    -0.833415971840E+03   -0.10223E-04   -0.27554E-03  4260   0.875E-02    0.106E-02
DAV:   2    -0.833415975169E+03   -0.33286E-05   -0.44767E-05  4380   0.105E-02    0.867E-03
DAV:   3    -0.833415974786E+03    0.38292E-06   -0.10941E-06  3720   0.214E-03
 133 F= -.84104015E+03 E0= -.84104015E+03  d E =-.100637E-04  mag=    -0.0000
       N       E                     dE             d eps       ncg     rms          rms(c)
DAV:   1    -0.833415984859E+03   -0.96904E-05   -0.38395E-03  4280   0.104E-01    0.121E-02
DAV:   2    -0.833415989394E+03   -0.45348E-05   -0.60369E-05  4460   0.123E-02    0.102E-02
DAV:   3    -0.833415988826E+03    0.56830E-06   -0.15371E-06  3840   0.250E-03
 134 F= -.84104017E+03 E0= -.84104017E+03  d E =-.129032E-04  mag=    -0.0000
       N       E                     dE             d eps       ncg     rms          rms(c)
DAV:   1    -0.833415994914E+03   -0.55193E-05   -0.57381E-03  4260   0.127E-01    0.147E-02
DAV:   2    -0.833416001660E+03   -0.67468E-05   -0.88673E-05  4420   0.149E-02    0.124E-02
DAV:   3    -0.833416000866E+03    0.79403E-06   -0.23189E-06  4040   0.301E-03
 135 F= -.84104018E+03 E0= -.84104018E+03  d E =-.127975E-04  mag=    -0.0000
       N       E                     dE             d eps       ncg     rms          rms(c)
DAV:   1    -0.833416000037E+03    0.16230E-05   -0.97488E-03  4260   0.164E-01    0.191E-02
DAV:   2    -0.833416012363E+03   -0.12325E-04   -0.15876E-04  4450   0.199E-02    0.161E-02
DAV:   3    -0.833416010857E+03    0.15057E-05   -0.41774E-06  4420   0.406E-03    0.123E-02
DAV:   4    -0.833416010890E+03   -0.33258E-07   -0.77875E-06  4180   0.561E-03
 136 F= -.84104019E+03 E0= -.84104019E+03  d E =-.140568E-04  mag=     0.0000
       N       E                     dE             d eps       ncg     rms          rms(c)
DAV:   1    -0.833416015552E+03   -0.46944E-05   -0.11979E-04  4400   0.224E-02    0.343E-03
DAV:   2    -0.833416015665E+03   -0.11310E-06   -0.32147E-06  3380   0.347E-03
 137 F= -.84104020E+03 E0= -.84104020E+03  d E =-.544151E-05  mag=    -0.0000
       N       E                     dE             d eps       ncg     rms          rms(c)
DAV:   1    -0.833416014431E+03    0.11206E-05   -0.26168E-04  4240   0.330E-02    0.499E-03
DAV:   2    -0.833416014726E+03   -0.29519E-06   -0.62947E-06  5340   0.476E-03
 138 F= -.84104020E+03 E0= -.84104020E+03  d E =-.635702E-06  mag=    -0.0000
       N       E                     dE             d eps       ncg     rms          rms(c)
DAV:   1    -0.833416014635E+03   -0.20419E-06   -0.42183E-06  3880   0.412E-03    0.265E-03
DAV:   2    -0.833416014621E+03    0.13744E-07   -0.29297E-07  2150   0.106E-03
 139 F= -.84104020E+03 E0= -.84104020E+03  d E =-.128985E-06  mag=    -0.0000
       N       E                     dE             d eps       ncg     rms          rms(c)
DAV:   1    -0.833416014486E+03    0.14909E-06   -0.14244E-05  4140   0.690E-03    0.110E-03
DAV:   2    -0.833416014516E+03   -0.30086E-07   -0.36773E-07  2240   0.111E-03
 140 F= -.84104020E+03 E0= -.84104020E+03  d E =-.514080E-06  mag=    -0.0000
       N       E                     dE             d eps       ncg     rms          rms(c)
DAV:   1    -0.833416013498E+03    0.98781E-06   -0.34012E-05  4180   0.964E-03    0.170E-03
DAV:   2    -0.833416013545E+03   -0.46530E-07   -0.68354E-07  2520   0.135E-03
 141 F= -.84104020E+03 E0= -.84104020E+03  d E =-.163087E-06  mag=    -0.0000
       N       E                     dE             d eps       ncg     rms          rms(c)
DAV:   1    -0.833416010923E+03    0.25756E-05   -0.67393E-05  4240   0.121E-02    0.258E-03
DAV:   2    -0.833416010994E+03   -0.71210E-07   -0.12012E-06  2925   0.158E-03
 142 F= -.84104020E+03 E0= -.84104020E+03  d E =0.661804E-06  mag=    -0.0000
       N       E                     dE             d eps       ncg     rms          rms(c)
DAV:   1    -0.833416006553E+03    0.43699E-05   -0.12452E-04  4160   0.145E-02    0.359E-03
DAV:   2    -0.833416006660E+03   -0.10734E-06   -0.20496E-06  2980   0.182E-03
 143 F= -.84104020E+03 E0= -.84104020E+03  d E =0.135517E-05  mag=    -0.0000
       N       E                     dE             d eps       ncg     rms          rms(c)
DAV:   1    -0.833416000286E+03    0.62665E-05   -0.22337E-04  4240   0.178E-02    0.486E-03
DAV:   2    -0.833416000442E+03   -0.15543E-06   -0.34252E-06  3000   0.211E-03
 144 F= -.84104020E+03 E0= -.84104020E+03  d E =0.191209E-05  mag=    -0.0000
       N       E                     dE             d eps       ncg     rms          rms(c)
DAV:   1    -0.833415990732E+03    0.95543E-05   -0.48827E-04  4240   0.251E-02    0.700E-03
DAV:   2    -0.833415990974E+03   -0.24235E-06   -0.73342E-06  3080   0.293E-03
 145 F= -.84104019E+03 E0= -.84104019E+03  d E =0.282977E-05  mag=    -0.0000
       N       E                     dE             d eps       ncg     rms          rms(c)
DAV:   1    -0.833415976322E+03    0.14409E-04   -0.10497E-03  4240   0.359E-02    0.103E-02
DAV:   2    -0.833415976712E+03   -0.39003E-06   -0.15793E-05  3420   0.421E-03    0.759E-03
DAV:   3    -0.833415977105E+03   -0.39275E-06   -0.49958E-07  3000   0.121E-03
 146 F= -.84104019E+03 E0= -.84104019E+03  d E =0.386770E-05  mag=    -0.0000
       N       E                     dE             d eps       ncg     rms          rms(c)
DAV:   1    -0.833415954793E+03    0.21919E-04   -0.21331E-03  4240   0.500E-02    0.110E-02
DAV:   2    -0.833415956730E+03   -0.19366E-05   -0.32165E-05  4060   0.577E-03    0.740E-03
DAV:   3    -0.833415956871E+03   -0.14120E-06   -0.53930E-07  3300   0.111E-03
 147 F= -.84104019E+03 E0= -.84104018E+03  d E =0.552079E-05  mag=    -0.0000
       N       E                     dE             d eps       ncg     rms          rms(c)
DAV:   1    -0.833415924194E+03    0.32536E-04   -0.41621E-03  4240   0.683E-02    0.152E-02
DAV:   2    -0.833415928017E+03   -0.38227E-05   -0.62431E-05  4260   0.784E-03    0.102E-02
DAV:   3    -0.833415928087E+03   -0.70308E-07   -0.10009E-06  3240   0.144E-03
 148 F= -.84104018E+03 E0= -.84104018E+03  d E =0.813780E-05  mag=    -0.0000
       N       E                     dE             d eps       ncg     rms          rms(c)
DAV:   1    -0.833415883546E+03    0.44471E-04   -0.75514E-03  4260   0.905E-02    0.205E-02
DAV:   2    -0.833415890603E+03   -0.70569E-05   -0.11169E-04  4380   0.103E-02    0.137E-02
DAV:   3    -0.833415890717E+03   -0.11434E-06   -0.18010E-06  3300   0.188E-03
 149 F= -.84104017E+03 E0= -.84104017E+03  d E =0.953585E-05  mag=    -0.0000
       N       E                     dE             d eps       ncg     rms          rms(c)
DAV:   1    -0.833415831638E+03    0.58966E-04   -0.12481E-02  4260   0.116E-01    0.264E-02
DAV:   2    -0.833415843248E+03   -0.11611E-04   -0.18436E-04  4320   0.132E-02    0.176E-02
DAV:   3    -0.833415843467E+03   -0.21832E-06   -0.29926E-06  3380   0.242E-03
 150 F= -.84104016E+03 E0= -.84104016E+03  d E =0.119032E-04  mag=    -0.0000
       N       E                     dE             d eps       ncg     rms          rms(c)
DAV:   1    -0.833415769480E+03    0.73768E-04   -0.18746E-02  4260   0.143E-01    0.322E-02
DAV:   2    -0.833415787307E+03   -0.17827E-04   -0.27406E-04  4340   0.162E-02    0.216E-02
DAV:   3    -0.833415787339E+03   -0.31956E-07   -0.44739E-06  3460   0.296E-03
 151 F= -.84104014E+03 E0= -.84104014E+03  d E =0.136944E-04  mag=    -0.0000
       N       E                     dE             d eps       ncg     rms          rms(c)
DAV:   1    -0.833415697816E+03    0.89491E-04   -0.25296E-02  4260   0.169E-01    0.370E-02
DAV:   2    -0.833415721702E+03   -0.23886E-04   -0.36812E-04  4340   0.192E-02    0.252E-02
DAV:   3    -0.833415722157E+03   -0.45469E-06   -0.60633E-06  3600   0.354E-03
 152 F= -.84104013E+03 E0= -.84104013E+03  d E =0.163080E-04  mag=    -0.0000
       N       E                     dE             d eps       ncg     rms          rms(c)
DAV:   1    -0.833415635318E+03    0.86384E-04   -0.26248E-02  4260   0.185E-01    0.372E-02
DAV:   2    -0.833415661137E+03   -0.25819E-04   -0.38415E-04  4340   0.212E-02    0.258E-02
DAV:   3    -0.833415661338E+03   -0.20066E-06   -0.66847E-06  3780   0.405E-03
 153 F= -.84104012E+03 E0= -.84104012E+03  d E =0.982415E-05  mag=    -0.0000
       N       E                     dE             d eps       ncg     rms          rms(c)
DAV:   1    -0.833415671189E+03   -0.10052E-04   -0.31035E-05  4070   0.776E-03    0.365E-03
DAV:   2    -0.833415671087E+03    0.10211E-06   -0.21376E-06  3260   0.234E-03
 154 F= -.84104012E+03 E0= -.84104012E+03  d E =-.886169E-05  mag=     0.0000
       N       E                     dE             d eps       ncg     rms          rms(c)
DAV:   1    -0.833415675148E+03   -0.39591E-05   -0.37178E-05  4240   0.915E-03    0.164E-03
DAV:   2    -0.833415675172E+03   -0.23640E-07   -0.60682E-07  3220   0.123E-03
 155 F= -.84104013E+03 E0= -.84104013E+03  d E =-.225634E-05  mag=    -0.0000
       N       E                     dE             d eps       ncg     rms          rms(c)
DAV:   1    -0.833415680612E+03   -0.54641E-05   -0.78224E-05  4240   0.122E-02    0.252E-03
DAV:   2    -0.833415680667E+03   -0.54410E-07   -0.13155E-06  3040   0.160E-03
 156 F= -.84104013E+03 E0= -.84104013E+03  d E =-.277054E-05  mag=    -0.0000
       N       E                     dE             d eps       ncg     rms          rms(c)
DAV:   1    -0.833415687153E+03   -0.65408E-05   -0.12748E-04  4220   0.140E-02    0.374E-03
DAV:   2    -0.833415687198E+03   -0.44936E-07   -0.19661E-06  3000   0.175E-03
 157 F= -.84104013E+03 E0= -.84104013E+03  d E =-.303759E-05  mag=    -0.0000
       N       E                     dE             d eps       ncg     rms          rms(c)
DAV:   1    -0.833415695045E+03   -0.78914E-05   -0.18668E-04  4165   0.153E-02    0.468E-03
DAV:   2    -0.833415695105E+03   -0.60340E-07   -0.26669E-06  3040   0.180E-03
 158 F= -.84104014E+03 E0= -.84104014E+03  d E =-.361384E-05  mag=    -0.0000
       N       E                     dE             d eps       ncg     rms          rms(c)
DAV:   1    -0.833415704401E+03   -0.93566E-05   -0.25731E-04  4170   0.172E-02    0.554E-03
DAV:   2    -0.833415704481E+03   -0.79497E-07   -0.35538E-06  3050   0.198E-03
 159 F= -.84104014E+03 E0= -.84104014E+03  d E =-.460824E-05  mag=    -0.0000
       N       E                     dE             d eps       ncg     rms          rms(c)
DAV:   1    -0.833415716014E+03   -0.11612E-04   -0.42816E-04  4240   0.228E-02    0.688E-03
DAV:   2    -0.833415716161E+03   -0.14763E-06   -0.59837E-06  3070   0.267E-03
 160 F= -.84104015E+03 E0= -.84104015E+03  d E =-.598389E-05  mag=    -0.0000
       N       E                     dE             d eps       ncg     rms          rms(c)
DAV:   1    -0.833415729705E+03   -0.13692E-04   -0.68147E-04  4240   0.284E-02    0.868E-03
DAV:   2    -0.833415729930E+03   -0.22478E-06   -0.95339E-06  3190   0.331E-03
 161 F= -.84104015E+03 E0= -.84104015E+03  d E =-.729185E-05  mag=    -0.0000
       N       E                     dE             d eps       ncg     rms          rms(c)
DAV:   1    -0.833415746207E+03   -0.16501E-04   -0.10202E-03  4240   0.344E-02    0.106E-02
DAV:   2    -0.833415746519E+03   -0.31252E-06   -0.14076E-05  3330   0.396E-03    0.799E-03
DAV:   3    -0.833415746882E+03   -0.36252E-06   -0.59302E-07  3030   0.132E-03
 162 F= -.84104016E+03 E0= -.84104016E+03  d E =-.940612E-05  mag=    -0.0000
       N       E                     dE             d eps       ncg     rms          rms(c)
DAV:   1    -0.833415766118E+03   -0.19599E-04   -0.14228E-03  4240   0.414E-02    0.855E-03
DAV:   2    -0.833415767352E+03   -0.12334E-05   -0.19665E-05  3740   0.472E-03    0.595E-03
DAV:   3    -0.833415767379E+03   -0.27081E-07   -0.42817E-07  3460   0.106E-03
 163 F= -.84104018E+03 E0= -.84104018E+03  d E =-.121623E-04  mag=    -0.0000
       N       E                     dE             d eps       ncg     rms          rms(c)
DAV:   1    -0.833415787278E+03   -0.19927E-04   -0.18520E-03  4240   0.491E-02    0.928E-03
DAV:   2    -0.833415788911E+03   -0.16321E-05   -0.24707E-05  4140   0.557E-03    0.677E-03
DAV:   3    -0.833415788856E+03    0.54912E-07   -0.50328E-07  3410   0.115E-03
 164 F= -.84104019E+03 E0= -.84104019E+03  d E =-.126332E-04  mag=    -0.0000
       N       E                     dE             d eps       ncg     rms          rms(c)
DAV:   1    -0.833415808791E+03   -0.19880E-04   -0.21866E-03  4260   0.571E-02    0.955E-03
DAV:   2    -0.833415810971E+03   -0.21801E-05   -0.29626E-05  4240   0.648E-03    0.729E-03
DAV:   3    -0.833415810875E+03    0.96457E-07   -0.61350E-07  3480   0.130E-03
 165 F= -.84104020E+03 E0= -.84104020E+03  d E =-.138079E-04  mag=    -0.0000
       N       E                     dE             d eps       ncg     rms          rms(c)
DAV:   1    -0.833415828683E+03   -0.17712E-04   -0.28185E-03  4280   0.665E-02    0.101E-02
DAV:   2    -0.833415831553E+03   -0.28699E-05   -0.36716E-05  4300   0.744E-03    0.797E-03
DAV:   3    -0.833415831380E+03    0.17267E-06   -0.78566E-07  3500   0.148E-03
 166 F= -.84104022E+03 E0= -.84104022E+03  d E =-.148151E-04  mag=    -0.0000
