<?xml version="1.0" encoding="ISO-8859-1"?>
<modeling>
 <generator>
  <i name="program" type="string">vasp </i>
  <i name="version" type="string">6.4.2  </i>
  <i name="subversion" type="string">20Jul23 (build Aug 26 2025 15:10:52) complex                          parallel </i>
  <i name="platform" type="string">LinuxIFC </i>
  <i name="date" type="string">2025 12 07 </i>
  <i name="time" type="string">12:45:23 </i>
 </generator>
 <incar>
  <i type="int" name="ISTART">     0</i>
  <i type="string" name="ALGO">Normal</i>
  <i type="logical" name="ADDGRID"> T  </i>
  <i type="int" name="ISPIN">     2</i>
  <i type="int" name="IMIX">     4</i>
  <i name="AMIX">      0.20000000</i>
  <i name="BMIX">      0.00010000</i>
  <i name="AMIX_MAG">      0.80000000</i>
  <i name="BMIX_MAG">      0.00010000</i>
  <i type="int" name="ICHARG">     2</i>
  <i type="int" name="NELM">   200</i>
  <i type="int" name="IBRION">     3</i>
  <i name="EDIFF">      0.00000100</i>
  <i name="EDIFFG">     -0.03000000</i>
  <i type="int" name="NSW">  1000</i>
  <i type="int" name="ISIF">     2</i>
  <i type="int" name="ISYM">     0</i>
  <i name="ENCUT">    520.00000000</i>
  <i name="POTIM">      0.00000000</i>
  <v name="MAGMOM">      0.60000000      0.60000000      0.60000000      0.60000000      0.60000000      0.60000000      0.60000000      0.60000000      0.60000000      0.60000000      0.60000000      0.60000000      0.60000000      0.60000000      0.60000000      0.60000000      0.60000000      0.60000000      0.60000000      0.60000000
      0.60000000      0.60000000      0.60000000      0.60000000      0.60000000      0.60000000      0.60000000      0.60000000      0.60000000      0.60000000      0.60000000      0.60000000      0.60000000      0.60000000      0.60000000      0.60000000      0.60000000      0.60000000      0.60000000      0.60000000
      0.60000000      0.60000000      0.60000000      0.60000000      0.60000000      0.60000000      0.60000000      0.60000000      0.60000000      0.60000000      0.60000000      0.60000000      0.60000000      0.60000000      0.60000000      0.60000000      0.60000000      0.60000000      0.60000000      0.60000000
      0.60000000      0.60000000      0.60000000      0.60000000      0.60000000      0.60000000      0.60000000      0.60000000      0.60000000      0.60000000      0.60000000      0.60000000      0.60000000      0.60000000      0.60000000      0.60000000      0.60000000      0.60000000      0.60000000      0.60000000
      0.60000000      0.60000000      0.60000000      0.60000000      0.60000000      0.60000000      0.60000000      0.60000000      0.60000000      0.60000000      0.60000000      0.60000000      0.60000000      0.60000000      0.60000000</v>
  <i type="string" name="LREAL">Auto</i>
  <i type="int" name="ISMEAR">     0</i>
  <i name="SIGMA">      0.05000000</i>
  <i type="logical" name="LWAVE"> F  </i>
  <i type="logical" name="LCHARG"> F  </i>
  <i type="logical" name="LASPH"> T  </i>
  <i type="int" name="IVDW">    12</i>
  <i name="SPRING">     -5.00000000</i>
 </incar>
 <primitive_cell>
  <structure name="primitive_cell" >
   <crystal>
    <varray name="basis" >
     <v>      17.27103806       0.00000000       0.00000000 </v>
     <v>      -8.63551903      14.95715771       0.00000000 </v>
     <v>       0.00000000       0.00000000      15.00000000 </v>
    </varray>
    <i name="volume">   3874.88459904 </i>
    <varray name="rec_basis" >
     <v>       0.05790040       0.03342881       0.00000000 </v>
     <v>       0.00000000       0.06685762       0.00000000 </v>
     <v>       0.00000000       0.00000000       0.06666667 </v>
    </varray>
   </crystal>
   <varray name="positions" >
    <v>       0.99998624       0.99989432       0.50011482 </v>
    <v>       0.99924797       0.14213475       0.50008904 </v>
    <v>       0.99933037       0.28529569       0.50038726 </v>
    <v>       0.99973694       0.42839639       0.50083077 </v>
    <v>       0.99982269       0.57136499       0.50091980 </v>
    <v>       0.00036530       0.71438017       0.50074823 </v>
    <v>       0.00132001       0.85795230       0.50034709 </v>
    <v>       0.14401554       0.00166011       0.49988572 </v>
    <v>       0.14332467       0.14400195       0.50000233 </v>
    <v>       0.14175201       0.28550086       0.50038293 </v>
    <v>       0.14291112       0.42891893       0.50097199 </v>
    <v>       0.14319555       0.57140601       0.50092385 </v>
    <v>       0.14326311       0.71448349       0.50042963 </v>
    <v>       0.14364131       0.85806596       0.50004224 </v>
    <v>       0.28671481       0.00186278       0.49978738 </v>
    <v>       0.28723481       0.14596431       0.49998219 </v>
    <v>       0.28673911       0.29140115       0.50030177 </v>
    <v>       0.28512752       0.42641340       0.50095943 </v>
    <v>       0.28781368       0.57094638       0.50140670 </v>
    <v>       0.28615628       0.71484896       0.50052378 </v>
    <v>       0.28578708       0.85815738       0.49992440 </v>
    <v>       0.42904491       0.00076775       0.49995703 </v>
    <v>       0.43020334       0.14533868       0.50018737 </v>
    <v>       0.42943771       0.28674661       0.50033114 </v>
    <v>       0.42775799       0.85670941       0.50027660 </v>
    <v>       0.57094747       0.99904222       0.50028270 </v>
    <v>       0.57172654       0.14286364       0.50021770 </v>
    <v>       0.57557992       0.28960766       0.50086429 </v>
    <v>       0.56992574       0.85400627       0.50069739 </v>
    <v>       0.71298532       0.99731590       0.50042192 </v>
    <v>       0.71404822       0.14167606       0.50029807 </v>
    <v>       0.71466558       0.28528500       0.50054150 </v>
    <v>       0.71072643       0.42542468       0.50122115 </v>
    <v>       0.71565089       0.57364641       0.50085384 </v>
    <v>       0.71182830       0.85323525       0.50051413 </v>
    <v>       0.85613320       0.99836112       0.50030605 </v>
    <v>       0.85621150       0.14155438       0.50019139 </v>
    <v>       0.85679835       0.28503166       0.50045377 </v>
    <v>       0.85684826       0.42829990       0.50084302 </v>
    <v>       0.85616203       0.57092789       0.50122575 </v>
    <v>       0.85825386       0.71489247       0.50086679 </v>
    <v>       0.85734292       0.85594011       0.50049349 </v>
    <v>       0.04776430       0.09539370       0.50003127 </v>
    <v>       0.04639114       0.23733291       0.50022144 </v>
    <v>       0.04719700       0.38080522       0.50074738 </v>
    <v>       0.04772807       0.52381421       0.50090066 </v>
    <v>       0.04781841       0.66679975       0.50074279 </v>
    <v>       0.04829264       0.80990602       0.50037769 </v>
    <v>       0.04847573       0.95311973       0.50007675 </v>
    <v>       0.19163817       0.09694900       0.49990817 </v>
    <v>       0.19043202       0.23939431       0.50019849 </v>
    <v>       0.18936216       0.38037553       0.50082832 </v>
    <v>       0.19141304       0.52430973       0.50119881 </v>
    <v>       0.19077362       0.66690821       0.50057343 </v>
    <v>       0.19086637       0.81018539       0.50007316 </v>
    <v>       0.19148391       0.95367986       0.49984291 </v>
    <v>       0.33476033       0.09798085       0.49992648 </v>
    <v>       0.33596004       0.24212829       0.50014481 </v>
    <v>       0.33182757       0.52161830       0.50120645 </v>
    <v>       0.33695407       0.66982848       0.50119400 </v>
    <v>       0.33301616       0.80990544       0.50018064 </v>
    <v>       0.33363948       0.95350699       0.49981734 </v>
    <v>       0.47673976       0.09613962       0.50012430 </v>
    <v>       0.47779824       0.24123378       0.50055050 </v>
    <v>       0.47215928       0.80560690       0.50087731 </v>
    <v>       0.47597297       0.95230944       0.50012161 </v>
    <v>       0.61867802       0.09441835       0.50022859 </v>
    <v>       0.61994076       0.23848255       0.50044257 </v>
    <v>       0.61834450       0.80854710       0.50054303 </v>
    <v>       0.61755674       0.94991001       0.50049095 </v>
    <v>       0.76102213       0.09336565       0.50029258 </v>
    <v>       0.76189346       0.23702069       0.50040759 </v>
    <v>       0.76149231       0.38037551       0.50083367 </v>
    <v>       0.75970752       0.52431927       0.50128512 </v>
    <v>       0.76248258       0.66888139       0.50081185 </v>
    <v>       0.76102335       0.80397334       0.50054808 </v>
    <v>       0.76052071       0.94937463       0.50045521 </v>
    <v>       0.90371003       0.09363497       0.50015397 </v>
    <v>       0.90401421       0.23713414       0.50027510 </v>
    <v>       0.90430613       0.38067717       0.50068095 </v>
    <v>       0.90435002       0.52379855       0.50103361 </v>
    <v>       0.90465317       0.66631625       0.50101581 </v>
    <v>       0.90594096       0.80976884       0.50055436 </v>
    <v>       0.90442059       0.95130600       0.50029270 </v>
    <v>       0.46676686       0.35948611       0.50008589 </v>
    <v>       0.40458468       0.55781018       0.49921743 </v>
    <v>       0.64288761       0.53753558       0.49851781 </v>
    <v>       0.58111835       0.73581071       0.50020245 </v>
    <v>       0.56551016       0.59414945       0.46906587 </v>
    <v>       0.47901068       0.49867453       0.46832671 </v>
    <v>       0.42684510       0.71515683       0.50166174 </v>
    <v>       0.71616366       0.71417091       0.50061873 </v>
    <v>       0.33153489       0.38121132       0.50061606 </v>
    <v>       0.62083725       0.38003968       0.50157884 </v>
    <v>       0.52334109       0.54606356       0.43022414 </v>
   </varray>
  </structure>
  <varray name="primitive_index" >
   <v type="int" >        1 </v>
   <v type="int" >        2 </v>
   <v type="int" >        3 </v>
   <v type="int" >        4 </v>
   <v type="int" >        5 </v>
   <v type="int" >        6 </v>
   <v type="int" >        7 </v>
   <v type="int" >        8 </v>
   <v type="int" >        9 </v>
   <v type="int" >       10 </v>
   <v type="int" >       11 </v>
   <v type="int" >       12 </v>
   <v type="int" >       13 </v>
   <v type="int" >       14 </v>
   <v type="int" >       15 </v>
   <v type="int" >       16 </v>
   <v type="int" >       17 </v>
   <v type="int" >       18 </v>
   <v type="int" >       19 </v>
   <v type="int" >       20 </v>
   <v type="int" >       21 </v>
   <v type="int" >       22 </v>
   <v type="int" >       23 </v>
   <v type="int" >       24 </v>
   <v type="int" >       25 </v>
   <v type="int" >       26 </v>
   <v type="int" >       27 </v>
   <v type="int" >       28 </v>
   <v type="int" >       29 </v>
   <v type="int" >       30 </v>
   <v type="int" >       31 </v>
   <v type="int" >       32 </v>
   <v type="int" >       33 </v>
   <v type="int" >       34 </v>
   <v type="int" >       35 </v>
   <v type="int" >       36 </v>
   <v type="int" >       37 </v>
   <v type="int" >       38 </v>
   <v type="int" >       39 </v>
   <v type="int" >       40 </v>
   <v type="int" >       41 </v>
   <v type="int" >       42 </v>
   <v type="int" >       43 </v>
   <v type="int" >       44 </v>
   <v type="int" >       45 </v>
   <v type="int" >       46 </v>
   <v type="int" >       47 </v>
   <v type="int" >       48 </v>
   <v type="int" >       49 </v>
   <v type="int" >       50 </v>
   <v type="int" >       51 </v>
   <v type="int" >       52 </v>
   <v type="int" >       53 </v>
   <v type="int" >       54 </v>
   <v type="int" >       55 </v>
   <v type="int" >       56 </v>
   <v type="int" >       57 </v>
   <v type="int" >       58 </v>
   <v type="int" >       59 </v>
   <v type="int" >       60 </v>
   <v type="int" >       61 </v>
   <v type="int" >       62 </v>
   <v type="int" >       63 </v>
   <v type="int" >       64 </v>
   <v type="int" >       65 </v>
   <v type="int" >       66 </v>
   <v type="int" >       67 </v>
   <v type="int" >       68 </v>
   <v type="int" >       69 </v>
   <v type="int" >       70 </v>
   <v type="int" >       71 </v>
   <v type="int" >       72 </v>
   <v type="int" >       73 </v>
   <v type="int" >       74 </v>
   <v type="int" >       75 </v>
   <v type="int" >       76 </v>
   <v type="int" >       77 </v>
   <v type="int" >       78 </v>
   <v type="int" >       79 </v>
   <v type="int" >       80 </v>
   <v type="int" >       81 </v>
   <v type="int" >       82 </v>
   <v type="int" >       83 </v>
   <v type="int" >       84 </v>
   <v type="int" >       85 </v>
   <v type="int" >       86 </v>
   <v type="int" >       87 </v>
   <v type="int" >       88 </v>
   <v type="int" >       89 </v>
   <v type="int" >       90 </v>
   <v type="int" >       91 </v>
   <v type="int" >       92 </v>
   <v type="int" >       93 </v>
   <v type="int" >       94 </v>
   <v type="int" >       95 </v>
  </varray>
 </primitive_cell>
 <kpoints>
  <generation param="Gamma">
   <v type="int" name="divisions">       2        2        1 </v>
   <v name="usershift">      0.00000000       0.00000000       0.00000000 </v>
   <v name="genvec1">      0.50000000       0.00000000       0.00000000 </v>
   <v name="genvec2">      0.00000000       0.50000000       0.00000000 </v>
   <v name="genvec3">      0.00000000       0.00000000       1.00000000 </v>
   <v name="shift">      0.00000000       0.00000000       0.00000000 </v>
  </generation>
  <varray name="kpointlist" >
   <v>       0.00000000       0.00000000       0.00000000 </v>
   <v>       0.50000000       0.00000000       0.00000000 </v>
   <v>       0.00000000       0.50000000       0.00000000 </v>
   <v>       0.50000000       0.50000000       0.00000000 </v>
  </varray>
  <varray name="weights" >
   <v>       0.25000000 </v>
   <v>       0.25000000 </v>
   <v>       0.25000000 </v>
   <v>       0.25000000 </v>
  </varray>
 </kpoints>
 <parameters>
  <separator name="general" >
   <i type="string" name="SYSTEM">unknown system</i>
   <i type="logical" name="LCOMPAT"> F  </i>
  </separator>
  <separator name="electronic" >
   <i type="string" name="PREC">normal</i>
   <i name="ENMAX">    520.00000000</i>
   <i name="ENAUG">    644.87300000</i>
   <i name="EDIFF">      0.00000100</i>
   <i type="int" name="IALGO">    38</i>
   <i type="int" name="IWAVPR">    11</i>
   <i type="int" name="NBANDS">   265</i>
   <i type="int" name="NBANDSLOW">    -1</i>
   <i type="int" name="NBANDSHIGH">    -1</i>
   <i name="NELECT">    368.00000000</i>
   <i type="int" name="TURBO">     0</i>
   <i type="int" name="IRESTART">     0</i>
   <i type="int" name="NREBOOT">     0</i>
   <i type="int" name="NMIN">     0</i>
   <i name="EREF">      0.00000000</i>
   <separator name="electronic smearing" >
    <i type="int" name="ISMEAR">     0</i>
    <i name="SIGMA">      0.05000000</i>
    <i name="KSPACING">      0.50000000</i>
    <i type="logical" name="KGAMMA"> T  </i>
    <i type="logical" name="KBLOWUP"> T  </i>
   </separator>
   <separator name="electronic projectors" >
    <i type="logical" name="LREAL"> T  </i>
    <v name="ROPT">     -0.00050000     -0.00050000     -0.00050000     -0.00050000</v>
    <i type="int" name="LMAXPAW">  -100</i>
    <i type="int" name="LMAXMIX">     2</i>
    <i type="logical" name="NLSPLINE"> F  </i>
   </separator>
   <separator name="electronic startup" >
    <i type="int" name="ISTART">     0</i>
    <i type="int" name="ICHARG">     2</i>
    <i type="int" name="INIWAV">     1</i>
   </separator>
   <separator name="electronic spin" >
    <i type="int" name="ISPIN">     2</i>
    <i type="logical" name="LNONCOLLINEAR"> F  </i>
    <v name="MAGMOM">      0.60000000      0.60000000      0.60000000      0.60000000      0.60000000      0.60000000      0.60000000      0.60000000      0.60000000      0.60000000      0.60000000      0.60000000      0.60000000      0.60000000      0.60000000      0.60000000      0.60000000      0.60000000      0.60000000      0.60000000
      0.60000000      0.60000000      0.60000000      0.60000000      0.60000000      0.60000000      0.60000000      0.60000000      0.60000000      0.60000000      0.60000000      0.60000000      0.60000000      0.60000000      0.60000000      0.60000000      0.60000000      0.60000000      0.60000000      0.60000000
      0.60000000      0.60000000      0.60000000      0.60000000      0.60000000      0.60000000      0.60000000      0.60000000      0.60000000      0.60000000      0.60000000      0.60000000      0.60000000      0.60000000      0.60000000      0.60000000      0.60000000      0.60000000      0.60000000      0.60000000
      0.60000000      0.60000000      0.60000000      0.60000000      0.60000000      0.60000000      0.60000000      0.60000000      0.60000000      0.60000000      0.60000000      0.60000000      0.60000000      0.60000000      0.60000000      0.60000000      0.60000000      0.60000000      0.60000000      0.60000000
      0.60000000      0.60000000      0.60000000      0.60000000      0.60000000      0.60000000      0.60000000      0.60000000      0.60000000      0.60000000      0.60000000      0.60000000      0.60000000      0.60000000      0.60000000</v>
    <i name="NUPDOWN">     -1.00000000</i>
    <i type="logical" name="LSORBIT"> F  </i>
    <v name="SAXIS">      0.00000000      0.00000000      1.00000000</v>
    <i type="logical" name="LSPIRAL"> F  </i>
    <v name="QSPIRAL">      0.00000000      0.00000000      0.00000000</v>
    <i type="logical" name="LZEROZ"> F  </i>
   </separator>
   <separator name="electronic exchange-correlation" >
    <i type="logical" name="LASPH"> T  </i>
    <i type="logical" name="LMETAGGA"> F  </i>
   </separator>
   <separator name="electronic convergence" >
    <i type="int" name="NELM">   200</i>
    <i type="int" name="NELMDL">    -5</i>
    <i type="int" name="NELMIN">     2</i>
    <i name="ENINI">    520.00000000</i>
    <separator name="electronic convergence detail" >
     <i type="logical" name="LDIAG"> T  </i>
     <i type="logical" name="LSUBROT"> F  </i>
     <i name="WEIMIN">      0.00100000</i>
     <i name="EBREAK">      0.00000000</i>
     <i name="DEPER">      0.30000000</i>
     <i type="int" name="NRMM">     4</i>
     <i name="TIME">      0.40000000</i>
    </separator>
   </separator>
   <separator name="electronic mixer" >
    <i name="AMIX">      0.20000000</i>
    <i name="BMIX">      0.00010000</i>
    <i name="AMIN">      0.10000000</i>
    <i name="AMIX_MAG">      0.80000000</i>
    <i name="BMIX_MAG">      0.00010000</i>
    <separator name="electronic mixer details" >
     <i type="int" name="IMIX">     4</i>
     <i type="logical" name="MIXFIRST"> F  </i>
     <i type="int" name="MAXMIX">   -45</i>
     <i name="WC">    100.00000000</i>
     <i type="int" name="INIMIX">     1</i>
     <i type="int" name="MIXPRE">     1</i>
     <i type="int" name="MREMOVE">     5</i>
    </separator>
   </separator>
   <separator name="electronic dipolcorrection" >
    <i type="logical" name="LDIPOL"> F  </i>
    <i type="logical" name="LMONO"> F  </i>
    <i type="int" name="IDIPOL">     0</i>
    <i name="EPSILON">      1.00000000</i>
    <v name="DIPOL">   -100.00000000   -100.00000000   -100.00000000</v>
    <i name="EFIELD">      0.00000000</i>
   </separator>
  </separator>
  <separator name="grids" >
   <i type="int" name="NGX">    96</i>
   <i type="int" name="NGY">    96</i>
   <i type="int" name="NGZ">    84</i>
   <i type="int" name="NGXF">   192</i>
   <i type="int" name="NGYF">   192</i>
   <i type="int" name="NGZF">   168</i>
   <i type="logical" name="ADDGRID"> T  </i>
  </separator>
  <separator name="ionic" >
   <i type="int" name="NSW">  1000</i>
   <i type="int" name="IBRION">     3</i>
   <i type="int" name="MDALGO">     0</i>
   <i type="int" name="ISIF">     2</i>
   <i name="PSTRESS">      0.00000000</i>
   <i name="EDIFFG">     -0.03000000</i>
   <i type="int" name="NFREE">     0</i>
   <i name="POTIM">      0.00000000</i>
   <i name="SMASS">     -3.00000000</i>
   <i name="SCALEE">      1.00000000</i>
  </separator>
  <separator name="ionic md" >
   <i name="TEBEG">      0.00010000</i>
   <i name="TEEND">      0.00010000</i>
   <i type="int" name="NBLOCK">     1</i>
   <i type="int" name="KBLOCK">  1000</i>
   <i type="int" name="NPACO">   256</i>
   <i name="APACO">     10.00000000</i>
  </separator>
  <separator name="symmetry" >
   <i type="int" name="ISYM">     0</i>
   <i name="SYMPREC">      0.00001000</i>
  </separator>
  <separator name="dos" >
   <i type="int" name="LORBIT">     0</i>
   <v name="RWIGS">     -1.00000000     -1.00000000     -1.00000000     -1.00000000</v>
   <i type="int" name="NEDOS">   301</i>
   <i name="EMIN">     10.00000000</i>
   <i name="EMAX">    -10.00000000</i>
   <i name="EFERMI">      0.00000000</i>
  </separator>
  <separator name="writing" >
   <i type="int" name="NWRITE">     2</i>
   <i type="logical" name="LWAVE"> F  </i>
   <i type="logical" name="LDOWNSAMPLE"> F  </i>
   <i type="logical" name="LCHARG"> F  </i>
   <i type="logical" name="LPARD"> F  </i>
   <i type="logical" name="LVTOT"> F  </i>
   <i type="logical" name="LVHAR"> F  </i>
   <i type="logical" name="LELF"> F  </i>
   <i type="logical" name="LOPTICS"> F  </i>
   <v name="STM">      0.00000000      0.00000000      0.00000000      0.00000000      0.00000000      0.00000000      0.00000000</v>
  </separator>
  <separator name="performance" >
   <i type="int" name="NPAR">     5</i>
   <i type="int" name="NSIM">     4</i>
   <i type="int" name="NBLK">    -1</i>
   <i type="logical" name="LPLANE"> T  </i>
   <i type="logical" name="LSCALAPACK"> T  </i>
   <i type="logical" name="LSCAAWARE"> F  </i>
   <i type="logical" name="LSCALU"> F  </i>
   <i type="logical" name="LASYNC"> F  </i>
   <i type="logical" name="LORBITALREAL"> F  </i>
  </separator>
  <separator name="miscellaneous" >
   <i type="int" name="IDIOT">     3</i>
   <i type="int" name="PHON_NSTRUCT">    -1</i>
   <i type="logical" name="LMUSIC"> F  </i>
   <v name="POMASS">     12.01100000      1.00000000     14.00100000     16.00000000</v>
   <v name="DARWINR">      0.00000000      0.00000000      0.00000000      0.00000000</v>
   <v name="DARWINV">      1.00000000      1.00000000      1.00000000      1.00000000</v>
   <i type="logical" name="LCORR"> T  </i>
  </separator>
  <i type="logical" name="GGA_COMPAT"> T  </i>
  <i type="logical" name="LBERRY"> F  </i>
  <i type="int" name="ICORELEVEL">     0</i>
  <i type="logical" name="LDAU"> F  </i>
  <i type="int" name="I_CONSTRAINED_M">     0</i>
  <separator name="electronic exchange-correlation" >
   <i type="string" name="GGA">--</i>
   <i type="int" name="VOSKOWN">     0</i>
   <i type="logical" name="LHFCALC"> F  </i>
   <i type="string" name="PRECFOCK"></i>
   <i type="logical" name="LSYMGRAD"> F  </i>
   <i type="logical" name="LHFONE"> F  </i>
   <i type="logical" name="LRHFCALC"> F  </i>
   <i type="logical" name="LTHOMAS"> F  </i>
   <i type="logical" name="LMODELHF"> F  </i>
   <i type="logical" name="LFOCKACE"> F  </i>
   <i name="ENCUT4O">     -1.00000000</i>
   <i type="int" name="EXXOEP">     0</i>
   <i type="int" name="FOURORBIT">     0</i>
   <i name="AEXX">      0.00000000</i>
   <i name="HFALPHA">      0.00000000</i>
   <i name="MCALPHA">      0.00000000</i>
   <i name="ALDAX">      1.00000000</i>
   <i name="AGGAX">      1.00000000</i>
   <i name="ALDAC">      1.00000000</i>
   <i name="AGGAC">      1.00000000</i>
   <i type="int" name="NKREDX">     1</i>
   <i type="int" name="NKREDY">     1</i>
   <i type="int" name="NKREDZ">     1</i>
   <i type="logical" name="SHIFTRED"> F  </i>
   <i type="logical" name="ODDONLY"> F  </i>
   <i type="logical" name="EVENONLY"> F  </i>
   <i type="int" name="LMAXFOCK">     0</i>
   <i type="int" name="NMAXFOCKAE">     0</i>
   <i type="logical" name="LFOCKAEDFT"> F  </i>
   <i name="HFSCREEN">      0.00000000</i>
   <i name="HFSCREENC">      0.00000000</i>
   <i type="int" name="NBANDSGWLOW">     0</i>
  </separator>
  <separator name="vdW DFT" >
   <i type="logical" name="LUSE_VDW"> F  </i>
   <i type="int" name="IVDW_NL">     1</i>
   <i type="logical" name="LSPIN_VDW"> F  </i>
   <i name="Zab_VDW">     -0.84910000</i>
   <i name="PARAM1">      0.12340000</i>
   <i name="PARAM2">      1.00000000</i>
   <i name="PARAM3">      0.00000000</i>
  </separator>
  <separator name="model GW" >
   <i type="int" name="MODEL_GW">     0</i>
   <i name="MODEL_EPS0">     24.47295536</i>
   <i name="MODEL_ALPHA">      1.00000000</i>
  </separator>
  <separator name="linear response parameters" >
   <i type="logical" name="LEPSILON"> F  </i>
   <i type="logical" name="LRPA"> F  </i>
   <i type="logical" name="LNABLA"> F  </i>
   <i type="logical" name="LVEL"> F  </i>
   <i name="CSHIFT">      0.10000000</i>
   <i name="OMEGAMAX">     -1.00000000</i>
   <i name="DEG_THRESHOLD">      0.00200000</i>
   <i name="RTIME">     -0.10000000</i>
   <i name="WPLASMAI">      0.00000000</i>
   <v name="DFIELD">      0.00000000      0.00000000      0.00000000</v>
   <v name="WPLASMA">      0.00000000      0.00000000      0.00000000      0.00000000      0.00000000      0.00000000      0.00000000      0.00000000      0.00000000</v>
  </separator>
  <separator name="orbital magnetization" >
   <i type="logical" name="NUCIND"> F  </i>
   <v name="MAGPOS">      0.00000000      0.00000000      0.00000000</v>
   <i type="logical" name="LNICSALL"> T  </i>
   <i type="logical" name="ORBITALMAG"> F  </i>
   <i type="logical" name="LMAGBLOCH"> F  </i>
   <i type="logical" name="LCHIMAG"> F  </i>
   <i type="logical" name="LGAUGE"> T  </i>
   <i type="int" name="MAGATOM">     0</i>
   <v name="MAGDIPOL">      0.00000000      0.00000000      0.00000000</v>
   <v name="AVECCONST">      0.00000000      0.00000000      0.00000000</v>
  </separator>
  <separator name="response functions" >
   <i type="logical" name="LALL_IN_ONE"> F  </i>
   <i type="int" name="IALL_IN_ONE">    -1</i>
   <i type="int" name="NBANDS_WAVE">    -1</i>
   <i type="logical" name="LFINITE_TEMPERATURE"> F  </i>
   <i type="logical" name="LADDER"> F  </i>
   <i type="logical" name="LRPAFORCE"> F  </i>
   <i type="logical" name="LFXC"> F  </i>
   <i type="logical" name="LHARTREE"> T  </i>
   <i type="int" name="IBSE">     0</i>
   <v type="int" name="KPOINT">    -1     0     0     0</v>
   <i type="logical" name="LTCTC"> F  </i>
   <i type="logical" name="LTCTE"> F  </i>
   <i type="logical" name="LTETE"> F  </i>
   <i type="logical" name="LTRIPLET"> F  </i>
   <i type="logical" name="LFXCEPS"> F  </i>
   <i type="logical" name="LFXHEG"> F  </i>
   <i type="int" name="NATURALO">     2</i>
   <i type="logical" name="LHOLEGF"> F  </i>
   <i type="logical" name="L2ORDER"> F  </i>
   <i type="logical" name="LDMP1"> F  </i>
   <i type="logical" name="LMP2LT"> F  </i>
   <i type="logical" name="LSMP2LT"> F  </i>
   <i type="logical" name="LGWLF"> F  </i>
   <i name="ENCUTGW">     -1.60000002</i>
   <i name="ENCUTGWSOFT">     -1.60000002</i>
   <i name="ENCUTLF">     -1.00000000</i>
   <i type="logical" name="LESF_SPLINES"> F  </i>
   <i type="int" name="LMAXMP2">    -1</i>
   <i name="SCISSOR">      0.00000000</i>
   <i type="int" name="NOMEGA">     0</i>
   <i type="int" name="NOMEGAR">     0</i>
   <i type="int" name="NBANDSGW">    -1</i>
   <i type="int" name="NBANDSO">    -1</i>
   <i type="int" name="NBANDSV">    -1</i>
   <i type="int" name="NELMGW">     1</i>
   <i type="int" name="NELMHF">     1</i>
   <i type="int" name="DIM">     3</i>
   <i type="int" name="IESPILON">     4</i>
   <i type="int" name="ANTIRES">     0</i>
   <i name="OMEGAMAX">    -30.00000000</i>
   <i name="OMEGAMIN">    -30.00000000</i>
   <i name="OMEGATL">   -200.00000000</i>
   <i type="int" name="OMEGAGRID">     0</i>
   <i name="CSHIFT">     -0.10000000</i>
   <i type="logical" name="LSELFENERGY"> F  </i>
   <i type="logical" name="LSPECTRAL"> F  </i>
   <i type="logical" name="LSPECTRALGW"> F  </i>
   <i type="logical" name="LSINGLES"> F  </i>
   <i type="logical" name="LFERMIGW"> F  </i>
   <i type="logical" name="ODDONLYGW"> F  </i>
   <i type="logical" name="EVENONLYGW"> F  </i>
   <i type="int" name="NKREDLFX">     1</i>
   <i type="int" name="NKREDLFY">     1</i>
   <i type="int" name="NKREDLFZ">     1</i>
   <i type="int" name="MAXMEM">  2800</i>
   <i type="int" name="TELESCOPE">     0</i>
   <i type="int" name="NTAUPAR">    -1</i>
   <i type="int" name="NOMEGAPAR">    -1</i>
   <i name="DAMP_NEWTON">      0.80000001</i>
   <i name="LAMBDA">      1.00000000</i>
  </separator>
  <separator name="External order field" >
   <i name="OFIELD_KAPPA">      0.00000000</i>
   <v name="OFIELD_K">      0.00000000      0.00000000      0.00000000</v>
   <i name="OFIELD_Q6_NEAR">      0.00000000</i>
   <i name="OFIELD_Q6_FAR">      0.00000000</i>
   <i name="OFIELD_A">      0.00000000</i>
  </separator>
  <separator name="optional k-points parameters" >
   <i type="int" name="KPOINTS_OPT_MODE">     1</i>
   <i type="logical" name="LKPOINTS_OPT"> F  </i>
  </separator>
 </parameters>
 <atominfo>
  <atoms>      95 </atoms>
  <types>       4 </types>
  <array name="atoms" >
   <dimension dim="1">ion</dimension>
   <field type="string">element</field>
   <field type="int">atomtype</field>
   <set>
    <rc><c>C </c><c>   1</c></rc>
    <rc><c>C </c><c>   1</c></rc>
    <rc><c>C </c><c>   1</c></rc>
    <rc><c>C </c><c>   1</c></rc>
    <rc><c>C </c><c>   1</c></rc>
    <rc><c>C </c><c>   1</c></rc>
    <rc><c>C </c><c>   1</c></rc>
    <rc><c>C </c><c>   1</c></rc>
    <rc><c>C </c><c>   1</c></rc>
    <rc><c>C </c><c>   1</c></rc>
    <rc><c>C </c><c>   1</c></rc>
    <rc><c>C </c><c>   1</c></rc>
    <rc><c>C </c><c>   1</c></rc>
    <rc><c>C </c><c>   1</c></rc>
    <rc><c>C </c><c>   1</c></rc>
    <rc><c>C </c><c>   1</c></rc>
    <rc><c>C </c><c>   1</c></rc>
    <rc><c>C </c><c>   1</c></rc>
    <rc><c>C </c><c>   1</c></rc>
    <rc><c>C </c><c>   1</c></rc>
    <rc><c>C </c><c>   1</c></rc>
    <rc><c>C </c><c>   1</c></rc>
    <rc><c>C </c><c>   1</c></rc>
    <rc><c>C </c><c>   1</c></rc>
    <rc><c>C </c><c>   1</c></rc>
    <rc><c>C </c><c>   1</c></rc>
    <rc><c>C </c><c>   1</c></rc>
    <rc><c>C </c><c>   1</c></rc>
    <rc><c>C </c><c>   1</c></rc>
    <rc><c>C </c><c>   1</c></rc>
    <rc><c>C </c><c>   1</c></rc>
    <rc><c>C </c><c>   1</c></rc>
    <rc><c>C </c><c>   1</c></rc>
    <rc><c>C </c><c>   1</c></rc>
    <rc><c>C </c><c>   1</c></rc>
    <rc><c>C </c><c>   1</c></rc>
    <rc><c>C </c><c>   1</c></rc>
    <rc><c>C </c><c>   1</c></rc>
    <rc><c>C </c><c>   1</c></rc>
    <rc><c>C </c><c>   1</c></rc>
    <rc><c>C </c><c>   1</c></rc>
    <rc><c>C </c><c>   1</c></rc>
    <rc><c>C </c><c>   1</c></rc>
    <rc><c>C </c><c>   1</c></rc>
    <rc><c>C </c><c>   1</c></rc>
    <rc><c>C </c><c>   1</c></rc>
    <rc><c>C </c><c>   1</c></rc>
    <rc><c>C </c><c>   1</c></rc>
    <rc><c>C </c><c>   1</c></rc>
    <rc><c>C </c><c>   1</c></rc>
    <rc><c>C </c><c>   1</c></rc>
    <rc><c>C </c><c>   1</c></rc>
    <rc><c>C </c><c>   1</c></rc>
    <rc><c>C </c><c>   1</c></rc>
    <rc><c>C </c><c>   1</c></rc>
    <rc><c>C </c><c>   1</c></rc>
    <rc><c>C </c><c>   1</c></rc>
    <rc><c>C </c><c>   1</c></rc>
    <rc><c>C </c><c>   1</c></rc>
    <rc><c>C </c><c>   1</c></rc>
    <rc><c>C </c><c>   1</c></rc>
    <rc><c>C </c><c>   1</c></rc>
    <rc><c>C </c><c>   1</c></rc>
    <rc><c>C </c><c>   1</c></rc>
    <rc><c>C </c><c>   1</c></rc>
    <rc><c>C </c><c>   1</c></rc>
    <rc><c>C </c><c>   1</c></rc>
    <rc><c>C </c><c>   1</c></rc>
    <rc><c>C </c><c>   1</c></rc>
    <rc><c>C </c><c>   1</c></rc>
    <rc><c>C </c><c>   1</c></rc>
    <rc><c>C </c><c>   1</c></rc>
    <rc><c>C </c><c>   1</c></rc>
    <rc><c>C </c><c>   1</c></rc>
    <rc><c>C </c><c>   1</c></rc>
    <rc><c>C </c><c>   1</c></rc>
    <rc><c>C </c><c>   1</c></rc>
    <rc><c>C </c><c>   1</c></rc>
    <rc><c>C </c><c>   1</c></rc>
    <rc><c>C </c><c>   1</c></rc>
    <rc><c>C </c><c>   1</c></rc>
    <rc><c>C </c><c>   1</c></rc>
    <rc><c>C </c><c>   1</c></rc>
    <rc><c>C </c><c>   1</c></rc>
    <rc><c>H </c><c>   2</c></rc>
    <rc><c>H </c><c>   2</c></rc>
    <rc><c>H </c><c>   2</c></rc>
    <rc><c>H </c><c>   2</c></rc>
    <rc><c>H </c><c>   2</c></rc>
    <rc><c>H </c><c>   2</c></rc>
    <rc><c>N </c><c>   3</c></rc>
    <rc><c>N </c><c>   3</c></rc>
    <rc><c>N </c><c>   3</c></rc>
    <rc><c>N </c><c>   3</c></rc>
    <rc><c>O </c><c>   4</c></rc>
   </set>
  </array>
  <array name="atomtypes" >
   <dimension dim="1">type</dimension>
   <field type="int">atomspertype</field>
   <field type="string">element</field>
   <field>mass</field>
   <field>valence</field>
   <field type="string">pseudopotential</field>
   <set>
    <rc><c>  84</c><c>C </c><c>     12.01100000</c><c>      4.00000000</c><c>  PAW_PBE C 08Apr2002                   </c></rc>
    <rc><c>   6</c><c>H </c><c>      1.00000000</c><c>      1.00000000</c><c>  PAW_PBE H 15Jun2001                   </c></rc>
    <rc><c>   4</c><c>N </c><c>     14.00100000</c><c>      5.00000000</c><c>  PAW_PBE N 08Apr2002                   </c></rc>
    <rc><c>   1</c><c>O </c><c>     16.00000000</c><c>      6.00000000</c><c>  PAW_PBE O 08Apr2002                   </c></rc>
   </set>
  </array>
 </atominfo>
 <structure name="initialpos" >
  <crystal>
   <varray name="basis" >
    <v>      17.27103806       0.00000000       0.00000000 </v>
    <v>      -8.63551903      14.95715771       0.00000000 </v>
    <v>       0.00000000       0.00000000      15.00000000 </v>
   </varray>
   <i name="volume">   3874.88459904 </i>
   <varray name="rec_basis" >
    <v>       0.05790040       0.03342881       0.00000000 </v>
    <v>       0.00000000       0.06685762       0.00000000 </v>
    <v>       0.00000000       0.00000000       0.06666667 </v>
   </varray>
  </crystal>
  <varray name="positions" >
   <v>       0.99998624       0.99989432       0.50011482 </v>
   <v>       0.99924797       0.14213475       0.50008904 </v>
   <v>       0.99933037       0.28529569       0.50038726 </v>
   <v>       0.99973694       0.42839639       0.50083077 </v>
   <v>       0.99982269       0.57136499       0.50091980 </v>
   <v>       0.00036530       0.71438017       0.50074823 </v>
   <v>       0.00132001       0.85795230       0.50034709 </v>
   <v>       0.14401554       0.00166011       0.49988572 </v>
   <v>       0.14332467       0.14400195       0.50000233 </v>
   <v>       0.14175201       0.28550086       0.50038293 </v>
   <v>       0.14291112       0.42891893       0.50097199 </v>
   <v>       0.14319555       0.57140601       0.50092385 </v>
   <v>       0.14326311       0.71448349       0.50042963 </v>
   <v>       0.14364131       0.85806596       0.50004224 </v>
   <v>       0.28671481       0.00186278       0.49978738 </v>
   <v>       0.28723481       0.14596431       0.49998219 </v>
   <v>       0.28673911       0.29140115       0.50030177 </v>
   <v>       0.28512752       0.42641340       0.50095943 </v>
   <v>       0.28781368       0.57094638       0.50140670 </v>
   <v>       0.28615628       0.71484896       0.50052378 </v>
   <v>       0.28578708       0.85815738       0.49992440 </v>
   <v>       0.42904491       0.00076775       0.49995703 </v>
   <v>       0.43020334       0.14533868       0.50018737 </v>
   <v>       0.42943771       0.28674661       0.50033114 </v>
   <v>       0.42775799       0.85670941       0.50027660 </v>
   <v>       0.57094747       0.99904222       0.50028270 </v>
   <v>       0.57172654       0.14286364       0.50021770 </v>
   <v>       0.57557992       0.28960766       0.50086429 </v>
   <v>       0.56992574       0.85400627       0.50069739 </v>
   <v>       0.71298532       0.99731590       0.50042192 </v>
   <v>       0.71404822       0.14167606       0.50029807 </v>
   <v>       0.71466558       0.28528500       0.50054150 </v>
   <v>       0.71072643       0.42542468       0.50122115 </v>
   <v>       0.71565089       0.57364641       0.50085384 </v>
   <v>       0.71182830       0.85323525       0.50051413 </v>
   <v>       0.85613320       0.99836112       0.50030605 </v>
   <v>       0.85621150       0.14155438       0.50019139 </v>
   <v>       0.85679835       0.28503166       0.50045377 </v>
   <v>       0.85684826       0.42829990       0.50084302 </v>
   <v>       0.85616203       0.57092789       0.50122575 </v>
   <v>       0.85825386       0.71489247       0.50086679 </v>
   <v>       0.85734292       0.85594011       0.50049349 </v>
   <v>       0.04776430       0.09539370       0.50003127 </v>
   <v>       0.04639114       0.23733291       0.50022144 </v>
   <v>       0.04719700       0.38080522       0.50074738 </v>
   <v>       0.04772807       0.52381421       0.50090066 </v>
   <v>       0.04781841       0.66679975       0.50074279 </v>
   <v>       0.04829264       0.80990602       0.50037769 </v>
   <v>       0.04847573       0.95311973       0.50007675 </v>
   <v>       0.19163817       0.09694900       0.49990817 </v>
   <v>       0.19043202       0.23939431       0.50019849 </v>
   <v>       0.18936216       0.38037553       0.50082832 </v>
   <v>       0.19141304       0.52430973       0.50119881 </v>
   <v>       0.19077362       0.66690821       0.50057343 </v>
   <v>       0.19086637       0.81018539       0.50007316 </v>
   <v>       0.19148391       0.95367986       0.49984291 </v>
   <v>       0.33476033       0.09798085       0.49992648 </v>
   <v>       0.33596004       0.24212829       0.50014481 </v>
   <v>       0.33182757       0.52161830       0.50120645 </v>
   <v>       0.33695407       0.66982848       0.50119400 </v>
   <v>       0.33301616       0.80990544       0.50018064 </v>
   <v>       0.33363948       0.95350699       0.49981734 </v>
   <v>       0.47673976       0.09613962       0.50012430 </v>
   <v>       0.47779824       0.24123378       0.50055050 </v>
   <v>       0.47215928       0.80560690       0.50087731 </v>
   <v>       0.47597297       0.95230944       0.50012161 </v>
   <v>       0.61867802       0.09441835       0.50022859 </v>
   <v>       0.61994076       0.23848255       0.50044257 </v>
   <v>       0.61834450       0.80854710       0.50054303 </v>
   <v>       0.61755674       0.94991001       0.50049095 </v>
   <v>       0.76102213       0.09336565       0.50029258 </v>
   <v>       0.76189346       0.23702069       0.50040759 </v>
   <v>       0.76149231       0.38037551       0.50083367 </v>
   <v>       0.75970752       0.52431927       0.50128512 </v>
   <v>       0.76248258       0.66888139       0.50081185 </v>
   <v>       0.76102335       0.80397334       0.50054808 </v>
   <v>       0.76052071       0.94937463       0.50045521 </v>
   <v>       0.90371003       0.09363497       0.50015397 </v>
   <v>       0.90401421       0.23713414       0.50027510 </v>
   <v>       0.90430613       0.38067717       0.50068095 </v>
   <v>       0.90435002       0.52379855       0.50103361 </v>
   <v>       0.90465317       0.66631625       0.50101581 </v>
   <v>       0.90594096       0.80976884       0.50055436 </v>
   <v>       0.90442059       0.95130600       0.50029270 </v>
   <v>       0.46676686       0.35948611       0.50008589 </v>
   <v>       0.40458468       0.55781018       0.49921743 </v>
   <v>       0.64288761       0.53753558       0.49851781 </v>
   <v>       0.58111835       0.73581071       0.50020245 </v>
   <v>       0.56551016       0.59414945       0.46906587 </v>
   <v>       0.47901068       0.49867453       0.46832671 </v>
   <v>       0.42684510       0.71515683       0.50166174 </v>
   <v>       0.71616366       0.71417091       0.50061873 </v>
   <v>       0.33153489       0.38121132       0.50061606 </v>
   <v>       0.62083725       0.38003968       0.50157884 </v>
   <v>       0.52334109       0.54606356       0.43022414 </v>
  </varray>
  <varray name="selective"  type="logical" >
   <v type="logical" >  T  T  T </v>
   <v type="logical" >  T  T  T </v>
   <v type="logical" >  T  T  T </v>
   <v type="logical" >  T  T  T </v>
   <v type="logical" >  T  T  T </v>
   <v type="logical" >  T  T  T </v>
   <v type="logical" >  T  T  T </v>
   <v type="logical" >  T  T  T </v>
   <v type="logical" >  T  T  T </v>
   <v type="logical" >  T  T  T </v>
   <v type="logical" >  T  T  T </v>
   <v type="logical" >  T  T  T </v>
   <v type="logical" >  T  T  T </v>
   <v type="logical" >  T  T  T </v>
   <v type="logical" >  T  T  T </v>
   <v type="logical" >  T  T  T </v>
   <v type="logical" >  T  T  T </v>
   <v type="logical" >  T  T  T </v>
   <v type="logical" >  T  T  T </v>
   <v type="logical" >  T  T  T </v>
   <v type="logical" >  T  T  T </v>
   <v type="logical" >  T  T  T </v>
   <v type="logical" >  T  T  T </v>
   <v type="logical" >  T  T  T </v>
   <v type="logical" >  T  T  T </v>
   <v type="logical" >  T  T  T </v>
   <v type="logical" >  T  T  T </v>
   <v type="logical" >  T  T  T </v>
   <v type="logical" >  T  T  T </v>
   <v type="logical" >  T  T  T </v>
   <v type="logical" >  T  T  T </v>
   <v type="logical" >  T  T  T </v>
   <v type="logical" >  T  T  T </v>
   <v type="logical" >  T  T  T </v>
   <v type="logical" >  T  T  T </v>
   <v type="logical" >  T  T  T </v>
   <v type="logical" >  T  T  T </v>
   <v type="logical" >  T  T  T </v>
   <v type="logical" >  T  T  T </v>
   <v type="logical" >  T  T  T </v>
   <v type="logical" >  T  T  T </v>
   <v type="logical" >  T  T  T </v>
   <v type="logical" >  T  T  T </v>
   <v type="logical" >  T  T  T </v>
   <v type="logical" >  T  T  T </v>
   <v type="logical" >  T  T  T </v>
   <v type="logical" >  T  T  T </v>
   <v type="logical" >  T  T  T </v>
   <v type="logical" >  T  T  T </v>
   <v type="logical" >  T  T  T </v>
   <v type="logical" >  T  T  T </v>
   <v type="logical" >  T  T  T </v>
   <v type="logical" >  T  T  T </v>
   <v type="logical" >  T  T  T </v>
   <v type="logical" >  T  T  T </v>
   <v type="logical" >  T  T  T </v>
   <v type="logical" >  T  T  T </v>
   <v type="logical" >  T  T  T </v>
   <v type="logical" >  T  T  T </v>
   <v type="logical" >  T  T  T </v>
   <v type="logical" >  T  T  T </v>
   <v type="logical" >  T  T  T </v>
   <v type="logical" >  T  T  T </v>
   <v type="logical" >  T  T  T </v>
   <v type="logical" >  T  T  T </v>
   <v type="logical" >  T  T  T </v>
   <v type="logical" >  T  T  T </v>
   <v type="logical" >  T  T  T </v>
   <v type="logical" >  T  T  T </v>
   <v type="logical" >  T  T  T </v>
   <v type="logical" >  T  T  T </v>
   <v type="logical" >  T  T  T </v>
   <v type="logical" >  T  T  T </v>
   <v type="logical" >  T  T  T </v>
   <v type="logical" >  T  T  T </v>
   <v type="logical" >  T  T  T </v>
   <v type="logical" >  T  T  T </v>
   <v type="logical" >  T  T  T </v>
   <v type="logical" >  T  T  T </v>
   <v type="logical" >  T  T  T </v>
   <v type="logical" >  T  T  T </v>
   <v type="logical" >  T  T  T </v>
   <v type="logical" >  T  T  T </v>
   <v type="logical" >  T  T  T </v>
   <v type="logical" >  T  T  T </v>
   <v type="logical" >  T  T  T </v>
   <v type="logical" >  T  T  T </v>
   <v type="logical" >  T  T  T </v>
   <v type="logical" >  T  T  T </v>
   <v type="logical" >  T  T  T </v>
   <v type="logical" >  T  T  T </v>
   <v type="logical" >  T  T  T </v>
   <v type="logical" >  T  T  T </v>
   <v type="logical" >  T  T  T </v>
   <v type="logical" >  T  T  T </v>
  </varray>
  <nose>
   <v>      -3.00000000       0.00000000       0.00010000       0.00010000 </v>
  </nose>
 </structure>
 <calculation>
  <scstep>
   <time name="dav">   71.34   71.75</time>
   <time name="total">   76.52   77.00</time>
   <energy>
    <i name="alphaZ">    175.60570339 </i>
    <i name="ewald">  36481.18296335 </i>
    <i name="hartreedc"> -46891.70072105 </i>
    <i name="XCdc">   1231.14206297 </i>
    <i name="pawpsdc">  10290.17603344 </i>
    <i name="pawaedc"> -10344.35078173 </i>
    <i name="eentropy">     -0.04464052 </i>
    <i name="bandstr">  -1577.74317501 </i>
    <i name="atom">  13925.93113153 </i>
    <i name="e_fr_energy">   3290.19857637 </i>
    <i name="e_wo_entrp">   3290.24321689 </i>
    <i name="e_0_energy">   3290.22089663 </i>
   </energy>
  </scstep>
  <scstep>
   <time name="dav">   93.26   93.87</time>
   <time name="total">   93.26   93.89</time>
   <energy>
    <i name="e_fr_energy">   -232.88626475 </i>
    <i name="e_wo_entrp">   -232.88588461 </i>
    <i name="e_0_energy">   -232.88607468 </i>
   </energy>
  </scstep>
  <scstep>
   <time name="dav">   80.29   80.83</time>
   <time name="total">   80.29   80.84</time>
   <energy>
    <i name="e_fr_energy">   -852.91653855 </i>
    <i name="e_wo_entrp">   -852.91560012 </i>
    <i name="e_0_energy">   -852.91606933 </i>
   </energy>
  </scstep>
  <scstep>
   <time name="dav">   81.11   81.63</time>
   <time name="total">   81.11   81.64</time>
   <energy>
    <i name="e_fr_energy">   -875.15673220 </i>
    <i name="e_wo_entrp">   -875.15490127 </i>
    <i name="e_0_energy">   -875.15581673 </i>
   </energy>
  </scstep>
  <scstep>
   <time name="dav">   89.24   89.80</time>
   <time name="total">   94.89   95.51</time>
   <energy>
    <i name="e_fr_energy">   -875.80488052 </i>
    <i name="e_wo_entrp">   -875.80296524 </i>
    <i name="e_0_energy">   -875.80392288 </i>
   </energy>
  </scstep>
  <scstep>
   <time name="dav">   78.01   78.48</time>
   <time name="total">   88.86   89.48</time>
   <energy>
    <i name="e_fr_energy">   -859.36799600 </i>
    <i name="e_wo_entrp">   -859.36347133 </i>
    <i name="e_0_energy">   -859.36573367 </i>
   </energy>
  </scstep>
  <scstep>
   <time name="dav">   76.45   76.88</time>
   <time name="total">   87.49   88.06</time>
   <energy>
    <i name="e_fr_energy">   -838.30545757 </i>
    <i name="e_wo_entrp">   -838.30539806 </i>
    <i name="e_0_energy">   -838.30542781 </i>
   </energy>
  </scstep>
  <scstep>
   <time name="dav">   77.41   77.86</time>
   <time name="total">   88.31   88.86</time>
   <energy>
    <i name="e_fr_energy">   -833.61117088 </i>
    <i name="e_wo_entrp">   -833.61116901 </i>
    <i name="e_0_energy">   -833.61116995 </i>
   </energy>
  </scstep>
  <scstep>
   <time name="dav">   76.97   77.41</time>
   <time name="total">   87.50   88.03</time>
   <energy>
    <i name="e_fr_energy">   -833.52164319 </i>
    <i name="e_wo_entrp">   -833.52164195 </i>
    <i name="e_0_energy">   -833.52164257 </i>
   </energy>
  </scstep>
  <scstep>
   <time name="dav">   75.83   76.27</time>
   <time name="total">   86.19   86.73</time>
   <energy>
    <i name="e_fr_energy">   -833.42510984 </i>
    <i name="e_wo_entrp">   -833.42510848 </i>
    <i name="e_0_energy">   -833.42510916 </i>
   </energy>
  </scstep>
  <scstep>
   <time name="dav">   76.03   76.46</time>
   <time name="total">   86.05   86.57</time>
   <energy>
    <i name="e_fr_energy">   -833.41415899 </i>
    <i name="e_wo_entrp">   -833.41415780 </i>
    <i name="e_0_energy">   -833.41415840 </i>
   </energy>
  </scstep>
  <scstep>
   <time name="dav">   81.70   82.18</time>
   <time name="total">   91.36   91.93</time>
   <energy>
    <i name="e_fr_energy">   -833.41367497 </i>
    <i name="e_wo_entrp">   -833.41367382 </i>
    <i name="e_0_energy">   -833.41367440 </i>
   </energy>
  </scstep>
  <scstep>
   <time name="dav">   79.82   80.26</time>
   <time name="total">   90.03   90.58</time>
   <energy>
    <i name="e_fr_energy">   -833.41358283 </i>
    <i name="e_wo_entrp">   -833.41358166 </i>
    <i name="e_0_energy">   -833.41358225 </i>
   </energy>
  </scstep>
  <scstep>
   <time name="dav">   78.86   79.33</time>
   <time name="total">   88.99   89.54</time>
   <energy>
    <i name="e_fr_energy">   -833.41364802 </i>
    <i name="e_wo_entrp">   -833.41364685 </i>
    <i name="e_0_energy">   -833.41364744 </i>
   </energy>
  </scstep>
  <scstep>
   <time name="dav">   75.27   75.73</time>
   <time name="total">   85.66   86.22</time>
   <energy>
    <i name="e_fr_energy">   -833.41368231 </i>
    <i name="e_wo_entrp">   -833.41368115 </i>
    <i name="e_0_energy">   -833.41368173 </i>
   </energy>
  </scstep>
  <scstep>
   <time name="dav">   79.14   79.60</time>
   <time name="total">   90.15   90.71</time>
   <energy>
    <i name="e_fr_energy">   -833.41368406 </i>
    <i name="e_wo_entrp">   -833.41368289 </i>
    <i name="e_0_energy">   -833.41368348 </i>
   </energy>
  </scstep>
  <scstep>
   <time name="dav">   74.33   74.76</time>
   <time name="total">   79.76   80.26</time>
   <energy>
    <i name="alphaZ">    175.60570339 </i>
    <i name="ewald">  36481.18296335 </i>
    <i name="hartreedc"> -48347.47219665 </i>
    <i name="XCdc">   1280.07084306 </i>
    <i name="pawpsdc">  37175.11699168 </i>
    <i name="pawaedc"> -37240.15375035 </i>
    <i name="eentropy">     -0.00000117 </i>
    <i name="bandstr">  -4283.69536823 </i>
    <i name="atom">  13925.93113153 </i>
    <i name="e_fr_energy">   -833.41368340 </i>
    <i name="e_wo_entrp">   -833.41368223 </i>
    <i name="e_0_energy">   -833.41368281 </i>
   </energy>
  </scstep>
  <structure>
   <crystal>
    <varray name="basis" >
     <v>      17.27103806       0.00000000       0.00000000 </v>
     <v>      -8.63551903      14.95715771       0.00000000 </v>
     <v>       0.00000000       0.00000000      15.00000000 </v>
    </varray>
    <i name="volume">   3874.88459904 </i>
    <varray name="rec_basis" >
     <v>       0.05790040       0.03342881       0.00000000 </v>
     <v>       0.00000000       0.06685762       0.00000000 </v>
     <v>       0.00000000       0.00000000       0.06666667 </v>
    </varray>
   </crystal>
   <varray name="positions" >
    <v>       0.99998624       0.99989432       0.50011482 </v>
    <v>       0.99924797       0.14213475       0.50008904 </v>
    <v>       0.99933037       0.28529569       0.50038726 </v>
    <v>       0.99973694       0.42839639       0.50083077 </v>
    <v>       0.99982269       0.57136499       0.50091980 </v>
    <v>       0.00036530       0.71438017       0.50074823 </v>
    <v>       0.00132001       0.85795230       0.50034709 </v>
    <v>       0.14401554       0.00166011       0.49988572 </v>
    <v>       0.14332467       0.14400195       0.50000233 </v>
    <v>       0.14175201       0.28550086       0.50038293 </v>
    <v>       0.14291112       0.42891893       0.50097199 </v>
    <v>       0.14319555       0.57140601       0.50092385 </v>
    <v>       0.14326311       0.71448349       0.50042963 </v>
    <v>       0.14364131       0.85806596       0.50004224 </v>
    <v>       0.28671481       0.00186278       0.49978738 </v>
    <v>       0.28723481       0.14596431       0.49998219 </v>
    <v>       0.28673911       0.29140115       0.50030177 </v>
    <v>       0.28512752       0.42641340       0.50095943 </v>
    <v>       0.28781368       0.57094638       0.50140670 </v>
    <v>       0.28615628       0.71484896       0.50052378 </v>
    <v>       0.28578708       0.85815738       0.49992440 </v>
    <v>       0.42904491       0.00076775       0.49995703 </v>
    <v>       0.43020334       0.14533868       0.50018737 </v>
    <v>       0.42943771       0.28674661       0.50033114 </v>
    <v>       0.42775799       0.85670941       0.50027660 </v>
    <v>       0.57094747       0.99904222       0.50028270 </v>
    <v>       0.57172654       0.14286364       0.50021770 </v>
    <v>       0.57557992       0.28960766       0.50086429 </v>
    <v>       0.56992574       0.85400627       0.50069739 </v>
    <v>       0.71298532       0.99731590       0.50042192 </v>
    <v>       0.71404822       0.14167606       0.50029807 </v>
    <v>       0.71466558       0.28528500       0.50054150 </v>
    <v>       0.71072643       0.42542468       0.50122115 </v>
    <v>       0.71565089       0.57364641       0.50085384 </v>
    <v>       0.71182830       0.85323525       0.50051413 </v>
    <v>       0.85613320       0.99836112       0.50030605 </v>
    <v>       0.85621150       0.14155438       0.50019139 </v>
    <v>       0.85679835       0.28503166       0.50045377 </v>
    <v>       0.85684826       0.42829990       0.50084302 </v>
    <v>       0.85616203       0.57092789       0.50122575 </v>
    <v>       0.85825386       0.71489247       0.50086679 </v>
    <v>       0.85734292       0.85594011       0.50049349 </v>
    <v>       0.04776430       0.09539370       0.50003127 </v>
    <v>       0.04639114       0.23733291       0.50022144 </v>
    <v>       0.04719700       0.38080522       0.50074738 </v>
    <v>       0.04772807       0.52381421       0.50090066 </v>
    <v>       0.04781841       0.66679975       0.50074279 </v>
    <v>       0.04829264       0.80990602       0.50037769 </v>
    <v>       0.04847573       0.95311973       0.50007675 </v>
    <v>       0.19163817       0.09694900       0.49990817 </v>
    <v>       0.19043202       0.23939431       0.50019849 </v>
    <v>       0.18936216       0.38037553       0.50082832 </v>
    <v>       0.19141304       0.52430973       0.50119881 </v>
    <v>       0.19077362       0.66690821       0.50057343 </v>
    <v>       0.19086637       0.81018539       0.50007316 </v>
    <v>       0.19148391       0.95367986       0.49984291 </v>
    <v>       0.33476033       0.09798085       0.49992648 </v>
    <v>       0.33596004       0.24212829       0.50014481 </v>
    <v>       0.33182757       0.52161830       0.50120645 </v>
    <v>       0.33695407       0.66982848       0.50119400 </v>
    <v>       0.33301616       0.80990544       0.50018064 </v>
    <v>       0.33363948       0.95350699       0.49981734 </v>
    <v>       0.47673976       0.09613962       0.50012430 </v>
    <v>       0.47779824       0.24123378       0.50055050 </v>
    <v>       0.47215928       0.80560690       0.50087731 </v>
    <v>       0.47597297       0.95230944       0.50012161 </v>
    <v>       0.61867802       0.09441835       0.50022859 </v>
    <v>       0.61994076       0.23848255       0.50044257 </v>
    <v>       0.61834450       0.80854710       0.50054303 </v>
    <v>       0.61755674       0.94991001       0.50049095 </v>
    <v>       0.76102213       0.09336565       0.50029258 </v>
    <v>       0.76189346       0.23702069       0.50040759 </v>
    <v>       0.76149231       0.38037551       0.50083367 </v>
    <v>       0.75970752       0.52431927       0.50128512 </v>
    <v>       0.76248258       0.66888139       0.50081185 </v>
    <v>       0.76102335       0.80397334       0.50054808 </v>
    <v>       0.76052071       0.94937463       0.50045521 </v>
    <v>       0.90371003       0.09363497       0.50015397 </v>
    <v>       0.90401421       0.23713414       0.50027510 </v>
    <v>       0.90430613       0.38067717       0.50068095 </v>
    <v>       0.90435002       0.52379855       0.50103361 </v>
    <v>       0.90465317       0.66631625       0.50101581 </v>
    <v>       0.90594096       0.80976884       0.50055436 </v>
    <v>       0.90442059       0.95130600       0.50029270 </v>
    <v>       0.46676686       0.35948611       0.50008589 </v>
    <v>       0.40458468       0.55781018       0.49921743 </v>
    <v>       0.64288761       0.53753558       0.49851781 </v>
    <v>       0.58111835       0.73581071       0.50020245 </v>
    <v>       0.56551016       0.59414945       0.46906587 </v>
    <v>       0.47901068       0.49867453       0.46832671 </v>
    <v>       0.42684510       0.71515683       0.50166174 </v>
    <v>       0.71616366       0.71417091       0.50061873 </v>
    <v>       0.33153489       0.38121132       0.50061606 </v>
    <v>       0.62083725       0.38003968       0.50157884 </v>
    <v>       0.52334109       0.54606356       0.43022414 </v>
   </varray>
  </structure>
  <varray name="forces" >
   <v>       0.00081163       0.00044885       0.00078511 </v>
   <v>       0.00058911       0.00115641       0.00041309 </v>
   <v>       0.00066872       0.00078823       0.00145288 </v>
   <v>      -0.00063372       0.00083642       0.00161479 </v>
   <v>      -0.00041278       0.00042493       0.00224137 </v>
   <v>      -0.00044893       0.00001360       0.00153593 </v>
   <v>      -0.00044996       0.00141092       0.00141023 </v>
   <v>       0.00289551       0.00042942       0.00085351 </v>
   <v>       0.00219968       0.00136085      -0.00082340 </v>
   <v>       0.00168212       0.00165486       0.00005067 </v>
   <v>       0.00041619       0.00026147       0.00079981 </v>
   <v>       0.00000773       0.00037684       0.00103456 </v>
   <v>      -0.00041750       0.00020389       0.00173536 </v>
   <v>      -0.00027214       0.00035798       0.00165635 </v>
   <v>      -0.00012853       0.00020681       0.00092629 </v>
   <v>      -0.00116545       0.00041047      -0.00096995 </v>
   <v>       0.00019304       0.00068192      -0.00166626 </v>
   <v>       0.00024906       0.00010492      -0.00169621 </v>
   <v>       0.00139307       0.00082769       0.00016647 </v>
   <v>       0.00004108       0.00001657       0.00039194 </v>
   <v>      -0.00055721       0.00014168       0.00110216 </v>
   <v>      -0.00026406       0.00016670       0.00061724 </v>
   <v>      -0.00001952       0.00017080       0.00039763 </v>
   <v>       0.00016902      -0.00013898      -0.00097152 </v>
   <v>       0.00003924      -0.00018701      -0.00023580 </v>
   <v>       0.00060469       0.00016379       0.00111154 </v>
   <v>      -0.00028796       0.00075372       0.00150070 </v>
   <v>      -0.00003231       0.00048893       0.00044257 </v>
   <v>      -0.00015218       0.00017471      -0.00072510 </v>
   <v>      -0.00017515       0.00028072       0.00070457 </v>
   <v>      -0.00004487       0.00031029       0.00134893 </v>
   <v>      -0.00004059       0.00053053       0.00115611 </v>
   <v>      -0.00049066      -0.00016132       0.00003935 </v>
   <v>      -0.00075530       0.00053715      -0.00174955 </v>
   <v>      -0.00009135      -0.00003122      -0.00070997 </v>
   <v>       0.00010330       0.00013045       0.00042064 </v>
   <v>      -0.00024695       0.00030465       0.00075060 </v>
   <v>      -0.00023345       0.00033723       0.00123905 </v>
   <v>       0.00285339       0.00189750       0.00044199 </v>
   <v>      -0.00036967       0.00000966       0.00090564 </v>
   <v>      -0.00070453      -0.00031342       0.00062964 </v>
   <v>      -0.00012703      -0.00019027       0.00050207 </v>
   <v>      -0.00173508      -0.00139401      -0.00045066 </v>
   <v>      -0.00364709      -0.00306672       0.00071918 </v>
   <v>       0.00045752      -0.00004742       0.00042172 </v>
   <v>       0.00027376       0.00028726       0.00110428 </v>
   <v>      -0.00034417       0.00001162       0.00201511 </v>
   <v>      -0.00021926      -0.00036349       0.00133743 </v>
   <v>      -0.00090558      -0.00057445       0.00102423 </v>
   <v>      -0.00080727       0.00009115      -0.00027271 </v>
   <v>      -0.00146283      -0.00286899      -0.00011613 </v>
   <v>      -0.00193596      -0.00097846      -0.00054063 </v>
   <v>      -0.00019615      -0.00016127       0.00048007 </v>
   <v>      -0.00022116      -0.00020081       0.00128463 </v>
   <v>       0.00326510      -0.00286160       0.00155351 </v>
   <v>      -0.00063096       0.00026720       0.00131686 </v>
   <v>       0.00017520       0.00000340       0.00031793 </v>
   <v>       0.00006902      -0.00003065      -0.00051749 </v>
   <v>      -0.00076739      -0.00023788      -0.00227322 </v>
   <v>      -0.00028941       0.00021766      -0.00085835 </v>
   <v>      -0.00021399      -0.00002546       0.00042920 </v>
   <v>       0.00013113      -0.00004512       0.00088750 </v>
   <v>       0.00021465      -0.00015069       0.00090013 </v>
   <v>       0.00012483      -0.00013643       0.00040901 </v>
   <v>      -0.00022309       0.00017824      -0.00101174 </v>
   <v>      -0.00024553       0.00023070       0.00017857 </v>
   <v>      -0.00000034       0.00003864       0.00143013 </v>
   <v>       0.00124476      -0.00248216       0.00095781 </v>
   <v>      -0.00012181       0.00263357       0.00025368 </v>
   <v>      -0.00024626       0.00031768       0.00020042 </v>
   <v>       0.00005329       0.00016897       0.00103207 </v>
   <v>       0.00041422      -0.00020316       0.00101424 </v>
   <v>       0.00015233       0.00004141       0.00118099 </v>
   <v>       0.00245718      -0.00119693       0.00049246 </v>
   <v>       0.00010826       0.00026034      -0.00109856 </v>
   <v>      -0.00016158       0.00186109      -0.00001614 </v>
   <v>       0.00014775       0.00028258       0.00022044 </v>
   <v>      -0.00008842       0.00010581       0.00047838 </v>
   <v>       0.00033928      -0.00003082       0.00132332 </v>
   <v>       0.00014957      -0.00010311       0.00166848 </v>
   <v>       0.00017464      -0.00023338       0.00175887 </v>
   <v>      -0.00001512      -0.00018376       0.00117170 </v>
   <v>      -0.00025974       0.00007011       0.00087514 </v>
   <v>      -0.00122269       0.00001126       0.00109366 </v>
   <v>       0.00005346      -0.00000521      -0.00144080 </v>
   <v>       0.00004876      -0.00019748      -0.00280872 </v>
   <v>       0.00030344       0.00007484      -0.00265051 </v>
   <v>       0.00004947       0.00030533      -0.00121778 </v>
   <v>      -0.00114278      -0.00206850      -0.01271358 </v>
   <v>      -0.00160744      -0.00181181      -0.01288300 </v>
   <v>      -0.00075511       0.00053041      -0.00155348 </v>
   <v>       0.00024869      -0.00032215      -0.00199090 </v>
   <v>      -0.00041911      -0.00022717      -0.00290136 </v>
   <v>       0.00100115      -0.00027879      -0.00033905 </v>
   <v>       0.00183310      -0.00285072      -0.00270733 </v>
  </varray>
  <varray name="stress" >
   <v>      -2.84761087       0.02865263      -0.00375105 </v>
   <v>       0.02865294     -11.23117783       0.00800480 </v>
   <v>      -0.00375104       0.00800482      -0.26927175 </v>
  </varray>
  <energy>
   <i name="e_fr_energy">   -841.03869665 </i>
   <i name="e_wo_entrp">   -841.03869548 </i>
   <i name="e_0_energy">   -841.03869606 </i>
  </energy>
  <time name="totalsc"> 1774.53 1785.67</time>
 </calculation>
 <calculation>
  <scstep>
   <time name="dav">   72.56   72.97</time>
   <time name="total">   83.40   83.89</time>
   <energy>
    <i name="alphaZ">    175.60570339 </i>
    <i name="ewald">  36481.23138676 </i>
    <i name="hartreedc"> -48347.50724173 </i>
    <i name="XCdc">   1280.07143800 </i>
    <i name="pawpsdc">  37175.25526971 </i>
    <i name="pawaedc"> -37240.29183435 </i>
    <i name="eentropy">     -0.00000117 </i>
    <i name="bandstr">  -4283.70953529 </i>
    <i name="atom">  13925.93113153 </i>
    <i name="e_fr_energy">   -833.41368315 </i>
    <i name="e_wo_entrp">   -833.41368198 </i>
    <i name="e_0_energy">   -833.41368257 </i>
   </energy>
  </scstep>
  <scstep>
   <time name="dav">   59.52   59.86</time>
   <time name="total">   64.35   64.75</time>
   <energy>
    <i name="alphaZ">    175.60570339 </i>
    <i name="ewald">  36481.23138676 </i>
    <i name="hartreedc"> -48347.50508283 </i>
    <i name="XCdc">   1280.07148748 </i>
    <i name="pawpsdc">  37175.15373722 </i>
    <i name="pawaedc"> -37240.19033898 </i>
    <i name="eentropy">     -0.00000117 </i>
    <i name="bandstr">  -4283.71170666 </i>
    <i name="atom">  13925.93113153 </i>
    <i name="e_fr_energy">   -833.41368327 </i>
    <i name="e_wo_entrp">   -833.41368210 </i>
    <i name="e_0_energy">   -833.41368268 </i>
   </energy>
  </scstep>
  <structure>
   <crystal>
    <varray name="basis" >
     <v>      17.27103806       0.00000000       0.00000000 </v>
     <v>      -8.63551903      14.95715771       0.00000000 </v>
     <v>       0.00000000       0.00000000      15.00000000 </v>
    </varray>
    <i name="volume">   3874.88459904 </i>
    <varray name="rec_basis" >
     <v>       0.05790040       0.03342881       0.00000000 </v>
     <v>       0.00000000       0.06685762       0.00000000 </v>
     <v>       0.00000000       0.00000000       0.06666667 </v>
    </varray>
   </crystal>
   <varray name="positions" >
    <v>       0.99998692       0.99989469       0.50011558 </v>
    <v>       0.99924874       0.14213556       0.50008942 </v>
    <v>       0.99933105       0.28529626       0.50038819 </v>
    <v>       0.99973688       0.42839700       0.50083169 </v>
    <v>       0.99982264       0.57136533       0.50092117 </v>
    <v>       0.00036510       0.71438024       0.50074929 </v>
    <v>       0.00132028       0.85795330       0.50034824 </v>
    <v>       0.14401741       0.00166046       0.49988650 </v>
    <v>       0.14332644       0.14400292       0.50000200 </v>
    <v>       0.14175356       0.28550200       0.50038313 </v>
    <v>       0.14291145       0.42891914       0.50097248 </v>
    <v>       0.14319569       0.57140631       0.50092440 </v>
    <v>       0.14326298       0.71448368       0.50043070 </v>
    <v>       0.14364131       0.85806625       0.50004340 </v>
    <v>       0.28671485       0.00186297       0.49978809 </v>
    <v>       0.28723432       0.14596464       0.49998184 </v>
    <v>       0.28673949       0.29140166       0.50030112 </v>
    <v>       0.28512769       0.42641352       0.50095858 </v>
    <v>       0.28781474       0.57094698       0.50140670 </v>
    <v>       0.28615634       0.71484902       0.50052392 </v>
    <v>       0.28578685       0.85815753       0.49992511 </v>
    <v>       0.42904486       0.00076791       0.49995745 </v>
    <v>       0.43020343       0.14533884       0.50018771 </v>
    <v>       0.42943782       0.28674659       0.50033066 </v>
    <v>       0.42775799       0.85670932       0.50027639 </v>
    <v>       0.57094791       0.99904237       0.50028344 </v>
    <v>       0.57172667       0.14286419       0.50021867 </v>
    <v>       0.57558012       0.28960804       0.50086453 </v>
    <v>       0.56992575       0.85400643       0.50069694 </v>
    <v>       0.71298535       0.99731613       0.50042250 </v>
    <v>       0.71404833       0.14167632       0.50029894 </v>
    <v>       0.71466577       0.28528541       0.50054215 </v>
    <v>       0.71072614       0.42542463       0.50122109 </v>
    <v>       0.71565068       0.57364683       0.50085289 </v>
    <v>       0.71182830       0.85323529       0.50051403 </v>
    <v>       0.85613336       0.99836126       0.50030654 </v>
    <v>       0.85621149       0.14155463       0.50019193 </v>
    <v>       0.85679836       0.28503193       0.50045447 </v>
    <v>       0.85685059       0.42830122       0.50084317 </v>
    <v>       0.85616188       0.57092796       0.50122638 </v>
    <v>       0.85825341       0.71489233       0.50086752 </v>
    <v>       0.85734286       0.85594005       0.50049420 </v>
    <v>       0.04776287       0.09539282       0.50003114 </v>
    <v>       0.04638803       0.23733089       0.50022199 </v>
    <v>       0.04719726       0.38080523       0.50074756 </v>
    <v>       0.04772835       0.52381445       0.50090124 </v>
    <v>       0.04781826       0.66679982       0.50074405 </v>
    <v>       0.04829244       0.80990584       0.50037867 </v>
    <v>       0.04847507       0.95311940       0.50007765 </v>
    <v>       0.19163778       0.09694912       0.49990825 </v>
    <v>       0.19043025       0.23939244       0.50019867 </v>
    <v>       0.18936071       0.38037491       0.50082808 </v>
    <v>       0.19141288       0.52430966       0.50119904 </v>
    <v>       0.19077345       0.66690812       0.50057415 </v>
    <v>       0.19086735       0.81018353       0.50007417 </v>
    <v>       0.19148368       0.95368009       0.49984390 </v>
    <v>       0.33476048       0.09798091       0.49992685 </v>
    <v>       0.33596012       0.24212833       0.50014484 </v>
    <v>       0.33182702       0.52161819       0.50120493 </v>
    <v>       0.33695399       0.66982867       0.50119326 </v>
    <v>       0.33301606       0.80990547       0.50018086 </v>
    <v>       0.33363959       0.95350702       0.49981795 </v>
    <v>       0.47673987       0.09613957       0.50012491 </v>
    <v>       0.47779832       0.24123374       0.50055082 </v>
    <v>       0.47215924       0.80560705       0.50087655 </v>
    <v>       0.47597294       0.95230964       0.50012171 </v>
    <v>       0.61867807       0.09441841       0.50022952 </v>
    <v>       0.61994069       0.23848093       0.50044313 </v>
    <v>       0.61834537       0.80854891       0.50054336 </v>
    <v>       0.61755674       0.94991026       0.50049114 </v>
    <v>       0.76102225       0.09336580       0.50029331 </v>
    <v>       0.76189367       0.23702061       0.50040816 </v>
    <v>       0.76149245       0.38037559       0.50083431 </v>
    <v>       0.75970860       0.52431854       0.50128549 </v>
    <v>       0.76248280       0.66888163       0.50081161 </v>
    <v>       0.76102396       0.80397466       0.50054862 </v>
    <v>       0.76052094       0.94937487       0.50045560 </v>
    <v>       0.90371005       0.09363508       0.50015439 </v>
    <v>       0.90401442       0.23713416       0.50027593 </v>
    <v>       0.90430622       0.38067715       0.50068190 </v>
    <v>       0.90435009       0.52379845       0.50103468 </v>
    <v>       0.90465316       0.66631619       0.50101670 </v>
    <v>       0.90594090       0.80976896       0.50055528 </v>
    <v>       0.90441995       0.95130607       0.50029370 </v>
    <v>       0.46676702       0.35948618       0.50008493 </v>
    <v>       0.40458460       0.55781008       0.49921538 </v>
    <v>       0.64288785       0.53753576       0.49851611 </v>
    <v>       0.58111856       0.73581096       0.50020165 </v>
    <v>       0.56550702       0.59414675       0.46906650 </v>
    <v>       0.47900741       0.49867167       0.46832589 </v>
    <v>       0.42684486       0.71515722       0.50166055 </v>
    <v>       0.71616379       0.71417078       0.50061820 </v>
    <v>       0.33153456       0.38121122       0.50061478 </v>
    <v>       0.62083779       0.38003954       0.50157855 </v>
    <v>       0.52334102       0.54605980       0.43023124 </v>
   </varray>
  </structure>
  <varray name="forces" >
   <v>      -0.00022424      -0.00007083       0.00082282 </v>
   <v>      -0.00034760      -0.00028076       0.00044400 </v>
   <v>      -0.00018466       0.00004894       0.00144409 </v>
   <v>       0.00002477       0.00030787       0.00162096 </v>
   <v>      -0.00000028       0.00032469       0.00228906 </v>
   <v>      -0.00019566      -0.00005874       0.00165171 </v>
   <v>       0.00012635      -0.00118676       0.00041754 </v>
   <v>      -0.00208719      -0.00006069       0.00091708 </v>
   <v>       0.00005596      -0.00022150      -0.00073915 </v>
   <v>      -0.00050679      -0.00054960       0.00006861 </v>
   <v>      -0.00018906       0.00012998       0.00073214 </v>
   <v>       0.00013856       0.00014651       0.00108872 </v>
   <v>       0.00010504      -0.00055529       0.00184181 </v>
   <v>       0.00046729      -0.00049602       0.00175308 </v>
   <v>       0.00011257       0.00007484       0.00100198 </v>
   <v>       0.00086586      -0.00005584       0.00045675 </v>
   <v>      -0.00010345      -0.00009436      -0.00160978 </v>
   <v>      -0.00025455      -0.00003507      -0.00179140 </v>
   <v>       0.00046807       0.00047321       0.00000018 </v>
   <v>      -0.00037494       0.00009380       0.00041095 </v>
   <v>       0.00040315      -0.00023273       0.00117108 </v>
   <v>       0.00001563       0.00001153       0.00067662 </v>
   <v>       0.00017865       0.00003503       0.00048855 </v>
   <v>       0.00028118       0.00002526      -0.00092699 </v>
   <v>      -0.00026554       0.00023102      -0.00023431 </v>
   <v>      -0.00066284       0.00014936      -0.00039199 </v>
   <v>       0.00015819      -0.00005555       0.00154012 </v>
   <v>       0.00042932      -0.00028035       0.00045466 </v>
   <v>      -0.00019278       0.00061983      -0.00066650 </v>
   <v>       0.00000044       0.00015262       0.00074384 </v>
   <v>       0.00006555       0.00009342       0.00141652 </v>
   <v>       0.00025762       0.00001504       0.00121240 </v>
   <v>       0.00052833      -0.00005668       0.00013920 </v>
   <v>       0.00032030      -0.00025551      -0.00171868 </v>
   <v>       0.00011350       0.00069410      -0.00055313 </v>
   <v>      -0.00006064       0.00026182       0.00050949 </v>
   <v>       0.00008247       0.00021360       0.00085489 </v>
   <v>       0.00021596      -0.00002721       0.00134499 </v>
   <v>      -0.00178877      -0.00116548       0.00192205 </v>
   <v>       0.00016612      -0.00018865       0.00104419 </v>
   <v>       0.00006021       0.00012211       0.00068089 </v>
   <v>      -0.00000830       0.00036778       0.00064754 </v>
   <v>       0.00005244      -0.00007025      -0.00034425 </v>
   <v>       0.00258308       0.00227465       0.00078221 </v>
   <v>       0.00021524       0.00041962       0.00063772 </v>
   <v>      -0.00008861       0.00037694       0.00127829 </v>
   <v>      -0.00036628       0.00016354       0.00213482 </v>
   <v>       0.00003057       0.00021126       0.00148359 </v>
   <v>       0.00045611       0.00022287       0.00113399 </v>
   <v>       0.00020712       0.00021704      -0.00027732 </v>
   <v>      -0.00032419      -0.00074666      -0.00019641 </v>
   <v>       0.00107900       0.00069942       0.00023735 </v>
   <v>       0.00035988       0.00022814       0.00057502 </v>
   <v>      -0.00003980       0.00006770       0.00133645 </v>
   <v>      -0.00240069       0.00177565       0.00165629 </v>
   <v>       0.00020572      -0.00002774       0.00140422 </v>
   <v>      -0.00012446       0.00020506       0.00032125 </v>
   <v>       0.00001515       0.00015407      -0.00067282 </v>
   <v>       0.00032713       0.00010219      -0.00228069 </v>
   <v>      -0.00000868       0.00013488      -0.00077556 </v>
   <v>      -0.00001734       0.00009833       0.00045342 </v>
   <v>      -0.00022796       0.00013993       0.00096024 </v>
   <v>      -0.00004097       0.00018250       0.00097755 </v>
   <v>       0.00008450       0.00004556       0.00037601 </v>
   <v>      -0.00002198       0.00021131      -0.00101973 </v>
   <v>      -0.00001286      -0.00003482       0.00026768 </v>
   <v>       0.00005823       0.00021008       0.00153885 </v>
   <v>       0.00072555      -0.00088216       0.00106774 </v>
   <v>       0.00002480      -0.00122902      -0.00122567 </v>
   <v>      -0.00004214       0.00016430       0.00026860 </v>
   <v>       0.00001236       0.00024610       0.00110769 </v>
   <v>       0.00015902       0.00019590       0.00112812 </v>
   <v>       0.00024302      -0.00096976      -0.00017614 </v>
   <v>       0.00056430      -0.00031081       0.00039371 </v>
   <v>      -0.00027001      -0.00002652      -0.00109711 </v>
   <v>      -0.00012172       0.00036257      -0.00011083 </v>
   <v>      -0.00002651       0.00019557       0.00024908 </v>
   <v>      -0.00006724       0.00028953       0.00055474 </v>
   <v>       0.00011785       0.00033661       0.00140082 </v>
   <v>       0.00048033       0.00027259       0.00168160 </v>
   <v>       0.00039282       0.00036890       0.00177656 </v>
   <v>      -0.00219032      -0.00006061       0.00004565 </v>
   <v>      -0.00016074       0.00006751       0.00096935 </v>
   <v>       0.00091007       0.00049383      -0.00011164 </v>
   <v>       0.00010584       0.00006513      -0.00143660 </v>
   <v>      -0.00004019      -0.00024390      -0.00282736 </v>
   <v>       0.00009837      -0.00005049      -0.00267323 </v>
   <v>       0.00009340       0.00091348      -0.00115456 </v>
   <v>      -0.00035994      -0.00024003      -0.01061680 </v>
   <v>      -0.00229012      -0.00316981      -0.01105809 </v>
   <v>       0.00026885      -0.00003162      -0.00148561 </v>
   <v>      -0.00031045       0.00028641      -0.00195490 </v>
   <v>       0.00009561       0.00019389      -0.00290831 </v>
   <v>      -0.00035951       0.00007746      -0.00027167 </v>
   <v>       0.00175257      -0.00324108      -0.00669989 </v>
  </varray>
  <varray name="stress" >
   <v>      -2.85164280       0.02942532      -0.00340239 </v>
   <v>       0.02942562     -11.23259275       0.00779524 </v>
   <v>      -0.00340238       0.00779525      -0.26495246 </v>
  </varray>
  <energy>
   <i name="e_fr_energy">   -841.03869781 </i>
   <i name="e_wo_entrp">   -841.03869664 </i>
   <i name="e_0_energy">   -841.03869723 </i>
  </energy>
  <time name="totalsc">  349.07  351.16</time>
 </calculation>
 <calculation>
  <scstep>
   <time name="dav">   70.23   70.64</time>
   <time name="total">   81.02   81.52</time>
   <energy>
    <i name="alphaZ">    175.60570339 </i>
    <i name="ewald">  36481.29264028 </i>
    <i name="hartreedc"> -48347.55506960 </i>
    <i name="XCdc">   1280.07176623 </i>
    <i name="pawpsdc">  37175.03894558 </i>
    <i name="pawaedc"> -37240.07560319 </i>
    <i name="eentropy">     -0.00000117 </i>
    <i name="bandstr">  -4283.72319417 </i>
    <i name="atom">  13925.93113153 </i>
    <i name="e_fr_energy">   -833.41368112 </i>
    <i name="e_wo_entrp">   -833.41367995 </i>
    <i name="e_0_energy">   -833.41368053 </i>
   </energy>
  </scstep>
  <scstep>
   <time name="dav">   61.72   62.07</time>
   <time name="total">   66.63   67.05</time>
   <energy>
    <i name="alphaZ">    175.60570339 </i>
    <i name="ewald">  36481.29264028 </i>
    <i name="hartreedc"> -48347.55651153 </i>
    <i name="XCdc">   1280.07192712 </i>
    <i name="pawpsdc">  37174.97646987 </i>
    <i name="pawaedc"> -37240.01318193 </i>
    <i name="eentropy">     -0.00000117 </i>
    <i name="bandstr">  -4283.72185894 </i>
    <i name="atom">  13925.93113153 </i>
    <i name="e_fr_energy">   -833.41368137 </i>
    <i name="e_wo_entrp">   -833.41368020 </i>
    <i name="e_0_energy">   -833.41368079 </i>
   </energy>
  </scstep>
  <structure>
   <crystal>
    <varray name="basis" >
     <v>      17.27103806       0.00000000       0.00000000 </v>
     <v>      -8.63551903      14.95715771       0.00000000 </v>
     <v>       0.00000000       0.00000000      15.00000000 </v>
    </varray>
    <i name="volume">   3874.88459904 </i>
    <varray name="rec_basis" >
     <v>       0.05790040       0.03342881       0.00000000 </v>
     <v>       0.00000000       0.06685762       0.00000000 </v>
     <v>       0.00000000       0.00000000       0.06666667 </v>
    </varray>
   </crystal>
   <varray name="positions" >
    <v>       0.99998742       0.99989502       0.50011713 </v>
    <v>       0.99924913       0.14213614       0.50009019 </v>
    <v>       0.99933158       0.28529685       0.50039008 </v>
    <v>       0.99973698       0.42839783       0.50083355 </v>
    <v>       0.99982275       0.57136594       0.50092396 </v>
    <v>       0.00036483       0.71438033       0.50075149 </v>
    <v>       0.00132022       0.85795338       0.50034982 </v>
    <v>       0.14401778       0.00166079       0.49988810 </v>
    <v>       0.14332804       0.14400367       0.50000139 </v>
    <v>       0.14175444       0.28550266       0.50038353 </v>
    <v>       0.14291168       0.42891947       0.50097341 </v>
    <v>       0.14319599       0.57140675       0.50092556 </v>
    <v>       0.14326277       0.71448349       0.50043294 </v>
    <v>       0.14364149       0.85806621       0.50004581 </v>
    <v>       0.28671503       0.00186325       0.49978958 </v>
    <v>       0.28723448       0.14596497       0.49998218 </v>
[...]
       <r>   -13.6263    12.9345    61.9375 </r>
       <r>   -13.5272     8.3060    62.7608 </r>
       <r>   -13.4281     6.6153    63.4165 </r>
       <r>   -13.3290     4.7909    63.8914 </r>
       <r>   -13.2298     5.7185    64.4582 </r>
       <r>   -13.1307     1.1361    64.5708 </r>
       <r>   -13.0316     6.1366    65.1791 </r>
       <r>   -12.9325     5.7113    65.7452 </r>
       <r>   -12.8334     8.2098    66.5589 </r>
       <r>   -12.7342     7.0550    67.2582 </r>
       <r>   -12.6351    17.5767    69.0005 </r>
       <r>   -12.5360    11.5120    70.1415 </r>
       <r>   -12.4369     9.8709    71.1200 </r>
       <r>   -12.3378     6.2368    71.7382 </r>
       <r>   -12.2386     4.4471    72.1790 </r>
       <r>   -12.1395     4.0351    72.5789 </r>
       <r>   -12.0404     7.5263    73.3249 </r>
       <r>   -11.9413     5.6789    73.8878 </r>
       <r>   -11.8422     7.5476    74.6360 </r>
       <r>   -11.7430     9.0501    75.5330 </r>
       <r>   -11.6439    11.2217    76.6453 </r>
       <r>   -11.5448     9.3610    77.5732 </r>
       <r>   -11.4457    15.1437    79.0743 </r>
       <r>   -11.3465     9.8919    80.0548 </r>
       <r>   -11.2474     8.6647    80.9136 </r>
       <r>   -11.1483    10.0971    81.9144 </r>
       <r>   -11.0492    12.2650    83.1302 </r>
       <r>   -10.9501     7.9240    83.9156 </r>
       <r>   -10.8509     7.6468    84.6736 </r>
       <r>   -10.7518     9.2754    85.5929 </r>
       <r>   -10.6527    10.1011    86.5942 </r>
       <r>   -10.5536     4.8003    87.0700 </r>
       <r>   -10.4545     8.3040    87.8931 </r>
       <r>   -10.3553    12.1777    89.1001 </r>
       <r>   -10.2562    15.3577    90.6224 </r>
       <r>   -10.1571    14.6400    92.0736 </r>
       <r>   -10.0580    20.1625    94.0721 </r>
       <r>    -9.9589    16.4648    95.7041 </r>
       <r>    -9.8597    16.3124    97.3210 </r>
       <r>    -9.7606    12.9998    98.6095 </r>
       <r>    -9.6615    18.3845   100.4318 </r>
       <r>    -9.5624    18.6840   102.2838 </r>
       <r>    -9.4632    18.2892   104.0966 </r>
       <r>    -9.3641    14.9909   105.5826 </r>
       <r>    -9.2650    15.3523   107.1043 </r>
       <r>    -9.1659    23.1996   109.4039 </r>
       <r>    -9.0668    27.4583   112.1256 </r>
       <r>    -8.9676    25.6956   114.6725 </r>
       <r>    -8.8685    23.3781   116.9898 </r>
       <r>    -8.7694    16.7145   118.6466 </r>
       <r>    -8.6703    15.5809   120.1909 </r>
       <r>    -8.5712    16.4307   121.8196 </r>
       <r>    -8.4720    15.7293   123.3787 </r>
       <r>    -8.3729    18.1305   125.1758 </r>
       <r>    -8.2738    25.8008   127.7332 </r>
       <r>    -8.1747    18.1617   129.5334 </r>
       <r>    -8.0756    15.6069   131.0804 </r>
       <r>    -7.9764    16.1830   132.6845 </r>
       <r>    -7.8773    18.5831   134.5264 </r>
       <r>    -7.7782     5.2602   135.0478 </r>
       <r>    -7.6791     9.9901   136.0381 </r>
       <r>    -7.5799    12.9155   137.3183 </r>
       <r>    -7.4808    19.7329   139.2742 </r>
       <r>    -7.3817    20.7281   141.3288 </r>
       <r>    -7.2826    18.6253   143.1749 </r>
       <r>    -7.1835    13.4292   144.5061 </r>
       <r>    -7.0843    13.5358   145.8477 </r>
       <r>    -6.9852    15.0639   147.3409 </r>
       <r>    -6.8861    10.2015   148.3521 </r>
       <r>    -6.7870     8.7318   149.2176 </r>
       <r>    -6.6879    12.6196   150.4684 </r>
       <r>    -6.5887    17.2348   152.1768 </r>
       <r>    -6.4896    12.7172   153.4373 </r>
       <r>    -6.3905    15.7590   154.9994 </r>
       <r>    -6.2914    22.5372   157.2333 </r>
       <r>    -6.1923    15.7298   158.7924 </r>
       <r>    -6.0931     6.5148   159.4382 </r>
       <r>    -5.9940    11.5923   160.5872 </r>
       <r>    -5.8949    13.2032   161.8959 </r>
       <r>    -5.7958     9.5830   162.8458 </r>
       <r>    -5.6967     3.9023   163.2326 </r>
       <r>    -5.5975     4.9580   163.7240 </r>
       <r>    -5.4984     2.0259   163.9249 </r>
       <r>    -5.3993     4.4632   164.3672 </r>
       <r>    -5.3002     7.7874   165.1391 </r>
       <r>    -5.2010    20.7268   167.1936 </r>
       <r>    -5.1019    14.3053   168.6116 </r>
       <r>    -5.0028    19.1829   170.5130 </r>
       <r>    -4.9037    13.7640   171.8773 </r>
       <r>    -4.8046     8.7799   172.7476 </r>
       <r>    -4.7054    10.7810   173.8162 </r>
       <r>    -4.6063    10.8784   174.8945 </r>
       <r>    -4.5072    25.2025   177.3926 </r>
       <r>    -4.4081    12.6409   178.6455 </r>
       <r>    -4.3090     5.6567   179.2062 </r>
       <r>    -4.2098    11.3686   180.3331 </r>
       <r>    -4.1107     7.9681   181.1229 </r>
       <r>    -4.0116     8.3226   181.9479 </r>
       <r>    -3.9125     0.5273   182.0001 </r>
       <r>    -3.8134     0.8007   182.0795 </r>
       <r>    -3.7142     1.7519   182.2531 </r>
       <r>    -3.6151     4.0042   182.6500 </r>
       <r>    -3.5160     3.6172   183.0086 </r>
       <r>    -3.4169     2.1245   183.2192 </r>
       <r>    -3.3177     0.5555   183.2742 </r>
       <r>    -3.2186     2.1107   183.4834 </r>
       <r>    -3.1195     0.1678   183.5001 </r>
       <r>    -3.0204     0.6735   183.5668 </r>
       <r>    -2.9213     2.5203   183.8166 </r>
       <r>    -2.8221     1.8168   183.9967 </r>
       <r>    -2.7230     0.0333   184.0000 </r>
       <r>    -2.6239     0.5245   184.0520 </r>
       <r>    -2.5248     3.5628   184.4052 </r>
       <r>    -2.4257     0.9548   184.4998 </r>
       <r>    -2.3265     0.0019   184.5000 </r>
       <r>    -2.2274     0.0236   184.5023 </r>
       <r>    -2.1283     2.8896   184.7888 </r>
       <r>    -2.0292     2.1474   185.0016 </r>
       <r>    -1.9301     2.7481   185.2740 </r>
       <r>    -1.8309     4.2443   185.6947 </r>
       <r>    -1.7318     2.8389   185.9761 </r>
       <r>    -1.6327     0.2726   186.0031 </r>
       <r>    -1.5336     4.1489   186.4144 </r>
       <r>    -1.4344     8.5527   187.2621 </r>
       <r>    -1.3353     2.3402   187.4941 </r>
       <r>    -1.2362     0.2209   187.5160 </r>
       <r>    -1.1371     5.7630   188.0872 </r>
       <r>    -1.0380    16.3227   189.7051 </r>
       <r>    -0.9388    11.8897   190.8837 </r>
       <r>    -0.8397     5.2266   191.4017 </r>
       <r>    -0.7406    10.4726   192.4398 </r>
       <r>    -0.6415    11.1047   193.5405 </r>
       <r>    -0.5424     5.3159   194.0674 </r>
       <r>    -0.4432     3.4335   194.4077 </r>
       <r>    -0.3441     8.5921   195.2594 </r>
       <r>    -0.2450     9.4238   196.1935 </r>
       <r>    -0.1459    10.7173   197.2558 </r>
       <r>    -0.0468    10.1985   198.2667 </r>
       <r>     0.0524    11.5401   199.4106 </r>
       <r>     0.1515     4.6073   199.8672 </r>
       <r>     0.2506     1.3490   200.0009 </r>
       <r>     0.3497     1.8360   200.1829 </r>
       <r>     0.4488     7.9833   200.9743 </r>
       <r>     0.5480     8.8002   201.8465 </r>
       <r>     0.6471     6.3446   202.4754 </r>
       <r>     0.7462     4.9291   202.9640 </r>
       <r>     0.8453     5.4297   203.5022 </r>
       <r>     0.9445     8.4532   204.3401 </r>
       <r>     1.0436    12.0090   205.5304 </r>
       <r>     1.1427     3.2038   205.8480 </r>
       <r>     1.2418     8.9322   206.7333 </r>
       <r>     1.3409    17.9023   208.5078 </r>
       <r>     1.4401    21.6788   210.6567 </r>
       <r>     1.5392     7.9288   211.4426 </r>
       <r>     1.6383     8.0469   212.2402 </r>
       <r>     1.7374     6.9445   212.9285 </r>
       <r>     1.8365     9.7139   213.8914 </r>
       <r>     1.9357    17.8620   215.6619 </r>
       <r>     2.0348    29.0515   218.5415 </r>
       <r>     2.1339     9.5144   219.4846 </r>
       <r>     2.2330    13.3935   220.8121 </r>
       <r>     2.3321    19.2356   222.7188 </r>
       <r>     2.4313    24.0741   225.1050 </r>
       <r>     2.5304    12.4164   226.3358 </r>
       <r>     2.6295     8.7222   227.2003 </r>
       <r>     2.7286    15.2226   228.7092 </r>
       <r>     2.8278    25.8245   231.2689 </r>
       <r>     2.9269    56.1667   236.8362 </r>
       <r>     3.0260    23.8210   239.1974 </r>
       <r>     3.1251     9.6470   240.1536 </r>
       <r>     3.2242    12.5226   241.3949 </r>
       <r>     3.3234    15.4883   242.9301 </r>
       <r>     3.4225    22.9835   245.2082 </r>
       <r>     3.5216    23.3560   247.5233 </r>
       <r>     3.6207     8.9106   248.4065 </r>
       <r>     3.7198    17.7229   250.1633 </r>
       <r>     3.8190    28.9938   253.0371 </r>
       <r>     3.9181    28.6221   255.8742 </r>
       <r>     4.0172    18.0976   257.6681 </r>
       <r>     4.1163    17.1869   259.3716 </r>
       <r>     4.2154    14.2599   260.7851 </r>
       <r>     4.3146    32.9554   264.0517 </r>
       <r>     4.4137     9.4427   264.9876 </r>
       <r>     4.5128     0.1248   265.0000 </r>
       <r>     4.6119     0.0000   265.0000 </r>
       <r>     4.7110     0.0000   265.0000 </r>
       <r>     4.8102     0.0000   265.0000 </r>
       <r>     4.9093     0.0000   265.0000 </r>
       <r>     5.0084     0.0000   265.0000 </r>
       <r>     5.1075     0.0000   265.0000 </r>
       <r>     5.2067     0.0000   265.0000 </r>
       <r>     5.3058     0.0000   265.0000 </r>
       <r>     5.4049     0.0000   265.0000 </r>
       <r>     5.5040     0.0000   265.0000 </r>
       <r>     5.6031     0.0000   265.0000 </r>
       <r>     5.7023     0.0000   265.0000 </r>
      </set>
     </set>
    </array>
   </total>
  </dos>
 </calculation>
 <structure name="finalpos" >
  <crystal>
   <varray name="basis" >
    <v>      17.27103806       0.00000000       0.00000000 </v>
    <v>      -8.63551903      14.95715771       0.00000000 </v>
    <v>       0.00000000       0.00000000      15.00000000 </v>
   </varray>
   <i name="volume">   3874.88459904 </i>
   <varray name="rec_basis" >
    <v>       0.05790040       0.03342881       0.00000000 </v>
    <v>       0.00000000       0.06685762       0.00000000 </v>
    <v>       0.00000000       0.00000000       0.06666667 </v>
   </varray>
  </crystal>
  <varray name="positions" >
   <v>       1.00003894       0.99994478       0.50061791 </v>
   <v>       0.99928859       0.14217673       0.50030273 </v>
   <v>       0.99935775       0.28533592       0.50062853 </v>
   <v>       0.99975252       0.42842496       0.50109723 </v>
   <v>       0.99982465       0.57139110       0.50125332 </v>
   <v>       0.00038043       0.71440929       0.50120385 </v>
   <v>       0.00135025       0.85799781       0.50090493 </v>
   <v>       0.14404864       0.00169208       0.50039283 </v>
   <v>       0.14337284       0.14404384       0.50016815 </v>
   <v>       0.14177343       0.28553426       0.50030414 </v>
   <v>       0.14292224       0.42895027       0.50089748 </v>
   <v>       0.14320562       0.57143727       0.50103093 </v>
   <v>       0.14327459       0.71450562       0.50076714 </v>
   <v>       0.14363691       0.85807880       0.50056440 </v>
   <v>       0.28673011       0.00187539       0.50035636 </v>
   <v>       0.28727137       0.14599360       0.50013187 </v>
   <v>       0.28677128       0.29143251       0.49980210 </v>
   <v>       0.28512879       0.42643288       0.50018675 </v>
   <v>       0.28782191       0.57097755       0.50086044 </v>
   <v>       0.28617748       0.71488323       0.50050315 </v>
   <v>       0.28579772       0.85817640       0.50042991 </v>
   <v>       0.42905679       0.00079078       0.50054280 </v>
   <v>       0.43020998       0.14535239       0.50048485 </v>
   <v>       0.42947222       0.28678760       0.50005374 </v>
   <v>       0.42778234       0.85674392       0.50039808 </v>
   <v>       0.57098083       0.99908945       0.50067917 </v>
   <v>       0.57173300       0.14289126       0.50073616 </v>
   <v>       0.57559131       0.28963632       0.50099321 </v>
   <v>       0.56995250       0.85405371       0.50046860 </v>
   <v>       0.71301735       0.99736453       0.50063376 </v>
   <v>       0.71407353       0.14171847       0.50085973 </v>
   <v>       0.71466932       0.28531506       0.50103242 </v>
   <v>       0.71072829       0.42545335       0.50132285 </v>
   <v>       0.71564030       0.57367892       0.50052578 </v>
   <v>       0.71188410       0.85330245       0.50033518 </v>
   <v>       0.85618745       0.99842051       0.50053263 </v>
   <v>       0.85625456       0.14161223       0.50051820 </v>
   <v>       0.85681212       0.28507722       0.50090470 </v>
   <v>       0.85685658       0.42832611       0.50121674 </v>
   <v>       0.85616721       0.57095768       0.50150939 </v>
   <v>       0.85826837       0.71493712       0.50110656 </v>
   <v>       0.85739878       0.85600429       0.50075620 </v>
   <v>       0.04780633       0.09543551       0.50033458 </v>
   <v>       0.04641356       0.23736493       0.50037228 </v>
   <v>       0.04721172       0.38083799       0.50090434 </v>
   <v>       0.04773522       0.52384124       0.50115021 </v>
   <v>       0.04782560       0.66682279       0.50112793 </v>
   <v>       0.04829587       0.80993110       0.50091042 </v>
   <v>       0.04851708       0.95315990       0.50063442 </v>
   <v>       0.19167641       0.09698212       0.50019288 </v>
   <v>       0.19046278       0.23943156       0.50008292 </v>
   <v>       0.18937017       0.38040385       0.50053316 </v>
   <v>       0.19142316       0.52434158       0.50104503 </v>
   <v>       0.19079174       0.66693662       0.50072185 </v>
   <v>       0.19087442       0.81019692       0.50054713 </v>
   <v>       0.19150124       0.95369579       0.50037738 </v>
   <v>       0.33477655       0.09799290       0.50030880 </v>
   <v>       0.33599526       0.24216585       0.49991640 </v>
   <v>       0.33181760       0.52163138       0.50021515 </v>
   <v>       0.33697924       0.66986081       0.50075615 </v>
   <v>       0.33303456       0.80993869       0.50038635 </v>
   <v>       0.33365780       0.95352392       0.50044782 </v>
   <v>       0.47674320       0.09616903       0.50060927 </v>
   <v>       0.47781177       0.24125462       0.50057650 </v>
   <v>       0.47218158       0.80564085       0.50059713 </v>
   <v>       0.47600309       0.95234863       0.50053989 </v>
   <v>       0.61870061       0.09445878       0.50077991 </v>
   <v>       0.61994162       0.23850695       0.50088564 </v>
   <v>       0.61839454       0.80862502       0.50016296 </v>
   <v>       0.61758778       0.94995974       0.50061952 </v>
   <v>       0.76105623       0.09342104       0.50072221 </v>
   <v>       0.76190809       0.23706402       0.50095692 </v>
   <v>       0.76149010       0.38039781       0.50117634 </v>
   <v>       0.75971025       0.52435112       0.50130869 </v>
   <v>       0.76249735       0.66892652       0.50063712 </v>
   <v>       0.76107935       0.80404087       0.50040732 </v>
   <v>       0.76057140       0.94943789       0.50054169 </v>
   <v>       0.90375068       0.09368740       0.50039133 </v>
   <v>       0.90405027       0.23718912       0.50064087 </v>
   <v>       0.90432424       0.38071415       0.50107933 </v>
   <v>       0.90435443       0.52382409       0.50139254 </v>
   <v>       0.90466114       0.66634945       0.50135258 </v>
   <v>       0.90597473       0.80981829       0.50097220 </v>
   <v>       0.90447734       0.95136772       0.50065130 </v>
   <v>       0.46683297       0.35952729       0.49954240 </v>
   <v>       0.40456287       0.55782634       0.49790190 </v>
   <v>       0.64288405       0.53759402       0.49776772 </v>
   <v>       0.58120969       0.73588998       0.49963746 </v>
   <v>       0.56442395       0.59322029       0.46712734 </v>
   <v>       0.47796187       0.49773904       0.46589470 </v>
   <v>       0.42687183       0.71518343       0.50106144 </v>
   <v>       0.71620372       0.71424169       0.50019964 </v>
   <v>       0.33155601       0.38125004       0.49966557 </v>
   <v>       0.62084197       0.38006647       0.50155337 </v>
   <v>       0.52343853       0.54457351       0.42816211 </v>
  </varray>
  <varray name="selective"  type="logical" >
   <v type="logical" >  T  T  T </v>
   <v type="logical" >  T  T  T </v>
   <v type="logical" >  T  T  T </v>
   <v type="logical" >  T  T  T </v>
   <v type="logical" >  T  T  T </v>
   <v type="logical" >  T  T  T </v>
   <v type="logical" >  T  T  T </v>
   <v type="logical" >  T  T  T </v>
   <v type="logical" >  T  T  T </v>
   <v type="logical" >  T  T  T </v>
   <v type="logical" >  T  T  T </v>
   <v type="logical" >  T  T  T </v>
   <v type="logical" >  T  T  T </v>
   <v type="logical" >  T  T  T </v>
   <v type="logical" >  T  T  T </v>
   <v type="logical" >  T  T  T </v>
   <v type="logical" >  T  T  T </v>
   <v type="logical" >  T  T  T </v>
   <v type="logical" >  T  T  T </v>
   <v type="logical" >  T  T  T </v>
   <v type="logical" >  T  T  T </v>
   <v type="logical" >  T  T  T </v>
   <v type="logical" >  T  T  T </v>
   <v type="logical" >  T  T  T </v>
   <v type="logical" >  T  T  T </v>
   <v type="logical" >  T  T  T </v>
   <v type="logical" >  T  T  T </v>
   <v type="logical" >  T  T  T </v>
   <v type="logical" >  T  T  T </v>
   <v type="logical" >  T  T  T </v>
   <v type="logical" >  T  T  T </v>
   <v type="logical" >  T  T  T </v>
   <v type="logical" >  T  T  T </v>
   <v type="logical" >  T  T  T </v>
   <v type="logical" >  T  T  T </v>
   <v type="logical" >  T  T  T </v>
   <v type="logical" >  T  T  T </v>
   <v type="logical" >  T  T  T </v>
   <v type="logical" >  T  T  T </v>
   <v type="logical" >  T  T  T </v>
   <v type="logical" >  T  T  T </v>
   <v type="logical" >  T  T  T </v>
   <v type="logical" >  T  T  T </v>
   <v type="logical" >  T  T  T </v>
   <v type="logical" >  T  T  T </v>
   <v type="logical" >  T  T  T </v>
   <v type="logical" >  T  T  T </v>
   <v type="logical" >  T  T  T </v>
   <v type="logical" >  T  T  T </v>
   <v type="logical" >  T  T  T </v>
   <v type="logical" >  T  T  T </v>
   <v type="logical" >  T  T  T </v>
   <v type="logical" >  T  T  T </v>
   <v type="logical" >  T  T  T </v>
   <v type="logical" >  T  T  T </v>
   <v type="logical" >  T  T  T </v>
   <v type="logical" >  T  T  T </v>
   <v type="logical" >  T  T  T </v>
   <v type="logical" >  T  T  T </v>
   <v type="logical" >  T  T  T </v>
   <v type="logical" >  T  T  T </v>
   <v type="logical" >  T  T  T </v>
   <v type="logical" >  T  T  T </v>
   <v type="logical" >  T  T  T </v>
   <v type="logical" >  T  T  T </v>
   <v type="logical" >  T  T  T </v>
   <v type="logical" >  T  T  T </v>
   <v type="logical" >  T  T  T </v>
   <v type="logical" >  T  T  T </v>
   <v type="logical" >  T  T  T </v>
   <v type="logical" >  T  T  T </v>
   <v type="logical" >  T  T  T </v>
   <v type="logical" >  T  T  T </v>
   <v type="logical" >  T  T  T </v>
   <v type="logical" >  T  T  T </v>
   <v type="logical" >  T  T  T </v>
   <v type="logical" >  T  T  T </v>
   <v type="logical" >  T  T  T </v>
   <v type="logical" >  T  T  T </v>
   <v type="logical" >  T  T  T </v>
   <v type="logical" >  T  T  T </v>
   <v type="logical" >  T  T  T </v>
   <v type="logical" >  T  T  T </v>
   <v type="logical" >  T  T  T </v>
   <v type="logical" >  T  T  T </v>
   <v type="logical" >  T  T  T </v>
   <v type="logical" >  T  T  T </v>
   <v type="logical" >  T  T  T </v>
   <v type="logical" >  T  T  T </v>
   <v type="logical" >  T  T  T </v>
   <v type="logical" >  T  T  T </v>
   <v type="logical" >  T  T  T </v>
   <v type="logical" >  T  T  T </v>
   <v type="logical" >  T  T  T </v>
   <v type="logical" >  T  T  T </v>
  </varray>
  <nose>
   <v>      -3.00000000       0.00000000       0.00010000       0.00010000 </v>
  </nose>
 </structure>
</modeling>
