unknown system                          
           1
    17.271038    0.000000    0.000000
    -8.635519   14.957158    0.000000
     0.000000    0.000000   15.000000
   C    H    N    O 
    84     6     4     1
Direct configuration=     1
   0.99998692  0.99989469  0.50011558
   0.99924874  0.14213556  0.50008942
   0.99933105  0.28529626  0.50038819
   0.99973688  0.42839700  0.50083169
   0.99982264  0.57136533  0.50092117
   0.00036510  0.71438024  0.50074929
   0.00132028  0.85795330  0.50034824
   0.14401741  0.00166046  0.49988650
   0.14332644  0.14400292  0.50000200
   0.14175356  0.28550200  0.50038313
   0.14291145  0.42891914  0.50097248
   0.14319569  0.57140631  0.50092440
   0.14326298  0.71448368  0.50043070
   0.14364131  0.85806625  0.50004340
   0.28671485  0.00186297  0.49978809
   0.28723432  0.14596464  0.49998184
   0.28673949  0.29140166  0.50030112
   0.28512769  0.42641352  0.50095858
   0.28781474  0.57094698  0.50140670
   0.28615634  0.71484902  0.50052392
   0.28578685  0.85815753  0.49992511
   0.42904486  0.00076791  0.49995745
   0.43020343  0.14533884  0.50018771
   0.42943782  0.28674659  0.50033066
   0.42775799  0.85670932  0.50027639
   0.57094791  0.99904237  0.50028344
   0.57172667  0.14286419  0.50021867
   0.57558012  0.28960804  0.50086453
   0.56992575  0.85400643  0.50069694
   0.71298535  0.99731613  0.50042250
   0.71404833  0.14167632  0.50029894
   0.71466577  0.28528541  0.50054215
   0.71072614  0.42542463  0.50122109
   0.71565068  0.57364683  0.50085289
   0.71182830  0.85323529  0.50051403
   0.85613336  0.99836126  0.50030654
   0.85621149  0.14155463  0.50019193
   0.85679836  0.28503193  0.50045447
   0.85685059  0.42830122  0.50084317
   0.85616188  0.57092796  0.50122638
   0.85825341  0.71489233  0.50086752
   0.85734286  0.85594005  0.50049420
   0.04776287  0.09539282  0.50003114
   0.04638803  0.23733089  0.50022199
   0.04719726  0.38080523  0.50074756
   0.04772835  0.52381445  0.50090124
   0.04781826  0.66679982  0.50074405
   0.04829244  0.80990584  0.50037867
   0.04847507  0.95311940  0.50007765
   0.19163778  0.09694912  0.49990825
   0.19043025  0.23939244  0.50019867
   0.18936071  0.38037491  0.50082808
   0.19141288  0.52430966  0.50119904
   0.19077345  0.66690812  0.50057415
   0.19086735  0.81018353  0.50007417
   0.19148368  0.95368009  0.49984390
   0.33476048  0.09798091  0.49992685
   0.33596012  0.24212833  0.50014484
   0.33182702  0.52161819  0.50120493
   0.33695399  0.66982867  0.50119326
   0.33301606  0.80990547  0.50018086
   0.33363959  0.95350702  0.49981795
   0.47673987  0.09613957  0.50012491
   0.47779832  0.24123374  0.50055082
   0.47215924  0.80560705  0.50087655
   0.47597294  0.95230964  0.50012171
   0.61867807  0.09441841  0.50022952
   0.61994069  0.23848093  0.50044313
   0.61834537  0.80854891  0.50054336
   0.61755674  0.94991026  0.50049114
   0.76102225  0.09336580  0.50029331
   0.76189367  0.23702061  0.50040816
   0.76149245  0.38037559  0.50083431
   0.75970860  0.52431854  0.50128549
   0.76248280  0.66888163  0.50081161
   0.76102396  0.80397466  0.50054862
   0.76052094  0.94937487  0.50045560
   0.90371005  0.09363508  0.50015439
   0.90401442  0.23713416  0.50027593
   0.90430622  0.38067715  0.50068190
   0.90435009  0.52379845  0.50103468
   0.90465316  0.66631619  0.50101670
   0.90594090  0.80976896  0.50055528
   0.90441995  0.95130607  0.50029370
   0.46676702  0.35948618  0.50008493
   0.40458460  0.55781008  0.49921538
   0.64288785  0.53753576  0.49851611
   0.58111856  0.73581096  0.50020165
   0.56550702  0.59414675  0.46906650
   0.47900741  0.49867167  0.46832589
   0.42684486  0.71515722  0.50166055
   0.71616379  0.71417078  0.50061820
   0.33153456  0.38121122  0.50061478
   0.62083779  0.38003954  0.50157855
   0.52334102  0.54605980  0.43023124
Direct configuration=     2
   0.99998742  0.99989502  0.50011713
   0.99924913  0.14213614  0.50009019
   0.99933158  0.28529685  0.50039008
   0.99973698  0.42839783  0.50083355
   0.99982275  0.57136594  0.50092396
   0.00036483  0.71438033  0.50075149
   0.00132022  0.85795338  0.50034982
   0.14401778  0.00166079  0.49988810
   0.14332804  0.14400367  0.50000139
   0.14175444  0.28550266  0.50038353
   0.14291168  0.42891947  0.50097341
   0.14319599  0.57140675  0.50092556
   0.14326277  0.71448349  0.50043294
   0.14364149  0.85806621  0.50004581
   0.28671503  0.00186325  0.49978958
   0.28723448  0.14596497  0.49998218
   0.28673977  0.29140209  0.50029984
   0.28512764  0.42641366  0.50095676
   0.28781617  0.57094791  0.50140658
   0.28615621  0.71484920  0.50052421
   0.28578686  0.85815755  0.49992660
   0.42904487  0.00076812  0.49995834
   0.43020368  0.14533907  0.50018847
   0.42943819  0.28674666  0.50032972
   0.42775793  0.85670947  0.50027597
   0.57094797  0.99904266  0.50028383
   0.57172690  0.14286469  0.50022066
   0.57558052  0.28960822  0.50086502
   0.56992590  0.85400706  0.50069607
   0.71298547  0.99731649  0.50042369
   0.71404856  0.14167667  0.50030075
   0.71466616  0.28528584  0.50054352
   0.71072625  0.42542461  0.50122104
   0.71565065  0.57364707  0.50085099
   0.71182869  0.85323589  0.50051393
   0.85613360  0.99836164  0.50030761
   0.85621165  0.14155506  0.50019308
   0.85679854  0.28503221  0.50045597
   0.85685112  0.42830159  0.50084458
   0.85616184  0.57092795  0.50122775
   0.85825316  0.71489237  0.50086903
   0.85734302  0.85594036  0.50049573
   0.04776165  0.09539203  0.50003096
   0.04638779  0.23733084  0.50022314
   0.04719781  0.38080560  0.50074809
   0.04772871  0.52381500  0.50090255
   0.04781800  0.66680006  0.50074670
   0.04829243  0.80990590  0.50038077
   0.04847491  0.95311933  0.50007954
   0.19163770  0.09694945  0.49990840
   0.19042821  0.23939025  0.50019897
   0.18936037  0.38037491  0.50082816
   0.19141304  0.52430981  0.50119957
   0.19077334  0.66690815  0.50057567
   0.19086739  0.81018325  0.50007629
   0.19148365  0.95368034  0.49984598
   0.33476065  0.09798117  0.49992761
   0.33596033  0.24212857  0.50014477
   0.33182674  0.52161822  0.50120186
   0.33695398  0.66982899  0.50119183
   0.33301604  0.80990563  0.50018132
   0.33363963  0.95350720  0.49981925
   0.47674005  0.09613971  0.50012620
   0.47779850  0.24123379  0.50055144
   0.47215931  0.80560739  0.50087501
   0.47597294  0.95230984  0.50012199
   0.61867827  0.09441868  0.50023149
   0.61994082  0.23847886  0.50044436
   0.61834576  0.80854966  0.50054290
   0.61755681  0.94991065  0.50049157
   0.76102250  0.09336618  0.50029483
   0.76189408  0.23702073  0.50040941
   0.76149241  0.38037499  0.50083460
   0.75970990  0.52431773  0.50128615
   0.76248290  0.66888190  0.50081110
   0.76102465  0.80397619  0.50054962
   0.76052125  0.94937528  0.50045642
   0.90371017  0.09363545  0.50015528
   0.90401485  0.23713448  0.50027767
   0.90430674  0.38067739  0.50068384
   0.90435059  0.52379870  0.50103687
   0.90465177  0.66631616  0.50101766
   0.90594083  0.80976918  0.50055719
   0.90442021  0.95130657  0.50029480
   0.46676741  0.35948637  0.50008299
   0.40458438  0.55780985  0.49921122
   0.64288813  0.53753602  0.49851263
   0.58111925  0.73581192  0.50020008
   0.56550192  0.59414270  0.46906896
   0.47899993  0.49866495  0.46832526
   0.42684482  0.71515757  0.50165819
   0.71616390  0.71417098  0.50061712
   0.33153440  0.38121134  0.50061217
   0.62083811  0.38003952  0.50157802
   0.52334070  0.54605198  0.43024222
Direct configuration=     3
   0.99998730  0.99989507  0.50011930
   0.99924880  0.14213598  0.50009130
   0.99933180  0.28529724  0.50039278
   0.99973751  0.42839853  0.50083626
   0.99982313  0.57136660  0.50092811
   0.00036424  0.71438034  0.50075480
   0.00131985  0.85795260  0.50035189
   0.14401640  0.00166090  0.49989045
   0.14332663  0.14400297  0.50000161
   0.14175364  0.28550202  0.50038413
   0.14291175  0.42891987  0.50097468
   0.14319639  0.57140704  0.50092733
   0.14326248  0.71448296  0.50043636
   0.14364175  0.85806582  0.50004943
   0.28671529  0.00186353  0.49979182
   0.28723518  0.14596514  0.49998314
   0.28673942  0.29140188  0.50029794
   0.28512721  0.42641375  0.50095391
   0.28781590  0.57094809  0.50140494
   0.28615588  0.71484942  0.50052466
   0.28578713  0.85815746  0.49992884
   0.42904499  0.00076831  0.49995969
   0.43020401  0.14533916  0.50018965
   0.42943873  0.28674683  0.50032834
   0.42775789  0.85670988  0.50027534
   0.57094772  0.99904307  0.50028396
   0.57172707  0.14286433  0.50022361
   0.57558112  0.28960771  0.50086572
   0.56992617  0.85400796  0.50069477
   0.71298575  0.99731694  0.50042544
   0.71404883  0.14167695  0.50030347
   0.71466660  0.28528560  0.50054550
   0.71072703  0.42542443  0.50122102
   0.71565131  0.57364675  0.50084818
   0.71182944  0.85323706  0.50051386
   0.85613398  0.99836225  0.50030915
   0.85621204  0.14155555  0.50019488
   0.85679905  0.28503237  0.50045831
   0.85684983  0.42830082  0.50084723
   0.85616210  0.57092778  0.50122986
   0.85825315  0.71489276  0.50087118
   0.85734351  0.85594121  0.50049803
   0.04776295  0.09539303  0.50003190
   0.04639083  0.23733305  0.50022486
   0.04719841  0.38080644  0.50074917
   0.04772902  0.52381583  0.50090473
   0.04781663  0.66679947  0.50074964
   0.04829262  0.80990613  0.50038395
   0.04847560  0.95311965  0.50008235
   0.19163844  0.09694933  0.49990977
   0.19042959  0.23939170  0.50019876
   0.18936151  0.38037558  0.50082853
   0.19141387  0.52431042  0.50120046
   0.19077336  0.66690833  0.50057794
   0.19086652  0.81018448  0.50007952
   0.19148394  0.95368043  0.49984908
   0.33476083  0.09798158  0.49992873
   0.33596068  0.24212904  0.50014440
   0.33182710  0.52161835  0.50119732
   0.33695415  0.66982943  0.50118984
   0.33301611  0.80990583  0.50018201
   0.33363957  0.95350746  0.49982120
   0.47674018  0.09614003  0.50012815
   0.47779822  0.24123451  0.50055102
   0.47215948  0.80560784  0.50087270
   0.47597294  0.95230997  0.50012241
   0.61867858  0.09441903  0.50023442
   0.61994147  0.23848004  0.50044673
   0.61834567  0.80854943  0.50054157
   0.61755700  0.94991119  0.50049217
   0.76102281  0.09336667  0.50029711
   0.76189464  0.23702119  0.50041141
   0.76149337  0.38037529  0.50083571
   0.75970947  0.52431825  0.50128572
   0.76248265  0.66888200  0.50081025
   0.76102461  0.80397597  0.50054987
   0.76052157  0.94937589  0.50045758
   0.90371038  0.09363603  0.50015665
   0.90401538  0.23713513  0.50028029
   0.90430752  0.38067791  0.50068676
   0.90435138  0.52379929  0.50104015
   0.90465116  0.66631617  0.50101975
   0.90594077  0.80976936  0.50056000
   0.90442130  0.95130728  0.50029606
   0.46676800  0.35948659  0.50008012
   0.40458400  0.55780941  0.49920504
   0.64288837  0.53753626  0.49850744
   0.58112033  0.73581344  0.50019777
   0.56549629  0.59413881  0.46907366
   0.47898765  0.49865371  0.46832542
   0.42684507  0.71515792  0.50165473
   0.71616415  0.71417191  0.50061543
   0.33153442  0.38121160  0.50060814
   0.62083808  0.38003946  0.50157729
   0.52333994  0.54604019  0.43025219
Direct configuration=     4
   0.99998741  0.99989519  0.50012201
   0.99924895  0.14213620  0.50009282
   0.99933251  0.28529798  0.50039627
   0.99973858  0.42839934  0.50083985
   0.99982403  0.57136773  0.50093226
   0.00036343  0.71438041  0.50075925
   0.00131974  0.85795172  0.50035469
   0.14401481  0.00166087  0.49989364
   0.14332429  0.14400200  0.50000272
   0.14175320  0.28550161  0.50038495
   0.14291234  0.42892053  0.50097630
   0.14319693  0.57140726  0.50092982
   0.14326190  0.71448272  0.50044102
   0.14364196  0.85806595  0.50005437
   0.28671544  0.00186386  0.49979485
   0.28723544  0.14596563  0.49998357
   0.28673916  0.29140162  0.50029534
   0.28512708  0.42641402  0.50094995
   0.28781600  0.57094853  0.50140304
   0.28615580  0.71484984  0.50052536
   0.28578731  0.85815770  0.49993192
   0.42904519  0.00076861  0.49996159
   0.43020432  0.14533949  0.50019125
   0.42943926  0.28674754  0.50032645
   0.42775802  0.85671047  0.50027453
   0.57094751  0.99904362  0.50028409
   0.57172737  0.14286383  0.50022760
   0.57557978  0.28960712  0.50086704
   0.56992659  0.85400875  0.50069303
   0.71298622  0.99731761  0.50042774
   0.71404933  0.14167736  0.50030720
   0.71466728  0.28528524  0.50054819
   0.71072797  0.42542432  0.50122106
   0.71565205  0.57364630  0.50084437
   0.71183009  0.85323817  0.50051373
   0.85613467  0.99836312  0.50031111
   0.85621270  0.14155629  0.50019746
   0.85679867  0.28503297  0.50046059
   0.85684841  0.42829993  0.50085125
   0.85616265  0.57092783  0.50123272
   0.85825309  0.71489336  0.50087387
   0.85734431  0.85594232  0.50050100
   0.04776422  0.09539397  0.50003278
   0.04639100  0.23733344  0.50022721
   0.04719887  0.38080754  0.50075114
   0.04772956  0.52381689  0.50090808
   0.04781518  0.66679880  0.50075321
   0.04829280  0.80990620  0.50038828
   0.04847615  0.95311996  0.50008598
   0.19163922  0.09694959  0.49991103
   0.19043301  0.23939533  0.50019797
   0.18936151  0.38037562  0.50082852
   0.19141494  0.52431133  0.50120173
   0.19077355  0.66690876  0.50058107
   0.19086558  0.81018606  0.50008402
   0.19148429  0.95368049  0.49985326
   0.33476139  0.09798212  0.49993029
   0.33596117  0.24212961  0.50014354
   0.33182762  0.52161716  0.50119235
   0.33695449  0.66983003  0.50118737
   0.33301625  0.80990606  0.50018299
   0.33363972  0.95350769  0.49982390
   0.47674048  0.09614043  0.50013086
   0.47779899  0.24123483  0.50055102
   0.47215988  0.80560859  0.50086968
   0.47597302  0.95231025  0.50012295
   0.61867900  0.09441944  0.50023826
   0.61994236  0.23848103  0.50044986
   0.61834591  0.80854959  0.50053929
   0.61755743  0.94991208  0.50049287
   0.76102331  0.09336734  0.50030022
   0.76189533  0.23702177  0.50041435
   0.76149370  0.38037487  0.50083669
   0.75970813  0.52431951  0.50128423
   0.76248235  0.66888212  0.50080896
   0.76102444  0.80397512  0.50054927
   0.76052216  0.94937689  0.50045911
   0.90371081  0.09363681  0.50015856
   0.90401611  0.23713590  0.50028387
   0.90430817  0.38067852  0.50069080
   0.90435089  0.52379859  0.50104348
   0.90465161  0.66631633  0.50102315
   0.90594085  0.80976965  0.50056363
   0.90442274  0.95130820  0.50029762
   0.46676885  0.35948688  0.50007633
   0.40458386  0.55780899  0.49919690
   0.64288884  0.53753656  0.49850049
   0.58112154  0.73581489  0.50019474
   0.56549046  0.59413529  0.46907877
   0.47897105  0.49863844  0.46832522
   0.42684563  0.71515837  0.50165028
   0.71616442  0.71417298  0.50061295
   0.33153464  0.38121200  0.50060260
   0.62083830  0.38003945  0.50157643
   0.52333896  0.54602495  0.43025684
Direct configuration=     5
   0.99998819  0.99989562  0.50012502
   0.99924959  0.14213710  0.50009469
   0.99933343  0.28529917  0.50040042
   0.99973956  0.42840036  0.50084431
   0.99982427  0.57136825  0.50093644
   0.00036269  0.71438057  0.50076470
   0.00132005  0.85795136  0.50035835
   0.14401666  0.00166093  0.49989755
   0.14332504  0.14400278  0.50000326
   0.14175494  0.28550367  0.50038460
   0.14291338  0.42892140  0.50097821
   0.14319746  0.57140768  0.50093312
   0.14326090  0.71448323  0.50044678
   0.14364175  0.85806704  0.50006049
   0.28671535  0.00186424  0.49979863
   0.28723539  0.14596637  0.49998346
   0.28674001  0.29140234  0.50029186
   0.28512721  0.42641390  0.50094486
   0.28781703  0.57094897  0.50140092
   0.28615607  0.71485046  0.50052636
   0.28578691  0.85815831  0.49993581
   0.42904529  0.00076904  0.49996405
   0.43020466  0.14534010  0.50019320
   0.42943957  0.28674846  0.50032407
   0.42775821  0.85671107  0.50027360
   0.57094755  0.99904422  0.50028450
   0.57172788  0.14286405  0.50023254
   0.57557982  0.28960710  0.50086846
   0.56992704  0.85400936  0.50069084
   0.71298675  0.99731865  0.50043051
   0.71404998  0.14167793  0.50031190
   0.71466775  0.28528505  0.50055155
   0.71072806  0.42542427  0.50122105
   0.71565174  0.57364651  0.50083955
   0.71183029  0.85323875  0.50051331
   0.85613558  0.99836417  0.50031330
   0.85621347  0.14155742  0.50020086
   0.85679834  0.28503413  0.50046312
   0.85685096  0.42830097  0.50085535
   0.85616284  0.57092806  0.50123611
   0.85825260  0.71489370  0.50087694
   0.85734502  0.85594316  0.50050422
   0.04776416  0.09539425  0.50003372
   0.04638842  0.23733188  0.50023012
   0.04719937  0.38080870  0.50075421
   0.04773047  0.52381804  0.50091267
   0.04781444  0.66679883  0.50075763
   0.04829255  0.80990593  0.50039366
   0.04847553  0.95311969  0.50009023
   0.19163879  0.09695012  0.49991217
   0.19043214  0.23939460  0.50019594
   0.18936013  0.38037516  0.50082811
   0.19141584  0.52431223  0.50120337
   0.19077357  0.66690939  0.50058502
   0.19086641  0.81018430  0.50008976
   0.19148412  0.95368079  0.49985835
   0.33476202  0.09798269  0.49993222
   0.33596170  0.24213018  0.50014195
   0.33182773  0.52161581  0.50118695
   0.33695485  0.66983067  0.50118456
   0.33301622  0.80990637  0.50018429
   0.33364000  0.95350785  0.49982730
   0.47674087  0.09614073  0.50013430
   0.47779990  0.24123460  0.50055146
   0.47216037  0.80560956  0.50086606
   0.47597302  0.95231078  0.50012356
   0.61867943  0.09441979  0.50024284
   0.61994278  0.23848101  0.50045377
   0.61834761  0.80855288  0.50053728
   0.61755788  0.94991320  0.50049357
   0.76102394  0.09336818  0.50030409
   0.76189573  0.23702204  0.50041824
   0.76149307  0.38037379  0.50083788
   0.75970848  0.52431936  0.50128328
   0.76248225  0.66888242  0.50080707
   0.76102475  0.80397522  0.50054786
   0.76052304  0.94937818  0.50046089
   0.90371144  0.09363767  0.50016096
   0.90401675  0.23713681  0.50028825
   0.90430831  0.38067910  0.50069591
   0.90434936  0.52379705  0.50104707
   0.90465095  0.66631656  0.50102672
   0.90594100  0.80977012  0.50056782
   0.90442375  0.95130927  0.50029956
   0.46676989  0.35948741  0.50007176
   0.40458407  0.55780859  0.49918710
   0.64288944  0.53753685  0.49849196
   0.58112247  0.73581576  0.50019106
   0.56548283  0.59413009  0.46907905
   0.47895282  0.49862200  0.46832075
   0.42684628  0.71515903  0.50164503
   0.71616426  0.71417319  0.50060940
   0.33153478  0.38121241  0.50059546
   0.62083889  0.38003950  0.50157557
   0.52333841  0.54600771  0.43025501
Direct configuration=     6
   0.99998932  0.99989634  0.50012811
   0.99924995  0.14213773  0.50009689
   0.99933373  0.28530017  0.50040521
   0.99974009  0.42840135  0.50084977
   0.99982332  0.57136766  0.50094083
   0.00036203  0.71438053  0.50077103
   0.00132031  0.85795174  0.50036302
   0.14401781  0.00166108  0.49990204
   0.14332762  0.14400453  0.50000304
   0.14175530  0.28550444  0.50038438
   0.14291414  0.42892233  0.50098038
   0.14319816  0.57140858  0.50093733
   0.14326128  0.71448411  0.50045230
   0.14364139  0.85806767  0.50006776
   0.28671548  0.00186463  0.49980310
   0.28723514  0.14596704  0.49998280
   0.28674129  0.29140332  0.50028710
   0.28512704  0.42641309  0.50093856
   0.28781880  0.57094919  0.50139854
   0.28615640  0.71485107  0.50052771
   0.28578643  0.85815855  0.49994053
   0.42904528  0.00076945  0.49996704
   0.43020514  0.14534059  0.50019551
   0.42943996  0.28674892  0.50032111
   0.42775833  0.85671154  0.50027252
   0.57094789  0.99904476  0.50028542
   0.57172843  0.14286486  0.50023838
   0.57558151  0.28960750  0.50086996
   0.56992753  0.85401051  0.50068815
   0.71298733  0.99731990  0.50043361
   0.71405060  0.14167844  0.50031756
   0.71466763  0.28528492  0.50055558
   0.71072755  0.42542397  0.50122088
   0.71565005  0.57364769  0.50083449
   0.71183089  0.85323951  0.50051233
   0.85613658  0.99836527  0.50031557
   0.85621429  0.14155869  0.50020512
   0.85679850  0.28503524  0.50046637
   0.85685480  0.42830248  0.50085954
   0.85616218  0.57092793  0.50123981
   0.85825175  0.71489371  0.50088013
   0.85734544  0.85594363  0.50050730
   0.04776334  0.09539406  0.50003479
   0.04638960  0.23733288  0.50023341
   0.04720031  0.38080986  0.50075851
   0.04773141  0.52381893  0.50091849
   0.04781423  0.66679962  0.50076313
   0.04829226  0.80990561  0.50040004
   0.04847492  0.95311894  0.50009490
   0.19163797  0.09695071  0.49991310
   0.19042959  0.23939210  0.50019385
   0.18936046  0.38037591  0.50082771
   0.19141669  0.52431290  0.50120532
   0.19077324  0.66690997  0.50058982
   0.19086641  0.81018535  0.50009596
   0.19148390  0.95368120  0.49986429
   0.33476212  0.09798309  0.49993438
   0.33596223  0.24213079  0.50013928
   0.33182763  0.52161507  0.50118082
   0.33695541  0.66983115  0.50118149
   0.33301618  0.80990698  0.50018591
   0.33363998  0.95350815  0.49983141
   0.47674123  0.09614092  0.50013845
   0.47779949  0.24123488  0.50055091
   0.47216088  0.80561039  0.50086187
   0.47597299  0.95231144  0.50012419
   0.61868133  0.09441977  0.50024694
   0.61994260  0.23848000  0.50045849
   0.61834884  0.80855512  0.50053415
   0.61755819  0.94991424  0.50049412
   0.76102470  0.09336913  0.50030871
   0.76189577  0.23702191  0.50042309
   0.76149266  0.38037288  0.50083958
   0.75971013  0.52431812  0.50128282
   0.76248209  0.66888259  0.50080435
   0.76102580  0.80397742  0.50054667
   0.76052401  0.94937936  0.50046280
   0.90371212  0.09363849  0.50016383
   0.90401709  0.23713813  0.50029330
   0.90430877  0.38067983  0.50070194
   0.90434849  0.52379615  0.50105114
   0.90464936  0.66631675  0.50103059
   0.90594117  0.80977053  0.50057233
   0.90442400  0.95131011  0.50030192
   0.46677106  0.35948820  0.50006645
   0.40458449  0.55780800  0.49917592
   0.64288969  0.53753684  0.49848187
   0.58112350  0.73581689  0.50018675
   0.56547211  0.59412130  0.46906904
   0.47893631  0.49860773  0.46830725
   0.42684687  0.71515983  0.50163900
   0.71616366  0.71417256  0.50060435
   0.33153489  0.38121265  0.50058651
   0.62083942  0.38003936  0.50157473
   0.52333826  0.54598884  0.43024582
Direct configuration=     7
   0.99999011  0.99989716  0.50013142
   0.99925025  0.14213807  0.50009964
   0.99933388  0.28530123  0.50041124
   0.99974058  0.42840234  0.50085716
   0.99982181  0.57136678  0.50094629
   0.00036118  0.71438035  0.50077893
   0.00132013  0.85795253  0.50036948
   0.14401688  0.00166151  0.49990754
   0.14332912  0.14400546  0.50000181
   0.14175372  0.28550324  0.50038424
   0.14291471  0.42892357  0.50098313
   0.14319924  0.57141009  0.50094320
   0.14326259  0.71448531  0.50045842
   0.14364095  0.85806755  0.50007705
   0.28671590  0.00186517  0.49980884
   0.28723580  0.14596724  0.49998272
   0.28674166  0.29140359  0.50028001
   0.28512655  0.42641214  0.50093016
   0.28782082  0.57094938  0.50139557
   0.28615661  0.71485160  0.50052965
   0.28578625  0.85815885  0.49994667
   0.42904524  0.00076992  0.49997097
   0.43020553  0.14534090  0.50019837
   0.42944080  0.28674925  0.50031695
   0.42775844  0.85671220  0.50027114
   0.57094864  0.99904537  0.50028706
   0.57172911  0.14286527  0.50024570
   0.57558385  0.28960799  0.50087163
   0.56992823  0.85401259  0.50068449
   0.71298817  0.99732133  0.50043730
   0.71405169  0.14167825  0.50032329
   0.71466716  0.28528480  0.50056087
   0.71072770  0.42542351  0.50122055
   0.71564906  0.57364864  0.50082842
   0.71183257  0.85324142  0.50051036
   0.85613811  0.99836620  0.50031662
   0.85621518  0.14156014  0.50021083
   0.85679914  0.28503602  0.50047129
   0.85685312  0.42830129  0.50086561
   0.85616088  0.57092732  0.50124404
   0.85825100  0.71489386  0.50088354
   0.85734571  0.85594430  0.50051025
   0.04776326  0.09539427  0.50003609
   0.04639015  0.23733416  0.50023733
   0.04720155  0.38081111  0.50076478
   0.04773188  0.52381949  0.50092623
   0.04781433  0.66680063  0.50077056
   0.04829206  0.80990560  0.50040828
   0.04847567  0.95311867  0.50010041
   0.19163802  0.09695125  0.49991377
   0.19042760  0.23939100  0.50019282
   0.18936291  0.38037785  0.50082699
   0.19141795  0.52431377  0.50120784
   0.19077319  0.66691085  0.50059597
   0.19086686  0.81018663  0.50010350
   0.19148417  0.95368180  0.49987177
   0.33476163  0.09798353  0.49993690
   0.33596262  0.24213157  0.50013469
   0.33182807  0.52161518  0.50117279
   0.33695642  0.66983161  0.50117787
   0.33301620  0.80990790  0.50018807
   0.33363963  0.95350881  0.49983679
   0.47674174  0.09614139  0.50014389
   0.47779862  0.24123607  0.50054931
   0.47216143  0.80561119  0.50085660
   0.47597308  0.95231229  0.50012490
   0.61868387  0.09441994  0.50025116
   0.61994226  0.23847883  0.50046467
   0.61834905  0.80855542  0.50052929
   0.61755855  0.94991528  0.50049448
   0.76102593  0.09337042  0.50031469
   0.76189576  0.23702197  0.50042956
   0.76149402  0.38037322  0.50084226
   0.75971108  0.52431725  0.50128273
   0.76248117  0.66888257  0.50080018
   0.76102624  0.80397870  0.50054406
   0.76052499  0.94938059  0.50046487
   0.90371289  0.09363973  0.50016755
   0.90401730  0.23714009  0.50029956
   0.90431060  0.38068096  0.50070947
   0.90434954  0.52379716  0.50105634
   0.90464730  0.66631684  0.50103538
   0.90594122  0.80977074  0.50057745
   0.90442394  0.95131077  0.50030496
   0.46677239  0.35948925  0.50005974
   0.40458494  0.55780705  0.49916221
   0.64288879  0.53753627  0.49846894
   0.58112505  0.73581905  0.50018124
   0.56545696  0.59410748  0.46904209
   0.47892200  0.49859650  0.46827829
   0.42684756  0.71516101  0.50163154
   0.71616313  0.71417293  0.50059671
   0.33153519  0.38121265  0.50057436
   0.62083946  0.38003889  0.50157382
   0.52333825  0.54596640  0.43022388
Direct configuration=     8
   0.99998995  0.99989735  0.50013496
   0.99925068  0.14213861  0.50010315
   0.99933423  0.28530267  0.50041893
   0.99974175  0.42840339  0.50086731
   0.99982172  0.57136720  0.50095373
   0.00036047  0.71437961  0.50078711
   0.00131957  0.85795268  0.50037834
   0.14401473  0.00166216  0.49991413
   0.14332581  0.14400406  0.50000119
   0.14175183  0.28550197  0.50038439
   0.14291546  0.42892414  0.50098506
   0.14320030  0.57141145  0.50095140
   0.14326357  0.71448659  0.50046588
   0.14364070  0.85806722  0.50008888
   0.28671584  0.00186568  0.49981620
   0.28723695  0.14596720  0.49998302
   0.28673993  0.29140240  0.50026984
   0.28512693  0.42641228  0.50091917
   0.28782229  0.57094991  0.50139178
   0.28615682  0.71485192  0.50053242
   0.28578666  0.85815979  0.49995457
   0.42904506  0.00077039  0.49997615
   0.43020524  0.14534125  0.50020179
   0.42944162  0.28675046  0.50031089
   0.42775858  0.85671314  0.50026942
   0.57094948  0.99904595  0.50028956
   0.57173001  0.14286391  0.50025464
   0.57558127  0.28960896  0.50087230
   0.56992908  0.85401433  0.50067941
   0.71298930  0.99732256  0.50044160
   0.71405358  0.14167807  0.50032937
   0.71466791  0.28528297  0.50056712
   0.71072917  0.42542326  0.50122025
   0.71564973  0.57364746  0.50082079
   0.71183410  0.85324372  0.50050687
   0.85613937  0.99836711  0.50031659
   0.85621623  0.14156177  0.50021848
   0.85679998  0.28503674  0.50047901
   0.85685174  0.42830066  0.50087250
   0.85616011  0.57092683  0.50124885
   0.85825024  0.71489426  0.50088697
   0.85734576  0.85594501  0.50051281
   0.04776481  0.09539520  0.50003760
   0.04638734  0.23733237  0.50024113
   0.04720247  0.38081201  0.50077358
   0.04773174  0.52381984  0.50093631
   0.04781454  0.66680098  0.50078036
   0.04829145  0.80990593  0.50041906
   0.04847708  0.95311968  0.50010693
   0.19163937  0.09695147  0.49991408
   0.19043137  0.23939641  0.50019173
   0.18936284  0.38037752  0.50082469
   0.19141963  0.52431523  0.50121110
   0.19077423  0.66691218  0.50060370
   0.19086756  0.81018729  0.50011295
   0.19148453  0.95368237  0.49988131
   0.33476150  0.09798391  0.49993996
   0.33596264  0.24213192  0.50012745
   0.33182956  0.52161555  0.50116186
   0.33695765  0.66983215  0.50117368
   0.33301629  0.80990862  0.50019099
   0.33363931  0.95350957  0.49984391
   0.47674242  0.09614216  0.50015102
   0.47780044  0.24123665  0.50054871
   0.47216196  0.80561240  0.50085001
   0.47597354  0.95231319  0.50012589
   0.61868534  0.09442044  0.50025598
   0.61994255  0.23847845  0.50047269
   0.61835026  0.80855809  0.50052385
   0.61755948  0.94991648  0.50049460
   0.76102782  0.09337155  0.50032232
   0.76189594  0.23702258  0.50043803
   0.76149558  0.38037397  0.50084652
   0.75970740  0.52431896  0.50128104
   0.76247927  0.66888253  0.50079405
   0.76102638  0.80397951  0.50054091
   0.76052605  0.94938214  0.50046676
   0.90371372  0.09364123  0.50017222
   0.90401768  0.23714181  0.50030738
   0.90431227  0.38068170  0.50071889
   0.90435054  0.52379871  0.50106320
   0.90464780  0.66631904  0.50104103
   0.90594084  0.80977091  0.50058317
   0.90442447  0.95131116  0.50030862
   0.46677363  0.35949010  0.50005135
   0.40458526  0.55780552  0.49914563
   0.64288646  0.53753499  0.49845259
   0.58112660  0.73582134  0.50017419
   0.56543884  0.59409002  0.46899226
   0.47890937  0.49858772  0.46822913
   0.42684843  0.71516229  0.50162238
   0.71616290  0.71417526  0.50058552
   0.33153567  0.38121213  0.50055797
   0.62083953  0.38003823  0.50157278
   0.52333853  0.54593974  0.43017769
Direct configuration=     9
   0.99998933  0.99989674  0.50013884
   0.99925011  0.14213863  0.50010756
   0.99933392  0.28530356  0.50042878
   0.99974404  0.42840296  0.50087963
   0.99982399  0.57136958  0.50096461
   0.00036043  0.71437962  0.50079632
   0.00131892  0.85795205  0.50039033
   0.14401858  0.00166294  0.49992193
   0.14332506  0.14400418  0.49999934
   0.14175282  0.28550526  0.50038267
   0.14291664  0.42892415  0.50098660
   0.14320053  0.57141188  0.50096276
   0.14326314  0.71448714  0.50047605
   0.14364072  0.85806762  0.50010400
   0.28671454  0.00186594  0.49982579
   0.28723605  0.14596774  0.49998109
   0.28673839  0.29140159  0.50025568