  93  93   0   0
  0.4166543E+02  0.1727104E-08  0.1727104E-08  0.1500000E-08  0.1000000E-15
   1.0000000000000000E-004
  CAR 
 unknown system                          
      5.75749487    -30.93340272  301     -2.84770827      1.00000000
    -30.933  0.0000E+00  0.0000E+00  0.0000E+00  0.0000E+00
    -30.811  0.0000E+00  0.0000E+00  0.0000E+00  0.0000E+00
    -30.689  0.0000E+00  0.0000E+00  0.0000E+00  0.0000E+00
    -30.566  0.0000E+00  0.0000E+00  0.0000E+00  0.0000E+00
    -30.444  0.0000E+00  0.0000E+00  0.0000E+00  0.0000E+00
    -30.322  0.0000E+00  0.0000E+00  0.0000E+00  0.0000E+00
    -30.200  0.0000E+00  0.0000E+00  0.0000E+00  0.0000E+00
    -30.077  0.0000E+00  0.0000E+00  0.0000E+00  0.0000E+00
    -29.955  0.0000E+00  0.0000E+00  0.0000E+00  0.0000E+00
    -29.833  0.0000E+00  0.0000E+00  0.0000E+00  0.0000E+00
    -29.710  0.0000E+00  0.0000E+00  0.0000E+00  0.0000E+00
    -29.588  0.0000E+00  0.0000E+00  0.0000E+00  0.0000E+00
    -29.466  0.2047E-09  0.2047E-09  0.2504E-10  0.2504E-10
    -29.343  0.3769E-03  0.3769E-03  0.4610E-04  0.4610E-04
    -29.221  0.2409E-01  0.2409E-01  0.2992E-02  0.2992E-02
    -29.099  0.2245E-01  0.2245E-01  0.5738E-02  0.5738E-02
    -28.977  0.7593E-02  0.7593E-02  0.6667E-02  0.6667E-02
    -28.854  0.7095E-06  0.7095E-06  0.6667E-02  0.6667E-02
    -28.732  0.8336E-15  0.8336E-15  0.6667E-02  0.6667E-02
    -28.610  0.0000E+00  0.0000E+00  0.6667E-02  0.6667E-02
    -28.487  0.0000E+00  0.0000E+00  0.6667E-02  0.6667E-02
    -28.365  0.0000E+00  0.0000E+00  0.6667E-02  0.6667E-02
    -28.243  0.0000E+00  0.0000E+00  0.6667E-02  0.6667E-02
    -28.120  0.0000E+00  0.0000E+00  0.6667E-02  0.6667E-02
    -27.998  0.0000E+00  0.0000E+00  0.6667E-02  0.6667E-02
    -27.876  0.0000E+00  0.0000E+00  0.6667E-02  0.6667E-02
    -27.754  0.0000E+00  0.0000E+00  0.6667E-02  0.6667E-02
    -27.631  0.0000E+00  0.0000E+00  0.6667E-02  0.6667E-02
    -27.509  0.0000E+00  0.0000E+00  0.6667E-02  0.6667E-02
    -27.387  0.0000E+00  0.0000E+00  0.6667E-02  0.6667E-02
    -27.264  0.0000E+00  0.0000E+00  0.6667E-02  0.6667E-02
    -27.142  0.0000E+00  0.0000E+00  0.6667E-02  0.6667E-02
    -27.020  0.0000E+00  0.0000E+00  0.6667E-02  0.6667E-02
    -26.897  0.0000E+00  0.0000E+00  0.6667E-02  0.6667E-02
    -26.775  0.0000E+00  0.0000E+00  0.6667E-02  0.6667E-02
    -26.653  0.0000E+00  0.0000E+00  0.6667E-02  0.6667E-02
    -26.530  0.0000E+00  0.0000E+00  0.6667E-02  0.6667E-02
    -26.408  0.0000E+00  0.0000E+00  0.6667E-02  0.6667E-02
    -26.286  0.0000E+00  0.0000E+00  0.6667E-02  0.6667E-02
    -26.164  0.0000E+00  0.0000E+00  0.6667E-02  0.6667E-02
    -26.041  0.0000E+00  0.0000E+00  0.6667E-02  0.6667E-02
    -25.919  0.0000E+00  0.0000E+00  0.6667E-02  0.6667E-02
    -25.797  0.0000E+00  0.0000E+00  0.6667E-02  0.6667E-02
    -25.674  0.0000E+00  0.0000E+00  0.6667E-02  0.6667E-02
    -25.552  0.0000E+00  0.0000E+00  0.6667E-02  0.6667E-02
    -25.430  0.0000E+00  0.0000E+00  0.6667E-02  0.6667E-02
    -25.307  0.0000E+00  0.0000E+00  0.6667E-02  0.6667E-02
    -25.185  0.0000E+00  0.0000E+00  0.6667E-02  0.6667E-02
    -25.063  0.0000E+00  0.0000E+00  0.6667E-02  0.6667E-02
    -24.941  0.0000E+00  0.0000E+00  0.6667E-02  0.6667E-02
    -24.818  0.0000E+00  0.0000E+00  0.6667E-02  0.6667E-02
    -24.696  0.0000E+00  0.0000E+00  0.6667E-02  0.6667E-02
    -24.574  0.0000E+00  0.0000E+00  0.6667E-02  0.6667E-02
    -24.451  0.0000E+00  0.0000E+00  0.6667E-02  0.6667E-02
    -24.329  0.0000E+00  0.0000E+00  0.6667E-02  0.6667E-02
    -24.207  0.0000E+00  0.0000E+00  0.6667E-02  0.6667E-02
    -24.084  0.0000E+00  0.0000E+00  0.6667E-02  0.6667E-02
    -23.962  0.0000E+00  0.0000E+00  0.6667E-02  0.6667E-02
    -23.840  0.0000E+00  0.0000E+00  0.6667E-02  0.6667E-02
    -23.718  0.0000E+00  0.0000E+00  0.6667E-02  0.6667E-02
    -23.595  0.0000E+00  0.0000E+00  0.6667E-02  0.6667E-02
    -23.473  0.0000E+00  0.0000E+00  0.6667E-02  0.6667E-02
    -23.351  0.0000E+00  0.0000E+00  0.6667E-02  0.6667E-02
    -23.228  0.0000E+00  0.0000E+00  0.6667E-02  0.6667E-02
    -23.106  0.0000E+00  0.0000E+00  0.6667E-02  0.6667E-02
    -22.984  0.0000E+00  0.0000E+00  0.6667E-02  0.6667E-02
    -22.861  0.6029E-09  0.6029E-09  0.6667E-02  0.6667E-02
    -22.739  0.5299E-03  0.5299E-03  0.6731E-02  0.6731E-02
    -22.617  0.2471E-01  0.2471E-01  0.9753E-02  0.9753E-02
    -22.494  0.3801E-01  0.3801E-01  0.1440E-01  0.1440E-01
    -22.372  0.1850E-01  0.1850E-01  0.1666E-01  0.1666E-01
    -22.250  0.4139E-02  0.4139E-02  0.1717E-01  0.1717E-01
    -22.128  0.3466E-01  0.3466E-01  0.2141E-01  0.2141E-01
    -22.005  0.1620E-01  0.1620E-01  0.2339E-01  0.2339E-01
    -21.883  0.1999E-01  0.1999E-01  0.2584E-01  0.2584E-01
    -21.761  0.2090E-01  0.2090E-01  0.2839E-01  0.2839E-01
    -21.638  0.2799E-01  0.2799E-01  0.3181E-01  0.3181E-01
    -21.516  0.1151E-01  0.1151E-01  0.3322E-01  0.3322E-01
    -21.394  0.2965E-01  0.2965E-01  0.3685E-01  0.3685E-01
    -21.271  0.3813E-01  0.3813E-01  0.4151E-01  0.4151E-01
    -21.149  0.1488E-01  0.1488E-01  0.4333E-01  0.4333E-01
    -21.027  0.1281E-01  0.1281E-01  0.4490E-01  0.4490E-01
    -20.905  0.2208E-01  0.2208E-01  0.4760E-01  0.4760E-01
    -20.782  0.2735E-01  0.2735E-01  0.5095E-01  0.5095E-01
    -20.660  0.2086E-01  0.2086E-01  0.5350E-01  0.5350E-01
    -20.538  0.2024E-01  0.2024E-01  0.5597E-01  0.5597E-01
    -20.415  0.1588E-01  0.1588E-01  0.5791E-01  0.5791E-01
    -20.293  0.2925E-01  0.2925E-01  0.6149E-01  0.6149E-01
    -20.171  0.1404E-01  0.1404E-01  0.6321E-01  0.6321E-01
    -20.048  0.1383E-01  0.1383E-01  0.6490E-01  0.6490E-01
    -19.926  0.1969E-01  0.1969E-01  0.6731E-01  0.6731E-01
    -19.804  0.2484E-01  0.2484E-01  0.7035E-01  0.7035E-01
    -19.682  0.3788E-01  0.3788E-01  0.7498E-01  0.7498E-01
    -19.559  0.3343E-01  0.3343E-01  0.7907E-01  0.7907E-01
    -19.437  0.1576E-01  0.1576E-01  0.8099E-01  0.8099E-01
    -19.315  0.1204E-01  0.1204E-01  0.8247E-01  0.8247E-01
    -19.192  0.7860E-02  0.7860E-02  0.8343E-01  0.8343E-01
    -19.070  0.1818E-01  0.1818E-01  0.8565E-01  0.8565E-01
    -18.948  0.1492E-01  0.1492E-01  0.8748E-01  0.8748E-01
    -18.825  0.3624E-01  0.3624E-01  0.9191E-01  0.9191E-01
    -18.703  0.4566E-01  0.4566E-01  0.9749E-01  0.9749E-01
    -18.581  0.1802E-01  0.1802E-01  0.9970E-01  0.9970E-01
    -18.458  0.3209E-01  0.3209E-01  0.1036E+00  0.1036E+00
    -18.336  0.1202E-01  0.1202E-01  0.1051E+00  0.1051E+00
    -18.214  0.1827E-01  0.1827E-01  0.1073E+00  0.1073E+00
    -18.092  0.2914E-01  0.2914E-01  0.1109E+00  0.1109E+00
    -17.969  0.1554E-01  0.1554E-01  0.1128E+00  0.1128E+00
    -17.847  0.1857E-01  0.1857E-01  0.1151E+00  0.1151E+00
    -17.725  0.4984E-01  0.4984E-01  0.1212E+00  0.1212E+00
    -17.602  0.3097E-01  0.3097E-01  0.1249E+00  0.1249E+00
    -17.480  0.1098E-01  0.1098E-01  0.1263E+00  0.1263E+00
    -17.358  0.2670E-01  0.2670E-01  0.1296E+00  0.1296E+00
    -17.235  0.3435E-01  0.3435E-01  0.1338E+00  0.1338E+00
    -17.113  0.2418E-01  0.2418E-01  0.1367E+00  0.1367E+00
    -16.991  0.2079E-01  0.2079E-01  0.1393E+00  0.1393E+00
    -16.869  0.1709E-01  0.1709E-01  0.1413E+00  0.1413E+00
    -16.746  0.3193E-01  0.3193E-01  0.1453E+00  0.1453E+00
    -16.624  0.4703E-01  0.4703E-01  0.1510E+00  0.1510E+00
    -16.502  0.1473E-01  0.1473E-01  0.1528E+00  0.1528E+00
    -16.379  0.1107E-01  0.1107E-01  0.1542E+00  0.1542E+00
    -16.257  0.6375E-04  0.6375E-04  0.1542E+00  0.1542E+00
    -16.135  0.7457E-03  0.7457E-03  0.1543E+00  0.1543E+00
    -16.012  0.1070E-01  0.1070E-01  0.1556E+00  0.1556E+00
    -15.890  0.2990E-01  0.2990E-01  0.1592E+00  0.1592E+00
    -15.768  0.2277E-01  0.2277E-01  0.1620E+00  0.1620E+00
    -15.646  0.1096E-01  0.1096E-01  0.1633E+00  0.1633E+00
    -15.523  0.1926E-01  0.1926E-01  0.1657E+00  0.1657E+00
    -15.401  0.3596E-01  0.3596E-01  0.1701E+00  0.1701E+00
    -15.279  0.3600E-01  0.3600E-01  0.1745E+00  0.1745E+00
    -15.156  0.2991E-01  0.2991E-01  0.1782E+00  0.1782E+00
    -15.034  0.2105E-01  0.2105E-01  0.1807E+00  0.1807E+00
    -14.912  0.3025E-01  0.3025E-01  0.1844E+00  0.1844E+00
    -14.789  0.2818E-01  0.2818E-01  0.1879E+00  0.1879E+00
    -14.667  0.3448E-01  0.3448E-01  0.1921E+00  0.1921E+00
    -14.545  0.4370E-01  0.4370E-01  0.1974E+00  0.1974E+00
    -14.422  0.1545E-01  0.1545E-01  0.1993E+00  0.1993E+00
    -14.300  0.2095E-01  0.2095E-01  0.2019E+00  0.2019E+00
    -14.178  0.9410E-02  0.9410E-02  0.2031E+00  0.2031E+00
    -14.056  0.1662E-01  0.1662E-01  0.2051E+00  0.2051E+00
    -13.933  0.2734E-01  0.2734E-01  0.2084E+00  0.2084E+00
    -13.811  0.3820E-01  0.3820E-01  0.2131E+00  0.2131E+00
    -13.689  0.2853E-01  0.2853E-01  0.2166E+00  0.2166E+00
    -13.566  0.2905E-01  0.2905E-01  0.2201E+00  0.2201E+00
    -13.444  0.1090E-01  0.1090E-01  0.2215E+00  0.2215E+00
    -13.322  0.3050E-02  0.3050E-02  0.2218E+00  0.2218E+00
    -13.199  0.2242E-01  0.2242E-01  0.2246E+00  0.2246E+00
    -13.077  0.1844E-01  0.1844E-01  0.2268E+00  0.2268E+00
    -12.955  0.2599E-01  0.2599E-01  0.2300E+00  0.2300E+00
    -12.833  0.5456E-01  0.5456E-01  0.2367E+00  0.2367E+00
    -12.710  0.3356E-01  0.3356E-01  0.2408E+00  0.2408E+00
    -12.588  0.2531E-01  0.2531E-01  0.2439E+00  0.2439E+00
    -12.466  0.2588E-01  0.2588E-01  0.2471E+00  0.2471E+00
    -12.343  0.3179E-01  0.3179E-01  0.2510E+00  0.2510E+00
    -12.221  0.6789E-02  0.6789E-02  0.2518E+00  0.2518E+00
    -12.099  0.2990E-01  0.2990E-01  0.2554E+00  0.2554E+00
    -11.976  0.1899E-01  0.1899E-01  0.2578E+00  0.2578E+00
    -11.854  0.3234E-01  0.3234E-01  0.2617E+00  0.2617E+00
    -11.732  0.4137E-01  0.4137E-01  0.2668E+00  0.2668E+00
    -11.610  0.4903E-01  0.4903E-01  0.2728E+00  0.2728E+00
    -11.487  0.3370E-01  0.3370E-01  0.2769E+00  0.2769E+00
    -11.365  0.3274E-01  0.3274E-01  0.2809E+00  0.2809E+00
    -11.243  0.4267E-01  0.4267E-01  0.2861E+00  0.2861E+00
    -11.120  0.3071E-01  0.3071E-01  0.2899E+00  0.2899E+00
    -10.998  0.1698E-01  0.1698E-01  0.2920E+00  0.2920E+00
    -10.876  0.1163E-01  0.1163E-01  0.2934E+00  0.2934E+00
    -10.753  0.3078E-01  0.3078E-01  0.2971E+00  0.2971E+00
    -10.631  0.3703E-01  0.3703E-01  0.3017E+00  0.3017E+00
    -10.509  0.4907E-01  0.4907E-01  0.3077E+00  0.3077E+00
    -10.387  0.3790E-01  0.3790E-01  0.3123E+00  0.3123E+00
    -10.264  0.5002E-01  0.5002E-01  0.3184E+00  0.3184E+00
    -10.142  0.5443E-01  0.5443E-01  0.3251E+00  0.3251E+00
    -10.020  0.6319E-01  0.6319E-01  0.3328E+00  0.3328E+00
     -9.897  0.5772E-01  0.5772E-01  0.3399E+00  0.3399E+00
     -9.775  0.6471E-01  0.6471E-01  0.3478E+00  0.3478E+00
     -9.653  0.6383E-01  0.6383E-01  0.3556E+00  0.3556E+00
     -9.530  0.7072E-01  0.7072E-01  0.3642E+00  0.3642E+00
     -9.408  0.6607E-01  0.6607E-01  0.3723E+00  0.3723E+00
     -9.286  0.6334E-01  0.6334E-01  0.3801E+00  0.3801E+00
     -9.163  0.9683E-01  0.9683E-01  0.3919E+00  0.3919E+00
     -9.041  0.8262E-01  0.8262E-01  0.4020E+00  0.4020E+00
     -8.919  0.7812E-01  0.7812E-01  0.4116E+00  0.4116E+00
     -8.797  0.4516E-01  0.4516E-01  0.4171E+00  0.4171E+00
     -8.674  0.3596E-01  0.3596E-01  0.4215E+00  0.4215E+00
     -8.552  0.6406E-01  0.6406E-01  0.4293E+00  0.4293E+00
     -8.430  0.9446E-01  0.9446E-01  0.4409E+00  0.4409E+00
     -8.307  0.6640E-01  0.6640E-01  0.4490E+00  0.4490E+00
     -8.185  0.4452E-01  0.4452E-01  0.4544E+00  0.4544E+00
     -8.063  0.3247E-01  0.3247E-01  0.4584E+00  0.4584E+00
     -7.940  0.4371E-01  0.4371E-01  0.4638E+00  0.4638E+00
     -7.818  0.2565E-01  0.2565E-01  0.4669E+00  0.4669E+00
     -7.696  0.3211E-01  0.3211E-01  0.4708E+00  0.4708E+00
     -7.574  0.6227E-01  0.6227E-01  0.4784E+00  0.4784E+00
     -7.451  0.7956E-01  0.7956E-01  0.4882E+00  0.4882E+00
     -7.329  0.6653E-01  0.6653E-01  0.4963E+00  0.4963E+00
     -7.207  0.3513E-01  0.3513E-01  0.5006E+00  0.5006E+00
     -7.084  0.3301E-01  0.3301E-01  0.5046E+00  0.5046E+00
     -6.962  0.5126E-01  0.5126E-01  0.5109E+00  0.5109E+00
     -6.840  0.3575E-01  0.3575E-01  0.5153E+00  0.5153E+00
     -6.717  0.4271E-01  0.4271E-01  0.5205E+00  0.5205E+00
     -6.595  0.2507E-01  0.2507E-01  0.5236E+00  0.5236E+00
     -6.473  0.7105E-01  0.7105E-01  0.5323E+00  0.5323E+00
     -6.351  0.4621E-01  0.4621E-01  0.5379E+00  0.5379E+00
     -6.228  0.2542E-01  0.2542E-01  0.5410E+00  0.5410E+00
     -6.106  0.5245E-01  0.5245E-01  0.5474E+00  0.5474E+00
     -5.984  0.1763E-01  0.1763E-01  0.5496E+00  0.5496E+00
     -5.861  0.3162E-01  0.3162E-01  0.5535E+00  0.5535E+00
     -5.739  0.1506E-01  0.1506E-01  0.5553E+00  0.5553E+00
     -5.617  0.2340E-01  0.2340E-01  0.5582E+00  0.5582E+00
     -5.494  0.4113E-01  0.4113E-01  0.5632E+00  0.5632E+00
     -5.372  0.2354E-01  0.2354E-01  0.5661E+00  0.5661E+00
     -5.250  0.7885E-01  0.7885E-01  0.5757E+00  0.5757E+00
     -5.127  0.4833E-01  0.4833E-01  0.5816E+00  0.5816E+00
     -5.005  0.3951E-01  0.3951E-01  0.5865E+00  0.5865E+00
     -4.883  0.8360E-02  0.8360E-02  0.5875E+00  0.5875E+00
     -4.761  0.1265E-02  0.1265E-02  0.5876E+00  0.5876E+00
     -4.638  0.1784E-01  0.1784E-01  0.5898E+00  0.5898E+00
     -4.516  0.6721E-01  0.6721E-01  0.5980E+00  0.5980E+00
     -4.394  0.5310E-01  0.5310E-01  0.6045E+00  0.6045E+00
     -4.271  0.9902E-01  0.9902E-01  0.6166E+00  0.6166E+00
     -4.149  0.2558E-01  0.2558E-01  0.6198E+00  0.6198E+00
     -4.027  0.2834E-01  0.2834E-01  0.6232E+00  0.6232E+00
     -3.904  0.3286E-02  0.3286E-02  0.6236E+00  0.6236E+00
     -3.782  0.4791E-02  0.4791E-02  0.6242E+00  0.6242E+00
     -3.660  0.2059E-01  0.2059E-01  0.6267E+00  0.6267E+00
     -3.538  0.6192E-02  0.6192E-02  0.6275E+00  0.6275E+00
     -3.415  0.4570E-02  0.4570E-02  0.6281E+00  0.6281E+00
     -3.293  0.4945E-02  0.4945E-02  0.6287E+00  0.6287E+00
     -3.171  0.2405E-01  0.2405E-01  0.6316E+00  0.6316E+00
     -3.048  0.5131E-02  0.5131E-02  0.6322E+00  0.6322E+00
     -2.926  0.8980E-02  0.8980E-02  0.6333E+00  0.6333E+00
     -2.804  0.1689E-04  0.1689E-04  0.6333E+00  0.6333E+00
     -2.681  0.3994E-02  0.3994E-02  0.6338E+00  0.6338E+00
     -2.559  0.9608E-02  0.9608E-02  0.6350E+00  0.6350E+00
     -2.437  0.2465E-04  0.2465E-04  0.6350E+00  0.6350E+00
     -2.315  0.8245E-03  0.8245E-03  0.6351E+00  0.6351E+00
     -2.192  0.9838E-02  0.9838E-02  0.6363E+00  0.6363E+00
     -2.070  0.5456E-02  0.5456E-02  0.6370E+00  0.6370E+00
     -1.948  0.2353E-01  0.2353E-01  0.6398E+00  0.6398E+00
     -1.825  0.1443E-02  0.1443E-02  0.6400E+00  0.6400E+00
     -1.703  0.1187E-01  0.1187E-01  0.6415E+00  0.6415E+00
     -1.581  0.1974E-01  0.1974E-01  0.6439E+00  0.6439E+00
     -1.458  0.9047E-02  0.9047E-02  0.6450E+00  0.6450E+00
     -1.336  0.1532E-02  0.1532E-02  0.6452E+00  0.6452E+00
     -1.214  0.3196E-01  0.3196E-01  0.6491E+00  0.6491E+00
     -1.091  0.5248E-01  0.5248E-01  0.6555E+00  0.6555E+00
     -0.969  0.2564E-01  0.2564E-01  0.6586E+00  0.6586E+00
     -0.847  0.2744E-01  0.2744E-01  0.6620E+00  0.6620E+00
     -0.725  0.3018E-01  0.3018E-01  0.6657E+00  0.6657E+00
     -0.602  0.1450E-01  0.1450E-01  0.6675E+00  0.6675E+00
     -0.480  0.2626E-01  0.2626E-01  0.6707E+00  0.6707E+00
     -0.358  0.2686E-01  0.2686E-01  0.6740E+00  0.6740E+00
     -0.235  0.3703E-01  0.3703E-01  0.6785E+00  0.6785E+00
     -0.113  0.4189E-01  0.4189E-01  0.6836E+00  0.6836E+00
      0.009  0.1900E-01  0.1900E-01  0.6859E+00  0.6859E+00
      0.132  0.6754E-02  0.6754E-02  0.6868E+00  0.6868E+00
      0.254  0.1394E-01  0.1394E-01  0.6885E+00  0.6885E+00
      0.376  0.1924E-01  0.1924E-01  0.6908E+00  0.6908E+00
      0.498  0.2789E-01  0.2789E-01  0.6942E+00  0.6942E+00
      0.621  0.1587E-01  0.1587E-01  0.6962E+00  0.6962E+00
      0.743  0.1420E-01  0.1420E-01  0.6979E+00  0.6979E+00
      0.865  0.3046E-01  0.3046E-01  0.7016E+00  0.7016E+00
      0.988  0.2883E-01  0.2883E-01  0.7052E+00  0.7052E+00
      1.110  0.2604E-01  0.2604E-01  0.7084E+00  0.7084E+00
      1.232  0.4495E-01  0.4495E-01  0.7138E+00  0.7138E+00
      1.355  0.5637E-01  0.5637E-01  0.7207E+00  0.7207E+00
      1.477  0.3963E-01  0.3963E-01  0.7256E+00  0.7256E+00
      1.599  0.2113E-01  0.2113E-01  0.7282E+00  0.7282E+00
      1.721  0.2050E-01  0.2050E-01  0.7307E+00  0.7307E+00
      1.844  0.3445E-01  0.3445E-01  0.7349E+00  0.7349E+00
      1.966  0.9555E-01  0.9555E-01  0.7466E+00  0.7466E+00
      2.088  0.3944E-01  0.3944E-01  0.7514E+00  0.7514E+00
      2.211  0.2540E-01  0.2540E-01  0.7545E+00  0.7545E+00
      2.333  0.6961E-01  0.6961E-01  0.7630E+00  0.7630E+00
      2.455  0.6634E-01  0.6634E-01  0.7711E+00  0.7711E+00
      2.578  0.5084E-01  0.5084E-01  0.7774E+00  0.7774E+00
      2.700  0.2746E-01  0.2746E-01  0.7807E+00  0.7807E+00
      2.822  0.1140E+00  0.1140E+00  0.7947E+00  0.7947E+00
      2.945  0.1569E+00  0.1569E+00  0.8138E+00  0.8138E+00
      3.067  0.4828E-01  0.4828E-01  0.8197E+00  0.8197E+00
      3.189  0.2218E-01  0.2218E-01  0.8225E+00  0.8225E+00
      3.311  0.5729E-01  0.5729E-01  0.8295E+00  0.8295E+00
      3.434  0.8893E-01  0.8893E-01  0.8403E+00  0.8403E+00
      3.556  0.5020E-01  0.5020E-01  0.8465E+00  0.8465E+00
      3.678  0.4134E-01  0.4134E-01  0.8515E+00  0.8515E+00
      3.801  0.9408E-01  0.9408E-01  0.8630E+00  0.8630E+00
      3.923  0.1005E+00  0.1005E+00  0.8753E+00  0.8753E+00
      4.045  0.5677E-01  0.5677E-01  0.8823E+00  0.8823E+00
      4.168  0.8473E-02  0.8473E-02  0.8833E+00  0.8833E+00
      4.290  0.9443E-04  0.9443E-04  0.8833E+00  0.8833E+00
      4.412  0.5139E-10  0.5139E-10  0.8833E+00  0.8833E+00
      4.534  0.0000E+00  0.0000E+00  0.8833E+00  0.8833E+00
      4.657  0.0000E+00  0.0000E+00  0.8833E+00  0.8833E+00
      4.779  0.0000E+00  0.0000E+00  0.8833E+00  0.8833E+00
      4.901  0.0000E+00  0.0000E+00  0.8833E+00  0.8833E+00
      5.024  0.0000E+00  0.0000E+00  0.8833E+00  0.8833E+00
      5.146  0.0000E+00  0.0000E+00  0.8833E+00  0.8833E+00
      5.268  0.0000E+00  0.0000E+00  0.8833E+00  0.8833E+00
      5.391  0.0000E+00  0.0000E+00  0.8833E+00  0.8833E+00
      5.513  0.0000E+00  0.0000E+00  0.8833E+00  0.8833E+00
      5.635  0.0000E+00  0.0000E+00  0.8833E+00  0.8833E+00
      5.757  0.0000E+00  0.0000E+00  0.8833E+00  0.8833E+00
