 vasp.6.4.2 20Jul23 (build Jan 24 2024 13:44:02) complex                         
 POSCAR found type information on POSCAR C F N H O 
 05/POSCAR found :  5 types and      93 ions
 scaLAPACK will be used selectively (only on CPU)
 LDA part: xc-table for Pade appr. of Perdew
 POSCAR found type information on POSCAR C F N H O 
 00/POSCAR found :  5 types and      93 ions
 POSCAR found type information on POSCAR C F N H O 
 06/POSCAR found :  5 types and      93 ions
 POSCAR, INCAR and KPOINTS ok, starting setup
 FFT: planning ... GRIDC
 FFT: planning ... GRID_SOFT
 FFT: planning ... GRID
 WAVECAR not read
 entering main loop
       N       E                     dE             d eps       ncg     rms          rms(c)
DAV:   1     0.349104265038E+04    0.34910E+04   -0.14368E+05  4590   0.109E+03
DAV:   2    -0.184481880244E+03   -0.36755E+04   -0.34660E+04  6380   0.268E+02
DAV:   3    -0.840763659889E+03   -0.65628E+03   -0.65318E+03  5250   0.118E+02
DAV:   4    -0.863404410580E+03   -0.22641E+02   -0.22534E+02  5170   0.276E+01
DAV:   5    -0.864122136190E+03   -0.71773E+00   -0.71675E+00  6040   0.418E+00    0.513E+01
DAV:   6    -0.847680663911E+03    0.16441E+02   -0.20501E+01  5080   0.787E+00    0.333E+01
DAV:   7    -0.827753334279E+03    0.19927E+02   -0.30598E+01  5020   0.887E+00    0.202E+01
DAV:   8    -0.823098525090E+03    0.46548E+01   -0.21189E+01  4900   0.701E+00    0.795E+00
DAV:   9    -0.823132179505E+03   -0.33654E-01   -0.10580E+00  5030   0.188E+00    0.332E+00
DAV:  10    -0.822997012164E+03    0.13517E+00   -0.35874E-01  4800   0.109E+00    0.101E+00
DAV:  11    -0.822982766138E+03    0.14246E-01   -0.93517E-02  4900   0.576E-01    0.238E-01
DAV:  12    -0.822983178289E+03   -0.41215E-03   -0.95189E-03  5110   0.232E-01    0.118E-01
DAV:  13    -0.822983336461E+03   -0.15817E-03   -0.13510E-03  5120   0.782E-02    0.910E-02
DAV:  14    -0.822983366913E+03   -0.30452E-04   -0.26330E-04  4950   0.347E-02    0.547E-02
DAV:  15    -0.822983423240E+03   -0.56327E-04   -0.11623E-04  4790   0.252E-02    0.246E-02
DAV:  16    -0.822983428689E+03   -0.54493E-05   -0.23717E-05  4950   0.125E-02    0.125E-02
DAV:  17    -0.822983429142E+03   -0.45312E-06   -0.12217E-05  5190   0.810E-03    0.596E-03
DAV:  18    -0.822983428608E+03    0.53440E-06   -0.26812E-06  4210   0.599E-03
   1 F= -.83050803E+03 E0= -.83050803E+03  d E =-.830508E+03  mag=     0.0000
quench:  g(F)=  0.356E-03 g(S)=  0.000E+00 dE (1.order)=-0.712E-03
 bond charge predicted
       N       E                     dE             d eps       ncg     rms          rms(c)
DAV:   1    -0.822983369843E+03    0.59299E-04   -0.27398E-03  4480   0.106E-01    0.120E-02
DAV:   2    -0.822983374057E+03   -0.42142E-05   -0.59305E-05  5030   0.149E-02    0.103E-02
DAV:   3    -0.822983373081E+03    0.97632E-06   -0.26689E-06  3760   0.358E-03
   2 F= -.83050797E+03 E0= -.83050797E+03  d E =0.572346E-04  mag=    -0.0000
quench:  g(F)=  0.396E-03 g(S)=  0.000E+00 dE (1.order)=-0.104E-02
 bond charge predicted
       N       E                     dE             d eps       ncg     rms          rms(c)
DAV:   1    -0.822983262195E+03    0.11186E-03   -0.71833E-03  4460   0.176E-01    0.194E-02
DAV:   2    -0.822983275229E+03   -0.13035E-04   -0.17505E-04  5110   0.256E-02    0.163E-02
DAV:   3    -0.822983272988E+03    0.22411E-05   -0.74942E-06  5250   0.537E-03    0.121E-02
DAV:   4    -0.822983272388E+03    0.60032E-06   -0.53118E-06  4320   0.500E-03
   3 F= -.83050787E+03 E0= -.83050787E+03  d E =0.987494E-04  mag=    -0.0000
quench:  g(F)=  0.729E-03 g(S)=  0.000E+00 dE (1.order)=-0.140E-02
 bond charge predicted
       N       E                     dE             d eps       ncg     rms          rms(c)
DAV:   1    -0.822983207273E+03    0.65716E-04   -0.95750E-03  4390   0.205E-01    0.225E-02
DAV:   2    -0.822983223848E+03   -0.16576E-04   -0.24199E-04  5270   0.303E-02    0.194E-02
DAV:   3    -0.822983219420E+03    0.44286E-05   -0.12810E-05  5410   0.701E-03    0.143E-02
DAV:   4    -0.822983216776E+03    0.26439E-05   -0.70933E-06  4260   0.582E-03    0.693E-03
DAV:   5    -0.822983216686E+03    0.90287E-07   -0.21281E-06  3140   0.295E-03
   4 F= -.83050782E+03 E0= -.83050782E+03  d E =0.580259E-04  mag=    -0.0000
quench:  g(F)=  0.801E-03 g(S)=  0.000E+00 dE (1.order)=-0.107E-02
 bond charge predicted
       N       E                     dE             d eps       ncg     rms          rms(c)
DAV:   1    -0.822983223465E+03   -0.66887E-05   -0.52965E-03  4440   0.152E-01    0.168E-02
DAV:   2    -0.822983232532E+03   -0.90671E-05   -0.13311E-04  5240   0.224E-02    0.147E-02
DAV:   3    -0.822983229872E+03    0.26595E-05   -0.68505E-06  5140   0.508E-03    0.109E-02
DAV:   4    -0.822983228121E+03    0.17516E-05   -0.43912E-06  4120   0.459E-03    0.507E-03
DAV:   5    -0.822983228050E+03    0.70628E-07   -0.12538E-06  2950   0.221E-03
   5 F= -.83050783E+03 E0= -.83050783E+03  d E =-.128439E-04  mag=    -0.0000
quench:  g(F)=  0.350E-03 g(S)=  0.000E+00 dE (1.order)=-0.685E-03
 bond charge predicted
       N       E                     dE             d eps       ncg     rms          rms(c)
DAV:   1    -0.822983185996E+03    0.42124E-04   -0.27856E-03  4320   0.109E-01    0.121E-02
DAV:   2    -0.822983190454E+03   -0.44577E-05   -0.63561E-05  5100   0.154E-02    0.105E-02
DAV:   3    -0.822983189381E+03    0.10733E-05   -0.28391E-06  3800   0.353E-03    0.789E-03
DAV:   4    -0.822983188908E+03    0.47254E-06   -0.33722E-06  3980   0.388E-03
   6 F= -.83050779E+03 E0= -.83050779E+03  d E =0.408032E-04  mag=    -0.0000
quench:  g(F)=  0.376E-03 g(S)=  0.000E+00 dE (1.order)=-0.964E-03
 bond charge predicted
       N       E                     dE             d eps       ncg     rms          rms(c)
DAV:   1    -0.822983104745E+03    0.84636E-04   -0.56943E-03  4340   0.157E-01    0.172E-02
DAV:   2    -0.822983114788E+03   -0.10043E-04   -0.13640E-04  5140   0.227E-02    0.147E-02
DAV:   3    -0.822983112839E+03    0.19490E-05   -0.64062E-06  5100   0.494E-03    0.109E-02
DAV:   4    -0.822983112074E+03    0.76562E-06   -0.42038E-06  4040   0.451E-03
   7 F= -.83050771E+03 E0= -.83050771E+03  d E =0.765951E-04  mag=     0.0000
quench:  g(F)=  0.680E-03 g(S)=  0.000E+00 dE (1.order)=-0.131E-02
 bond charge predicted
       N       E                     dE             d eps       ncg     rms          rms(c)
DAV:   1    -0.822983063004E+03    0.49835E-04   -0.83370E-03  4350   0.193E-01    0.207E-02
DAV:   2    -0.822983078302E+03   -0.15298E-04   -0.21737E-04  5220   0.288E-02    0.178E-02
DAV:   3    -0.822983074790E+03    0.35116E-05   -0.10596E-05  5420   0.640E-03    0.133E-02
DAV:   4    -0.822983072460E+03    0.23301E-05   -0.61116E-06  4160   0.547E-03    0.637E-03
DAV:   5    -0.822983072394E+03    0.66451E-07   -0.18683E-06  3080   0.278E-03
   8 F= -.83050767E+03 E0= -.83050767E+03  d E =0.416517E-04  mag=    -0.0000
quench:  g(F)=  0.758E-03 g(S)=  0.000E+00 dE (1.order)=-0.102E-02
 bond charge predicted
       N       E                     dE             d eps       ncg     rms          rms(c)
DAV:   1    -0.822983072999E+03   -0.53889E-06   -0.46252E-03  4350   0.143E-01    0.155E-02
DAV:   2    -0.822983081309E+03   -0.83094E-05   -0.11854E-04  5260   0.212E-02    0.136E-02
DAV:   3    -0.822983079174E+03    0.21347E-05   -0.58475E-06  5020   0.470E-03    0.102E-02
DAV:   4    -0.822983077691E+03    0.14832E-05   -0.37627E-06  3920   0.428E-03    0.475E-03
DAV:   5    -0.822983077648E+03    0.42426E-07   -0.10755E-06  2820   0.209E-03
   9 F= -.83050768E+03 E0= -.83050768E+03  d E =-.647155E-05  mag=     0.0000
quench:  g(F)=  0.345E-03 g(S)=  0.000E+00 dE (1.order)=-0.662E-03
 bond charge predicted
       N       E                     dE             d eps       ncg     rms          rms(c)
DAV:   1    -0.822983043002E+03    0.34688E-04   -0.29245E-03  4310   0.111E-01    0.123E-02
DAV:   2    -0.822983047833E+03   -0.48305E-05   -0.67820E-05  5140   0.159E-02    0.107E-02
DAV:   3    -0.822983046725E+03    0.11073E-05   -0.29734E-06  3820   0.360E-03    0.804E-03
DAV:   4    -0.822983046231E+03    0.49484E-06   -0.34682E-06  3960   0.393E-03
  10 F= -.83050764E+03 E0= -.83050764E+03  d E =0.337803E-04  mag=    -0.0000
quench:  g(F)=  0.362E-03 g(S)=  0.000E+00 dE (1.order)=-0.913E-03
 bond charge predicted
       N       E                     dE             d eps       ncg     rms          rms(c)
DAV:   1    -0.822982975107E+03    0.71619E-04   -0.57764E-03  4310   0.158E-01    0.173E-02
DAV:   2    -0.822982985323E+03   -0.10217E-04   -0.13971E-04  5120   0.229E-02    0.147E-02
DAV:   3    -0.822982983247E+03    0.20767E-05   -0.65724E-06  5180   0.497E-03    0.109E-02
DAV:   4    -0.822982982369E+03    0.87742E-06   -0.42274E-06  4060   0.449E-03
  11 F= -.83050758E+03 E0= -.83050758E+03  d E =0.627891E-04  mag=    -0.0000
quench:  g(F)=  0.649E-03 g(S)=  0.000E+00 dE (1.order)=-0.124E-02
 bond charge predicted
       N       E                     dE             d eps       ncg     rms          rms(c)
DAV:   1    -0.822982953357E+03    0.29889E-04   -0.74315E-03  4320   0.181E-01    0.196E-02
DAV:   2    -0.822982966579E+03   -0.13222E-04   -0.19002E-04  5160   0.268E-02    0.168E-02
DAV:   3    -0.822982963283E+03    0.32962E-05   -0.95497E-06  5415   0.601E-03    0.124E-02
DAV:   4    -0.822982961264E+03    0.20189E-05   -0.55504E-06  4140   0.517E-03    0.602E-03
DAV:   5    -0.822982961199E+03    0.65484E-07   -0.16158E-06  3080   0.255E-03
  12 F= -.83050756E+03 E0= -.83050756E+03  d E =0.227395E-04  mag=    -0.0000
quench:  g(F)=  0.709E-03 g(S)=  0.000E+00 dE (1.order)=-0.970E-03
 bond charge predicted
       N       E                     dE             d eps       ncg     rms          rms(c)
DAV:   1    -0.822982962238E+03   -0.97413E-06   -0.40540E-03  4320   0.133E-01    0.146E-02
DAV:   2    -0.822982969231E+03   -0.69926E-05   -0.10108E-04  5180   0.194E-02    0.127E-02
DAV:   3    -0.822982967318E+03    0.19130E-05   -0.49977E-06  4670   0.435E-03    0.943E-03
DAV:   4    -0.822982966121E+03    0.11971E-05   -0.37417E-06  3900   0.415E-03    0.434E-03
DAV:   5    -0.822982966097E+03    0.23516E-07   -0.85894E-07  2700   0.186E-03
  13 F= -.83050756E+03 E0= -.83050756E+03  d E =-.558364E-05  mag=    -0.0000
quench:  g(F)=  0.342E-03 g(S)=  0.000E+00 dE (1.order)=-0.644E-03
 bond charge predicted
       N       E                     dE             d eps       ncg     rms          rms(c)
DAV:   1    -0.822982935177E+03    0.30943E-04   -0.31520E-03  4280   0.115E-01    0.126E-02
DAV:   2    -0.822982940331E+03   -0.51534E-05   -0.71745E-05  5060   0.163E-02    0.109E-02
DAV:   3    -0.822982939175E+03    0.11560E-05   -0.30969E-06  3990   0.362E-03    0.823E-03
DAV:   4    -0.822982938657E+03    0.51792E-06   -0.35810E-06  3910   0.400E-03
  14 F= -.83050754E+03 E0= -.83050754E+03  d E =0.283153E-04  mag=    -0.0000
quench:  g(F)=  0.357E-03 g(S)=  0.000E+00 dE (1.order)=-0.883E-03
 bond charge predicted
       N       E                     dE             d eps       ncg     rms          rms(c)
DAV:   1    -0.822982883292E+03    0.55883E-04   -0.59205E-03  4300   0.159E-01    0.174E-02
DAV:   2    -0.822982893332E+03   -0.10040E-04   -0.14064E-04  5120   0.227E-02    0.149E-02
DAV:   3    -0.822982891053E+03    0.22798E-05   -0.68063E-06  5260   0.503E-03    0.109E-02
DAV:   4    -0.822982890053E+03    0.10000E-05   -0.42293E-06  4060   0.447E-03    0.509E-03
DAV:   5    -0.822982890152E+03   -0.99848E-07   -0.11371E-06  3020   0.212E-03
  15 F= -.83050749E+03 E0= -.83050749E+03  d E =0.476325E-04  mag=    -0.0000
quench:  g(F)=  0.628E-03 g(S)=  0.000E+00 dE (1.order)=-0.118E-02
 bond charge predicted
       N       E                     dE             d eps       ncg     rms          rms(c)
DAV:   1    -0.822982875135E+03    0.14918E-04   -0.67013E-03  4290   0.171E-01    0.187E-02
DAV:   2    -0.822982886335E+03   -0.11200E-04   -0.16387E-04  5180   0.246E-02    0.164E-02
DAV:   3    -0.822982883106E+03    0.32292E-05   -0.84707E-06  5440   0.565E-03    0.121E-02
DAV:   4    -0.822982881076E+03    0.20294E-05   -0.53904E-06  4140   0.508E-03    0.565E-03
DAV:   5    -0.822982880999E+03    0.77569E-07   -0.15303E-06  3140   0.243E-03
  16 F= -.83050748E+03 E0= -.83050748E+03  d E =0.938520E-05  mag=     0.0000
quench:  g(F)=  0.657E-03 g(S)=  0.000E+00 dE (1.order)=-0.912E-03
 bond charge predicted
       N       E                     dE             d eps       ncg     rms          rms(c)
DAV:   1    -0.822982883088E+03   -0.20119E-05   -0.35674E-03  4290   0.125E-01    0.136E-02
DAV:   2    -0.822982889256E+03   -0.61676E-05   -0.88370E-05  5180   0.181E-02    0.119E-02
DAV:   3    -0.822982887599E+03    0.16567E-05   -0.41811E-06  4460   0.400E-03    0.884E-03
DAV:   4    -0.822982886535E+03    0.10645E-05   -0.35250E-06  3820   0.400E-03    0.397E-03
DAV:   5    -0.822982886515E+03    0.19478E-07   -0.74445E-07  2650   0.175E-03
  17 F= -.83050748E+03 E0= -.83050748E+03  d E =-.611780E-05  mag=     0.0000
quench:  g(F)=  0.338E-03 g(S)=  0.000E+00 dE (1.order)=-0.629E-03
 bond charge predicted
       N       E                     dE             d eps       ncg     rms          rms(c)
DAV:   1    -0.822982858834E+03    0.27701E-04   -0.31759E-03  4250   0.116E-01    0.127E-02
DAV:   2    -0.822982864258E+03   -0.54240E-05   -0.74232E-05  5000   0.166E-02    0.109E-02
DAV:   3    -0.822982863190E+03    0.10673E-05   -0.29923E-06  3930   0.355E-03    0.833E-03
DAV:   4    -0.822982862681E+03    0.50897E-06   -0.37822E-06  3970   0.411E-03
  18 F= -.83050746E+03 E0= -.83050746E+03  d E =0.237756E-04  mag=     0.0000
quench:  g(F)=  0.340E-03 g(S)=  0.000E+00 dE (1.order)=-0.840E-03
 bond charge predicted
       N       E                     dE             d eps       ncg     rms          rms(c)
DAV:   1    -0.822982813009E+03    0.50181E-04   -0.57065E-03  4260   0.158E-01    0.174E-02
DAV:   2    -0.822982823508E+03   -0.10498E-04   -0.14345E-04  5080   0.232E-02    0.147E-02
DAV:   3    -0.822982821366E+03    0.21422E-05   -0.66197E-06  5280   0.499E-03    0.109E-02
DAV:   4    -0.822982820256E+03    0.11090E-05   -0.40452E-06  4040   0.443E-03    0.515E-03
DAV:   5    -0.822982820345E+03   -0.89021E-07   -0.11840E-06  2920   0.224E-03
  19 F= -.83050742E+03 E0= -.83050742E+03  d E =0.407060E-04  mag=    -0.0000
quench:  g(F)=  0.592E-03 g(S)=  0.000E+00 dE (1.order)=-0.111E-02
 bond charge predicted
       N       E                     dE             d eps       ncg     rms          rms(c)
DAV:   1    -0.822982812748E+03    0.75088E-05   -0.61296E-03  4300   0.164E-01    0.183E-02
DAV:   2    -0.822982823675E+03   -0.10927E-04   -0.15669E-04  5200   0.243E-02    0.157E-02
DAV:   3    -0.822982820847E+03    0.28277E-05   -0.76538E-06  5340   0.540E-03    0.118E-02
DAV:   4    -0.822982818848E+03    0.19989E-05   -0.50213E-06  4160   0.496E-03    0.550E-03
DAV:   5    -0.822982818781E+03    0.67317E-07   -0.15411E-06  3100   0.247E-03
  20 F= -.83050742E+03 E0= -.83050742E+03  d E =0.167886E-05  mag=    -0.0000
quench:  g(F)=  0.599E-03 g(S)=  0.000E+00 dE (1.order)=-0.850E-03
 bond charge predicted
       N       E                     dE             d eps       ncg     rms          rms(c)
DAV:   1    -0.822982820983E+03   -0.21348E-05   -0.31791E-03  4310   0.118E-01    0.131E-02
DAV:   2    -0.822982826648E+03   -0.56653E-05   -0.80548E-05  5200   0.173E-02    0.113E-02
DAV:   3    -0.822982825187E+03    0.14613E-05   -0.36464E-06  4030   0.381E-03    0.852E-03
DAV:   4    -0.822982824223E+03    0.96326E-06   -0.37283E-06  3750   0.405E-03
  21 F= -.83050742E+03 E0= -.83050742E+03  d E =-.537156E-05  mag=     0.0000
quench:  g(F)=  0.325E-03 g(S)=  0.000E+00 dE (1.order)=-0.614E-03
 bond charge predicted
       N       E                     dE             d eps       ncg     rms          rms(c)
DAV:   1    -0.822982799821E+03    0.25365E-04   -0.30152E-03  4305   0.113E-01    0.124E-02
DAV:   2    -0.822982805295E+03   -0.54735E-05   -0.73134E-05  5020   0.164E-02    0.105E-02
DAV:   3    -0.822982804347E+03    0.94755E-06   -0.28578E-06  3840   0.350E-03
  22 F= -.83050741E+03 E0= -.83050741E+03  d E =0.179142E-04  mag=     0.0000
quench:  g(F)=  0.318E-03 g(S)=  0.000E+00 dE (1.order)=-0.800E-03
 bond charge predicted
       N       E                     dE             d eps       ncg     rms          rms(c)
DAV:   1    -0.822982769033E+03    0.36262E-04   -0.58024E-03  4320   0.159E-01    0.178E-02
DAV:   2    -0.822982780671E+03   -0.11638E-04   -0.15323E-04  5080   0.240E-02    0.147E-02
DAV:   3    -0.822982778777E+03    0.18940E-05   -0.65366E-06  5040   0.500E-03    0.110E-02
DAV:   4    -0.822982778120E+03    0.65700E-06   -0.42213E-06  4000   0.447E-03
  23 F= -.83050738E+03 E0= -.83050738E+03  d E =0.286976E-04  mag=     0.0000
quench:  g(F)=  0.555E-03 g(S)=  0.000E+00 dE (1.order)=-0.106E-02
 bond charge predicted
       N       E                     dE             d eps       ncg     rms          rms(c)
DAV:   1    -0.822982760990E+03    0.17787E-04   -0.65235E-03  4330   0.171E-01    0.188E-02
DAV:   2    -0.822982774054E+03   -0.13063E-04   -0.17939E-04  5140   0.262E-02    0.158E-02
DAV:   3    -0.822982771450E+03    0.26041E-05   -0.80150E-06  5400   0.557E-03    0.119E-02
DAV:   4    -0.822982769629E+03    0.18210E-05   -0.48024E-06  4080   0.493E-03    0.567E-03
DAV:   5    -0.822982769619E+03    0.91604E-08   -0.16232E-06  3060   0.259E-03
  24 F= -.83050737E+03 E0= -.83050737E+03  d E =0.476501E-05  mag=    -0.0000
quench:  g(F)=  0.578E-03 g(S)=  0.000E+00 dE (1.order)=-0.828E-03
 bond charge predicted
       N       E                     dE             d eps       ncg     rms          rms(c)
DAV:   1    -0.822982782729E+03   -0.13101E-04   -0.36843E-03  4320   0.128E-01    0.141E-02
DAV:   2    -0.822982789807E+03   -0.70773E-05   -0.97852E-05  5180   0.193E-02    0.121E-02
DAV:   3    -0.822982788207E+03    0.16001E-05   -0.42931E-06  4320   0.415E-03    0.921E-03
DAV:   4    -0.822982787061E+03    0.11456E-05   -0.39546E-06  3860   0.426E-03    0.409E-03
DAV:   5    -0.822982787055E+03    0.57771E-08   -0.80769E-07  2600   0.185E-03
  25 F= -.83050739E+03 E0= -.83050739E+03  d E =-.156417E-04  mag=    -0.0000
quench:  g(F)=  0.319E-03 g(S)=  0.000E+00 dE (1.order)=-0.597E-03
 bond charge predicted
       N       E                     dE             d eps       ncg     rms          rms(c)
DAV:   1    -0.822982775016E+03    0.12045E-04   -0.29353E-03  4290   0.111E-01    0.122E-02
DAV:   2    -0.822982780184E+03   -0.51684E-05   -0.70645E-05  5000   0.162E-02    0.104E-02
DAV:   3    -0.822982779196E+03    0.98838E-06   -0.27342E-06  3800   0.349E-03
  26 F= -.83050738E+03 E0= -.83050738E+03  d E =0.711834E-05  mag=     0.0000
quench:  g(F)=  0.311E-03 g(S)=  0.000E+00 dE (1.order)=-0.776E-03
 bond charge predicted
       N       E                     dE             d eps       ncg     rms          rms(c)
DAV:   1    -0.822982751740E+03    0.28444E-04   -0.54261E-03  4290   0.152E-01    0.168E-02
DAV:   2    -0.822982762216E+03   -0.10476E-04   -0.13901E-04  5080   0.227E-02    0.138E-02
DAV:   3    -0.822982760492E+03    0.17237E-05   -0.58238E-06  4920   0.473E-03    0.103E-02
DAV:   4    -0.822982759957E+03    0.53542E-06   -0.40068E-06  3990   0.430E-03
  27 F= -.83050736E+03 E0= -.83050736E+03  d E =0.166325E-04  mag=     0.0000
quench:  g(F)=  0.541E-03 g(S)=  0.000E+00 dE (1.order)=-0.103E-02
 bond charge predicted
       N       E                     dE             d eps       ncg     rms          rms(c)
DAV:   1    -0.822982750948E+03    0.95446E-05   -0.62488E-03  4335   0.166E-01    0.183E-02
DAV:   2    -0.822982762958E+03   -0.12010E-04   -0.16659E-04  5140   0.251E-02    0.153E-02
DAV:   3    -0.822982760476E+03    0.24813E-05   -0.75929E-06  5440   0.540E-03    0.115E-02
DAV:   4    -0.822982758890E+03    0.15864E-05   -0.44706E-06  4080   0.470E-03    0.552E-03
DAV:   5    -0.822982758901E+03   -0.10739E-07   -0.14374E-06  2980   0.248E-03
  28 F= -.83050736E+03 E0= -.83050736E+03  d E =0.270794E-05  mag=     0.0000
quench:  g(F)=  0.569E-03 g(S)=  0.000E+00 dE (1.order)=-0.815E-03
 bond charge predicted
       N       E                     dE             d eps       ncg     rms          rms(c)
DAV:   1    -0.822982772938E+03   -0.14049E-04   -0.39542E-03  4320   0.132E-01    0.146E-02
DAV:   2    -0.822982780331E+03   -0.73928E-05   -0.10337E-04  5220   0.197E-02    0.125E-02
DAV:   3    -0.822982778598E+03    0.17328E-05   -0.47344E-06  4620   0.429E-03    0.944E-03
DAV:   4    -0.822982777389E+03    0.12093E-05   -0.37127E-06  3910   0.416E-03    0.434E-03
DAV:   5    -0.822982777369E+03    0.20264E-07   -0.87307E-07  2600   0.192E-03
  29 F= -.83050738E+03 E0= -.83050738E+03  d E =-.210053E-04  mag=    -0.0000
quench:  g(F)=  0.314E-03 g(S)=  0.000E+00 dE (1.order)=-0.582E-03
 bond charge predicted
       N       E                     dE             d eps       ncg     rms          rms(c)
DAV:   1    -0.822982776393E+03    0.99601E-06   -0.29026E-03  4310   0.111E-01    0.122E-02
DAV:   2    -0.822982781477E+03   -0.50840E-05   -0.70035E-05  5020   0.161E-02    0.104E-02
DAV:   3    -0.822982780416E+03    0.10615E-05   -0.29010E-06  3880   0.350E-03    0.799E-03
DAV:   4    -0.822982779855E+03    0.56077E-06   -0.33096E-06  3900   0.389E-03
  30 F= -.83050738E+03 E0= -.83050738E+03  d E =-.240799E-05  mag=    -0.0000
quench:  g(F)=  0.310E-03 g(S)=  0.000E+00 dE (1.order)=-0.753E-03
 bond charge predicted
       N       E                     dE             d eps       ncg     rms          rms(c)
DAV:   1    -0.822982762277E+03    0.18138E-04   -0.49084E-03  4320   0.145E-01    0.161E-02
DAV:   2    -0.822982771357E+03   -0.90800E-05   -0.12383E-04  5100   0.215E-02    0.133E-02
DAV:   3    -0.822982769606E+03    0.17516E-05   -0.55473E-06  4800   0.463E-03    0.993E-03
DAV:   4    -0.822982768825E+03    0.78041E-06   -0.36746E-06  3945   0.416E-03
  31 F= -.83050738E+03 E0= -.83050738E+03  d E =0.891511E-05  mag=    -0.0000
quench:  g(F)=  0.528E-03 g(S)=  0.000E+00 dE (1.order)=-0.993E-03
 bond charge predicted
       N       E                     dE             d eps       ncg     rms          rms(c)
DAV:   1    -0.822982769295E+03    0.31006E-06   -0.58820E-03  4330   0.162E-01    0.177E-02
DAV:   2    -0.822982780849E+03   -0.11554E-04   -0.15953E-04  5100   0.247E-02    0.147E-02
DAV:   3    -0.822982778537E+03    0.23122E-05   -0.73361E-06  5360   0.528E-03    0.110E-02
DAV:   4    -0.822982777102E+03    0.14349E-05   -0.41412E-06  4025   0.455E-03    0.550E-03
DAV:   5    -0.822982777111E+03   -0.90295E-08   -0.13309E-06  2910   0.244E-03
  32 F= -.83050739E+03 E0= -.83050739E+03  d E =-.955522E-05  mag=     0.0000
quench:  g(F)=  0.546E-03 g(S)=  0.000E+00 dE (1.order)=-0.777E-03
 bond charge predicted
       N       E                     dE             d eps       ncg     rms          rms(c)
DAV:   1    -0.822982794025E+03   -0.16922E-04   -0.37431E-03  4315   0.129E-01    0.142E-02
DAV:   2    -0.822982801136E+03   -0.71113E-05   -0.98430E-05  5180   0.194E-02    0.119E-02
DAV:   3    -0.822982799557E+03    0.15792E-05   -0.44203E-06  4420   0.415E-03    0.900E-03
DAV:   4    -0.822982798559E+03    0.99737E-06   -0.35546E-06  3860   0.403E-03
  33 F= -.83050741E+03 E0= -.83050741E+03  d E =-.221400E-04  mag=     0.0000
quench:  g(F)=  0.305E-03 g(S)=  0.000E+00 dE (1.order)=-0.567E-03
 bond charge predicted
       N       E                     dE             d eps       ncg     rms          rms(c)
DAV:   1    -0.822982800602E+03   -0.10458E-05   -0.30923E-03  4290   0.116E-01    0.124E-02
DAV:   2    -0.822982806443E+03   -0.58403E-05   -0.79465E-05  5020   0.172E-02    0.103E-02
DAV:   3    -0.822982805443E+03    0.99931E-06   -0.31742E-06  3960   0.361E-03
  34 F= -.83050742E+03 E0= -.83050742E+03  d E =-.837716E-05  mag=     0.0000
quench:  g(F)=  0.301E-03 g(S)=  0.000E+00 dE (1.order)=-0.720E-03
 bond charge predicted
       N       E                     dE             d eps       ncg     rms          rms(c)
DAV:   1    -0.822982803635E+03    0.28078E-05   -0.48799E-03  4290   0.145E-01    0.160E-02
DAV:   2    -0.822982813320E+03   -0.96855E-05   -0.12798E-04  4980   0.219E-02    0.129E-02
DAV:   3    -0.822982811820E+03    0.15005E-05   -0.53262E-06  4740   0.454E-03    0.956E-03
DAV:   4    -0.822982811460E+03    0.35961E-06   -0.38223E-06  3950   0.411E-03
  35 F= -.83050742E+03 E0= -.83050742E+03  d E =-.683052E-05  mag=     0.0000
quench:  g(F)=  0.504E-03 g(S)=  0.000E+00 dE (1.order)=-0.950E-03
 bond charge predicted
       N       E                     dE             d eps       ncg     rms          rms(c)
DAV:   1    -0.822982809775E+03    0.20451E-05   -0.55113E-03  4310   0.157E-01    0.171E-02
DAV:   2    -0.822982820202E+03   -0.10428E-04   -0.14577E-04  5120   0.235E-02    0.143E-02
DAV:   3    -0.822982818083E+03    0.21194E-05   -0.68612E-06  5220   0.509E-03    0.106E-02
DAV:   4    -0.822982816955E+03    0.11277E-05   -0.38950E-06  4000   0.434E-03    0.533E-03
DAV:   5    -0.822982817009E+03   -0.53573E-07   -0.11018E-06  2860   0.227E-03
  36 F= -.83050743E+03 E0= -.83050743E+03  d E =-.858059E-05  mag=     0.0000
quench:  g(F)=  0.540E-03 g(S)=  0.000E+00 dE (1.order)=-0.769E-03
 bond charge predicted
       N       E                     dE             d eps       ncg     rms          rms(c)
DAV:   1    -0.822982838496E+03   -0.21541E-04   -0.42487E-03  4330   0.137E-01    0.150E-02
DAV:   2    -0.822982846395E+03   -0.78983E-05   -0.11053E-04  5140   0.204E-02    0.127E-02
DAV:   3    -0.822982844567E+03    0.18275E-05   -0.52001E-06  4780   0.445E-03    0.950E-03
DAV:   4    -0.822982843446E+03    0.11209E-05   -0.35334E-06  3880   0.406E-03    0.458E-03
DAV:   5    -0.822982843417E+03    0.28718E-07   -0.87846E-07  2700   0.197E-03
  37 F= -.83050746E+03 E0= -.83050746E+03  d E =-.272386E-04  mag=    -0.0000
quench:  g(F)=  0.304E-03 g(S)=  0.000E+00 dE (1.order)=-0.557E-03
 bond charge predicted
       N       E                     dE             d eps       ncg     rms          rms(c)
DAV:   1    -0.822982854895E+03   -0.11449E-04   -0.31858E-03  4330   0.117E-01    0.127E-02
DAV:   2    -0.822982860562E+03   -0.56671E-05   -0.78686E-05  5080   0.172E-02    0.108E-02
DAV:   3    -0.822982859395E+03    0.11669E-05   -0.33007E-06  3860   0.366E-03    0.824E-03
DAV:   4    -0.822982858746E+03    0.64918E-06   -0.34589E-06  3880   0.393E-03
  38 F= -.83050748E+03 E0= -.83050748E+03  d E =-.173159E-04  mag=    -0.0000
quench:  g(F)=  0.297E-03 g(S)=  0.000E+00 dE (1.order)=-0.700E-03
 bond charge predicted
       N       E                     dE             d eps       ncg     rms          rms(c)
DAV:   1    -0.822982863861E+03   -0.44659E-05   -0.44231E-03  4310   0.137E-01    0.150E-02
DAV:   2    -0.822982871925E+03   -0.80640E-05   -0.11045E-04  5000   0.202E-02    0.124E-02
DAV:   3    -0.822982870376E+03    0.15491E-05   -0.48806E-06  4660   0.435E-03    0.923E-03
DAV:   4    -0.822982869697E+03    0.67926E-06   -0.35025E-06  3900   0.399E-03
  39 F= -.83050749E+03 E0= -.83050749E+03  d E =-.120105E-04  mag=    -0.0000
quench:  g(F)=  0.494E-03 g(S)=  0.000E+00 dE (1.order)=-0.919E-03
 bond charge predicted
       N       E                     dE             d eps       ncg     rms          rms(c)
DAV:   1    -0.822982877338E+03   -0.69623E-05   -0.52199E-03  4310   0.152E-01    0.164E-02
DAV:   2    -0.822982887146E+03   -0.98074E-05   -0.13733E-04  5140   0.228E-02    0.138E-02
DAV:   3    -0.822982885106E+03    0.20402E-05   -0.64046E-06  5120   0.490E-03    0.103E-02
DAV:   4    -0.822982883941E+03    0.11644E-05   -0.36998E-06  3960   0.422E-03    0.512E-03
DAV:   5    -0.822982883980E+03   -0.38955E-07   -0.10699E-06  2740   0.222E-03
  40 F= -.83050751E+03 E0= -.83050751E+03  d E =-.175503E-04  mag=     0.0000
quench:  g(F)=  0.503E-03 g(S)=  0.000E+00 dE (1.order)=-0.722E-03
 bond charge predicted
       N       E                     dE             d eps       ncg     rms          rms(c)
DAV:   1    -0.822982909244E+03   -0.25303E-04   -0.39927E-03  4310   0.132E-01    0.144E-02
DAV:   2    -0.822982916631E+03   -0.73866E-05   -0.10284E-04  5120   0.196E-02    0.123E-02
DAV:   3    -0.822982914958E+03    0.16721E-05   -0.46353E-06  4580   0.423E-03    0.923E-03
DAV:   4    -0.822982913905E+03    0.10535E-05   -0.36680E-06  3900   0.409E-03    0.431E-03
DAV:   5    -0.822982913901E+03    0.40382E-08   -0.79925E-07  2650   0.186E-03
  41 F= -.83050754E+03 E0= -.83050754E+03  d E =-.306046E-04  mag=    -0.0000
quench:  g(F)=  0.290E-03 g(S)=  0.000E+00 dE (1.order)=-0.542E-03
 bond charge predicted
       N       E                     dE             d eps       ncg     rms          rms(c)
DAV:   1    -0.822982928646E+03   -0.14741E-04   -0.33512E-03  4260   0.120E-01    0.129E-02
DAV:   2    -0.822982934566E+03   -0.59203E-05   -0.81548E-05  5040   0.174E-02    0.110E-02
DAV:   3    -0.822982933369E+03    0.11967E-05   -0.32803E-06  3980   0.367E-03    0.838E-03
DAV:   4    -0.822982932679E+03    0.68974E-06   -0.36768E-06  3860   0.407E-03
  42 F= -.83050756E+03 E0= -.83050756E+03  d E =-.216532E-04  mag=     0.0000
quench:  g(F)=  0.287E-03 g(S)=  0.000E+00 dE (1.order)=-0.684E-03
 bond charge predicted
       N       E                     dE             d eps       ncg     rms          rms(c)
DAV:   1    -0.822982941704E+03   -0.83349E-05   -0.44848E-03  4310   0.139E-01    0.150E-02
DAV:   2    -0.822982949805E+03   -0.81006E-05   -0.11159E-04  5100   0.203E-02    0.126E-02
DAV:   3    -0.822982948172E+03    0.16326E-05   -0.49214E-06  4700   0.435E-03    0.934E-03
DAV:   4    -0.822982947392E+03    0.77970E-06   -0.36171E-06  3890   0.407E-03
  43 F= -.83050757E+03 E0= -.83050757E+03  d E =-.163889E-04  mag=    -0.0000
quench:  g(F)=  0.478E-03 g(S)=  0.000E+00 dE (1.order)=-0.889E-03
 bond charge predicted
       N       E                     dE             d eps       ncg     rms          rms(c)
DAV:   1    -0.822982962766E+03   -0.14594E-04   -0.47294E-03  4310   0.144E-01    0.156E-02
DAV:   2    -0.822982971415E+03   -0.86490E-05   -0.12244E-04  5180   0.214E-02    0.132E-02
DAV:   3    -0.822982969458E+03    0.19570E-05   -0.58105E-06  5080   0.468E-03    0.982E-03
DAV:   4    -0.822982968317E+03    0.11403E-05   -0.34459E-06  3840   0.408E-03    0.481E-03
DAV:   5    -0.822982968315E+03    0.27139E-08   -0.98156E-07  2690   0.211E-03
  44 F= -.83050760E+03 E0= -.83050760E+03  d E =-.232405E-04  mag=     0.0000
quench:  g(F)=  0.486E-03 g(S)=  0.000E+00 dE (1.order)=-0.693E-03
 bond charge predicted
       N       E                     dE             d eps       ncg     rms          rms(c)
DAV:   1    -0.822982994021E+03   -0.25703E-04   -0.33469E-03  4310   0.121E-01    0.132E-02
DAV:   2    -0.822982999856E+03   -0.58348E-05   -0.83127E-05  5200   0.175E-02    0.113E-02
DAV:   3    -0.822982998399E+03    0.14565E-05   -0.38405E-06  4240   0.389E-03    0.848E-03
DAV:   4    -0.822982997516E+03    0.88344E-06   -0.34079E-06  3820   0.388E-03
  45 F= -.83050763E+03 E0= -.83050763E+03  d E =-.308308E-04  mag=     0.0000
quench:  g(F)=  0.282E-03 g(S)=  0.000E+00 dE (1.order)=-0.522E-03
 bond charge predicted
       N       E                     dE             d eps       ncg     rms          rms(c)
DAV:   1    -0.822983014543E+03   -0.16144E-04   -0.31510E-03  4420   0.115E-01    0.123E-02
DAV:   2    -0.822983019737E+03   -0.51935E-05   -0.73949E-05  5120   0.164E-02    0.104E-02
DAV:   3    -0.822983018577E+03    0.11594E-05   -0.32440E-06  4080   0.359E-03    0.776E-03
DAV:   4    -0.822983018114E+03    0.46374E-06   -0.30302E-06  3700   0.360E-03
  46 F= -.83050765E+03 E0= -.83050765E+03  d E =-.225825E-04  mag=    -0.0000
quench:  g(F)=  0.280E-03 g(S)=  0.000E+00 dE (1.order)=-0.655E-03
 bond charge predicted
       N       E                     dE             d eps       ncg     rms          rms(c)
DAV:   1    -0.822983028810E+03   -0.10233E-04   -0.45738E-03  4370   0.139E-01    0.152E-02
DAV:   2    -0.822983036612E+03   -0.78024E-05   -0.11150E-04  5160   0.201E-02    0.129E-02
DAV:   3    -0.822983034799E+03    0.18134E-05   -0.52897E-06  4880   0.452E-03    0.956E-03
DAV:   4    -0.822983033916E+03    0.88349E-06   -0.35072E-06  3920   0.404E-03
  47 F= -.83050767E+03 E0= -.83050767E+03  d E =-.191672E-04  mag=     0.0000
quench:  g(F)=  0.458E-03 g(S)=  0.000E+00 dE (1.order)=-0.844E-03
 bond charge predicted
       N       E                     dE             d eps       ncg     rms          rms(c)
DAV:   1    -0.822983058399E+03   -0.23600E-04   -0.45818E-03  4370   0.141E-01    0.152E-02
DAV:   2    -0.822983066570E+03   -0.81708E-05   -0.11783E-04  5180   0.209E-02    0.130E-02
DAV:   3    -0.822983064663E+03    0.19071E-05   -0.56437E-06  5040   0.460E-03    0.963E-03
DAV:   4    -0.822983063541E+03    0.11216E-05   -0.33616E-06  3930   0.398E-03    0.471E-03
DAV:   5    -0.822983063540E+03    0.16807E-08   -0.90854E-07  2710   0.205E-03
  48 F= -.83050770E+03 E0= -.83050770E+03  d E =-.304732E-04  mag=    -0.0000
quench:  g(F)=  0.457E-03 g(S)=  0.000E+00 dE (1.order)=-0.659E-03
 bond charge predicted
       N       E                     dE             d eps       ncg     rms          rms(c)
DAV:   1    -0.822983089063E+03   -0.25522E-04   -0.31624E-03  4370   0.117E-01    0.127E-02
DAV:   2    -0.822983094535E+03   -0.54723E-05   -0.78360E-05  5160   0.170E-02    0.109E-02
DAV:   3    -0.822983093182E+03    0.13534E-05   -0.34957E-06  4180   0.377E-03    0.823E-03
DAV:   4    -0.822983092353E+03    0.82955E-06   -0.33274E-06  3920   0.383E-03
  49 F= -.83050773E+03 E0= -.83050773E+03  d E =-.320138E-04  mag=     0.0000
quench:  g(F)=  0.275E-03 g(S)=  0.000E+00 dE (1.order)=-0.515E-03
 bond charge predicted
       N       E                     dE             d eps       ncg     rms          rms(c)
DAV:   1    -0.822983114279E+03   -0.21097E-04   -0.32140E-03  4370   0.115E-01    0.124E-02
DAV:   2    -0.822983119735E+03   -0.54551E-05   -0.76938E-05  5120   0.166E-02    0.106E-02
DAV:   3    -0.822983118622E+03    0.11125E-05   -0.32883E-06  4020   0.364E-03    0.796E-03
DAV:   4    -0.822983118147E+03    0.47495E-06   -0.31236E-06  3880   0.366E-03
  50 F= -.83050776E+03 E0= -.83050776E+03  d E =-.270320E-04  mag=     0.0000
quench:  g(F)=  0.277E-03 g(S)=  0.000E+00 dE (1.order)=-0.638E-03
 bond charge predicted
       N       E                     dE             d eps       ncg     rms          rms(c)
DAV:   1    -0.822983130248E+03   -0.11626E-04   -0.46305E-03  4380   0.140E-01    0.153E-02
DAV:   2    -0.822983138197E+03   -0.79490E-05   -0.11443E-04  5160   0.204E-02    0.130E-02
DAV:   3    -0.822983136393E+03    0.18041E-05   -0.54487E-06  4990   0.462E-03    0.968E-03
DAV:   4    -0.822983135452E+03    0.94100E-06   -0.32409E-06  3900   0.396E-03
  51 F= -.83050778E+03 E0= -.83050778E+03  d E =-.219208E-04  mag=    -0.0000
quench:  g(F)=  0.438E-03 g(S)=  0.000E+00 dE (1.order)=-0.800E-03
 bond charge predicted
       N       E                     dE             d eps       ncg     rms          rms(c)
DAV:   1    -0.822983164579E+03   -0.28186E-04   -0.45244E-03  4370   0.141E-01    0.152E-02
DAV:   2    -0.822983172705E+03   -0.81258E-05   -0.11745E-04  5180   0.209E-02    0.130E-02
DAV:   3    -0.822983170826E+03    0.18784E-05   -0.56526E-06  5080   0.461E-03    0.965E-03
DAV:   4    -0.822983169674E+03    0.11520E-05   -0.32553E-06  4020   0.394E-03    0.473E-03
DAV:   5    -0.822983169664E+03    0.10637E-07   -0.94425E-07  2780   0.209E-03
  52 F= -.83050782E+03 E0= -.83050782E+03  d E =-.347301E-04  mag=     0.0000
quench:  g(F)=  0.419E-03 g(S)=  0.000E+00 dE (1.order)=-0.617E-03
 bond charge predicted
       N       E                     dE             d eps       ncg     rms          rms(c)
DAV:   1    -0.822983198294E+03   -0.28620E-04   -0.30306E-03  4370   0.114E-01    0.124E-02
DAV:   2    -0.822983203542E+03   -0.52486E-05   -0.75158E-05  5160   0.167E-02    0.107E-02
DAV:   3    -0.822983202275E+03    0.12675E-05   -0.33225E-06  4120   0.369E-03    0.810E-03
DAV:   4    -0.822983201470E+03    0.80536E-06   -0.32001E-06  3840   0.378E-03
  53 F= -.83050785E+03 E0= -.83050785E+03  d E =-.344168E-04  mag=    -0.0000
quench:  g(F)=  0.265E-03 g(S)=  0.000E+00 dE (1.order)=-0.508E-03
 bond charge predicted
       N       E                     dE             d eps       ncg     rms          rms(c)
DAV:   1    -0.822983226664E+03   -0.24389E-04   -0.32312E-03  4370   0.115E-01    0.124E-02
DAV:   2    -0.822983232099E+03   -0.54348E-05   -0.77041E-05  5100   0.166E-02    0.106E-02
DAV:   3    -0.822983230986E+03    0.11129E-05   -0.32738E-06  4000   0.364E-03    0.798E-03
DAV:   4    -0.822983230516E+03    0.46976E-06   -0.32136E-06  3860   0.372E-03
  54 F= -.83050788E+03 E0= -.83050788E+03  d E =-.311261E-04  mag=    -0.0000
quench:  g(F)=  0.272E-03 g(S)=  0.000E+00 dE (1.order)=-0.613E-03
 bond charge predicted
       N       E                     dE             d eps       ncg     rms          rms(c)
DAV:   1    -0.822983248912E+03   -0.17926E-04   -0.47072E-03  4380   0.141E-01    0.155E-02
DAV:   2    -0.822983256872E+03   -0.79600E-05   -0.11556E-04  5160   0.205E-02    0.131E-02
DAV:   3    -0.822983255045E+03    0.18266E-05   -0.55967E-06  5000   0.468E-03    0.977E-03
DAV:   4    -0.822983254097E+03    0.94816E-06   -0.32289E-06  3900   0.396E-03
  55 F= -.83050791E+03 E0= -.83050791E+03  d E =-.275064E-04  mag=    -0.0000
quench:  g(F)=  0.413E-03 g(S)=  0.000E+00 dE (1.order)=-0.760E-03
 bond charge predicted
       N       E                     dE             d eps       ncg     rms          rms(c)
DAV:   1    -0.822983288572E+03   -0.33526E-04   -0.44893E-03  4370   0.140E-01    0.151E-02
DAV:   2    -0.822983296598E+03   -0.80263E-05   -0.11613E-04  5180   0.207E-02    0.129E-02
DAV:   3    -0.822983294733E+03    0.18646E-05   -0.56212E-06  5020   0.460E-03    0.960E-03
DAV:   4    -0.822983293605E+03    0.11283E-05   -0.32769E-06  3920   0.396E-03    0.471E-03
DAV:   5    -0.822983293597E+03    0.79162E-08   -0.92832E-07  2720   0.209E-03
  56 F= -.83050795E+03 E0= -.83050795E+03  d E =-.387167E-04  mag=    -0.0000
quench:  g(F)=  0.402E-03 g(S)=  0.000E+00 dE (1.order)=-0.599E-03
 bond charge predicted
       N       E                     dE             d eps       ncg     rms          rms(c)
DAV:   1    -0.822983323807E+03   -0.30202E-04   -0.29348E-03  4370   0.113E-01    0.122E-02
DAV:   2    -0.822983329060E+03   -0.52526E-05   -0.73717E-05  5180   0.165E-02    0.105E-02
DAV:   3    -0.822983327861E+03    0.11988E-05   -0.31310E-06  4020   0.360E-03    0.800E-03
DAV:   4    -0.822983327093E+03    0.76815E-06   -0.33416E-06  3900   0.384E-03
  57 F= -.83050799E+03 E0= -.83050799E+03  d E =-.373516E-04  mag=    -0.0000
quench:  g(F)=  0.246E-03 g(S)=  0.000E+00 dE (1.order)=-0.486E-03
 bond charge predicted
       N       E                     dE             d eps       ncg     rms          rms(c)
DAV:   1    -0.822983354752E+03   -0.26891E-04   -0.33196E-03  4370   0.118E-01    0.127E-02
DAV:   2    -0.822983360620E+03   -0.58687E-05   -0.81299E-05  5080   0.171E-02    0.106E-02
DAV:   3    -0.822983359548E+03    0.10729E-05   -0.32385E-06  3980   0.365E-03    0.804E-03
DAV:   4    -0.822983359108E+03    0.43954E-06   -0.33594E-06  3880   0.380E-03
  58 F= -.83050802E+03 E0= -.83050802E+03  d E =-.331637E-04  mag=    -0.0000
quench:  g(F)=  0.271E-03 g(S)=  0.000E+00 dE (1.order)=-0.596E-03
 bond charge predicted
       N       E                     dE             d eps       ncg     rms          rms(c)
DAV:   1    -0.822983378275E+03   -0.18727E-04   -0.47797E-03  4380   0.144E-01    0.156E-02
DAV:   2    -0.822983386941E+03   -0.86659E-05   -0.12261E-04  5120   0.214E-02    0.131E-02
DAV:   3    -0.822983385225E+03    0.17159E-05   -0.54068E-06  4860   0.465E-03    0.983E-03
DAV:   4    -0.822983384259E+03    0.96583E-06   -0.35156E-06  3980   0.414E-03
  59 F= -.83050805E+03 E0= -.83050805E+03  d E =-.308807E-04  mag=     0.0000
quench:  g(F)=  0.387E-03 g(S)=  0.000E+00 dE (1.order)=-0.718E-03
 bond charge predicted
       N       E                     dE             d eps       ncg     rms          rms(c)
DAV:   1    -0.822983420720E+03   -0.35495E-04   -0.40816E-03  4380   0.134E-01    0.145E-02
DAV:   2    -0.822983428464E+03   -0.77438E-05   -0.10919E-04  5180   0.203E-02    0.123E-02
DAV:   3    -0.822983426805E+03    0.16588E-05   -0.49662E-06  4720   0.438E-03    0.919E-03
DAV:   4    -0.822983425790E+03    0.10153E-05   -0.33261E-06  3920   0.392E-03    0.444E-03
DAV:   5    -0.822983425800E+03   -0.10470E-07   -0.80591E-07  2720   0.197E-03
  60 F= -.83050809E+03 E0= -.83050809E+03  d E =-.415531E-04  mag=     0.0000
quench:  g(F)=  0.387E-03 g(S)=  0.000E+00 dE (1.order)=-0.581E-03
 bond charge predicted
       N       E                     dE             d eps       ncg     rms          rms(c)
DAV:   1    -0.822983455501E+03   -0.29711E-04   -0.28027E-03  4370   0.109E-01    0.119E-02
DAV:   2    -0.822983460516E+03   -0.50156E-05   -0.70033E-05  5160   0.160E-02    0.102E-02
DAV:   3    -0.822983459419E+03    0.10975E-05   -0.28201E-06  3800   0.346E-03    0.783E-03
DAV:   4    -0.822983458725E+03    0.69368E-06   -0.34017E-06  4020   0.386E-03
  61 F= -.83050813E+03 E0= -.83050813E+03  d E =-.379241E-04  mag=    -0.0000
quench:  g(F)=  0.239E-03 g(S)=  0.000E+00 dE (1.order)=-0.470E-03
 bond charge predicted
       N       E                     dE             d eps       ncg     rms          rms(c)
DAV:   1    -0.822983489741E+03   -0.30323E-04   -0.34661E-03  4360   0.120E-01    0.130E-02
DAV:   2    -0.822983495869E+03   -0.61273E-05   -0.84393E-05  5140   0.174E-02    0.109E-02
DAV:   3    -0.822983494703E+03    0.11653E-05   -0.33685E-06  4040   0.368E-03    0.828E-03
DAV:   4    -0.822983494186E+03    0.51710E-06   -0.35119E-06  3920   0.387E-03
  62 F= -.83050816E+03 E0= -.83050816E+03  d E =-.357377E-04  mag=     0.0000
quench:  g(F)=  0.262E-03 g(S)=  0.000E+00 dE (1.order)=-0.572E-03
 bond charge predicted
       N       E                     dE             d eps       ncg     rms          rms(c)
DAV:   1    -0.822983520208E+03   -0.25505E-04   -0.46043E-03  4340   0.141E-01    0.153E-02
DAV:   2    -0.822983528512E+03   -0.83038E-05   -0.11652E-04  5160   0.207E-02    0.129E-02
DAV:   3    -0.822983526771E+03    0.17409E-05   -0.51185E-06  4740   0.449E-03    0.973E-03
DAV:   4    -0.822983525772E+03    0.99863E-06   -0.38266E-06  3980   0.422E-03
  63 F= -.83050820E+03 E0= -.83050820E+03  d E =-.378345E-04  mag=     0.0000
quench:  g(F)=  0.369E-03 g(S)=  0.000E+00 dE (1.order)=-0.681E-03
 bond charge predicted
       N       E                     dE             d eps       ncg     rms          rms(c)
DAV:   1    -0.822983566346E+03   -0.39575E-04   -0.39175E-03  4350   0.130E-01    0.140E-02
DAV:   2    -0.822983573667E+03   -0.73204E-05   -0.10198E-04  5140   0.194E-02    0.119E-02
DAV:   3    -0.822983572097E+03    0.15693E-05   -0.44262E-06  4500   0.413E-03    0.897E-03
DAV:   4    -0.822983571139E+03    0.95830E-06   -0.37482E-06  3950   0.405E-03
  64 F= -.83050825E+03 E0= -.83050825E+03  d E =-.442326E-04  mag=     0.0000
quench:  g(F)=  0.370E-03 g(S)=  0.000E+00 dE (1.order)=-0.559E-03
 bond charge predicted
       N       E                     dE             d eps       ncg     rms          rms(c)
DAV:   1    -0.822983604537E+03   -0.32440E-04   -0.30675E-03  4300   0.114E-01    0.122E-02
DAV:   2    -0.822983610243E+03   -0.57053E-05   -0.78186E-05  5100   0.169E-02    0.103E-02
DAV:   3    -0.822983609183E+03    0.10602E-05   -0.30656E-06  3940   0.354E-03    0.786E-03
DAV:   4    -0.822983608599E+03    0.58343E-06   -0.32787E-06  3900   0.376E-03
  65 F= -.83050829E+03 E0= -.83050829E+03  d E =-.425982E-04  mag=    -0.0000
quench:  g(F)=  0.238E-03 g(S)=  0.000E+00 dE (1.order)=-0.455E-03
 bond charge predicted
       N       E                     dE             d eps       ncg     rms          rms(c)
DAV:   1    -0.822983646041E+03   -0.36858E-04   -0.38948E-03  4280   0.128E-01    0.138E-02
DAV:   2    -0.822983653181E+03   -0.71404E-05   -0.96259E-05  5080   0.187E-02    0.115E-02
DAV:   3    -0.822983651919E+03    0.12625E-05   -0.36644E-06  4220   0.383E-03    0.875E-03
DAV:   4    -0.822983651321E+03    0.59782E-06   -0.38212E-06  3940   0.409E-03
  66 F= -.83050833E+03 E0= -.83050833E+03  d E =-.421810E-04  mag=    -0.0000
quench:  g(F)=  0.252E-03 g(S)=  0.000E+00 dE (1.order)=-0.546E-03
 bond charge predicted
       N       E                     dE             d eps       ncg     rms          rms(c)
DAV:   1    -0.822983684237E+03   -0.32318E-04   -0.46078E-03  4340   0.141E-01    0.153E-02
DAV:   2    -0.822983692863E+03   -0.86265E-05   -0.11860E-04  5080   0.209E-02    0.129E-02
DAV:   3    -0.822983691197E+03    0.16668E-05   -0.48302E-06  4600   0.440E-03    0.975E-03
DAV:   4    -0.822983690186E+03    0.10101E-05   -0.41398E-06  3980   0.438E-03    0.446E-03
DAV:   5    -0.822983690222E+03   -0.35201E-07   -0.92059E-07  2760   0.202E-03
  67 F= -.83050838E+03 E0= -.83050838E+03  d E =-.453217E-04  mag=    -0.0000
quench:  g(F)=  0.351E-03 g(S)=  0.000E+00 dE (1.order)=-0.645E-03
 bond charge predicted
       N       E                     dE             d eps       ncg     rms          rms(c)
DAV:   1    -0.822983735067E+03   -0.44881E-04   -0.39771E-03  4340   0.130E-01    0.143E-02
DAV:   2    -0.822983742336E+03   -0.72686E-05   -0.10011E-04  5160   0.192E-02    0.122E-02
DAV:   3    -0.822983740762E+03    0.15743E-05   -0.39822E-06  4360   0.397E-03    0.934E-03
DAV:   4    -0.822983739677E+03    0.10851E-05   -0.42894E-06  4120   0.439E-03    0.401E-03
DAV:   5    -0.822983739697E+03   -0.20598E-07   -0.83262E-07  2770   0.190E-03
  68 F= -.83050843E+03 E0= -.83050843E+03  d E =-.485169E-04  mag=     0.0000
quench:  g(F)=  0.344E-03 g(S)=  0.000E+00 dE (1.order)=-0.536E-03
 bond charge predicted
       N       E                     dE             d eps       ncg     rms          rms(c)
DAV:   1    -0.822983780886E+03   -0.41209E-04   -0.34829E-03  4280   0.120E-01    0.130E-02
DAV:   2    -0.822983786933E+03   -0.60473E-05   -0.83581E-05  5180   0.172E-02    0.112E-02
DAV:   3    -0.822983785627E+03    0.13060E-05   -0.32637E-06  4060   0.364E-03    0.863E-03
DAV:   4    -0.822983784779E+03    0.84803E-06   -0.38684E-06  3950   0.415E-03
  69 F= -.83050847E+03 E0= -.83050847E+03  d E =-.493593E-04  mag=     0.0000
quench:  g(F)=  0.237E-03 g(S)=  0.000E+00 dE (1.order)=-0.453E-03
 bond charge predicted
       N       E                     dE             d eps       ncg     rms          rms(c)
DAV:   1    -0.822983824787E+03   -0.39159E-04   -0.39255E-03  4320   0.127E-01    0.139E-02
DAV:   2    -0.822983831588E+03   -0.68018E-05   -0.95136E-05  5140   0.184E-02    0.117E-02
DAV:   3    -0.822983830165E+03    0.14232E-05   -0.39937E-06  4360   0.393E-03    0.886E-03
DAV:   4    -0.822983829413E+03    0.75255E-06   -0.37021E-06  3850   0.401E-03
  70 F= -.83050852E+03 E0= -.83050852E+03  d E =-.464550E-04  mag=    -0.0000
quench:  g(F)=  0.247E-03 g(S)=  0.000E+00 dE (1.order)=-0.527E-03
 bond charge predicted
       N       E                     dE             d eps       ncg     rms          rms(c)
DAV:   1    -0.822983869177E+03   -0.39012E-04   -0.43230E-03  4340   0.135E-01    0.147E-02
DAV:   2    -0.822983876964E+03   -0.77868E-05   -0.10848E-04  5160   0.198E-02    0.125E-02
DAV:   3    -0.822983875309E+03    0.16547E-05   -0.47042E-06  4620   0.427E-03    0.939E-03
DAV:   4    -0.822983874347E+03    0.96187E-06   -0.38375E-06  3980   0.415E-03
  71 F= -.83050857E+03 E0= -.83050857E+03  d E =-.491934E-04  mag=    -0.0000
quench:  g(F)=  0.331E-03 g(S)=  0.000E+00 dE (1.order)=-0.611E-03
 bond charge predicted
       N       E                     dE             d eps       ncg     rms          rms(c)
DAV:   1    -0.822983918419E+03   -0.43110E-04   -0.38235E-03  4340   0.128E-01    0.137E-02
DAV:   2    -0.822983925453E+03   -0.70338E-05   -0.97352E-05  5180   0.189E-02    0.115E-02
DAV:   3    -0.822983924083E+03    0.13702E-05   -0.39926E-06  4340   0.393E-03    0.875E-03
DAV:   4    -0.822983923257E+03    0.82631E-06   -0.36600E-06  3900   0.399E-03
  72 F= -.83050862E+03 E0= -.83050862E+03  d E =-.502112E-04  mag=     0.0000
quench:  g(F)=  0.326E-03 g(S)=  0.000E+00 dE (1.order)=-0.511E-03
 bond charge predicted
       N       E                     dE             d eps       ncg     rms          rms(c)
DAV:   1    -0.822983966510E+03   -0.42427E-04   -0.33801E-03  4280   0.120E-01    0.128E-02
DAV:   2    -0.822983972617E+03   -0.61074E-05   -0.83836E-05  5160   0.174E-02    0.108E-02
DAV:   3    -0.822983971423E+03    0.11942E-05   -0.33982E-06  4040   0.369E-03    0.821E-03
DAV:   4    -0.822983970809E+03    0.61375E-06   -0.34194E-06  3900   0.383E-03
  73 F= -.83050867E+03 E0= -.83050867E+03  d E =-.515335E-04  mag=    -0.0000
quench:  g(F)=  0.229E-03 g(S)=  0.000E+00 dE (1.order)=-0.430E-03
 bond charge predicted
       N       E                     dE             d eps       ncg     rms          rms(c)
DAV:   1    -0.822984010696E+03   -0.39273E-04   -0.39244E-03  4280   0.128E-01    0.138E-02
DAV:   2    -0.822984017671E+03   -0.69744E-05   -0.96482E-05  5130   0.187E-02    0.116E-02
DAV:   3    -0.822984016343E+03    0.13282E-05   -0.38351E-06  4250   0.390E-03    0.883E-03
DAV:   4    -0.822984015630E+03    0.71291E-06   -0.39217E-06  3940   0.412E-03
  74 F= -.83050872E+03 E0= -.83050872E+03  d E =-.470208E-04  mag=     0.0000
quench:  g(F)=  0.233E-03 g(S)=  0.000E+00 dE (1.order)=-0.497E-03
 bond charge predicted
       N       E                     dE             d eps       ncg     rms          rms(c)
DAV:   1    -0.822984056958E+03   -0.40615E-04   -0.40989E-03  4260   0.132E-01    0.142E-02
DAV:   2    -0.822984064264E+03   -0.73056E-05   -0.10210E-04  5200   0.192E-02    0.121E-02
DAV:   3    -0.822984062695E+03    0.15682E-05   -0.43528E-06  4500   0.412E-03    0.909E-03
DAV:   4    -0.822984061802E+03    0.89285E-06   -0.38252E-06  3940   0.410E-03
  75 F= -.83050877E+03 E0= -.83050877E+03  d E =-.500646E-04  mag=     0.0000
quench:  g(F)=  0.316E-03 g(S)=  0.000E+00 dE (1.order)=-0.581E-03
 bond charge predicted
       N       E                     dE             d eps       ncg     rms          rms(c)
DAV:   1    -0.822984102572E+03   -0.39877E-04   -0.36802E-03  4260   0.124E-01    0.133E-02
DAV:   2    -0.822984109083E+03   -0.65112E-05   -0.90681E-05  5180   0.180E-02    0.112E-02
DAV:   3    -0.822984107710E+03    0.13729E-05   -0.38356E-06  4280   0.385E-03    0.847E-03
DAV:   4    -0.822984106919E+03    0.79097E-06   -0.35743E-06  3880   0.389E-03
  76 F= -.83050882E+03 E0= -.83050882E+03  d E =-.477265E-04  mag=    -0.0000
quench:  g(F)=  0.312E-03 g(S)=  0.000E+00 dE (1.order)=-0.488E-03
 bond charge predicted
       N       E                     dE             d eps       ncg     rms          rms(c)
DAV:   1    -0.822984151202E+03   -0.43492E-04   -0.32676E-03  4240   0.117E-01    0.125E-02
DAV:   2    -0.822984156898E+03   -0.56961E-05   -0.79138E-05  5160   0.167E-02    0.106E-02
DAV:   3    -0.822984155703E+03    0.11951E-05   -0.31664E-06  3980   0.355E-03    0.805E-03
DAV:   4    -0.822984155087E+03    0.61607E-06   -0.36085E-06  3900   0.390E-03
  77 F= -.83050887E+03 E0= -.83050887E+03  d E =-.525334E-04  mag=     0.0000
quench:  g(F)=  0.219E-03 g(S)=  0.000E+00 dE (1.order)=-0.410E-03
 bond charge predicted
       N       E                     dE             d eps       ncg     rms          rms(c)
DAV:   1    -0.822984198780E+03   -0.43077E-04   -0.35345E-03  4320   0.121E-01    0.130E-02
DAV:   2    -0.822984204752E+03   -0.59725E-05   -0.83299E-05  5120   0.173E-02    0.111E-02
DAV:   3    -0.822984203514E+03    0.12381E-05   -0.33823E-06  4020   0.364E-03    0.838E-03
DAV:   4    -0.822984202931E+03    0.58257E-06   -0.37864E-06  3920   0.399E-03
  78 F= -.83050892E+03 E0= -.83050892E+03  d E =-.502650E-04  mag=     0.0000
quench:  g(F)=  0.225E-03 g(S)=  0.000E+00 dE (1.order)=-0.480E-03
 bond charge predicted
       N       E                     dE             d eps       ncg     rms          rms(c)
DAV:   1    -0.822984246255E+03   -0.42741E-04   -0.40056E-03  4260   0.130E-01    0.139E-02
DAV:   2    -0.822984253274E+03   -0.70191E-05   -0.97976E-05  5180   0.187E-02    0.119E-02
DAV:   3    -0.822984251767E+03    0.15072E-05   -0.42105E-06  4440   0.403E-03    0.900E-03
DAV:   4    -0.822984250929E+03    0.83780E-06   -0.38181E-06  3880   0.410E-03
  79 F= -.83050897E+03 E0= -.83050897E+03  d E =-.510837E-04  mag=     0.0000
quench:  g(F)=  0.301E-03 g(S)=  0.000E+00 dE (1.order)=-0.553E-03
 bond charge predicted
       N       E                     dE             d eps       ncg     rms          rms(c)
DAV:   1    -0.822984295227E+03   -0.43460E-04   -0.34203E-03  4320   0.121E-01    0.129E-02
DAV:   2    -0.822984301180E+03   -0.59529E-05   -0.83995E-05  5180   0.175E-02    0.110E-02
DAV:   3    -0.822984299833E+03    0.13472E-05   -0.35997E-06  4280   0.372E-03    0.829E-03
DAV:   4    -0.822984299079E+03    0.75361E-06   -0.35369E-06  3780   0.387E-03
  80 F= -.83050902E+03 E0= -.83050902E+03  d E =-.504894E-04  mag=    -0.0000
quench:  g(F)=  0.296E-03 g(S)=  0.000E+00 dE (1.order)=-0.467E-03
 bond charge predicted
       N       E                     dE             d eps       ncg     rms          rms(c)
DAV:   1    -0.822984343583E+03   -0.43750E-04   -0.30962E-03  4240   0.114E-01    0.121E-02
DAV:   2    -0.822984349160E+03   -0.55775E-05   -0.76555E-05  5120   0.165E-02    0.103E-02
DAV:   3    -0.822984348119E+03    0.10412E-05   -0.30016E-06  3920   0.347E-03    0.787E-03
DAV:   4    -0.822984347556E+03    0.56277E-06   -0.32603E-06  3840   0.374E-03
  81 F= -.83050907E+03 E0= -.83050907E+03  d E =-.520861E-04  mag=    -0.0000
quench:  g(F)=  0.210E-03 g(S)=  0.000E+00 dE (1.order)=-0.394E-03
 bond charge predicted
       N       E                     dE             d eps       ncg     rms          rms(c)
DAV:   1    -0.822984397008E+03   -0.48889E-04   -0.35498E-03  4240   0.121E-01    0.129E-02
DAV:   2    -0.822984403260E+03   -0.62517E-05   -0.85570E-05  5020   0.174E-02    0.109E-02
DAV:   3    -0.822984402077E+03    0.11822E-05   -0.33726E-06  4040   0.364E-03    0.831E-03
DAV:   4    -0.822984401530E+03    0.54782E-06   -0.36874E-06  3860   0.395E-03
  82 F= -.83050913E+03 E0= -.83050913E+03  d E =-.538790E-04  mag=     0.0000
quench:  g(F)=  0.217E-03 g(S)=  0.000E+00 dE (1.order)=-0.461E-03
 bond charge predicted
       N       E                     dE             d eps       ncg     rms          rms(c)
DAV:   1    -0.822984443721E+03   -0.41644E-04   -0.39730E-03  4320   0.129E-01    0.139E-02
DAV:   2    -0.822984450455E+03   -0.67343E-05   -0.95211E-05  5160   0.184E-02    0.118E-02
DAV:   3    -0.822984448958E+03    0.14971E-05   -0.40415E-06  4320   0.397E-03    0.891E-03
DAV:   4    -0.822984448202E+03    0.75571E-06   -0.38559E-06  3900   0.409E-03
  83 F= -.83050918E+03 E0= -.83050918E+03  d E =-.533734E-04  mag=     0.0000
quench:  g(F)=  0.288E-03 g(S)=  0.000E+00 dE (1.order)=-0.525E-03
 bond charge predicted
       N       E                     dE             d eps       ncg     rms          rms(c)
DAV:   1    -0.822984498007E+03   -0.49049E-04   -0.34849E-03  4320   0.122E-01    0.129E-02
DAV:   2    -0.822984504047E+03   -0.60391E-05   -0.85493E-05  5200   0.176E-02    0.111E-02
DAV:   3    -0.822984502663E+03    0.13837E-05   -0.37097E-06  4180   0.377E-03    0.837E-03
DAV:   4    -0.822984501908E+03    0.75503E-06   -0.36973E-06  3800   0.396E-03
  84 F= -.83050923E+03 E0= -.83050923E+03  d E =-.530879E-04  mag=     0.0000
quench:  g(F)=  0.277E-03 g(S)=  0.000E+00 dE (1.order)=-0.442E-03
 bond charge predicted
       N       E                     dE             d eps       ncg     rms          rms(c)
DAV:   1    -0.822984545558E+03   -0.42895E-04   -0.29488E-03  4320   0.111E-01    0.118E-02
DAV:   2    -0.822984550679E+03   -0.51212E-05   -0.71006E-05  5180   0.159E-02    0.101E-02
DAV:   3    -0.822984549624E+03    0.10548E-05   -0.28032E-06  3820   0.334E-03    0.764E-03
DAV:   4    -0.822984549088E+03    0.53665E-06   -0.32985E-06  3880   0.372E-03
  85 F= -.83050929E+03 E0= -.83050929E+03  d E =-.531521E-04  mag=    -0.0000
quench:  g(F)=  0.200E-03 g(S)=  0.000E+00 dE (1.order)=-0.378E-03
 bond charge predicted
       N       E                     dE             d eps       ncg     rms          rms(c)
DAV:   1    -0.822984599939E+03   -0.50314E-04   -0.33397E-03  4320   0.117E-01    0.125E-02
DAV:   2    -0.822984605511E+03   -0.55720E-05   -0.77760E-05  5120   0.166E-02    0.107E-02
DAV:   3    -0.822984604364E+03    0.11461E-05   -0.30603E-06  3880   0.350E-03    0.807E-03
DAV:   4    -0.822984603862E+03    0.50203E-06   -0.37144E-06  3880   0.397E-03
  86 F= -.83050934E+03 E0= -.83050934E+03  d E =-.544586E-04  mag=     0.0000
quench:  g(F)=  0.212E-03 g(S)=  0.000E+00 dE (1.order)=-0.445E-03
 bond charge predicted
       N       E                     dE             d eps       ncg     rms          rms(c)
DAV:   1    -0.822984646630E+03   -0.42266E-04   -0.39695E-03  4320   0.129E-01    0.140E-02
DAV:   2    -0.822984653605E+03   -0.69751E-05   -0.96444E-05  5180   0.186E-02    0.118E-02
DAV:   3    -0.822984652147E+03    0.14581E-05   -0.39391E-06  4280   0.394E-03    0.895E-03
DAV:   4    -0.822984651378E+03    0.76901E-06   -0.39029E-06  3820   0.412E-03
  87 F= -.83050939E+03 E0= -.83050939E+03  d E =-.538392E-04  mag=    -0.0000
quench:  g(F)=  0.279E-03 g(S)=  0.000E+00 dE (1.order)=-0.504E-03
 bond charge predicted
       N       E                     dE             d eps       ncg     rms          rms(c)
DAV:   1    -0.822984704110E+03   -0.51963E-04   -0.36116E-03  4240   0.124E-01    0.132E-02
DAV:   2    -0.822984710727E+03   -0.66175E-05   -0.91487E-05  5140   0.181E-02    0.113E-02
DAV:   3    -0.822984709414E+03    0.13131E-05   -0.37803E-06  4120   0.384E-03    0.858E-03
DAV:   4    -0.822984708613E+03    0.80124E-06   -0.39455E-06  3860   0.412E-03
  88 F= -.83050945E+03 E0= -.83050945E+03  d E =-.559651E-04  mag=    -0.0000
quench:  g(F)=  0.265E-03 g(S)=  0.000E+00 dE (1.order)=-0.424E-03
 bond charge predicted
       N       E                     dE             d eps       ncg     rms          rms(c)
DAV:   1    -0.822984755834E+03   -0.46420E-04   -0.30427E-03  4320   0.112E-01    0.121E-02
DAV:   2    -0.822984761286E+03   -0.54511E-05   -0.74146E-05  5140   0.162E-02    0.101E-02
DAV:   3    -0.822984760245E+03    0.10410E-05   -0.27892E-06  3800   0.337E-03    0.774E-03
DAV:   4    -0.822984759744E+03    0.50050E-06   -0.33865E-06  3840   0.378E-03
  89 F= -.83050951E+03 E0= -.83050951E+03  d E =-.559819E-04  mag=    -0.0000
quench:  g(F)=  0.190E-03 g(S)=  0.000E+00 dE (1.order)=-0.368E-03
 bond charge predicted
       N       E                     dE             d eps       ncg     rms          rms(c)
DAV:   1    -0.822984813478E+03   -0.53234E-04   -0.35857E-03  4320   0.121E-01    0.131E-02
DAV:   2    -0.822984819525E+03   -0.60461E-05   -0.83891E-05  5120   0.171E-02    0.110E-02
DAV:   3    -0.822984818315E+03    0.12096E-05   -0.33088E-06  4040   0.363E-03    0.835E-03
DAV:   4    -0.822984817778E+03    0.53708E-06   -0.37191E-06  3860   0.399E-03
  90 F= -.83050957E+03 E0= -.83050957E+03  d E =-.589924E-04  mag=    -0.0000
quench:  g(F)=  0.209E-03 g(S)=  0.000E+00 dE (1.order)=-0.443E-03
 bond charge predicted
       N       E                     dE             d eps       ncg     rms          rms(c)
DAV:   1    -0.822984865483E+03   -0.47168E-04   -0.41338E-03  4320   0.131E-01    0.143E-02
DAV:   2    -0.822984872784E+03   -0.73013E-05   -0.10079E-04  5160   0.190E-02    0.120E-02
DAV:   3    -0.822984871263E+03    0.15209E-05   -0.40725E-06  4320   0.400E-03    0.913E-03
DAV:   4    -0.822984870445E+03    0.81887E-06   -0.41330E-06  3840   0.424E-03
  91 F= -.83050962E+03 E0= -.83050962E+03  d E =-.577961E-04  mag=    -0.0000
quench:  g(F)=  0.277E-03 g(S)=  0.000E+00 dE (1.order)=-0.497E-03
 bond charge predicted
       N       E                     dE             d eps       ncg     rms          rms(c)
DAV:   1    -0.822984924567E+03   -0.53304E-04   -0.36614E-03  4350   0.124E-01    0.133E-02
DAV:   2    -0.822984931077E+03   -0.65095E-05   -0.90585E-05  5200   0.180E-02    0.113E-02
DAV:   3    -0.822984929689E+03    0.13878E-05   -0.37502E-06  4060   0.384E-03    0.856E-03
DAV:   4    -0.822984928907E+03    0.78198E-06   -0.40117E-06  3840   0.412E-03
  92 F= -.83050968E+03 E0= -.83050968E+03  d E =-.590884E-04  mag=    -0.0000
quench:  g(F)=  0.254E-03 g(S)=  0.000E+00 dE (1.order)=-0.408E-03
 bond charge predicted
       N       E                     dE             d eps       ncg     rms          rms(c)
DAV:   1    -0.822984978646E+03   -0.48957E-04   -0.33095E-03  4300   0.118E-01    0.126E-02
DAV:   2    -0.822984984822E+03   -0.61760E-05   -0.82812E-05  5070   0.170E-02    0.106E-02
DAV:   3    -0.822984983753E+03    0.10692E-05   -0.30438E-06  3890   0.352E-03    0.815E-03
DAV:   4    -0.822984983155E+03    0.59757E-06   -0.36788E-06  3880   0.399E-03
  93 F= -.83050974E+03 E0= -.83050974E+03  d E =-.582326E-04  mag=     0.0000
quench:  g(F)=  0.187E-03 g(S)=  0.000E+00 dE (1.order)=-0.364E-03
 bond charge predicted
       N       E                     dE             d eps       ncg     rms          rms(c)
DAV:   1    -0.822985037144E+03   -0.53392E-04   -0.37795E-03  4320   0.125E-01    0.135E-02
DAV:   2    -0.822985044061E+03   -0.69165E-05   -0.93374E-05  4930   0.181E-02    0.114E-02
DAV:   3    -0.822985042824E+03    0.12364E-05   -0.35453E-06  4160   0.376E-03    0.867E-03
DAV:   4    -0.822985042197E+03    0.62796E-06   -0.39163E-06  3900   0.411E-03
  94 F= -.83050980E+03 E0= -.83050980E+03  d E =-.606475E-04  mag=    -0.0000
quench:  g(F)=  0.205E-03 g(S)=  0.000E+00 dE (1.order)=-0.433E-03
 bond charge predicted
       N       E                     dE             d eps       ncg     rms          rms(c)
DAV:   1    -0.822985092175E+03   -0.49350E-04   -0.41346E-03  4330   0.133E-01    0.144E-02
DAV:   2    -0.822985100114E+03   -0.79394E-05   -0.10667E-04  5000   0.195E-02    0.121E-02
DAV:   3    -0.822985098687E+03    0.14277E-05   -0.40292E-06  4200   0.403E-03    0.928E-03
DAV:   4    -0.822985097818E+03    0.86864E-06   -0.43550E-06  3940   0.440E-03
  95 F= -.83050986E+03 E0= -.83050986E+03  d E =-.597706E-04  mag=    -0.0000
quench:  g(F)=  0.268E-03 g(S)=  0.000E+00 dE (1.order)=-0.482E-03
 bond charge predicted
       N       E                     dE             d eps       ncg     rms          rms(c)
DAV:   1    -0.822985153864E+03   -0.55178E-04   -0.36801E-03  4330   0.125E-01    0.134E-02
DAV:   2    -0.822985160869E+03   -0.70049E-05   -0.94579E-05  5040   0.184E-02    0.113E-02
DAV:   3    -0.822985159579E+03    0.12897E-05   -0.37002E-06  4110   0.382E-03    0.864E-03
DAV:   4    -0.822985158809E+03    0.77033E-06   -0.38367E-06  3860   0.407E-03
  96 F= -.83050992E+03 E0= -.83050992E+03  d E =-.618792E-04  mag=    -0.0000
quench:  g(F)=  0.248E-03 g(S)=  0.000E+00 dE (1.order)=-0.399E-03
 bond charge predicted
       N       E                     dE             d eps       ncg     rms          rms(c)
DAV:   1    -0.822985211063E+03   -0.51484E-04   -0.34788E-03  4280   0.120E-01    0.129E-02
DAV:   2    -0.822985217445E+03   -0.63819E-05   -0.86182E-05  5070   0.173E-02    0.109E-02
DAV:   3    -0.822985216280E+03    0.11649E-05   -0.32807E-06  4060   0.361E-03    0.837E-03
DAV:   4    -0.822985215626E+03    0.65436E-06   -0.35935E-06  3840   0.396E-03
  97 F= -.83050998E+03 E0= -.83050998E+03  d E =-.606488E-04  mag=     0.0000
quench:  g(F)=  0.181E-03 g(S)=  0.000E+00 dE (1.order)=-0.354E-03
 bond charge predicted
       N       E                     dE             d eps       ncg     rms          rms(c)
DAV:   1    -0.822985269831E+03   -0.53551E-04   -0.37290E-03  4280   0.125E-01    0.134E-02
DAV:   2    -0.822985276535E+03   -0.67041E-05   -0.91978E-05  5130   0.180E-02    0.115E-02
DAV:   3    -0.822985275225E+03    0.13094E-05   -0.36998E-06  4100   0.382E-03    0.880E-03
DAV:   4    -0.822985274497E+03    0.72797E-06   -0.39476E-06  3920   0.413E-03
  98 F= -.83051005E+03 E0= -.83051005E+03  d E =-.614857E-04  mag=     0.0000
quench:  g(F)=  0.197E-03 g(S)=  0.000E+00 dE (1.order)=-0.415E-03
 bond charge predicted
       N       E                     dE             d eps       ncg     rms          rms(c)
DAV:   1    -0.822985324610E+03   -0.49385E-04   -0.39037E-03  4300   0.128E-01    0.138E-02
DAV:   2    -0.822985331855E+03   -0.72444E-05   -0.98755E-05  5120   0.187E-02    0.117E-02
DAV:   3    -0.822985330483E+03    0.13713E-05   -0.38358E-06  4140   0.391E-03    0.894E-03
DAV:   4    -0.822985329650E+03    0.83315E-06   -0.41056E-06  3920   0.425E-03
  99 F= -.83051010E+03 E0= -.83051010E+03  d E =-.593570E-04  mag=     0.0000
quench:  g(F)=  0.250E-03 g(S)=  0.000E+00 dE (1.order)=-0.457E-03
 reached required accuracy - stopping structural energy minimisation
