<?xml version="1.0" encoding="ISO-8859-1"?>
<modeling>
 <generator>
  <i name="program" type="string">vasp </i>
  <i name="version" type="string">6.4.2  </i>
  <i name="subversion" type="string">20Jul23 (build Jan 24 2024 13:44:02) complex                          parallel </i>
  <i name="platform" type="string">LinuxNV </i>
  <i name="date" type="string">2025 11 16 </i>
  <i name="time" type="string">23:47:19 </i>
 </generator>
 <incar>
  <i type="int" name="ISTART">     0</i>
  <i type="string" name="ALGO">Normal</i>
  <i type="logical" name="ADDGRID"> T  </i>
  <i type="int" name="ISPIN">     2</i>
  <i type="int" name="IMIX">     4</i>
  <i name="AMIX">      0.20000000</i>
  <i name="BMIX">      0.00010000</i>
  <i name="AMIX_MAG">      0.80000000</i>
  <i name="BMIX_MAG">      0.00010000</i>
  <i type="int" name="ICHARG">     2</i>
  <i type="int" name="NELM">   200</i>
  <i type="int" name="IBRION">     3</i>
  <i name="EDIFF">      0.00000100</i>
  <i name="EDIFFG">     -0.03000000</i>
  <i type="int" name="NSW">   300</i>
  <i type="int" name="ISIF">     2</i>
  <i type="int" name="ISYM">     0</i>
  <i name="ENCUT">    520.00000000</i>
  <i name="POTIM">      0.10000000</i>
  <v name="MAGMOM">      0.60000000      0.60000000      0.60000000      0.60000000      0.60000000      0.60000000      0.60000000      0.60000000      0.60000000      0.60000000      0.60000000      0.60000000      0.60000000      0.60000000      0.60000000      0.60000000      0.60000000      0.60000000      0.60000000      0.60000000
      0.60000000      0.60000000      0.60000000      0.60000000      0.60000000      0.60000000      0.60000000      0.60000000      0.60000000      0.60000000      0.60000000      0.60000000      0.60000000      0.60000000      0.60000000      0.60000000      0.60000000      0.60000000      0.60000000      0.60000000
      0.60000000      0.60000000      0.60000000      0.60000000      0.60000000      0.60000000      0.60000000      0.60000000      0.60000000      0.60000000      0.60000000      0.60000000      0.60000000      0.60000000      0.60000000      0.60000000      0.60000000      0.60000000      0.60000000      0.60000000
      0.60000000      0.60000000      0.60000000      0.60000000      0.60000000      0.60000000      0.60000000      0.60000000      0.60000000      0.60000000      0.60000000      0.60000000      0.60000000      0.60000000      0.60000000      0.60000000      0.60000000      0.60000000      0.60000000      0.60000000
      0.60000000      0.60000000      0.60000000      0.60000000      0.60000000      0.60000000      0.60000000      0.60000000      0.60000000      0.60000000      0.60000000      0.60000000      0.60000000</v>
  <i type="string" name="LREAL">Auto</i>
  <i type="int" name="ISMEAR">     0</i>
  <i name="SIGMA">      0.05000000</i>
  <i type="logical" name="LWAVE"> F  </i>
  <i type="logical" name="LCHARG"> F  </i>
  <i type="logical" name="LASPH"> T  </i>
  <i type="int" name="IVDW">    12</i>
  <i name="SPRING">     -5.00000000</i>
 </incar>
 <primitive_cell>
  <structure name="primitive_cell" >
   <crystal>
    <varray name="basis" >
     <v>      17.27103806       0.00000000       0.00000000 </v>
     <v>      -8.63551903      14.95715771       0.00000000 </v>
     <v>       0.00000000       0.00000000      15.00000000 </v>
    </varray>
    <i name="volume">   3874.88459904 </i>
    <varray name="rec_basis" >
     <v>       0.05790040       0.03342881      -0.00000000 </v>
     <v>       0.00000000       0.06685762       0.00000000 </v>
     <v>       0.00000000      -0.00000000       0.06666667 </v>
    </varray>
   </crystal>
   <varray name="positions" >
    <v>       0.99916190       0.00229118       0.50555654 </v>
    <v>       0.99939439       0.14529874       0.50500793 </v>
    <v>       0.00019232       0.28893070       0.50450468 </v>
    <v>       0.00067474       0.43198930       0.50487985 </v>
    <v>       0.00110358       0.57479308       0.50567063 </v>
    <v>       0.00146077       0.71773541       0.50621344 </v>
    <v>       0.00003810       0.86034020       0.50606045 </v>
    <v>       0.14346032       0.00396948       0.50490705 </v>
    <v>       0.14317742       0.14630107       0.50439700 </v>
    <v>       0.14252036       0.28797847       0.50438511 </v>
    <v>       0.14410635       0.43209012       0.50508810 </v>
    <v>       0.14507539       0.57477554       0.50591077 </v>
    <v>       0.14451885       0.71773971       0.50607631 </v>
    <v>       0.14367891       0.86090789       0.50565471 </v>
    <v>       0.28645155       0.00418598       0.50536798 </v>
    <v>       0.28714927       0.14794843       0.50456419 </v>
    <v>       0.28816715       0.29347562       0.50483674 </v>
    <v>       0.28532840       0.42704253       0.50605661 </v>
    <v>       0.29055608       0.57506774       0.50735152 </v>
    <v>       0.28785126       0.71838357       0.50715125 </v>
    <v>       0.28667024       0.86128762       0.50634922 </v>
    <v>       0.42940791       0.00451831       0.50648173 </v>
    <v>       0.42948205       0.14839719       0.50577851 </v>
    <v>       0.42964433       0.86086432       0.50751923 </v>
    <v>       0.57162274       0.00392199       0.50733833 </v>
    <v>       0.57165285       0.14741426       0.50651722 </v>
    <v>       0.57396941       0.29427095       0.50720096 </v>
    <v>       0.57363041       0.85952285       0.50904355 </v>
    <v>       0.71379553       0.00302648       0.50746566 </v>
    <v>       0.71440026       0.14671673       0.50622095 </v>
    <v>       0.71413743       0.28991831       0.50636276 </v>
    <v>       0.71017572       0.42997203       0.50945944 </v>
    <v>       0.70874745       0.85840051       0.51041933 </v>
    <v>       0.85592976       0.00202993       0.50695659 </v>
    <v>       0.85681971       0.14589854       0.50562983 </v>
    <v>       0.85712030       0.28917137       0.50521252 </v>
    <v>       0.85719087       0.43215303       0.50614622 </v>
    <v>       0.85745523       0.57464693       0.50779651 </v>
    <v>       0.85843658       0.71707190       0.50929741 </v>
    <v>       0.85471427       0.85814495       0.50847663 </v>
    <v>       0.04742252       0.09796193       0.50487579 </v>
    <v>       0.04699075       0.24045295       0.50440751 </v>
    <v>       0.04829517       0.38443500       0.50458146 </v>
    <v>       0.04924945       0.52731927       0.50536689 </v>
    <v>       0.04906545       0.67016055       0.50587605 </v>
    <v>       0.04820903       0.81297949       0.50590705 </v>
    <v>       0.04772616       0.95555016       0.50541932 </v>
    <v>       0.19132883       0.09923715       0.50443854 </v>
    <v>       0.19132442       0.24167370       0.50438904 </v>
    <v>       0.18994134       0.38282943       0.50499682 </v>
    <v>       0.19354031       0.52758290       0.50600574 </v>
    <v>       0.19240138       0.67032326       0.50641643 </v>
    <v>       0.19158551       0.81334281       0.50605781 </v>
    <v>       0.19128766       0.95628782       0.50523846 </v>
    <v>       0.33431348       0.10005579       0.50512281 </v>
    <v>       0.33851929       0.24416628       0.50493871 </v>
    <v>       0.33955631       0.67397765       0.50792075 </v>
    <v>       0.33456930       0.81347759       0.50697935 </v>
    <v>       0.33400803       0.95658870       0.50604799 </v>
    <v>       0.47674037       0.09996434       0.50630296 </v>
    <v>       0.47451619       0.24460009       0.50621671 </v>
    <v>       0.47474547       0.81010347       0.50849840 </v>
    <v>       0.47676708       0.95650438       0.50715090 </v>
    <v>       0.61898880       0.09929651       0.50672662 </v>
    <v>       0.61896797       0.24312264       0.50667669 </v>
    <v>       0.61872197       0.95538643       0.50798887 </v>
    <v>       0.76171664       0.09874218       0.50632206 </v>
    <v>       0.76193372       0.24187216       0.50576773 </v>
    <v>       0.76135121       0.38499846       0.50707417 </v>
    <v>       0.76079774       0.52963751       0.51184947 </v>
    <v>       0.76318047       0.66567940       0.51513613 </v>
    <v>       0.75776064       0.80849103       0.51195555 </v>
    <v>       0.76045012       0.95456413       0.50822639 </v>
    <v>       0.90388783       0.09737864       0.50575735 </v>
    <v>       0.90471395       0.24137430       0.50498206 </v>
    <v>       0.90495122       0.38466748       0.50523409 </v>
    <v>       0.90544120       0.52737570       0.50619789 </v>
    <v>       0.90596272       0.66973077       0.50761579 </v>
    <v>       0.90424519       0.81215100       0.50762705 </v>
    <v>       0.90326992       0.95385341       0.50680924 </v>
    <v>       0.71572934       0.71446052       0.51760444 </v>
    <v>       0.33233571       0.52297503       0.50788166 </v>
    <v>       0.62743972       0.66578623       0.52584611 </v>
    <v>       0.42162581       0.56249974       0.51031979 </v>
    <v>       0.42857989       0.28898484       0.50603071 </v>
    <v>       0.42943952       0.71995380       0.50872026 </v>
    <v>       0.71721945       0.57502255       0.51845460 </v>
    <v>       0.33213688       0.38293794       0.50567494 </v>
    <v>       0.62003872       0.38461967       0.50880686 </v>
    <v>       0.61883791       0.81459733       0.51046843 </v>
    <v>       0.48775384       0.49182889       0.44681775 </v>
    <v>       0.54332807       0.44598647       0.46487524 </v>
    <v>       0.54287566       0.49363934       0.43022406 </v>
   </varray>
  </structure>
  <varray name="primitive_index" >
   <v type="int" >        1 </v>
   <v type="int" >        2 </v>
   <v type="int" >        3 </v>
   <v type="int" >        4 </v>
   <v type="int" >        5 </v>
   <v type="int" >        6 </v>
   <v type="int" >        7 </v>
   <v type="int" >        8 </v>
   <v type="int" >        9 </v>
   <v type="int" >       10 </v>
   <v type="int" >       11 </v>
   <v type="int" >       12 </v>
   <v type="int" >       13 </v>
   <v type="int" >       14 </v>
   <v type="int" >       15 </v>
   <v type="int" >       16 </v>
   <v type="int" >       17 </v>
   <v type="int" >       18 </v>
   <v type="int" >       19 </v>
   <v type="int" >       20 </v>
   <v type="int" >       21 </v>
   <v type="int" >       22 </v>
   <v type="int" >       23 </v>
   <v type="int" >       24 </v>
   <v type="int" >       25 </v>
   <v type="int" >       26 </v>
   <v type="int" >       27 </v>
   <v type="int" >       28 </v>
   <v type="int" >       29 </v>
   <v type="int" >       30 </v>
   <v type="int" >       31 </v>
   <v type="int" >       32 </v>
   <v type="int" >       33 </v>
   <v type="int" >       34 </v>
   <v type="int" >       35 </v>
   <v type="int" >       36 </v>
   <v type="int" >       37 </v>
   <v type="int" >       38 </v>
   <v type="int" >       39 </v>
   <v type="int" >       40 </v>
   <v type="int" >       41 </v>
   <v type="int" >       42 </v>
   <v type="int" >       43 </v>
   <v type="int" >       44 </v>
   <v type="int" >       45 </v>
   <v type="int" >       46 </v>
   <v type="int" >       47 </v>
   <v type="int" >       48 </v>
   <v type="int" >       49 </v>
   <v type="int" >       50 </v>
   <v type="int" >       51 </v>
   <v type="int" >       52 </v>
   <v type="int" >       53 </v>
   <v type="int" >       54 </v>
   <v type="int" >       55 </v>
   <v type="int" >       56 </v>
   <v type="int" >       57 </v>
   <v type="int" >       58 </v>
   <v type="int" >       59 </v>
   <v type="int" >       60 </v>
   <v type="int" >       61 </v>
   <v type="int" >       62 </v>
   <v type="int" >       63 </v>
   <v type="int" >       64 </v>
   <v type="int" >       65 </v>
   <v type="int" >       66 </v>
   <v type="int" >       67 </v>
   <v type="int" >       68 </v>
   <v type="int" >       69 </v>
   <v type="int" >       70 </v>
   <v type="int" >       71 </v>
   <v type="int" >       72 </v>
   <v type="int" >       73 </v>
   <v type="int" >       74 </v>
   <v type="int" >       75 </v>
   <v type="int" >       76 </v>
   <v type="int" >       77 </v>
   <v type="int" >       78 </v>
   <v type="int" >       79 </v>
   <v type="int" >       80 </v>
   <v type="int" >       81 </v>
   <v type="int" >       82 </v>
   <v type="int" >       83 </v>
   <v type="int" >       84 </v>
   <v type="int" >       85 </v>
   <v type="int" >       86 </v>
   <v type="int" >       87 </v>
   <v type="int" >       88 </v>
   <v type="int" >       89 </v>
   <v type="int" >       90 </v>
   <v type="int" >       91 </v>
   <v type="int" >       92 </v>
   <v type="int" >       93 </v>
  </varray>
 </primitive_cell>
 <kpoints>
  <generation param="Gamma">
   <v type="int" name="divisions">       2        2        1 </v>
   <v name="usershift">      0.00000000       0.00000000       0.00000000 </v>
   <v name="genvec1">      0.50000000       0.00000000       0.00000000 </v>
   <v name="genvec2">      0.00000000       0.50000000       0.00000000 </v>
   <v name="genvec3">      0.00000000       0.00000000       1.00000000 </v>
   <v name="shift">      0.00000000       0.00000000       0.00000000 </v>
  </generation>
  <varray name="kpointlist" >
   <v>       0.00000000       0.00000000       0.00000000 </v>
   <v>       0.50000000       0.00000000       0.00000000 </v>
   <v>       0.00000000       0.50000000       0.00000000 </v>
   <v>       0.50000000       0.50000000       0.00000000 </v>
  </varray>
  <varray name="weights" >
   <v>       0.25000000 </v>
   <v>       0.25000000 </v>
   <v>       0.25000000 </v>
   <v>       0.25000000 </v>
  </varray>
 </kpoints>
 <parameters>
  <separator name="general" >
   <i type="string" name="SYSTEM">unknown system</i>
   <i type="logical" name="LCOMPAT"> F  </i>
  </separator>
  <separator name="electronic" >
   <i type="string" name="PREC">normal</i>
   <i name="ENMAX">    520.00000000</i>
   <i name="ENAUG">    644.87300000</i>
   <i name="EDIFF">      0.00000100</i>
   <i type="int" name="IALGO">    38</i>
   <i type="int" name="IWAVPR">    11</i>
   <i type="int" name="NBANDS">   265</i>
   <i type="int" name="NBANDSLOW">    -1</i>
   <i type="int" name="NBANDSHIGH">    -1</i>
   <i name="NELECT">    380.00000000</i>
   <i type="int" name="TURBO">     0</i>
   <i type="int" name="IRESTART">     0</i>
   <i type="int" name="NREBOOT">     0</i>
   <i type="int" name="NMIN">     0</i>
   <i name="EREF">      0.00000000</i>
   <separator name="electronic smearing" >
    <i type="int" name="ISMEAR">     0</i>
    <i name="SIGMA">      0.05000000</i>
    <i name="KSPACING">      0.50000000</i>
    <i type="logical" name="KGAMMA"> T  </i>
    <i type="logical" name="KBLOWUP"> T  </i>
   </separator>
   <separator name="electronic projectors" >
    <i type="logical" name="LREAL"> T  </i>
    <v name="ROPT">     -0.00050000     -0.00050000     -0.00050000     -0.00050000     -0.00050000</v>
    <i type="int" name="LMAXPAW">  -100</i>
    <i type="int" name="LMAXMIX">     2</i>
    <i type="logical" name="NLSPLINE"> F  </i>
   </separator>
   <separator name="electronic startup" >
    <i type="int" name="ISTART">     0</i>
    <i type="int" name="ICHARG">     2</i>
    <i type="int" name="INIWAV">     1</i>
   </separator>
   <separator name="electronic spin" >
    <i type="int" name="ISPIN">     2</i>
    <i type="logical" name="LNONCOLLINEAR"> F  </i>
    <v name="MAGMOM">      0.60000000      0.60000000      0.60000000      0.60000000      0.60000000      0.60000000      0.60000000      0.60000000      0.60000000      0.60000000      0.60000000      0.60000000      0.60000000      0.60000000      0.60000000      0.60000000      0.60000000      0.60000000      0.60000000      0.60000000
      0.60000000      0.60000000      0.60000000      0.60000000      0.60000000      0.60000000      0.60000000      0.60000000      0.60000000      0.60000000      0.60000000      0.60000000      0.60000000      0.60000000      0.60000000      0.60000000      0.60000000      0.60000000      0.60000000      0.60000000
      0.60000000      0.60000000      0.60000000      0.60000000      0.60000000      0.60000000      0.60000000      0.60000000      0.60000000      0.60000000      0.60000000      0.60000000      0.60000000      0.60000000      0.60000000      0.60000000      0.60000000      0.60000000      0.60000000      0.60000000
      0.60000000      0.60000000      0.60000000      0.60000000      0.60000000      0.60000000      0.60000000      0.60000000      0.60000000      0.60000000      0.60000000      0.60000000      0.60000000      0.60000000      0.60000000      0.60000000      0.60000000      0.60000000      0.60000000      0.60000000
      0.60000000      0.60000000      0.60000000      0.60000000      0.60000000      0.60000000      0.60000000      0.60000000      0.60000000      0.60000000      0.60000000      0.60000000      0.60000000</v>
    <i name="NUPDOWN">     -1.00000000</i>
    <i type="logical" name="LSORBIT"> F  </i>
    <v name="SAXIS">      0.00000000      0.00000000      1.00000000</v>
    <i type="logical" name="LSPIRAL"> F  </i>
    <v name="QSPIRAL">      0.00000000      0.00000000      0.00000000</v>
    <i type="logical" name="LZEROZ"> F  </i>
   </separator>
   <separator name="electronic exchange-correlation" >
    <i type="logical" name="LASPH"> T  </i>
    <i type="logical" name="LMETAGGA"> F  </i>
   </separator>
   <separator name="electronic convergence" >
    <i type="int" name="NELM">   200</i>
    <i type="int" name="NELMDL">    -5</i>
    <i type="int" name="NELMIN">     2</i>
    <i name="ENINI">    520.00000000</i>
    <separator name="electronic convergence detail" >
     <i type="logical" name="LDIAG"> T  </i>
     <i type="logical" name="LSUBROT"> F  </i>
     <i name="WEIMIN">      0.00100000</i>
     <i name="EBREAK">      0.00000000</i>
     <i name="DEPER">      0.30000000</i>
     <i type="int" name="NRMM">     4</i>
     <i name="TIME">      0.40000000</i>
    </separator>
   </separator>
   <separator name="electronic mixer" >
    <i name="AMIX">      0.20000000</i>
    <i name="BMIX">      0.00010000</i>
    <i name="AMIN">      0.10000000</i>
    <i name="AMIX_MAG">      0.80000000</i>
    <i name="BMIX_MAG">      0.00010000</i>
    <separator name="electronic mixer details" >
     <i type="int" name="IMIX">     4</i>
     <i type="logical" name="MIXFIRST"> F  </i>
     <i type="int" name="MAXMIX">   -45</i>
     <i name="WC">    100.00000000</i>
     <i type="int" name="INIMIX">     1</i>
     <i type="int" name="MIXPRE">     1</i>
     <i type="int" name="MREMOVE">     5</i>
    </separator>
   </separator>
   <separator name="electronic dipolcorrection" >
    <i type="logical" name="LDIPOL"> F  </i>
    <i type="logical" name="LMONO"> F  </i>
    <i type="int" name="IDIPOL">     0</i>
    <i name="EPSILON">      1.00000000</i>
    <v name="DIPOL">   -100.00000000   -100.00000000   -100.00000000</v>
    <i name="EFIELD">      0.00000000</i>
   </separator>
  </separator>
  <separator name="grids" >
   <i type="int" name="NGX">    96</i>
   <i type="int" name="NGY">    96</i>
   <i type="int" name="NGZ">    84</i>
   <i type="int" name="NGXF">   192</i>
   <i type="int" name="NGYF">   192</i>
   <i type="int" name="NGZF">   168</i>
   <i type="logical" name="ADDGRID"> T  </i>
  </separator>
  <separator name="ionic" >
   <i type="int" name="NSW">   300</i>
   <i type="int" name="IBRION">     3</i>
   <i type="int" name="MDALGO">     0</i>
   <i type="int" name="ISIF">     2</i>
   <i name="PSTRESS">      0.00000000</i>
   <i name="EDIFFG">     -0.03000000</i>
   <i type="int" name="NFREE">     0</i>
   <i name="POTIM">      0.10000000</i>
   <i name="SMASS">     -3.00000000</i>
   <i name="SCALEE">      1.00000000</i>
  </separator>
  <separator name="ionic md" >
   <i name="TEBEG">      0.00010000</i>
   <i name="TEEND">      0.00010000</i>
   <i type="int" name="NBLOCK">     1</i>
   <i type="int" name="KBLOCK">   300</i>
   <i type="int" name="NPACO">   256</i>
   <i name="APACO">     10.00000000</i>
  </separator>
  <separator name="symmetry" >
   <i type="int" name="ISYM">     0</i>
   <i name="SYMPREC">      0.00001000</i>
  </separator>
  <separator name="dos" >
   <i type="int" name="LORBIT">     0</i>
   <v name="RWIGS">     -1.00000000     -1.00000000     -1.00000000     -1.00000000     -1.00000000</v>
   <i type="int" name="NEDOS">   301</i>
   <i name="EMIN">     10.00000000</i>
   <i name="EMAX">    -10.00000000</i>
   <i name="EFERMI">      0.00000000</i>
  </separator>
  <separator name="writing" >
   <i type="int" name="NWRITE">     2</i>
   <i type="logical" name="LWAVE"> F  </i>
   <i type="logical" name="LDOWNSAMPLE"> F  </i>
   <i type="logical" name="LCHARG"> F  </i>
   <i type="logical" name="LPARD"> F  </i>
   <i type="logical" name="LVTOT"> F  </i>
   <i type="logical" name="LVHAR"> F  </i>
   <i type="logical" name="LELF"> F  </i>
   <i type="logical" name="LOPTICS"> F  </i>
   <v name="STM">      0.00000000      0.00000000      0.00000000      0.00000000      0.00000000      0.00000000      0.00000000</v>
  </separator>
  <separator name="performance" >
   <i type="int" name="NPAR">     5</i>
   <i type="int" name="NSIM">     4</i>
   <i type="int" name="NBLK">    -1</i>
   <i type="logical" name="LPLANE"> T  </i>
   <i type="logical" name="LSCALAPACK"> T  </i>
   <i type="logical" name="LSCAAWARE"> F  </i>
   <i type="logical" name="LSCALU"> F  </i>
   <i type="logical" name="LASYNC"> F  </i>
   <i type="logical" name="LORBITALREAL"> F  </i>
  </separator>
  <separator name="miscellaneous" >
   <i type="int" name="IDIOT">     3</i>
   <i type="int" name="PHON_NSTRUCT">    -1</i>
   <i type="logical" name="LMUSIC"> F  </i>
   <v name="POMASS">     12.01100000     18.99800000     14.00100000      1.00000000     16.00000000</v>
   <v name="DARWINR">      0.00000000      0.00000000      0.00000000      0.00000000      0.00000000</v>
   <v name="DARWINV">      1.00000000      1.00000000      1.00000000      1.00000000      1.00000000</v>
   <i type="logical" name="LCORR"> T  </i>
  </separator>
  <i type="logical" name="GGA_COMPAT"> T  </i>
  <i type="logical" name="LBERRY"> F  </i>
  <i type="int" name="ICORELEVEL">     0</i>
  <i type="logical" name="LDAU"> F  </i>
  <i type="int" name="I_CONSTRAINED_M">     0</i>
  <separator name="electronic exchange-correlation" >
   <i type="string" name="GGA">--</i>
   <i type="int" name="VOSKOWN">     0</i>
   <i type="logical" name="LHFCALC"> F  </i>
   <i type="string" name="PRECFOCK"></i>
   <i type="logical" name="LSYMGRAD"> F  </i>
   <i type="logical" name="LHFONE"> F  </i>
   <i type="logical" name="LRHFCALC"> F  </i>
   <i type="logical" name="LTHOMAS"> F  </i>
   <i type="logical" name="LMODELHF"> F  </i>
   <i type="logical" name="LFOCKACE"> F  </i>
   <i name="ENCUT4O">     -1.00000000</i>
   <i type="int" name="EXXOEP">     0</i>
   <i type="int" name="FOURORBIT">     0</i>
   <i name="AEXX">      0.00000000</i>
   <i name="HFALPHA">      0.00000000</i>
   <i name="MCALPHA">      0.00000000</i>
   <i name="ALDAX">      1.00000000</i>
   <i name="AGGAX">      1.00000000</i>
   <i name="ALDAC">      1.00000000</i>
   <i name="AGGAC">      1.00000000</i>
   <i type="int" name="NKREDX">     1</i>
   <i type="int" name="NKREDY">     1</i>
   <i type="int" name="NKREDZ">     1</i>
   <i type="logical" name="SHIFTRED"> F  </i>
   <i type="logical" name="ODDONLY"> F  </i>
   <i type="logical" name="EVENONLY"> F  </i>
   <i type="int" name="LMAXFOCK">     0</i>
   <i type="int" name="NMAXFOCKAE">     0</i>
   <i type="logical" name="LFOCKAEDFT"> F  </i>
   <i name="HFSCREEN">      0.00000000</i>
   <i name="HFSCREENC">      0.00000000</i>
   <i type="int" name="NBANDSGWLOW">     0</i>
  </separator>
  <separator name="vdW DFT" >
   <i type="logical" name="LUSE_VDW"> F  </i>
   <i type="int" name="IVDW_NL">     1</i>
   <i type="logical" name="LSPIN_VDW"> F  </i>
   <i name="Zab_VDW">     -0.84910000</i>
   <i name="PARAM1">      0.12340000</i>
   <i name="PARAM2">      1.00000000</i>
   <i name="PARAM3">      0.00000000</i>
  </separator>
  <separator name="model GW" >
   <i type="int" name="MODEL_GW">     0</i>
   <i name="MODEL_EPS0">     24.99925548</i>
   <i name="MODEL_ALPHA">      1.00000000</i>
  </separator>
  <separator name="linear response parameters" >
   <i type="logical" name="LEPSILON"> F  </i>
   <i type="logical" name="LRPA"> F  </i>
   <i type="logical" name="LNABLA"> F  </i>
   <i type="logical" name="LVEL"> F  </i>
   <i name="CSHIFT">      0.10000000</i>
   <i name="OMEGAMAX">     -1.00000000</i>
   <i name="DEG_THRESHOLD">      0.00200000</i>
   <i name="RTIME">     -0.10000000</i>
   <i name="WPLASMAI">      0.00000000</i>
   <v name="DFIELD">      0.00000000      0.00000000      0.00000000</v>
   <v name="WPLASMA">      0.00000000      0.00000000      0.00000000      0.00000000      0.00000000      0.00000000      0.00000000      0.00000000      0.00000000</v>
  </separator>
  <separator name="orbital magnetization" >
   <i type="logical" name="NUCIND"> F  </i>
   <v name="MAGPOS">      0.00000000      0.00000000      0.00000000</v>
   <i type="logical" name="LNICSALL"> T  </i>
   <i type="logical" name="ORBITALMAG"> F  </i>
   <i type="logical" name="LMAGBLOCH"> F  </i>
   <i type="logical" name="LCHIMAG"> F  </i>
   <i type="logical" name="LGAUGE"> T  </i>
   <i type="int" name="MAGATOM">     0</i>
   <v name="MAGDIPOL">      0.00000000      0.00000000      0.00000000</v>
   <v name="AVECCONST">      0.00000000      0.00000000      0.00000000</v>
  </separator>
  <separator name="response functions" >
   <i type="logical" name="LALL_IN_ONE"> F  </i>
   <i type="int" name="IALL_IN_ONE">    -1</i>
   <i type="int" name="NBANDS_WAVE">    -1</i>
   <i type="logical" name="LFINITE_TEMPERATURE"> F  </i>
   <i type="logical" name="LADDER"> F  </i>
   <i type="logical" name="LRPAFORCE"> F  </i>
   <i type="logical" name="LFXC"> F  </i>
   <i type="logical" name="LHARTREE"> T  </i>
   <i type="int" name="IBSE">     0</i>
   <v type="int" name="KPOINT">    -1     0     0     0</v>
   <i type="logical" name="LTCTC"> F  </i>
   <i type="logical" name="LTCTE"> F  </i>
   <i type="logical" name="LTETE"> F  </i>
   <i type="logical" name="LTRIPLET"> F  </i>
   <i type="logical" name="LFXCEPS"> F  </i>
   <i type="logical" name="LFXHEG"> F  </i>
   <i type="int" name="NATURALO">     2</i>
   <i type="logical" name="LHOLEGF"> F  </i>
   <i type="logical" name="L2ORDER"> F  </i>
   <i type="logical" name="LDMP1"> F  </i>
   <i type="logical" name="LMP2LT"> F  </i>
   <i type="logical" name="LSMP2LT"> F  </i>
   <i type="logical" name="LGWLF"> F  </i>
   <i name="ENCUTGW">     -1.60000002</i>
   <i name="ENCUTGWSOFT">     -1.60000002</i>
   <i name="ENCUTLF">     -1.00000000</i>
   <i type="logical" name="LESF_SPLINES"> F  </i>
   <i type="int" name="LMAXMP2">    -1</i>
   <i name="SCISSOR">      0.00000000</i>
   <i type="int" name="NOMEGA">     0</i>
   <i type="int" name="NOMEGAR">     0</i>
   <i type="int" name="NBANDSGW">    -1</i>
   <i type="int" name="NBANDSO">    -1</i>
   <i type="int" name="NBANDSV">    -1</i>
   <i type="int" name="NELMGW">     1</i>
   <i type="int" name="NELMHF">     1</i>
   <i type="int" name="DIM">     3</i>
   <i type="int" name="IESPILON">     4</i>
   <i type="int" name="ANTIRES">     0</i>
   <i name="OMEGAMAX">    -30.00000000</i>
   <i name="OMEGAMIN">    -30.00000000</i>
   <i name="OMEGATL">   -200.00000000</i>
   <i type="int" name="OMEGAGRID">     0</i>
   <i name="CSHIFT">     -0.10000000</i>
   <i type="logical" name="LSELFENERGY"> F  </i>
   <i type="logical" name="LSPECTRAL"> F  </i>
   <i type="logical" name="LSPECTRALGW"> F  </i>
   <i type="logical" name="LSINGLES"> F  </i>
   <i type="logical" name="LFERMIGW"> F  </i>
   <i type="logical" name="ODDONLYGW"> F  </i>
   <i type="logical" name="EVENONLYGW"> F  </i>
   <i type="int" name="NKREDLFX">     1</i>
   <i type="int" name="NKREDLFY">     1</i>
   <i type="int" name="NKREDLFZ">     1</i>
   <i type="int" name="MAXMEM">  2800</i>
   <i type="int" name="TELESCOPE">     0</i>
   <i type="int" name="NTAUPAR">    -1</i>
   <i type="int" name="NOMEGAPAR">    -1</i>
   <i name="DAMP_NEWTON">      0.80000001</i>
   <i name="LAMBDA">      1.00000000</i>
  </separator>
  <separator name="External order field" >
   <i name="OFIELD_KAPPA">      0.00000000</i>
   <v name="OFIELD_K">      0.00000000      0.00000000      0.00000000</v>
   <i name="OFIELD_Q6_NEAR">      0.00000000</i>
   <i name="OFIELD_Q6_FAR">      0.00000000</i>
   <i name="OFIELD_A">      0.00000000</i>
  </separator>
  <separator name="optional k-points parameters" >
   <i type="int" name="KPOINTS_OPT_MODE">     1</i>
   <i type="logical" name="LKPOINTS_OPT"> F  </i>
  </separator>
 </parameters>
 <atominfo>
  <atoms>      93 </atoms>
  <types>       5 </types>
  <array name="atoms" >
   <dimension dim="1">ion</dimension>
   <field type="string">element</field>
   <field type="int">atomtype</field>
   <set>
    <rc><c>C </c><c>   1</c></rc>
    <rc><c>C </c><c>   1</c></rc>
    <rc><c>C </c><c>   1</c></rc>
    <rc><c>C </c><c>   1</c></rc>
    <rc><c>C </c><c>   1</c></rc>
    <rc><c>C </c><c>   1</c></rc>
    <rc><c>C </c><c>   1</c></rc>
    <rc><c>C </c><c>   1</c></rc>
    <rc><c>C </c><c>   1</c></rc>
    <rc><c>C </c><c>   1</c></rc>
    <rc><c>C </c><c>   1</c></rc>
    <rc><c>C </c><c>   1</c></rc>
    <rc><c>C </c><c>   1</c></rc>
    <rc><c>C </c><c>   1</c></rc>
    <rc><c>C </c><c>   1</c></rc>
    <rc><c>C </c><c>   1</c></rc>
    <rc><c>C </c><c>   1</c></rc>
    <rc><c>C </c><c>   1</c></rc>
    <rc><c>C </c><c>   1</c></rc>
    <rc><c>C </c><c>   1</c></rc>
    <rc><c>C </c><c>   1</c></rc>
    <rc><c>C </c><c>   1</c></rc>
    <rc><c>C </c><c>   1</c></rc>
    <rc><c>C </c><c>   1</c></rc>
    <rc><c>C </c><c>   1</c></rc>
    <rc><c>C </c><c>   1</c></rc>
    <rc><c>C </c><c>   1</c></rc>
    <rc><c>C </c><c>   1</c></rc>
    <rc><c>C </c><c>   1</c></rc>
    <rc><c>C </c><c>   1</c></rc>
    <rc><c>C </c><c>   1</c></rc>
    <rc><c>C </c><c>   1</c></rc>
    <rc><c>C </c><c>   1</c></rc>
    <rc><c>C </c><c>   1</c></rc>
    <rc><c>C </c><c>   1</c></rc>
    <rc><c>C </c><c>   1</c></rc>
    <rc><c>C </c><c>   1</c></rc>
    <rc><c>C </c><c>   1</c></rc>
    <rc><c>C </c><c>   1</c></rc>
    <rc><c>C </c><c>   1</c></rc>
    <rc><c>C </c><c>   1</c></rc>
    <rc><c>C </c><c>   1</c></rc>
    <rc><c>C </c><c>   1</c></rc>
    <rc><c>C </c><c>   1</c></rc>
    <rc><c>C </c><c>   1</c></rc>
    <rc><c>C </c><c>   1</c></rc>
    <rc><c>C </c><c>   1</c></rc>
    <rc><c>C </c><c>   1</c></rc>
    <rc><c>C </c><c>   1</c></rc>
    <rc><c>C </c><c>   1</c></rc>
    <rc><c>C </c><c>   1</c></rc>
    <rc><c>C </c><c>   1</c></rc>
    <rc><c>C </c><c>   1</c></rc>
    <rc><c>C </c><c>   1</c></rc>
    <rc><c>C </c><c>   1</c></rc>
    <rc><c>C </c><c>   1</c></rc>
    <rc><c>C </c><c>   1</c></rc>
    <rc><c>C </c><c>   1</c></rc>
    <rc><c>C </c><c>   1</c></rc>
    <rc><c>C </c><c>   1</c></rc>
    <rc><c>C </c><c>   1</c></rc>
    <rc><c>C </c><c>   1</c></rc>
    <rc><c>C </c><c>   1</c></rc>
    <rc><c>C </c><c>   1</c></rc>
    <rc><c>C </c><c>   1</c></rc>
    <rc><c>C </c><c>   1</c></rc>
    <rc><c>C </c><c>   1</c></rc>
    <rc><c>C </c><c>   1</c></rc>
    <rc><c>C </c><c>   1</c></rc>
    <rc><c>C </c><c>   1</c></rc>
    <rc><c>C </c><c>   1</c></rc>
    <rc><c>C </c><c>   1</c></rc>
    <rc><c>C </c><c>   1</c></rc>
    <rc><c>C </c><c>   1</c></rc>
    <rc><c>C </c><c>   1</c></rc>
    <rc><c>C </c><c>   1</c></rc>
    <rc><c>C </c><c>   1</c></rc>
    <rc><c>C </c><c>   1</c></rc>
    <rc><c>C </c><c>   1</c></rc>
    <rc><c>C </c><c>   1</c></rc>
    <rc><c>C </c><c>   1</c></rc>
    <rc><c>C </c><c>   1</c></rc>
    <rc><c>F </c><c>   2</c></rc>
    <rc><c>F </c><c>   2</c></rc>
    <rc><c>N </c><c>   3</c></rc>
    <rc><c>N </c><c>   3</c></rc>
    <rc><c>N </c><c>   3</c></rc>
    <rc><c>N </c><c>   3</c></rc>
    <rc><c>N </c><c>   3</c></rc>
    <rc><c>N </c><c>   3</c></rc>
    <rc><c>H </c><c>   4</c></rc>
    <rc><c>H </c><c>   4</c></rc>
    <rc><c>O </c><c>   5</c></rc>
   </set>
  </array>
  <array name="atomtypes" >
   <dimension dim="1">type</dimension>
   <field type="int">atomspertype</field>
   <field type="string">element</field>
   <field>mass</field>
   <field>valence</field>
   <field type="string">pseudopotential</field>
   <set>
    <rc><c>  82</c><c>C </c><c>     12.01100000</c><c>      4.00000000</c><c>  PAW_PBE C 08Apr2002                   </c></rc>
    <rc><c>   2</c><c>F </c><c>     18.99800000</c><c>      7.00000000</c><c>  PAW_PBE F 08Apr2002                   </c></rc>
    <rc><c>   6</c><c>N </c><c>     14.00100000</c><c>      5.00000000</c><c>  PAW_PBE N 08Apr2002                   </c></rc>
    <rc><c>   2</c><c>H </c><c>      1.00000000</c><c>      1.00000000</c><c>  PAW_PBE H 15Jun2001                   </c></rc>
    <rc><c>   1</c><c>O </c><c>     16.00000000</c><c>      6.00000000</c><c>  PAW_PBE O 08Apr2002                   </c></rc>
   </set>
  </array>
 </atominfo>
 <structure name="initialpos" >
  <crystal>
   <varray name="basis" >
    <v>      17.27103806       0.00000000       0.00000000 </v>
    <v>      -8.63551903      14.95715771       0.00000000 </v>
    <v>       0.00000000       0.00000000      15.00000000 </v>
   </varray>
   <i name="volume">   3874.88459904 </i>
   <varray name="rec_basis" >
    <v>       0.05790040       0.03342881      -0.00000000 </v>
    <v>       0.00000000       0.06685762       0.00000000 </v>
    <v>       0.00000000      -0.00000000       0.06666667 </v>
   </varray>
  </crystal>
  <varray name="positions" >
   <v>       0.99916190       0.00229118       0.50555654 </v>
   <v>       0.99939439       0.14529874       0.50500793 </v>
   <v>       0.00019232       0.28893070       0.50450468 </v>
   <v>       0.00067474       0.43198930       0.50487985 </v>
   <v>       0.00110358       0.57479308       0.50567063 </v>
   <v>       0.00146077       0.71773541       0.50621344 </v>
   <v>       0.00003810       0.86034020       0.50606045 </v>
   <v>       0.14346032       0.00396948       0.50490705 </v>
   <v>       0.14317742       0.14630107       0.50439700 </v>
   <v>       0.14252036       0.28797847       0.50438511 </v>
   <v>       0.14410635       0.43209012       0.50508810 </v>
   <v>       0.14507539       0.57477554       0.50591077 </v>
   <v>       0.14451885       0.71773971       0.50607631 </v>
   <v>       0.14367891       0.86090789       0.50565471 </v>
   <v>       0.28645155       0.00418598       0.50536798 </v>
   <v>       0.28714927       0.14794843       0.50456419 </v>
   <v>       0.28816715       0.29347562       0.50483674 </v>
   <v>       0.28532840       0.42704253       0.50605661 </v>
   <v>       0.29055608       0.57506774       0.50735152 </v>
   <v>       0.28785126       0.71838357       0.50715125 </v>
   <v>       0.28667024       0.86128762       0.50634922 </v>
   <v>       0.42940791       0.00451831       0.50648173 </v>
   <v>       0.42948205       0.14839719       0.50577851 </v>
   <v>       0.42964433       0.86086432       0.50751923 </v>
   <v>       0.57162274       0.00392199       0.50733833 </v>
   <v>       0.57165285       0.14741426       0.50651722 </v>
   <v>       0.57396941       0.29427095       0.50720096 </v>
   <v>       0.57363041       0.85952285       0.50904355 </v>
   <v>       0.71379553       0.00302648       0.50746566 </v>
   <v>       0.71440026       0.14671673       0.50622095 </v>
   <v>       0.71413743       0.28991831       0.50636276 </v>
   <v>       0.71017572       0.42997203       0.50945944 </v>
   <v>       0.70874745       0.85840051       0.51041933 </v>
   <v>       0.85592976       0.00202993       0.50695659 </v>
   <v>       0.85681971       0.14589854       0.50562983 </v>
   <v>       0.85712030       0.28917137       0.50521252 </v>
   <v>       0.85719087       0.43215303       0.50614622 </v>
   <v>       0.85745523       0.57464693       0.50779651 </v>
   <v>       0.85843658       0.71707190       0.50929741 </v>
   <v>       0.85471427       0.85814495       0.50847663 </v>
   <v>       0.04742252       0.09796193       0.50487579 </v>
   <v>       0.04699075       0.24045295       0.50440751 </v>
   <v>       0.04829517       0.38443500       0.50458146 </v>
   <v>       0.04924945       0.52731927       0.50536689 </v>
   <v>       0.04906545       0.67016055       0.50587605 </v>
   <v>       0.04820903       0.81297949       0.50590705 </v>
   <v>       0.04772616       0.95555016       0.50541932 </v>
   <v>       0.19132883       0.09923715       0.50443854 </v>
   <v>       0.19132442       0.24167370       0.50438904 </v>
   <v>       0.18994134       0.38282943       0.50499682 </v>
   <v>       0.19354031       0.52758290       0.50600574 </v>
   <v>       0.19240138       0.67032326       0.50641643 </v>
   <v>       0.19158551       0.81334281       0.50605781 </v>
   <v>       0.19128766       0.95628782       0.50523846 </v>
   <v>       0.33431348       0.10005579       0.50512281 </v>
   <v>       0.33851929       0.24416628       0.50493871 </v>
   <v>       0.33955631       0.67397765       0.50792075 </v>
   <v>       0.33456930       0.81347759       0.50697935 </v>
   <v>       0.33400803       0.95658870       0.50604799 </v>
   <v>       0.47674037       0.09996434       0.50630296 </v>
   <v>       0.47451619       0.24460009       0.50621671 </v>
   <v>       0.47474547       0.81010347       0.50849840 </v>
   <v>       0.47676708       0.95650438       0.50715090 </v>
   <v>       0.61898880       0.09929651       0.50672662 </v>
   <v>       0.61896797       0.24312264       0.50667669 </v>
   <v>       0.61872197       0.95538643       0.50798887 </v>
   <v>       0.76171664       0.09874218       0.50632206 </v>
   <v>       0.76193372       0.24187216       0.50576773 </v>
   <v>       0.76135121       0.38499846       0.50707417 </v>
   <v>       0.76079774       0.52963751       0.51184947 </v>
   <v>       0.76318047       0.66567940       0.51513613 </v>
   <v>       0.75776064       0.80849103       0.51195555 </v>
   <v>       0.76045012       0.95456413       0.50822639 </v>
   <v>       0.90388783       0.09737864       0.50575735 </v>
   <v>       0.90471395       0.24137430       0.50498206 </v>
   <v>       0.90495122       0.38466748       0.50523409 </v>
   <v>       0.90544120       0.52737570       0.50619789 </v>
   <v>       0.90596272       0.66973077       0.50761579 </v>
   <v>       0.90424519       0.81215100       0.50762705 </v>
   <v>       0.90326992       0.95385341       0.50680924 </v>
   <v>       0.71572934       0.71446052       0.51760444 </v>
   <v>       0.33233571       0.52297503       0.50788166 </v>
   <v>       0.62743972       0.66578623       0.52584611 </v>
   <v>       0.42162581       0.56249974       0.51031979 </v>
   <v>       0.42857989       0.28898484       0.50603071 </v>
   <v>       0.42943952       0.71995380       0.50872026 </v>
   <v>       0.71721945       0.57502255       0.51845460 </v>
   <v>       0.33213688       0.38293794       0.50567494 </v>
   <v>       0.62003872       0.38461967       0.50880686 </v>
   <v>       0.61883791       0.81459733       0.51046843 </v>
   <v>       0.48775384       0.49182889       0.44681775 </v>
   <v>       0.54332807       0.44598647       0.46487524 </v>
   <v>       0.54287566       0.49363934       0.43022406 </v>
  </varray>
  <varray name="selective"  type="logical" >
   <v type="logical" >  T  T  T </v>
   <v type="logical" >  T  T  T </v>
   <v type="logical" >  T  T  T </v>
   <v type="logical" >  T  T  T </v>
   <v type="logical" >  T  T  T </v>
   <v type="logical" >  T  T  T </v>
   <v type="logical" >  T  T  T </v>
   <v type="logical" >  T  T  T </v>
   <v type="logical" >  T  T  T </v>
   <v type="logical" >  T  T  T </v>
   <v type="logical" >  T  T  T </v>
   <v type="logical" >  T  T  T </v>
   <v type="logical" >  T  T  T </v>
   <v type="logical" >  T  T  T </v>
   <v type="logical" >  T  T  T </v>
   <v type="logical" >  T  T  T </v>
   <v type="logical" >  T  T  T </v>
   <v type="logical" >  T  T  T </v>
   <v type="logical" >  T  T  T </v>
   <v type="logical" >  T  T  T </v>
   <v type="logical" >  T  T  T </v>
   <v type="logical" >  T  T  T </v>
   <v type="logical" >  T  T  T </v>
   <v type="logical" >  T  T  T </v>
   <v type="logical" >  T  T  T </v>
   <v type="logical" >  T  T  T </v>
   <v type="logical" >  T  T  T </v>
   <v type="logical" >  T  T  T </v>
   <v type="logical" >  T  T  T </v>
   <v type="logical" >  T  T  T </v>
   <v type="logical" >  T  T  T </v>
   <v type="logical" >  T  T  T </v>
   <v type="logical" >  T  T  T </v>
   <v type="logical" >  T  T  T </v>
   <v type="logical" >  T  T  T </v>
   <v type="logical" >  T  T  T </v>
   <v type="logical" >  T  T  T </v>
   <v type="logical" >  T  T  T </v>
   <v type="logical" >  T  T  T </v>
   <v type="logical" >  T  T  T </v>
   <v type="logical" >  T  T  T </v>
   <v type="logical" >  T  T  T </v>
   <v type="logical" >  T  T  T </v>
   <v type="logical" >  T  T  T </v>
   <v type="logical" >  T  T  T </v>
   <v type="logical" >  T  T  T </v>
   <v type="logical" >  T  T  T </v>
   <v type="logical" >  T  T  T </v>
   <v type="logical" >  T  T  T </v>
   <v type="logical" >  T  T  T </v>
   <v type="logical" >  T  T  T </v>
   <v type="logical" >  T  T  T </v>
   <v type="logical" >  T  T  T </v>
   <v type="logical" >  T  T  T </v>
   <v type="logical" >  T  T  T </v>
   <v type="logical" >  T  T  T </v>
   <v type="logical" >  T  T  T </v>
   <v type="logical" >  T  T  T </v>
   <v type="logical" >  T  T  T </v>
   <v type="logical" >  T  T  T </v>
   <v type="logical" >  T  T  T </v>
   <v type="logical" >  T  T  T </v>
   <v type="logical" >  T  T  T </v>
   <v type="logical" >  T  T  T </v>
   <v type="logical" >  T  T  T </v>
   <v type="logical" >  T  T  T </v>
   <v type="logical" >  T  T  T </v>
   <v type="logical" >  T  T  T </v>
   <v type="logical" >  T  T  T </v>
   <v type="logical" >  T  T  T </v>
   <v type="logical" >  T  T  T </v>
   <v type="logical" >  T  T  T </v>
   <v type="logical" >  T  T  T </v>
   <v type="logical" >  T  T  T </v>
   <v type="logical" >  T  T  T </v>
   <v type="logical" >  T  T  T </v>
   <v type="logical" >  T  T  T </v>
   <v type="logical" >  T  T  T </v>
   <v type="logical" >  T  T  T </v>
   <v type="logical" >  T  T  T </v>
   <v type="logical" >  T  T  T </v>
   <v type="logical" >  T  T  T </v>
   <v type="logical" >  T  T  T </v>
   <v type="logical" >  T  T  T </v>
   <v type="logical" >  T  T  T </v>
   <v type="logical" >  T  T  T </v>
   <v type="logical" >  T  T  T </v>
   <v type="logical" >  T  T  T </v>
   <v type="logical" >  T  T  T </v>
   <v type="logical" >  T  T  T </v>
   <v type="logical" >  T  T  T </v>
   <v type="logical" >  T  T  T </v>
   <v type="logical" >  T  T  F </v>
  </varray>
  <nose>
   <v>      -3.00000000       0.00000000       0.00010000       0.00010000 </v>
  </nose>
 </structure>
 <calculation>
  <scstep>
   <time name="dav">   73.38   73.82</time>
   <time name="total">   80.34   80.83</time>
   <energy>
    <i name="alphaZ">    185.49599500 </i>
    <i name="ewald">  37933.53701142 </i>
    <i name="hartreedc"> -49712.38810218 </i>
    <i name="XCdc">   1308.60476514 </i>
    <i name="pawpsdc">  11553.19479004 </i>
    <i name="pawaedc"> -11618.78033184 </i>
    <i name="eentropy">     -0.04501102 </i>
    <i name="bandstr">  -1588.56441115 </i>
    <i name="atom">  15429.98794498 </i>
    <i name="e_fr_energy">   3491.04265038 </i>
    <i name="e_wo_entrp">   3491.08766140 </i>
    <i name="e_0_energy">   3491.06515589 </i>
   </energy>
  </scstep>
  <scstep>
   <time name="dav">   94.20   94.85</time>
   <time name="total">   94.20   94.85</time>
   <energy>
    <i name="e_fr_energy">   -184.48188024 </i>
    <i name="e_wo_entrp">   -184.47952101 </i>
    <i name="e_0_energy">   -184.48070063 </i>
   </energy>
  </scstep>
  <scstep>
   <time name="dav">   80.96   81.43</time>
   <time name="total">   80.96   81.43</time>
   <energy>
    <i name="e_fr_energy">   -840.76365989 </i>
    <i name="e_wo_entrp">   -840.76157393 </i>
    <i name="e_0_energy">   -840.76261691 </i>
   </energy>
  </scstep>
  <scstep>
   <time name="dav">   80.41   80.90</time>
   <time name="total">   80.41   80.90</time>
   <energy>
    <i name="e_fr_energy">   -863.40441058 </i>
    <i name="e_wo_entrp">   -863.40186696 </i>
    <i name="e_0_energy">   -863.40313877 </i>
   </energy>
  </scstep>
  <scstep>
   <time name="dav">   91.10   91.60</time>
   <time name="total">   96.72   97.27</time>
   <energy>
    <i name="e_fr_energy">   -864.12213619 </i>
    <i name="e_wo_entrp">   -864.11954053 </i>
    <i name="e_0_energy">   -864.12083836 </i>
   </energy>
  </scstep>
  <scstep>
   <time name="dav">   78.80   79.30</time>
   <time name="total">   90.80   91.37</time>
   <energy>
    <i name="e_fr_energy">   -847.68066391 </i>
    <i name="e_wo_entrp">   -847.67768174 </i>
    <i name="e_0_energy">   -847.67917282 </i>
   </energy>
  </scstep>
  <scstep>
   <time name="dav">   77.76   78.22</time>
   <time name="total">   89.91   90.44</time>
   <energy>
    <i name="e_fr_energy">   -827.75333428 </i>
    <i name="e_wo_entrp">   -827.75332719 </i>
    <i name="e_0_energy">   -827.75333074 </i>
   </energy>
  </scstep>
  <scstep>
   <time name="dav">   76.48   76.94</time>
   <time name="total">   88.63   89.16</time>
   <energy>
    <i name="e_fr_energy">   -823.09852509 </i>
    <i name="e_wo_entrp">   -823.09852503 </i>
    <i name="e_0_energy">   -823.09852506 </i>
   </energy>
  </scstep>
  <scstep>
   <time name="dav">   78.34   78.82</time>
   <time name="total">   90.79   91.37</time>
   <energy>
    <i name="e_fr_energy">   -823.13217950 </i>
    <i name="e_wo_entrp">   -823.13217945 </i>
    <i name="e_0_energy">   -823.13217948 </i>
   </energy>
  </scstep>
  <scstep>
   <time name="dav">   76.02   76.48</time>
   <time name="total">   88.31   88.83</time>
   <energy>
    <i name="e_fr_energy">   -822.99701216 </i>
    <i name="e_wo_entrp">   -822.99701213 </i>
    <i name="e_0_energy">   -822.99701215 </i>
   </energy>
  </scstep>
  <scstep>
   <time name="dav">   76.98   77.41</time>
   <time name="total">   88.81   89.36</time>
   <energy>
    <i name="e_fr_energy">   -822.98276614 </i>
    <i name="e_wo_entrp">   -822.98276611 </i>
    <i name="e_0_energy">   -822.98276612 </i>
   </energy>
  </scstep>
  <scstep>
   <time name="dav">   79.43   79.88</time>
   <time name="total">   91.71   92.23</time>
   <energy>
    <i name="e_fr_energy">   -822.98317829 </i>
    <i name="e_wo_entrp">   -822.98317826 </i>
    <i name="e_0_energy">   -822.98317827 </i>
   </energy>
  </scstep>
  <scstep>
   <time name="dav">   79.85   80.32</time>
   <time name="total">   91.94   92.49</time>
   <energy>
    <i name="e_fr_energy">   -822.98333646 </i>
    <i name="e_wo_entrp">   -822.98333643 </i>
    <i name="e_0_energy">   -822.98333644 </i>
   </energy>
  </scstep>
  <scstep>
   <time name="dav">   76.79   77.22</time>
   <time name="total">   89.29   89.79</time>
   <energy>
    <i name="e_fr_energy">   -822.98336691 </i>
    <i name="e_wo_entrp">   -822.98336688 </i>
    <i name="e_0_energy">   -822.98336690 </i>
   </energy>
  </scstep>
  <scstep>
   <time name="dav">   75.93   76.37</time>
   <time name="total">   88.38   88.89</time>
   <energy>
    <i name="e_fr_energy">   -822.98342324 </i>
    <i name="e_wo_entrp">   -822.98342321 </i>
    <i name="e_0_energy">   -822.98342322 </i>
   </energy>
  </scstep>
  <scstep>
   <time name="dav">   78.16   78.61</time>
   <time name="total">   90.06   90.57</time>
   <energy>
    <i name="e_fr_energy">   -822.98342869 </i>
    <i name="e_wo_entrp">   -822.98342866 </i>
    <i name="e_0_energy">   -822.98342867 </i>
   </energy>
  </scstep>
  <scstep>
   <time name="dav">   80.85   81.36</time>
   <time name="total">   92.47   93.07</time>
   <energy>
    <i name="e_fr_energy">   -822.98342914 </i>
    <i name="e_wo_entrp">   -822.98342911 </i>
    <i name="e_0_energy">   -822.98342913 </i>
   </energy>
  </scstep>
  <scstep>
   <time name="dav">   69.44   69.85</time>
   <time name="total">   76.59   77.04</time>
   <energy>
    <i name="alphaZ">    185.49599500 </i>
    <i name="ewald">  37933.53701142 </i>
    <i name="hartreedc"> -51137.57074087 </i>
    <i name="XCdc">   1356.58238479 </i>
    <i name="pawpsdc">  38385.67156796 </i>
    <i name="pawaedc"> -38462.24582975 </i>
    <i name="eentropy">     -0.00000003 </i>
    <i name="bandstr">  -4514.44176210 </i>
    <i name="atom">  15429.98794498 </i>
    <i name="e_fr_energy">   -822.98342861 </i>
    <i name="e_wo_entrp">   -822.98342858 </i>
    <i name="e_0_energy">   -822.98342859 </i>
   </energy>
  </scstep>
  <structure>
   <crystal>
    <varray name="basis" >
     <v>      17.27103806       0.00000000       0.00000000 </v>
     <v>      -8.63551903      14.95715771       0.00000000 </v>
     <v>       0.00000000       0.00000000      15.00000000 </v>
    </varray>
    <i name="volume">   3874.88459904 </i>
    <varray name="rec_basis" >
     <v>       0.05790040       0.03342881      -0.00000000 </v>
     <v>       0.00000000       0.06685762       0.00000000 </v>
     <v>       0.00000000      -0.00000000       0.06666667 </v>
    </varray>
   </crystal>
   <varray name="positions" >
    <v>       0.99916190       0.00229118       0.50555654 </v>
    <v>       0.99939439       0.14529874       0.50500793 </v>
    <v>       0.00019232       0.28893070       0.50450468 </v>
    <v>       0.00067474       0.43198930       0.50487985 </v>
    <v>       0.00110358       0.57479308       0.50567063 </v>
    <v>       0.00146077       0.71773541       0.50621344 </v>
    <v>       0.00003810       0.86034020       0.50606045 </v>
    <v>       0.14346032       0.00396948       0.50490705 </v>
    <v>       0.14317742       0.14630107       0.50439700 </v>
    <v>       0.14252036       0.28797847       0.50438511 </v>
    <v>       0.14410635       0.43209012       0.50508810 </v>
    <v>       0.14507539       0.57477554       0.50591077 </v>
    <v>       0.14451885       0.71773971       0.50607631 </v>
    <v>       0.14367891       0.86090789       0.50565471 </v>
    <v>       0.28645155       0.00418598       0.50536798 </v>
    <v>       0.28714927       0.14794843       0.50456419 </v>
    <v>       0.28816715       0.29347562       0.50483674 </v>
    <v>       0.28532840       0.42704253       0.50605661 </v>
    <v>       0.29055608       0.57506774       0.50735152 </v>
    <v>       0.28785126       0.71838357       0.50715125 </v>
    <v>       0.28667024       0.86128762       0.50634922 </v>
    <v>       0.42940791       0.00451831       0.50648173 </v>
    <v>       0.42948205       0.14839719       0.50577851 </v>
    <v>       0.42964433       0.86086432       0.50751923 </v>
    <v>       0.57162274       0.00392199       0.50733833 </v>
    <v>       0.57165285       0.14741426       0.50651722 </v>
    <v>       0.57396941       0.29427095       0.50720096 </v>
    <v>       0.57363041       0.85952285       0.50904355 </v>
    <v>       0.71379553       0.00302648       0.50746566 </v>
    <v>       0.71440026       0.14671673       0.50622095 </v>
    <v>       0.71413743       0.28991831       0.50636276 </v>
    <v>       0.71017572       0.42997203       0.50945944 </v>
    <v>       0.70874745       0.85840051       0.51041933 </v>
    <v>       0.85592976       0.00202993       0.50695659 </v>
    <v>       0.85681971       0.14589854       0.50562983 </v>
    <v>       0.85712030       0.28917137       0.50521252 </v>
    <v>       0.85719087       0.43215303       0.50614622 </v>
    <v>       0.85745523       0.57464693       0.50779651 </v>
    <v>       0.85843658       0.71707190       0.50929741 </v>
    <v>       0.85471427       0.85814495       0.50847663 </v>
    <v>       0.04742252       0.09796193       0.50487579 </v>
    <v>       0.04699075       0.24045295       0.50440751 </v>
    <v>       0.04829517       0.38443500       0.50458146 </v>
    <v>       0.04924945       0.52731927       0.50536689 </v>
    <v>       0.04906545       0.67016055       0.50587605 </v>
    <v>       0.04820903       0.81297949       0.50590705 </v>
    <v>       0.04772616       0.95555016       0.50541932 </v>
    <v>       0.19132883       0.09923715       0.50443854 </v>
    <v>       0.19132442       0.24167370       0.50438904 </v>
    <v>       0.18994134       0.38282943       0.50499682 </v>
    <v>       0.19354031       0.52758290       0.50600574 </v>
    <v>       0.19240138       0.67032326       0.50641643 </v>
    <v>       0.19158551       0.81334281       0.50605781 </v>
    <v>       0.19128766       0.95628782       0.50523846 </v>
    <v>       0.33431348       0.10005579       0.50512281 </v>
    <v>       0.33851929       0.24416628       0.50493871 </v>
    <v>       0.33955631       0.67397765       0.50792075 </v>
    <v>       0.33456930       0.81347759       0.50697935 </v>
    <v>       0.33400803       0.95658870       0.50604799 </v>
    <v>       0.47674037       0.09996434       0.50630296 </v>
    <v>       0.47451619       0.24460009       0.50621671 </v>
    <v>       0.47474547       0.81010347       0.50849840 </v>
    <v>       0.47676708       0.95650438       0.50715090 </v>
    <v>       0.61898880       0.09929651       0.50672662 </v>
    <v>       0.61896797       0.24312264       0.50667669 </v>
    <v>       0.61872197       0.95538643       0.50798887 </v>
    <v>       0.76171664       0.09874218       0.50632206 </v>
    <v>       0.76193372       0.24187216       0.50576773 </v>
    <v>       0.76135121       0.38499846       0.50707417 </v>
    <v>       0.76079774       0.52963751       0.51184947 </v>
    <v>       0.76318047       0.66567940       0.51513613 </v>
    <v>       0.75776064       0.80849103       0.51195555 </v>
    <v>       0.76045012       0.95456413       0.50822639 </v>
    <v>       0.90388783       0.09737864       0.50575735 </v>
    <v>       0.90471395       0.24137430       0.50498206 </v>
    <v>       0.90495122       0.38466748       0.50523409 </v>
    <v>       0.90544120       0.52737570       0.50619789 </v>
    <v>       0.90596272       0.66973077       0.50761579 </v>
    <v>       0.90424519       0.81215100       0.50762705 </v>
    <v>       0.90326992       0.95385341       0.50680924 </v>
    <v>       0.71572934       0.71446052       0.51760444 </v>
    <v>       0.33233571       0.52297503       0.50788166 </v>
    <v>       0.62743972       0.66578623       0.52584611 </v>
    <v>       0.42162581       0.56249974       0.51031979 </v>
    <v>       0.42857989       0.28898484       0.50603071 </v>
    <v>       0.42943952       0.71995380       0.50872026 </v>
    <v>       0.71721945       0.57502255       0.51845460 </v>
    <v>       0.33213688       0.38293794       0.50567494 </v>
    <v>       0.62003872       0.38461967       0.50880686 </v>
    <v>       0.61883791       0.81459733       0.51046843 </v>
    <v>       0.48775384       0.49182889       0.44681775 </v>
    <v>       0.54332807       0.44598647       0.46487524 </v>
    <v>       0.54287566       0.49363934       0.43022406 </v>
   </varray>
  </structure>
  <varray name="forces" >
   <v>      -0.00412261       0.00297860      -0.00112550 </v>
   <v>      -0.00635591       0.00192780       0.00325649 </v>
   <v>       0.00001152       0.00201467       0.00501679 </v>
   <v>       0.00194038       0.00213586       0.00403707 </v>
   <v>       0.00553593      -0.00077000       0.00032545 </v>
   <v>       0.00824988      -0.00469507      -0.00116734 </v>
   <v>      -0.00297019      -0.00834474      -0.00256103 </v>
   <v>       0.00246389       0.00192345      -0.00049045 </v>
   <v>      -0.00277623       0.00232134       0.00303468 </v>
   <v>      -0.00662438       0.00357208       0.00155566 </v>
   <v>      -0.00193288       0.00169784       0.00341206 </v>
   <v>       0.00033939       0.00196894       0.00060588 </v>
   <v>       0.00730657      -0.00143636      -0.00433664 </v>
   <v>       0.00805315      -0.00199175      -0.00390768 </v>
   <v>       0.00452207       0.00153474      -0.00194103 </v>
   <v>       0.00220514       0.00138104       0.00254970 </v>
   <v>      -0.00066562       0.00034430       0.00270346 </v>
   <v>      -0.00342914       0.00168607      -0.00120240 </v>
   <v>      -0.00312705       0.00116892       0.00010856 </v>
   <v>      -0.00153001      -0.00105226      -0.00347212 </v>
   <v>       0.00050389      -0.00432294      -0.00324304 </v>
   <v>      -0.00021482       0.00055887      -0.00167182 </v>
   <v>       0.00138636       0.00095239       0.00194212 </v>
   <v>      -0.00358419      -0.00006880      -0.00434103 </v>
   <v>      -0.00060118       0.00157419      -0.00052031 </v>
   <v>      -0.00029431       0.00157237       0.00235834 </v>
   <v>       0.00081757       0.00152561       0.00603471 </v>
   <v>       0.00116544       0.00012801       0.00053017 </v>
   <v>       0.00258102       0.00322981       0.00002904 </v>
   <v>       0.00161751       0.00292386       0.00208691 </v>
   <v>       0.00161596       0.00278018       0.00573924 </v>
   <v>       0.00267920       0.00147502       0.00705095 </v>
   <v>       0.00202993       0.00140160       0.00337701 </v>
   <v>       0.00023415       0.00357131       0.00096470 </v>
   <v>       0.00259911       0.00287685       0.00294367 </v>
   <v>       0.00292076       0.00286970       0.00374713 </v>
   <v>       0.00288330       0.00115100       0.00454909 </v>
   <v>       0.00304958      -0.00074032       0.00335986 </v>
   <v>      -0.00028808      -0.00196361       0.00275718 </v>
   <v>      -0.00229793       0.00024795       0.00082690 </v>
   <v>       0.00872905      -0.00334060       0.00091896 </v>
   <v>       0.00447431       0.00063170       0.00417780 </v>
   <v>       0.00316341       0.00101035       0.00409806 </v>
   <v>      -0.00275618       0.00120142       0.00202487 </v>
   <v>      -0.01315218       0.00555192      -0.00173389 </v>
   <v>      -0.00286626       0.00529916      -0.00290375 </v>
   <v>       0.00273574       0.00187028      -0.00206210 </v>
   <v>       0.00065451      -0.00396765       0.00131004 </v>
   <v>       0.00757581      -0.00128143       0.00389916 </v>
   <v>       0.00505002      -0.00075794       0.00193334 </v>
   <v>       0.00248361       0.00044400       0.00105877 </v>
   <v>       0.00039685       0.00299635      -0.00374574 </v>
   <v>      -0.00381850       0.00559894      -0.00475568 </v>
   <v>      -0.00273012       0.00070911      -0.00190873 </v>
   <v>      -0.00052569       0.00002286       0.00099218 </v>
   <v>      -0.00007915      -0.00085504       0.00462201 </v>
   <v>       0.00540265       0.00164437      -0.00193743 </v>
   <v>       0.00356753       0.00374012      -0.00444597 </v>
   <v>      -0.00027073       0.00301416      -0.00333089 </v>
   <v>       0.00140210       0.00145499       0.00085907 </v>
   <v>       0.00059916       0.00117236       0.00479019 </v>
   <v>       0.00249319       0.00174130      -0.00268573 </v>
   <v>       0.00286283       0.00159840      -0.00230280 </v>
   <v>       0.00142930       0.00048782       0.00135714 </v>
   <v>       0.00044976       0.00057231       0.00485282 </v>
   <v>       0.00059658       0.00024301      -0.00032799 </v>
   <v>      -0.00134027      -0.00122591       0.00158107 </v>
   <v>      -0.00048588      -0.00118549       0.00415181 </v>
   <v>      -0.00005211       0.00003313       0.00601017 </v>
   <v>       0.00077511       0.00333953       0.00741955 </v>
   <v>       0.00213428       0.00200083       0.01057174 </v>
   <v>       0.00137516       0.00186446       0.00607083 </v>
   <v>      -0.00228808      -0.00061249       0.00214883 </v>
   <v>       0.00269404      -0.00027710       0.00227756 </v>
   <v>       0.00044356      -0.00050501       0.00435591 </v>
   <v>      -0.00041583      -0.00057199       0.00457649 </v>
   <v>      -0.00142094       0.00235737       0.00257234 </v>
   <v>       0.00013251       0.00377068       0.00096194 </v>
   <v>       0.00727195       0.00474530       0.00103103 </v>
   <v>       0.00460421       0.00059307      -0.00065529 </v>
   <v>       0.00116403       0.00152496       0.01608372 </v>
   <v>       0.00161152       0.00080458      -0.00000130 </v>
   <v>       0.00199614       0.00607565       0.03327553 </v>
   <v>      -0.00429074       0.00192298       0.00584931 </v>
   <v>       0.00094955       0.00005844       0.00673196 </v>
   <v>      -0.00135378      -0.00072981      -0.00159575 </v>
   <v>       0.00353595       0.00107537       0.01288511 </v>
   <v>       0.00204300      -0.00106177      -0.00246948 </v>
   <v>       0.00108737       0.00095365       0.00750430 </v>
   <v>      -0.00015836       0.00088011       0.00163811 </v>
   <v>      -0.07865250      -0.16032659       0.15708502 </v>
   <v>       0.03348721       0.04071558       0.12500301 </v>
   <v>      -0.02861187       0.03286970      -0.46473971 </v>
  </varray>
  <varray name="stress" >
   <v>      -9.91046926      -0.27249909       0.03924464 </v>
   <v>      -0.27249989     -10.18341401       0.03522185 </v>
   <v>       0.03924494       0.03522164      -0.12219116 </v>
  </varray>
  <energy>
   <i name="e_fr_energy">   -830.50803090 </i>
   <i name="e_wo_entrp">   -830.50803087 </i>
   <i name="e_0_energy">   -830.50803088 </i>
  </energy>
  <time name="totalsc"> 1903.77 1915.06</time>
 </calculation>
 <calculation>
  <scstep>
   <time name="dav">   71.48   71.92</time>
   <time name="total">   84.42   84.93</time>
   <energy>
    <i name="alphaZ">    185.49599500 </i>
    <i name="ewald">  37933.53864983 </i>
    <i name="hartreedc"> -51137.56238979 </i>
    <i name="XCdc">   1356.58215576 </i>
    <i name="pawpsdc">  38385.04664124 </i>
    <i name="pawaedc"> -38461.62079505 </i>
    <i name="eentropy">     -0.00000003 </i>
    <i name="bandstr">  -4514.45157178 </i>
    <i name="atom">  15429.98794498 </i>
    <i name="e_fr_energy">   -822.98336984 </i>
    <i name="e_wo_entrp">   -822.98336981 </i>
    <i name="e_0_energy">   -822.98336983 </i>
   </energy>
  </scstep>
  <scstep>
   <time name="dav">   78.29   78.73</time>
   <time name="total">   91.12   91.64</time>
   <energy>
    <i name="e_fr_energy">   -822.98337406 </i>
    <i name="e_wo_entrp">   -822.98337402 </i>
    <i name="e_0_energy">   -822.98337404 </i>
   </energy>
  </scstep>
  <scstep>
   <time name="dav">   63.00   63.38</time>
   <time name="total">   69.27   69.67</time>
   <energy>
    <i name="alphaZ">    185.49599500 </i>
    <i name="ewald">  37933.53864983 </i>
    <i name="hartreedc"> -51137.55238026 </i>
    <i name="XCdc">   1356.58192650 </i>
    <i name="pawpsdc">  38384.89650474 </i>
    <i name="pawaedc"> -38461.47043008 </i>
    <i name="eentropy">     -0.00000003 </i>
    <i name="bandstr">  -4514.46158375 </i>
    <i name="atom">  15429.98794498 </i>
    <i name="e_fr_energy">   -822.98337308 </i>
    <i name="e_wo_entrp">   -822.98337305 </i>
    <i name="e_0_energy">   -822.98337306 </i>
   </energy>
  </scstep>
  <structure>
   <crystal>
    <varray name="basis" >
     <v>      17.27103806       0.00000000       0.00000000 </v>
     <v>      -8.63551903      14.95715771       0.00000000 </v>
     <v>       0.00000000       0.00000000      15.00000000 </v>
    </varray>
    <i name="volume">   3874.88459904 </i>
    <varray name="rec_basis" >
     <v>       0.05790040       0.03342881      -0.00000000 </v>
     <v>       0.00000000       0.06685762       0.00000000 </v>
     <v>       0.00000000      -0.00000000       0.06666667 </v>
    </varray>
   </crystal>
   <varray name="positions" >
    <v>       0.99915865       0.00229505       0.50555596 </v>
    <v>       0.99938819       0.14530136       0.50500975 </v>
    <v>       0.00019323       0.28893336       0.50450603 </v>
    <v>       0.00067755       0.43199206       0.50487956 </v>
    <v>       0.00110808       0.57479185       0.50566892 </v>
    <v>       0.00146575       0.71772895       0.50621302 </v>
    <v>       0.00002869       0.86032938       0.50605856 </v>
    <v>       0.14346404       0.00397238       0.50490754 </v>
    <v>       0.14317574       0.14630466       0.50439906 </v>
    <v>       0.14251509       0.28798324       0.50438440 </v>
    <v>       0.14410501       0.43209224       0.50508908 </v>
    <v>       0.14507659       0.57477784       0.50591044 </v>
    <v>       0.14452525       0.71773754       0.50607242 </v>
    <v>       0.14368581       0.86090517       0.50565201 </v>
    <v>       0.28645700       0.00418802       0.50536676 </v>
    <v>       0.28715300       0.14795130       0.50456847 </v>
    <v>       0.28816750       0.29347775       0.50484390 </v>
    <v>       0.28532570       0.42704397       0.50605980 </v>
    <v>       0.29055393       0.57506904       0.50735148 </v>
    <v>       0.28784839       0.71838196       0.50714806 </v>
    <v>       0.28666720       0.86128182       0.50634736 </v>
    <v>       0.42940743       0.00451898       0.50648055 </v>
    <v>       0.42948364       0.14839839       0.50578118 </v>
    <v>       0.42963960       0.86086419       0.50751521 </v>
    <v>       0.57162252       0.00392401       0.50733832 </v>
    <v>       0.57165298       0.14741610       0.50651905 </v>
    <v>       0.57397091       0.29427255       0.50720687 </v>
    <v>       0.57363103       0.85952318       0.50904377 </v>
    <v>       0.71379997       0.00303069       0.50746555 </v>
    <v>       0.71440343       0.14672054       0.50622186 </v>
    <v>       0.71414038       0.28992190       0.50636538 </v>
    <v>       0.71017739       0.42997330       0.50946430 </v>
    <v>       0.70874968       0.85840229       0.51041900 </v>
    <v>       0.85593178       0.00203453       0.50695733 </v>
    <v>       0.85682401       0.14590231       0.50563119 </v>
    <v>       0.85712495       0.28917522       0.50521195 </v>
    <v>       0.85719358       0.43215440       0.50614622 </v>
    <v>       0.85745580       0.57464542       0.50779684 </v>
    <v>       0.85843385       0.71706905       0.50929821 </v>
    <v>       0.85471089       0.85814494       0.50847678 </v>
    <v>       0.04742983       0.09795781       0.50487568 </v>
    <v>       0.04699587       0.24045387       0.50440906 </v>
    <v>       0.04829883       0.38443637       0.50458138 </v>
    <v>       0.04924644       0.52732078       0.50536658 </v>
    <v>       0.04905332       0.67016744       0.50587446 </v>
    <v>       0.04820835       0.81298616       0.50590523 </v>
    <v>       0.04772993       0.95555271       0.50541803 </v>
    <v>       0.19132703       0.09923271       0.50444047 </v>
    <v>       0.19133229       0.24167268       0.50439202 </v>
    <v>       0.18994631       0.38282845       0.50499788 </v>
    <v>       0.19354335       0.52758337       0.50600567 </v>
    <v>       0.19240319       0.67032688       0.50641262 </v>
    <v>       0.19158399       0.81334984       0.50605424 </v>
    <v>       0.19128443       0.95628881       0.50523777 </v>
    <v>       0.33431243       0.10005611       0.50512468 </v>
    <v>       0.33851957       0.24416676       0.50494669 </v>
    <v>       0.33956320       0.67397963       0.50791843 </v>
    <v>       0.33457499       0.81348221       0.50697551 </v>
    <v>       0.33400895       0.95659251       0.50604534 </v>
    <v>       0.47674227       0.09996617       0.50630404 </v>
    <v>       0.47451731       0.24460145       0.50622238 </v>
    <v>       0.47474883       0.81010584       0.50849561 </v>
    <v>       0.47677075       0.95650640       0.50714916 </v>
    <v>       0.61899020       0.09929708       0.50672770 </v>
    <v>       0.61896838       0.24312308       0.50668006 </v>
    <v>       0.61872235       0.95538684       0.50798887 </v>
    <v>       0.76171390       0.09874065       0.50632315 </v>
    <v>       0.76193192       0.24187068       0.50576878 </v>
    <v>       0.76134990       0.38499846       0.50707638 </v>
    <v>       0.76079767       0.52964106       0.51185298 </v>
    <v>       0.76318254       0.66568164       0.51513951 </v>
    <v>       0.75776161       0.80849258       0.51195580 </v>
    <v>       0.76044663       0.95456330       0.50822791 </v>
    <v>       0.90389022       0.09737823       0.50575873 </v>
    <v>       0.90471370       0.24137371       0.50498294 </v>
    <v>       0.90494956       0.38466681       0.50523371 </v>
    <v>       0.90543955       0.52737860       0.50619714 </v>
    <v>       0.90596391       0.66973522       0.50761556 </v>
    <v>       0.90425538       0.81215694       0.50762802 </v>
    <v>       0.90327474       0.95385399       0.50680916 </v>
    <v>       0.71573064       0.71446169       0.51760609 </v>
    <v>       0.33233782       0.52297508       0.50788313 </v>
    <v>       0.62743988       0.66578790       0.52584682 </v>
    <v>       0.42162414       0.56250099       0.51032593 </v>
    <v>       0.42858216       0.28898626       0.50603916 </v>
    <v>       0.42943731       0.71995291       0.50871814 </v>
    <v>       0.71722035       0.57502320       0.51846090 </v>
    <v>       0.33213954       0.38293749       0.50568397 </v>
    <v>       0.62003851       0.38462001       0.50881501 </v>
    <v>       0.61883743       0.81459838       0.51046713 </v>
    <v>       0.48778460       0.49188466       0.44684863 </v>
    <v>       0.54328950       0.44596703       0.46489357 </v>
    <v>       0.54286555       0.49362445       0.43022406 </v>
   </varray>
  </structure>
  <varray name="forces" >
   <v>       0.00644266      -0.00126374      -0.00109847 </v>
   <v>       0.00930615      -0.00010563       0.00184089 </v>
   <v>       0.00204138       0.00026122       0.00509218 </v>
   <v>      -0.00008814       0.00015583       0.00414405 </v>
   <v>      -0.00508246       0.00352541       0.00055112 </v>
   <v>      -0.00639822       0.00736945      -0.00120241 </v>
   <v>       0.00429572       0.01120392      -0.00162261 </v>
   <v>      -0.00087855      -0.00162141      -0.00045613 </v>
   <v>       0.00523605      -0.00202599       0.00314320 </v>
   <v>       0.00990417      -0.00215933       0.00240045 </v>
   <v>       0.00386347       0.00030737       0.00343554 </v>
   <v>       0.00033953       0.00041380       0.00046763 </v>
   <v>      -0.00763918       0.00510347      -0.00294409 </v>
   <v>      -0.00862132       0.00489064      -0.00309538 </v>
   <v>      -0.00275073       0.00079174      -0.00180455 </v>
   <v>      -0.00016997      -0.00140916       0.00136829 </v>
   <v>       0.00228990      -0.00120669       0.00310752 </v>
   <v>       0.00548140       0.00071462      -0.00169660 </v>
   <v>       0.00254422       0.00041289       0.00011862 </v>
   <v>       0.00400227       0.00303460      -0.00361569 </v>
   <v>      -0.00005216       0.00421241      -0.00364632 </v>
   <v>       0.00159886       0.00153279      -0.00163754 </v>
   <v>       0.00009035       0.00088891       0.00222246 </v>
   <v>       0.00832409       0.00179188      -0.00208515 </v>
   <v>       0.00201552       0.00081596      -0.00040938 </v>
   <v>       0.00152928       0.00078578       0.00259125 </v>
   <v>       0.00036437       0.00091331       0.00637196 </v>
   <v>       0.00062568       0.00110997       0.00029197 </v>
   <v>      -0.00160040      -0.00154801       0.00180400 </v>
   <v>      -0.00031426      -0.00062017       0.00234209 </v>
   <v>      -0.00008743      -0.00046454       0.00593585 </v>
   <v>       0.00029271       0.00155126       0.00742136 </v>
   <v>      -0.00081630       0.00019549       0.00363569 </v>
   <v>       0.00145009      -0.00179069       0.00125916 </v>
   <v>      -0.00085908      -0.00110029       0.00317637 </v>
   <v>      -0.00107177      -0.00108805       0.00407263 </v>
   <v>      -0.00083555       0.00108941       0.00473728 </v>
   <v>      -0.00017584       0.00421798       0.00350667 </v>
   <v>       0.00230390       0.00386446       0.00287849 </v>
   <v>       0.00432758       0.00180964       0.00093455 </v>
   <v>      -0.00906236       0.00504533       0.00226552 </v>
   <v>      -0.00398442       0.00159029       0.00422818 </v>
   <v>      -0.00176871       0.00064139       0.00586708 </v>
   <v>       0.00308969       0.00156514       0.00202810 </v>
   <v>       0.01939186      -0.00447108      -0.00251874 </v>
   <v>       0.00505146      -0.00385399      -0.00287849 </v>
   <v>      -0.00198055      -0.00149826      -0.00191802 </v>
   <v>       0.00070220       0.00312536       0.00166516 </v>
   <v>      -0.00856619       0.00232028       0.00469846 </v>
   <v>      -0.00402443       0.00239741       0.00191879 </v>
   <v>      -0.00264335       0.00179014       0.00126088 </v>
   <v>       0.00112185      -0.00038201      -0.00355210 </v>
   <v>       0.00591701      -0.00453113      -0.00465336 </v>
   <v>       0.00575922       0.00009261      -0.00191670 </v>
   <v>       0.00278417       0.00148550       0.00121781 </v>
   <v>       0.00115266       0.00078762       0.00497734 </v>
   <v>      -0.00485481      -0.00008515      -0.00287947 </v>
   <v>      -0.00233012      -0.00286483      -0.00443209 </v>
   <v>       0.00207834      -0.00238519      -0.00310497 </v>
   <v>       0.00020269       0.00067682       0.00103076 </v>
   <v>       0.00095309       0.00094733       0.00523346 </v>
   <v>      -0.00107745      -0.00020591      -0.00257488 </v>
   <v>      -0.00166902       0.00064623      -0.00231243 </v>
   <v>       0.00007303       0.00231521       0.00150664 </v>
   <v>       0.00087248       0.00207253       0.00515070 </v>
   <v>       0.00090194       0.00193794      -0.00016908 </v>
   <v>       0.00302000       0.00357587       0.00158617 </v>
   <v>       0.00236340       0.00352510       0.00426599 </v>
   <v>       0.00239249       0.00214562       0.00620952 </v>
   <v>       0.00389428      -0.00091442       0.00841862 </v>
   <v>       0.00013240       0.00041713       0.01088668 </v>
   <v>       0.00051279       0.00133173       0.00622826 </v>
   <v>       0.00385964       0.00249656       0.00085318 </v>
   <v>      -0.00137918       0.00247240       0.00250401 </v>
   <v>       0.00188292       0.00238018       0.00448710 </v>
   <v>       0.00281141       0.00218075       0.00462716 </v>
   <v>       0.00446626      -0.00048998       0.00260630 </v>
   <v>       0.00224831      -0.00199547       0.00117579 </v>
   <v>      -0.00547614      -0.00379310      -0.00033946 </v>
   <v>      -0.00372569       0.00145217      -0.00048174 </v>
   <v>       0.00090437       0.00147955       0.01628848 </v>
   <v>      -0.00366460       0.00140577       0.00040813 </v>
   <v>       0.00144194       0.00140168       0.03194504 </v>
   <v>       0.00243382       0.00305650      -0.00844805 </v>
   <v>      -0.00072171      -0.00039953       0.00700497 </v>
   <v>       0.00263203       0.00311416      -0.00147551 </v>
   <v>       0.00228250       0.00246913       0.01296201 </v>
   <v>      -0.00185380       0.00160542      -0.00219638 </v>
   <v>       0.00194840       0.00187362       0.00776047 </v>
   <v>       0.00215207       0.00080081       0.00183278 </v>
   <v>      -0.07881359      -0.16028940       0.15686339 </v>
   <v>       0.03351997       0.04094914       0.12476316 </v>
   <v>      -0.02858254       0.03202852      -0.46441155 </v>
  </varray>
  <varray name="stress" >
   <v>      -9.90405429      -0.27209669       0.03713627 </v>
   <v>      -0.27209748     -10.18304480       0.03594858 </v>
   <v>       0.03713658       0.03594838      -0.11770444 </v>
  </varray>
  <energy>
   <i name="e_fr_energy">   -830.50797366 </i>
   <i name="e_wo_entrp">   -830.50797363 </i>
   <i name="e_0_energy">   -830.50797365 </i>
  </energy>
  <time name="totalsc">  513.94  516.89</time>
 </calculation>
 <calculation>
  <scstep>
   <time name="dav">   72.03   72.47</time>
   <time name="total">   84.80   85.30</time>
   <energy>
    <i name="alphaZ">    185.49599500 </i>
    <i name="ewald">  37933.47381139 </i>
    <i name="hartreedc"> -51137.49587210 </i>
    <i name="XCdc">   1356.58099446 </i>
    <i name="pawpsdc">  38384.73772413 </i>
    <i name="pawaedc"> -38461.31165351 </i>
    <i name="eentropy">     -0.00000003 </i>
    <i name="bandstr">  -4514.45220652 </i>
    <i name="atom">  15429.98794498 </i>
    <i name="e_fr_energy">   -822.98326219 </i>
    <i name="e_wo_entrp">   -822.98326216 </i>
    <i name="e_0_energy">   -822.98326218 </i>
   </energy>
  </scstep>
  <scstep>
   <time name="dav">   80.09   80.56</time>
   <time name="total">   91.95   92.47</time>
   <energy>
    <i name="e_fr_energy">   -822.98327523 </i>
    <i name="e_wo_entrp">   -822.98327520 </i>
    <i name="e_0_energy">   -822.98327521 </i>
   </energy>
  </scstep>
  <scstep>
   <time name="dav">   82.14   82.61</time>
   <time name="total">   94.37   94.91</time>
   <energy>
    <i name="e_fr_energy">   -822.98327299 </i>
    <i name="e_wo_entrp">   -822.98327296 </i>
    <i name="e_0_energy">   -822.98327297 </i>
   </energy>
  </scstep>
  <scstep>
   <time name="dav">   63.02   63.42</time>
   <time name="total">   69.35   69.78</time>
   <energy>
    <i name="alphaZ">    185.49599500 </i>
    <i name="ewald">  37933.47381139 </i>
    <i name="hartreedc"> -51137.48280835 </i>
    <i name="XCdc">   1356.58085849 </i>
    <i name="pawpsdc">  38384.54693451 </i>
    <i name="pawaedc"> -38461.12085442 </i>
    <i name="eentropy">     -0.00000003 </i>
    <i name="bandstr">  -4514.46515396 </i>
    <i name="atom">  15429.98794498 </i>
    <i name="e_fr_energy">   -822.98327239 </i>
    <i name="e_wo_entrp">   -822.98327236 </i>
    <i name="e_0_energy">   -822.98327237 </i>
   </energy>
  </scstep>
  <structure>
   <crystal>
    <varray name="basis" >
     <v>      17.27103806       0.00000000       0.00000000 </v>
     <v>      -8.63551903      14.95715771       0.00000000 </v>
     <v>       0.00000000       0.00000000      15.00000000 </v>
    </varray>
    <i name="volume">   3874.88459904 </i>
    <varray name="rec_basis" >
     <v>       0.05790040       0.03342881      -0.00000000 </v>
     <v>       0.00000000       0.06685762       0.00000000 </v>
     <v>       0.00000000      -0.00000000       0.06666667 </v>
    </varray>
   </crystal>
   <varray name="positions" >
    <v>       0.99916674       0.00229282       0.50555509 </v>
    <v>       0.99940206       0.14530129       0.50500967 </v>
    <v>       0.00019607       0.28893384       0.50450797 </v>
    <v>       0.00067653       0.43199231       0.50487930 </v>
    <v>       0.00110170       0.57479781       0.50566684 </v>
    <v>       0.00146075       0.71774168       0.50621226 </v>
    <v>       0.00004446       0.86034954       0.50605750 </v>
    <v>       0.14346082       0.00397008       0.50490820 </v>
    <v>       0.14318192       0.14630180       0.50440208 </v>
    <v>       0.14252827       0.28797949       0.50438489 </v>
    <v>       0.14411091       0.43209265       0.50509044 </v>
    <v>       0.14507691       0.57477824       0.50590965 </v>
[...]
       <r>   -18.5808     5.4046    29.9091 </r>
       <r>   -18.4585     9.6280    31.0866 </r>
       <r>   -18.3362     3.6057    31.5276 </r>
       <r>   -18.2139     5.4821    32.1980 </r>
       <r>   -18.0916     8.7427    33.2673 </r>
       <r>   -17.9693     4.6612    33.8374 </r>
       <r>   -17.8470     5.5706    34.5187 </r>
       <r>   -17.7247    14.9516    36.3473 </r>
       <r>   -17.6024     9.2920    37.4837 </r>
       <r>   -17.4801     3.2930    37.8865 </r>
       <r>   -17.3578     8.0107    38.8662 </r>
       <r>   -17.2355    10.3049    40.1265 </r>
       <r>   -17.1132     7.2554    41.0139 </r>
       <r>   -16.9909     6.2357    41.7766 </r>
       <r>   -16.8686     5.1263    42.4035 </r>
       <r>   -16.7463     9.5799    43.5752 </r>
       <r>   -16.6240    14.1104    45.3009 </r>
       <r>   -16.5016     4.4204    45.8416 </r>
       <r>   -16.3793     3.3205    46.2477 </r>
       <r>   -16.2570     0.0191    46.2500 </r>
       <r>   -16.1347     0.2237    46.2774 </r>
       <r>   -16.0124     3.2111    46.6701 </r>
       <r>   -15.8901     8.9707    47.7672 </r>
       <r>   -15.7678     6.8325    48.6029 </r>
       <r>   -15.6455     3.2878    49.0050 </r>
       <r>   -15.5232     5.7790    49.7118 </r>
       <r>   -15.4009    10.7891    51.0313 </r>
       <r>   -15.2786    10.8015    52.3524 </r>
       <r>   -15.1563     8.9731    53.4498 </r>
       <r>   -15.0340     6.3150    54.2221 </r>
       <r>   -14.9117     9.0764    55.3322 </r>
       <r>   -14.7894     8.4533    56.3661 </r>
       <r>   -14.6671    10.3434    57.6311 </r>
       <r>   -14.5448    13.1114    59.2347 </r>
       <r>   -14.4225     4.6359    59.8016 </r>
       <r>   -14.3002     6.2863    60.5705 </r>
       <r>   -14.1779     2.8231    60.9157 </r>
       <r>   -14.0556     4.9845    61.5254 </r>
       <r>   -13.9333     8.2005    62.5283 </r>
       <r>   -13.8110    11.4596    63.9299 </r>
       <r>   -13.6887     8.5596    64.9767 </r>
       <r>   -13.5664     8.7152    66.0426 </r>
       <r>   -13.4441     3.2708    66.4427 </r>
       <r>   -13.3218     0.9149    66.5546 </r>
       <r>   -13.1995     6.7256    67.3771 </r>
       <r>   -13.0772     5.5329    68.0538 </r>
       <r>   -12.9549     7.7980    69.0075 </r>
       <r>   -12.8326    16.3672    71.0093 </r>
       <r>   -12.7103    10.0684    72.2407 </r>
       <r>   -12.5880     7.5935    73.1694 </r>
       <r>   -12.4657     7.7650    74.1191 </r>
       <r>   -12.3433     9.5382    75.2856 </r>
       <r>   -12.2210     2.0367    75.5347 </r>
       <r>   -12.0987     8.9687    76.6316 </r>
       <r>   -11.9764     5.6977    77.3285 </r>
       <r>   -11.8541     9.7032    78.5152 </r>
       <r>   -11.7318    12.4116    80.0332 </r>
       <r>   -11.6095    14.7088    81.8321 </r>
       <r>   -11.4872    10.1108    83.0687 </r>
       <r>   -11.3649     9.8226    84.2700 </r>
       <r>   -11.2426    12.7999    85.8355 </r>
       <r>   -11.1203     9.2139    86.9624 </r>
       <r>   -10.9980     5.0950    87.5855 </r>
       <r>   -10.8757     3.4879    88.0121 </r>
       <r>   -10.7534     9.2335    89.1414 </r>
       <r>   -10.6311    11.1083    90.5000 </r>
       <r>   -10.5088    14.7202    92.3003 </r>
       <r>   -10.3865    11.3697    93.6908 </r>
       <r>   -10.2642    15.0052    95.5260 </r>
       <r>   -10.1419    16.3288    97.5231 </r>
       <r>   -10.0196    18.9582    99.8417 </r>
       <r>    -9.8973    17.3159   101.9595 </r>
       <r>    -9.7750    19.4120   104.3336 </r>
       <r>    -9.6527    19.1492   106.6756 </r>
       <r>    -9.5304    21.2171   109.2705 </r>
       <r>    -9.4081    19.8210   111.6947 </r>
       <r>    -9.2858    19.0029   114.0188 </r>
       <r>    -9.1635    29.0500   117.5717 </r>
       <r>    -9.0412    24.7875   120.6033 </r>
       <r>    -8.9189    23.4356   123.4695 </r>
       <r>    -8.7966    13.5471   125.1264 </r>
       <r>    -8.6743    10.7894   126.4460 </r>
       <r>    -8.5520    19.2173   128.7963 </r>
       <r>    -8.4297    28.3381   132.2621 </r>
       <r>    -8.3073    19.9195   134.6983 </r>
       <r>    -8.1850    13.3575   136.3320 </r>
       <r>    -8.0627     9.7420   137.5235 </r>
       <r>    -7.9404    13.1131   139.1272 </r>
       <r>    -7.8181     7.6945   140.0683 </r>
       <r>    -7.6958     9.6326   141.2464 </r>
       <r>    -7.5735    18.6805   143.5311 </r>
       <r>    -7.4512    23.8694   146.4504 </r>
       <r>    -7.3289    19.9601   148.8916 </r>
       <r>    -7.2066    10.5379   150.1804 </r>
       <r>    -7.0843     9.9033   151.3916 </r>
       <r>    -6.9620    15.3781   153.2724 </r>
       <r>    -6.8397    10.7252   154.5841 </r>
       <r>    -6.7174    12.8127   156.1511 </r>
       <r>    -6.5951     7.5202   157.0709 </r>
       <r>    -6.4728    21.3157   159.6779 </r>
       <r>    -6.3505    13.8632   161.3734 </r>
       <r>    -6.2282     7.6261   162.3061 </r>
       <r>    -6.1059    15.7354   164.2305 </r>
       <r>    -5.9836     5.2885   164.8773 </r>
       <r>    -5.8613     9.4867   166.0376 </r>
       <r>    -5.7390     4.5181   166.5902 </r>
       <r>    -5.6167     7.0201   167.4488 </r>
       <r>    -5.4944    12.3392   168.9579 </r>
       <r>    -5.3721     7.0630   169.8217 </r>
       <r>    -5.2498    23.6541   172.7147 </r>
       <r>    -5.1275    14.4993   174.4880 </r>
       <r>    -5.0052    11.8519   175.9375 </r>
       <r>    -4.8829     2.5079   176.2442 </r>
       <r>    -4.7606     0.3795   176.2906 </r>
       <r>    -4.6383     5.3518   176.9452 </r>
       <r>    -4.5160    20.1636   179.4112 </r>
       <r>    -4.3937    15.9315   181.3597 </r>
       <r>    -4.2714    29.7056   184.9928 </r>
       <r>    -4.1490     7.6726   185.9312 </r>
       <r>    -4.0267     8.5018   186.9710 </r>
       <r>    -3.9044     0.9857   187.0915 </r>
       <r>    -3.7821     1.4372   187.2673 </r>
       <r>    -3.6598     6.1770   188.0228 </r>
       <r>    -3.5375     1.8577   188.2500 </r>
       <r>    -3.4152     1.3710   188.4176 </r>
       <r>    -3.2929     1.4835   188.5991 </r>
       <r>    -3.1706     7.2163   189.4816 </r>
       <r>    -3.0483     1.5394   189.6699 </r>
       <r>    -2.9260     2.6939   189.9994 </r>
       <r>    -2.8037     0.0051   190.0000 </r>
       <r>    -2.6814     1.1983   190.1466 </r>
       <r>    -2.5591     2.8824   190.4991 </r>
       <r>    -2.4368     0.0074   190.5000 </r>
       <r>    -2.3145     0.2473   190.5303 </r>
       <r>    -2.1922     2.9514   190.8912 </r>
       <r>    -2.0699     1.6369   191.0914 </r>
       <r>    -1.9476     7.0591   191.9548 </r>
       <r>    -1.8253     0.4328   192.0077 </r>
       <r>    -1.7030     3.5612   192.4432 </r>
       <r>    -1.5807     5.9209   193.1674 </r>
       <r>    -1.4584     2.7140   193.4993 </r>
       <r>    -1.3361     0.4597   193.5555 </r>
       <r>    -1.2138     9.5873   194.7281 </r>
       <r>    -1.0915    15.7429   196.6535 </r>
       <r>    -0.9692     7.6906   197.5941 </r>
       <r>    -0.8469     8.2335   198.6011 </r>
       <r>    -0.7246     9.0530   199.7083 </r>
       <r>    -0.6023     4.3499   200.2403 </r>
       <r>    -0.4800     7.8792   201.2039 </r>
       <r>    -0.3577     8.0586   202.1895 </r>
       <r>    -0.2354    11.1101   203.5483 </r>
       <r>    -0.1130    12.5659   205.0852 </r>
       <r>     0.0093     5.7013   205.7825 </r>
       <r>     0.1316     2.0263   206.0303 </r>
       <r>     0.2539     4.1808   206.5416 </r>
       <r>     0.3762     5.7733   207.2477 </r>
       <r>     0.4985     8.3679   208.2711 </r>
       <r>     0.6208     4.7606   208.8534 </r>
       <r>     0.7431     4.2592   209.3743 </r>
       <r>     0.8654     9.1387   210.4920 </r>
       <r>     0.9877     8.6499   211.5499 </r>
       <r>     1.1100     7.8130   212.5054 </r>
       <r>     1.2323    13.4863   214.1548 </r>
       <r>     1.3546    16.9117   216.2232 </r>
       <r>     1.4769    11.8876   217.6771 </r>
       <r>     1.5992     6.3395   218.4524 </r>
       <r>     1.7215     6.1493   219.2045 </r>
       <r>     1.8438    10.3365   220.4687 </r>
       <r>     1.9661    28.6660   223.9746 </r>
       <r>     2.0884    11.8334   225.4219 </r>
       <r>     2.2107     7.6206   226.3539 </r>
       <r>     2.3330    20.8819   228.9078 </r>
       <r>     2.4553    19.9017   231.3418 </r>
       <r>     2.5776    15.2525   233.2073 </r>
       <r>     2.6999     8.2383   234.2148 </r>
       <r>     2.8222    34.1982   238.3974 </r>
       <r>     2.9445    47.0632   244.1533 </r>
       <r>     3.0668    14.4847   245.9249 </r>
       <r>     3.1891     6.6545   246.7387 </r>
       <r>     3.3114    17.1869   248.8407 </r>
       <r>     3.4337    26.6778   252.1035 </r>
       <r>     3.5560    15.0609   253.9455 </r>
       <r>     3.6783    12.4030   255.4624 </r>
       <r>     3.8006    28.2251   258.9144 </r>
       <r>     3.9229    30.1580   262.6029 </r>
       <r>     4.0453    17.0298   264.6857 </r>
       <r>     4.1676     2.5419   264.9965 </r>
       <r>     4.2899     0.0283   265.0000 </r>
       <r>     4.4122     0.0000   265.0000 </r>
       <r>     4.5345     0.0000   265.0000 </r>
       <r>     4.6568     0.0000   265.0000 </r>
       <r>     4.7791     0.0000   265.0000 </r>
       <r>     4.9014     0.0000   265.0000 </r>
       <r>     5.0237     0.0000   265.0000 </r>
       <r>     5.1460     0.0000   265.0000 </r>
       <r>     5.2683     0.0000   265.0000 </r>
       <r>     5.3906     0.0000   265.0000 </r>
       <r>     5.5129     0.0000   265.0000 </r>
       <r>     5.6352     0.0000   265.0000 </r>
       <r>     5.7575     0.0000   265.0000 </r>
      </set>
     </set>
    </array>
   </total>
  </dos>
 </calculation>
 <structure name="finalpos" >
  <crystal>
   <varray name="basis" >
    <v>      17.27103806       0.00000000       0.00000000 </v>
    <v>      -8.63551903      14.95715771       0.00000000 </v>
    <v>       0.00000000       0.00000000      15.00000000 </v>
   </varray>
   <i name="volume">   3874.88459904 </i>
   <varray name="rec_basis" >
    <v>       0.05790040       0.03342881      -0.00000000 </v>
    <v>       0.00000000       0.06685762       0.00000000 </v>
    <v>       0.00000000      -0.00000000       0.06666667 </v>
   </varray>
  </crystal>
  <varray name="positions" >
   <v>       0.99921836       0.00236565       0.50536887 </v>
   <v>       0.99945327       0.14537585       0.50494670 </v>
   <v>       0.00026150       0.28900917       0.50441733 </v>
   <v>       0.00073469       0.43206812       0.50469995 </v>
   <v>       0.00115355       0.57487534       0.50543399 </v>
   <v>       0.00152696       0.71782718       0.50592551 </v>
   <v>       0.00009926       0.86040990       0.50579242 </v>
   <v>       0.14353300       0.00404469       0.50476732 </v>
   <v>       0.14324238       0.14636963       0.50447953 </v>
   <v>       0.14258373       0.28804724       0.50445383 </v>
   <v>       0.14416362       0.43215710       0.50497906 </v>
   <v>       0.14512493       0.57484530       0.50567355 </v>
   <v>       0.14457939       0.71781171       0.50571824 </v>
   <v>       0.14374580       0.86098264       0.50529533 </v>
   <v>       0.28652667       0.00426450       0.50526084 </v>
   <v>       0.28722816       0.14802441       0.50481525 </v>
   <v>       0.28823289       0.29354589       0.50538868 </v>
   <v>       0.28538553       0.42709990       0.50632755 </v>
   <v>       0.29060460       0.57513395       0.50714769 </v>
   <v>       0.28791047       0.71844886       0.50684655 </v>
   <v>       0.28673200       0.86135227       0.50604383 </v>
   <v>       0.42946818       0.00458205       0.50635225 </v>
   <v>       0.42954929       0.14846400       0.50597159 </v>
   <v>       0.42971040       0.86092258       0.50723084 </v>
   <v>       0.57168445       0.00398662       0.50710738 </v>
   <v>       0.57172123       0.14747984       0.50652457 </v>
   <v>       0.57404396       0.29433781       0.50764103 </v>
   <v>       0.57369733       0.85960243       0.50869452 </v>
   <v>       0.71385658       0.00308386       0.50725824 </v>
   <v>       0.71447488       0.14678837       0.50613738 </v>
   <v>       0.71420716       0.28998988       0.50644822 </v>
   <v>       0.71022775       0.43004086       0.50972598 </v>
   <v>       0.70880506       0.85845746       0.51012942 </v>
   <v>       0.85600114       0.00209648       0.50674707 </v>
   <v>       0.85688917       0.14597334       0.50551644 </v>
   <v>       0.85719235       0.28924852       0.50515683 </v>
   <v>       0.85724729       0.43223001       0.50608561 </v>
   <v>       0.85749600       0.57472542       0.50775061 </v>
   <v>       0.85850024       0.71714591       0.50915860 </v>
   <v>       0.85476862       0.85819627       0.50822919 </v>
   <v>       0.04748190       0.09803843       0.50481190 </v>
   <v>       0.04705337       0.24052404       0.50437247 </v>
   <v>       0.04834971       0.38450305       0.50445098 </v>
   <v>       0.04929547       0.52739534       0.50514030 </v>
   <v>       0.04911487       0.67024635       0.50553541 </v>
   <v>       0.04827421       0.81307066       0.50557523 </v>
   <v>       0.04778330       0.95563412       0.50519424 </v>
   <v>       0.19140110       0.09931361       0.50451569 </v>
   <v>       0.19138254       0.24173195       0.50459582 </v>
   <v>       0.18999254       0.38289452       0.50505201 </v>
   <v>       0.19358655       0.52764849       0.50582684 </v>
   <v>       0.19245986       0.67038730       0.50611798 </v>
   <v>       0.19164973       0.81341648       0.50565997 </v>
   <v>       0.19136102       0.95637031       0.50500985 </v>
   <v>       0.33439312       0.10013681       0.50524831 </v>
   <v>       0.33859059       0.24423425       0.50552499 </v>
   <v>       0.33963326       0.67404840       0.50760361 </v>
   <v>       0.33462876       0.81353949       0.50668448 </v>
   <v>       0.33407459       0.95665815       0.50589839 </v>
   <v>       0.47681649       0.10003569       0.50631387 </v>
   <v>       0.47458635       0.24466004       0.50671718 </v>
   <v>       0.47482433       0.81017348       0.50816151 </v>
   <v>       0.47683697       0.95657379       0.50690780 </v>
   <v>       0.61906120       0.09936481       0.50659816 </v>
   <v>       0.61903611       0.24318778       0.50686598 </v>
   <v>       0.61879295       0.95546000       0.50770148 </v>
   <v>       0.76178892       0.09880012       0.50619389 </v>
   <v>       0.76200688       0.24194445       0.50575186 </v>
   <v>       0.76140511       0.38506439       0.50714805 </v>
   <v>       0.76083583       0.52970761       0.51199005 </v>
   <v>       0.76324150       0.66575323       0.51514267 </v>
   <v>       0.75780722       0.80853598       0.51173880 </v>
   <v>       0.76052141       0.95462805       0.50798122 </v>
   <v>       0.90395219       0.09744354       0.50561178 </v>
   <v>       0.90478098       0.24144421       0.50489067 </v>
   <v>       0.90501182       0.38474625       0.50512504 </v>
   <v>       0.90548553       0.52745720       0.50606881 </v>
   <v>       0.90602251       0.66981110       0.50745213 </v>
   <v>       0.90431448       0.81222607       0.50741440 </v>
   <v>       0.90332546       0.95391516       0.50656663 </v>
   <v>       0.71580148       0.71452581       0.51754376 </v>
   <v>       0.33235114       0.52303214       0.50788297 </v>
   <v>       0.62746972       0.66581086       0.52583164 </v>
   <v>       0.42168529       0.56265262       0.51025590 </v>
   <v>       0.42864960       0.28904298       0.50677577 </v>
   <v>       0.42951345       0.72002241       0.50834942 </v>
   <v>       0.71724891       0.57509331       0.51861306 </v>
   <v>       0.33218691       0.38300058       0.50638756 </v>
   <v>       0.62009100       0.38467501       0.50935468 </v>
   <v>       0.61890196       0.81466539       0.51010749 </v>
   <v>       0.48899606       0.49461630       0.44995498 </v>
   <v>       0.54130665       0.44513826       0.46629116 </v>
   <v>       0.54119036       0.49217742       0.43022406 </v>
  </varray>
  <varray name="selective"  type="logical" >
   <v type="logical" >  T  T  T </v>
   <v type="logical" >  T  T  T </v>
   <v type="logical" >  T  T  T </v>
   <v type="logical" >  T  T  T </v>
   <v type="logical" >  T  T  T </v>
   <v type="logical" >  T  T  T </v>
   <v type="logical" >  T  T  T </v>
   <v type="logical" >  T  T  T </v>
   <v type="logical" >  T  T  T </v>
   <v type="logical" >  T  T  T </v>
   <v type="logical" >  T  T  T </v>
   <v type="logical" >  T  T  T </v>
   <v type="logical" >  T  T  T </v>
   <v type="logical" >  T  T  T </v>
   <v type="logical" >  T  T  T </v>
   <v type="logical" >  T  T  T </v>
   <v type="logical" >  T  T  T </v>
   <v type="logical" >  T  T  T </v>
   <v type="logical" >  T  T  T </v>
   <v type="logical" >  T  T  T </v>
   <v type="logical" >  T  T  T </v>
   <v type="logical" >  T  T  T </v>
   <v type="logical" >  T  T  T </v>
   <v type="logical" >  T  T  T </v>
   <v type="logical" >  T  T  T </v>
   <v type="logical" >  T  T  T </v>
   <v type="logical" >  T  T  T </v>
   <v type="logical" >  T  T  T </v>
   <v type="logical" >  T  T  T </v>
   <v type="logical" >  T  T  T </v>
   <v type="logical" >  T  T  T </v>
   <v type="logical" >  T  T  T </v>
   <v type="logical" >  T  T  T </v>
   <v type="logical" >  T  T  T </v>
   <v type="logical" >  T  T  T </v>
   <v type="logical" >  T  T  T </v>
   <v type="logical" >  T  T  T </v>
   <v type="logical" >  T  T  T </v>
   <v type="logical" >  T  T  T </v>
   <v type="logical" >  T  T  T </v>
   <v type="logical" >  T  T  T </v>
   <v type="logical" >  T  T  T </v>
   <v type="logical" >  T  T  T </v>
   <v type="logical" >  T  T  T </v>
   <v type="logical" >  T  T  T </v>
   <v type="logical" >  T  T  T </v>
   <v type="logical" >  T  T  T </v>
   <v type="logical" >  T  T  T </v>
   <v type="logical" >  T  T  T </v>
   <v type="logical" >  T  T  T </v>
   <v type="logical" >  T  T  T </v>
   <v type="logical" >  T  T  T </v>
   <v type="logical" >  T  T  T </v>
   <v type="logical" >  T  T  T </v>
   <v type="logical" >  T  T  T </v>
   <v type="logical" >  T  T  T </v>
   <v type="logical" >  T  T  T </v>
   <v type="logical" >  T  T  T </v>
   <v type="logical" >  T  T  T </v>
   <v type="logical" >  T  T  T </v>
   <v type="logical" >  T  T  T </v>
   <v type="logical" >  T  T  T </v>
   <v type="logical" >  T  T  T </v>
   <v type="logical" >  T  T  T </v>
   <v type="logical" >  T  T  T </v>
   <v type="logical" >  T  T  T </v>
   <v type="logical" >  T  T  T </v>
   <v type="logical" >  T  T  T </v>
   <v type="logical" >  T  T  T </v>
   <v type="logical" >  T  T  T </v>
   <v type="logical" >  T  T  T </v>
   <v type="logical" >  T  T  T </v>
   <v type="logical" >  T  T  T </v>
   <v type="logical" >  T  T  T </v>
   <v type="logical" >  T  T  T </v>
   <v type="logical" >  T  T  T </v>
   <v type="logical" >  T  T  T </v>
   <v type="logical" >  T  T  T </v>
   <v type="logical" >  T  T  T </v>
   <v type="logical" >  T  T  T </v>
   <v type="logical" >  T  T  T </v>
   <v type="logical" >  T  T  T </v>
   <v type="logical" >  T  T  T </v>
   <v type="logical" >  T  T  T </v>
   <v type="logical" >  T  T  T </v>
   <v type="logical" >  T  T  T </v>
   <v type="logical" >  T  T  T </v>
   <v type="logical" >  T  T  T </v>
   <v type="logical" >  T  T  T </v>
   <v type="logical" >  T  T  T </v>
   <v type="logical" >  T  T  T </v>
   <v type="logical" >  T  T  T </v>
   <v type="logical" >  T  T  F </v>
  </varray>
  <nose>
   <v>      -3.00000000       0.00000000       0.00010000       0.00010000 </v>
  </nose>
 </structure>
</modeling>
