unknown system                          
            1
    17.271038    0.000000    0.000000
    -8.635519   14.957158    0.000000
     0.000000    0.000000   15.000000
   C    F    N    H    O 
    82     2     6     2     1
Direct configuration=     1
   0.99916190  0.00229118  0.50555654
   0.99939439  0.14529874  0.50500793
   0.00019232  0.28893070  0.50450468
   0.00067474  0.43198930  0.50487985
   0.00110358  0.57479308  0.50567063
   0.00146077  0.71773541  0.50621344
   0.00003810  0.86034020  0.50606045
   0.14346032  0.00396948  0.50490705
   0.14317742  0.14630107  0.50439700
   0.14252036  0.28797847  0.50438511
   0.14410635  0.43209012  0.50508810
   0.14507539  0.57477554  0.50591077
   0.14451885  0.71773971  0.50607631
   0.14367891  0.86090789  0.50565471
   0.28645155  0.00418598  0.50536798
   0.28714927  0.14794843  0.50456419
   0.28816715  0.29347562  0.50483674
   0.28532840  0.42704253  0.50605661
   0.29055608  0.57506774  0.50735152
   0.28785126  0.71838357  0.50715125
   0.28667024  0.86128762  0.50634922
   0.42940791  0.00451831  0.50648173
   0.42948205  0.14839719  0.50577851
   0.42964433  0.86086432  0.50751923
   0.57162274  0.00392199  0.50733833
   0.57165285  0.14741426  0.50651722
   0.57396941  0.29427095  0.50720096
   0.57363041  0.85952285  0.50904355
   0.71379553  0.00302648  0.50746566
   0.71440026  0.14671673  0.50622095
   0.71413743  0.28991831  0.50636276
   0.71017572  0.42997203  0.50945944
   0.70874745  0.85840051  0.51041933
   0.85592976  0.00202993  0.50695659
   0.85681971  0.14589854  0.50562983
   0.85712030  0.28917137  0.50521252
   0.85719087  0.43215303  0.50614622
   0.85745523  0.57464693  0.50779651
   0.85843658  0.71707190  0.50929741
   0.85471427  0.85814495  0.50847663
   0.04742252  0.09796193  0.50487579
   0.04699075  0.24045295  0.50440751
   0.04829517  0.38443500  0.50458146
   0.04924945  0.52731927  0.50536689
   0.04906545  0.67016055  0.50587605
   0.04820903  0.81297949  0.50590705
   0.04772616  0.95555016  0.50541932
   0.19132883  0.09923715  0.50443854
   0.19132442  0.24167370  0.50438904
   0.18994134  0.38282943  0.50499682
   0.19354031  0.52758290  0.50600574
   0.19240138  0.67032326  0.50641643
   0.19158551  0.81334281  0.50605781
   0.19128766  0.95628782  0.50523846
   0.33431348  0.10005579  0.50512281
   0.33851929  0.24416628  0.50493871
   0.33955631  0.67397765  0.50792075
   0.33456930  0.81347759  0.50697935
   0.33400803  0.95658870  0.50604799
   0.47674037  0.09996434  0.50630296
   0.47451619  0.24460009  0.50621671
   0.47474547  0.81010347  0.50849840
   0.47676708  0.95650438  0.50715090
   0.61898880  0.09929651  0.50672662
   0.61896797  0.24312264  0.50667669
   0.61872197  0.95538643  0.50798887
   0.76171664  0.09874218  0.50632206
   0.76193372  0.24187216  0.50576773
   0.76135121  0.38499846  0.50707417
   0.76079774  0.52963751  0.51184947
   0.76318047  0.66567940  0.51513613
   0.75776064  0.80849103  0.51195555
   0.76045012  0.95456413  0.50822639
   0.90388783  0.09737864  0.50575735
   0.90471395  0.24137430  0.50498206
   0.90495122  0.38466748  0.50523409
   0.90544120  0.52737570  0.50619789
   0.90596272  0.66973077  0.50761579
   0.90424519  0.81215100  0.50762705
   0.90326992  0.95385341  0.50680924
   0.71572934  0.71446052  0.51760444
   0.33233571  0.52297503  0.50788166
   0.62743972  0.66578623  0.52584611
   0.42162581  0.56249974  0.51031979
   0.42857989  0.28898484  0.50603071
   0.42943952  0.71995380  0.50872026
   0.71721945  0.57502255  0.51845460
   0.33213688  0.38293794  0.50567494
   0.62003872  0.38461967  0.50880686
   0.61883791  0.81459733  0.51046843
   0.48775384  0.49182889  0.44681775
   0.54332807  0.44598647  0.46487524
   0.54287566  0.49363934  0.43022406
Direct configuration=     2
   0.99915865  0.00229505  0.50555596
   0.99938819  0.14530136  0.50500975
   0.00019323  0.28893336  0.50450603
   0.00067755  0.43199206  0.50487956
   0.00110808  0.57479185  0.50566892
   0.00146575  0.71772895  0.50621302
   0.00002869  0.86032938  0.50605856
   0.14346404  0.00397238  0.50490754
   0.14317574  0.14630466  0.50439906
   0.14251509  0.28798324  0.50438440
   0.14410501  0.43209224  0.50508908
   0.14507659  0.57477784  0.50591044
   0.14452525  0.71773754  0.50607242
   0.14368581  0.86090517  0.50565201
   0.28645700  0.00418802  0.50536676
   0.28715300  0.14795130  0.50456847
   0.28816750  0.29347775  0.50484390
   0.28532570  0.42704397  0.50605980
   0.29055393  0.57506904  0.50735148
   0.28784839  0.71838196  0.50714806
   0.28666720  0.86128182  0.50634736
   0.42940743  0.00451898  0.50648055
   0.42948364  0.14839839  0.50578118
   0.42963960  0.86086419  0.50751521
   0.57162252  0.00392401  0.50733832
   0.57165298  0.14741610  0.50651905
   0.57397091  0.29427255  0.50720687
   0.57363103  0.85952318  0.50904377
   0.71379997  0.00303069  0.50746555
   0.71440343  0.14672054  0.50622186
   0.71414038  0.28992190  0.50636538
   0.71017739  0.42997330  0.50946430
   0.70874968  0.85840229  0.51041900
   0.85593178  0.00203453  0.50695733
   0.85682401  0.14590231  0.50563119
   0.85712495  0.28917522  0.50521195
   0.85719358  0.43215440  0.50614622
   0.85745580  0.57464542  0.50779684
   0.85843385  0.71706905  0.50929821
   0.85471089  0.85814494  0.50847678
   0.04742983  0.09795781  0.50487568
   0.04699587  0.24045387  0.50440906
   0.04829883  0.38443637  0.50458138
   0.04924644  0.52732078  0.50536658
   0.04905332  0.67016744  0.50587446
   0.04820835  0.81298616  0.50590523
   0.04772993  0.95555271  0.50541803
   0.19132703  0.09923271  0.50444047
   0.19133229  0.24167268  0.50439202
   0.18994631  0.38282845  0.50499788
   0.19354335  0.52758337  0.50600567
   0.19240319  0.67032688  0.50641262
   0.19158399  0.81334984  0.50605424
   0.19128443  0.95628881  0.50523777
   0.33431243  0.10005611  0.50512468
   0.33851957  0.24416676  0.50494669
   0.33956320  0.67397963  0.50791843
   0.33457499  0.81348221  0.50697551
   0.33400895  0.95659251  0.50604534
   0.47674227  0.09996617  0.50630404
   0.47451731  0.24460145  0.50622238
   0.47474883  0.81010584  0.50849561
   0.47677075  0.95650640  0.50714916
   0.61899020  0.09929708  0.50672770
   0.61896838  0.24312308  0.50668006
   0.61872235  0.95538684  0.50798887
   0.76171390  0.09874065  0.50632315
   0.76193192  0.24187068  0.50576878
   0.76134990  0.38499846  0.50707638
   0.76079767  0.52964106  0.51185298
   0.76318254  0.66568164  0.51513951
   0.75776161  0.80849258  0.51195580
   0.76044663  0.95456330  0.50822791
   0.90389022  0.09737823  0.50575873
   0.90471370  0.24137371  0.50498294
   0.90494956  0.38466681  0.50523371
   0.90543955  0.52737860  0.50619714
   0.90596391  0.66973522  0.50761556
   0.90425538  0.81215694  0.50762802
   0.90327474  0.95385399  0.50680916
   0.71573064  0.71446169  0.51760609
   0.33233782  0.52297508  0.50788313
   0.62743988  0.66578790  0.52584682
   0.42162414  0.56250099  0.51032593
   0.42858216  0.28898626  0.50603916
   0.42943731  0.71995291  0.50871814
   0.71722035  0.57502320  0.51846090
   0.33213954  0.38293749  0.50568397
   0.62003851  0.38462001  0.50881501
   0.61883743  0.81459838  0.51046713
   0.48778460  0.49188466  0.44684863
   0.54328950  0.44596703  0.46489357
   0.54286555  0.49362445  0.43022406
Direct configuration=     3
   0.99916674  0.00229282  0.50555509
   0.99940206  0.14530129  0.50500967
   0.00019607  0.28893384  0.50450797
   0.00067653  0.43199231  0.50487930
   0.00110170  0.57479781  0.50566684
   0.00146075  0.71774168  0.50621226
   0.00004446  0.86034954  0.50605750
   0.14346082  0.00397008  0.50490820
   0.14318192  0.14630180  0.50440208
   0.14252827  0.28797949  0.50438489
   0.14411091  0.43209265  0.50509044
   0.14507691  0.57477824  0.50590965
   0.14451685  0.71774627  0.50606941
   0.14367568  0.86091384  0.50564962
   0.28645256  0.00418955  0.50536524
   0.28715191  0.14795027  0.50457228
   0.28817115  0.29347786  0.50485452
   0.28533490  0.42704421  0.50606330
   0.29055908  0.57506948  0.50735140
   0.28785669  0.71838704  0.50714325
   0.28666977  0.86128907  0.50634395
   0.42941044  0.00452164  0.50647890
   0.42948372  0.14839993  0.50578535
   0.42965317  0.86086726  0.50751356
   0.57162568  0.00392547  0.50733844
   0.57165531  0.14741726  0.50652195
   0.57397175  0.29427368  0.50721564
   0.57363196  0.85952537  0.50904352
   0.71379547  0.00302795  0.50746844
   0.71440168  0.14671943  0.50622351
   0.71413893  0.28992106  0.50636932
   0.71017604  0.42997518  0.50947163
   0.70874732  0.85840264  0.51041887
   0.85593167  0.00203130  0.50695879
   0.85682104  0.14590034  0.50563341
   0.85712165  0.28917341  0.50521166
   0.85719152  0.43215616  0.50614650
   0.85745605  0.57465222  0.50779750
   0.85843934  0.71707563  0.50929942
   0.85471791  0.85814782  0.50847707
   0.04741988  0.09796712  0.50487785
   0.04699071  0.24045691  0.50441124
   0.04829589  0.38443762  0.50458439
   0.04925166  0.52732351  0.50536606
   0.04907801  0.67015902  0.50587074
   0.04821146  0.81297886  0.50590264
   0.04772480  0.95555010  0.50541639
   0.19133102  0.09923925  0.50444374
   0.19132137  0.24167774  0.50439759
   0.18994196  0.38283280  0.50499930
   0.19354080  0.52758643  0.50600588
   0.19240371  0.67032582  0.50640755
   0.19158791  0.81334137  0.50604934
   0.19129259  0.95628897  0.50523671
   0.33431749  0.10005913  0.50512764
   0.33852338  0.24417037  0.50495836
   0.33955530  0.67397929  0.50791345
   0.33456784  0.81347680  0.50697009
   0.33400908  0.95658810  0.50604199
   0.47674235  0.09996728  0.50630580
   0.47451922  0.24460293  0.50623099
   0.47474619  0.81010564  0.50849182
   0.47676795  0.95650751  0.50714664
   0.61899164  0.09930112  0.50672938
   0.61897094  0.24312635  0.50668524
   0.61872474  0.95539039  0.50798904
   0.76172113  0.09874716  0.50632456
   0.76193807  0.24187708  0.50577038
   0.76135379  0.38500225  0.50707976
   0.76079862  0.52963838  0.51185955
   0.76318090  0.66568187  0.51514466
   0.75776113  0.80849372  0.51195633
   0.76045406  0.95456773  0.50822757
   0.90388968  0.09738267  0.50576095
   0.90471818  0.24137809  0.50498431
   0.90495474  0.38467083  0.50523322
   0.90544387  0.52737752  0.50619608
   0.90596370  0.66973101  0.50761550
   0.90424201  0.81214973  0.50762682
   0.90326924  0.95385629  0.50680925
   0.71573201  0.71446332  0.51760866
   0.33233311  0.52297624  0.50788585
   0.62743508  0.66578188  0.52584537
   0.42163327  0.56250476  0.51030891
   0.42858227  0.28898739  0.50605131
   0.42944386  0.71995852  0.50871532
   0.71722089  0.57502658  0.51846968
   0.33213957  0.38294167  0.50569689
   0.62004038  0.38462211  0.50882668
   0.61884023  0.81459968  0.51046555
   0.48782590  0.49196079  0.44689193
   0.54323661  0.44594067  0.46491924
   0.54285075  0.49360258  0.43022406
Direct configuration=     4
   0.99915516  0.00230207  0.50555585
   0.99938477  0.14530536  0.50501347
   0.00019538  0.28893697  0.50450931
   0.00068060  0.43199634  0.50487927
   0.00111223  0.57479264  0.50566500
   0.00147097  0.71772540  0.50621091
   0.00002568  0.86032659  0.50605546
   0.14346713  0.00397422  0.50490832
   0.14317483  0.14630753  0.50440433
   0.14251270  0.28798812  0.50438554
   0.14410548  0.43209546  0.50509125
   0.14507813  0.57478240  0.50590866
   0.14453284  0.71773821  0.50606483
   0.14369102  0.86090439  0.50564656
   0.28646212  0.00418978  0.50536425
   0.28715807  0.14795466  0.50457538
   0.28816942  0.29348160  0.50486195
   0.28532629  0.42704663  0.50606763
   0.29055399  0.57507255  0.50735109
   0.28784731  0.71838250  0.50713922
   0.28666817  0.86128082  0.50634094
   0.42940799  0.00452061  0.50647748
   0.42948718  0.14840163  0.50578822
   0.42963763  0.86086616  0.50750865
   0.57162427  0.00392827  0.50733822
   0.57165506  0.14741972  0.50652383
   0.57397358  0.29427572  0.50722166
   0.57363342  0.85952569  0.50904270
   0.71380450  0.00303532  0.50746785
   0.71440763  0.14672548  0.50622446
   0.71414410  0.28992624  0.50637184
   0.71017889  0.42997596  0.50947666
   0.70875226  0.85840573  0.51041831
   0.85593444  0.00203987  0.50695934
   0.85682856  0.14590691  0.50563459
   0.85712970  0.28917927  0.50521147
   0.85719678  0.43215700  0.50614643
   0.85745644  0.57464489  0.50779785
   0.85843356  0.71706940  0.50930035
   0.85471033  0.85814701  0.50847717
   0.04743642  0.09795777  0.50487739
   0.04700275  0.24045716  0.50441210
   0.04830275  0.38444010  0.50458395
   0.04924460  0.52732237  0.50536349
   0.04904922  0.67017365  0.50586930
   0.04820762  0.81299171  0.50590101
   0.04773459  0.95555741  0.50541525
   0.19132873  0.09923267  0.50444571
   0.19133847  0.24167222  0.50440000
   0.18995266  0.38283052  0.50500017
   0.19354494  0.52758274  0.50600551
   0.19240576  0.67033170  0.50640432
   0.19158190  0.81335730  0.50604608
   0.19128274  0.95629287  0.50523384
   0.33431382  0.10005856  0.50512921
   0.33852140  0.24416894  0.50496596
   0.33956936  0.67398274  0.50791158
   0.33458224  0.81348763  0.50696669
   0.33401022  0.95659624  0.50603963
   0.47674465  0.09996934  0.50630684
   0.47451981  0.24460445  0.50623698
   0.47475378  0.81010880  0.50848960
   0.47677515  0.95650968  0.50714510
   0.61899021  0.09929424  0.50672981
   0.61897028  0.24312558  0.50668872
   0.61872341  0.95538888  0.50798931
   0.76171376  0.09874202  0.50632572
   0.76193285  0.24187299  0.50577133
   0.76135059  0.38500138  0.50708198
   0.76079797  0.52964506  0.51186309
   0.76318489  0.66568475  0.51514766
   0.75776249  0.80849492  0.51195660
   0.76044663  0.95456516  0.50822925
   0.90389419  0.09738035  0.50576208
   0.90471557  0.24137604  0.50498504
   0.90495025  0.38466950  0.50523272
   0.90543844  0.52738311  0.50619535
   0.90596686  0.66974070  0.50761543
   0.90426406  0.81216485  0.50762597
   0.90327987  0.95385640  0.50680896
   0.71572906  0.71446285  0.51761041
   0.33234294  0.52297683  0.50788634
   0.62744234  0.66578811  0.52584662
   0.42162850  0.56250536  0.51031589
   0.42858623  0.28898931  0.50605949
   0.42943557  0.71995289  0.50871302
   0.71722165  0.57502493  0.51847516
   0.33214311  0.38293744  0.50570495
   0.62003908  0.38462177  0.50883420
   0.61883758  0.81460085  0.51046445
   0.48785585  0.49201510  0.44692302
   0.54319909  0.44592146  0.46493789
   0.54283989  0.49358923  0.43022406
Direct configuration=     5
   0.99916529  0.00229699  0.50555509
   0.99939860  0.14530371  0.50501311
   0.00019796  0.28893674  0.50450998
   0.00067870  0.43199470  0.50487893
   0.00110465  0.57479831  0.50566489
   0.00146282  0.71773960  0.50620918
   0.00003936  0.86034360  0.50605453
   0.14346363  0.00397342  0.50490818
   0.14318206  0.14630457  0.50440562
   0.14252541  0.28798242  0.50438747
   0.14411093  0.43209410  0.50509159
   0.14507849  0.57477921  0.50590645
   0.14452230  0.71774559  0.50606301
   0.14368052  0.86091325  0.50564502
   0.28645552  0.00419111  0.50536332
   0.28715461  0.14795309  0.50457757
   0.28817180  0.29347940  0.50486678
   0.28533445  0.42704619  0.50606957
   0.29055921  0.57507076  0.50735075
   0.28785610  0.71838755  0.50713662
   0.28667007  0.86128807  0.50633871
   0.42941116  0.00452274  0.50647651
   0.42948601  0.14840206  0.50579013
   0.42965037  0.86086914  0.50750757
   0.57162611  0.00392633  0.50733804
   0.57165652  0.14741860  0.50652502
   0.57397373  0.29427570  0.50722568
   0.57363341  0.85952725  0.50904201
   0.71379896  0.00303190  0.50746894
   0.71440400  0.14672217  0.50622507
   0.71414181  0.28992464  0.50637348
   0.71017751  0.42997704  0.50948007
   0.70874969  0.85840501  0.51041806
   0.85593372  0.00203487  0.50695980
   0.85682448  0.14590373  0.50563540
   0.85712540  0.28917710  0.50521141
   0.85719395  0.43215844  0.50614642
   0.85745655  0.57465236  0.50779817
   0.85843935  0.71707648  0.50930055
   0.85471678  0.85814880  0.50847689
   0.04742555  0.09796671  0.50487841
   0.04699474  0.24045856  0.50441289
   0.04829958  0.38444025  0.50458507
   0.04925212  0.52732485  0.50536219
   0.04906958  0.67016462  0.50586737
   0.04821164  0.81298332  0.50589966
   0.04772770  0.95555446  0.50541456
   0.19133193  0.09923884  0.50444700
   0.19132727  0.24167765  0.50440145
   0.18994637  0.38283400  0.50500079
   0.19354289  0.52758742  0.50600567
   0.19240608  0.67032890  0.50640196
   0.19158819  0.81334683  0.50604375
   0.19129142  0.95629076  0.50523335
   0.33431853  0.10005997  0.50513028
   0.33852495  0.24417094  0.50496987
   0.33955982  0.67398131  0.50790913
   0.33457241  0.81348018  0.50696525
   0.33401056  0.95659070  0.50603805
   0.47674452  0.09996929  0.50630751
   0.47452163  0.24460464  0.50623983
   0.47474924  0.81010771  0.50848778
   0.47677071  0.95650956  0.50714378
   0.61899322  0.09930157  0.50673046
   0.61897251  0.24312767  0.50669108
   0.61872614  0.95539186  0.50798922
   0.76172114  0.09874800  0.50632620
   0.76193835  0.24187778  0.50577188
   0.76135418  0.38500381  0.50708344
   0.76079897  0.52964198  0.51186585
   0.76318287  0.66568437  0.51514991
   0.75776169  0.80849501  0.51195673
   0.76045282  0.95456876  0.50822887
   0.90389180  0.09738374  0.50576297
   0.90471911  0.24137910  0.50498549
   0.90495495  0.38467206  0.50523235
   0.90544364  0.52738050  0.50619466
   0.90596575  0.66973466  0.50761530
   0.90424759  0.81215587  0.50762546
   0.90327215  0.95385805  0.50680894
   0.71573339  0.71446511  0.51761108
   0.33233731  0.52297828  0.50788689
   0.62743776  0.66578412  0.52584602
   0.42163130  0.56250753  0.51031994
   0.42858472  0.28898963  0.50606502
   0.42944386  0.71995886  0.50871155
   0.71722147  0.57502775  0.51847892
   0.33214238  0.38294213  0.50571061
   0.62004081  0.38462326  0.50883931
   0.61884088  0.81460130  0.51046363
   0.48787364  0.49204920  0.44694344
   0.54317526  0.44591022  0.46494926
   0.54283311  0.49357942  0.43022406
Direct configuration=     6
   0.99916105  0.00229956  0.50555430
   0.99939059  0.14530542  0.50501611
   0.00019771  0.28893861  0.50451103
   0.00068129  0.43199741  0.50487849
   0.00111049  0.57479686  0.50566256
   0.00146876  0.71773331  0.50620788
   0.00003159  0.86033467  0.50605240
   0.14346625  0.00397476  0.50490801
   0.14317918  0.14630777  0.50440754
   0.14251921  0.28798769  0.50438801
   0.14410944  0.43209676  0.50509218
   0.14507963  0.57478376  0.50590704
   0.14452800  0.71774353  0.50606023
   0.14368815  0.86090918  0.50564183
   0.28646069  0.00419117  0.50536215
   0.28715841  0.14795495  0.50458076
   0.28817017  0.29348115  0.50487309
   0.28533319  0.42704813  0.50607244
   0.29055727  0.57507336  0.50735001
   0.28785249  0.71838571  0.50713276
   0.28667033  0.86128496  0.50633549
   0.42941033  0.00452297  0.50647506
   0.42948844  0.14840325  0.50579284
   0.42964438  0.86086752  0.50750496
   0.57162648  0.00392929  0.50733770
   0.57165732  0.14742094  0.50652679
   0.57397530  0.29427702  0.50723152
   0.57363472  0.85952780  0.50904091
   0.71380375  0.00303628  0.50746855
   0.71440782  0.14672612  0.50622593
   0.71414455  0.28992713  0.50637589
   0.71017889  0.42997806  0.50948501
   0.70875198  0.85840700  0.51041756
   0.85593450  0.00203921  0.50696033
   0.85682807  0.14590738  0.50563647
   0.85712909  0.28917975  0.50521134
   0.85719667  0.43215921  0.50614628
   0.85745707  0.57464955  0.50779853
   0.85843661  0.71707389  0.50930126
   0.85471322  0.85814979  0.50847671
   0.04743387  0.09796341  0.50487841
   0.04700060  0.24045913  0.50441401
   0.04830090  0.38444061  0.50458650
   0.04924918  0.52732595  0.50536177
   0.04905668  0.67017222  0.50586553
   0.04820992  0.81299004  0.50589761
   0.04773226  0.95555684  0.50541344
   0.19133175  0.09923719  0.50444890
   0.19133653  0.24167622  0.50440435
   0.18995130  0.38283289  0.50500189
   0.19354516  0.52758465  0.50600499
   0.19240673  0.67033137  0.50639842
   0.19158520  0.81335380  0.50604023
   0.19128792  0.95629372  0.50523243
   0.33431675  0.10006081  0.50513181
   0.33852434  0.24417032  0.50497584
   0.33956666  0.67398124  0.50790774
   0.33457916  0.81348555  0.50696300
   0.33401125  0.95659521  0.50603563
   0.47674574  0.09997059  0.50630851
   0.47452232  0.24460607  0.50624438
   0.47475308  0.81011041  0.50848527
   0.47677446  0.95651107  0.50714196
   0.61899175  0.09929651  0.50673091
   0.61897254  0.24312780  0.50669456
   0.61872557  0.95539153  0.50798918
   0.76171825  0.09874645  0.50632711
   0.76193660  0.24187695  0.50577276
   0.76135332  0.38500465  0.50708563
   0.76079867  0.52964591  0.51186925
   0.76318564  0.66568650  0.51515274
   0.75776308  0.80849649  0.51195683
   0.76045190  0.95456862  0.50822864
   0.90389430  0.09738322  0.50576412
   0.90471885  0.24137944  0.50498615
   0.90495351  0.38467263  0.50523188
   0.90544110  0.52738373  0.50619397
   0.90596621  0.66974009  0.50761505
   0.90425714  0.81216043  0.50762792
   0.90327740  0.95385844  0.50680867
   0.71573214  0.71446541  0.51761261
   0.33233988  0.52297774  0.50788815
   0.62744295  0.66578910  0.52584726
   0.42163146  0.56250614  0.51031717
   0.42858764  0.28899089  0.50607297
   0.42944028  0.71995673  0.50870922
   0.71722193  0.57502794  0.51848427
   0.33214388  0.38294032  0.50571882
   0.62004067  0.38462375  0.50884677
   0.61883982  0.81460253  0.51046236
   0.48790026  0.49209872  0.44697279
   0.54314090  0.44589355  0.46496605
   0.54282258  0.49356675  0.43022406
Direct configuration=     7
   0.99916983  0.00229769  0.50555310
   0.99940723  0.14530704  0.50501502
   0.00020051  0.28893875  0.50451240
   0.00068004  0.43199718  0.50487806
   0.00110324  0.57480288  0.50566199
   0.00146168  0.71774600  0.50620860
   0.00003914  0.86034306  0.50604986
   0.14346474  0.00397546  0.50490772
   0.14318673  0.14630672  0.50440992
   0.14253322  0.28798365  0.50438939
   0.14411349  0.43209465  0.50509286
   0.14508001  0.57478103  0.50590451
   0.14451967  0.71774895  0.50605611
   0.14367781  0.86091810  0.50563880
   0.28645582  0.00419377  0.50536056
   0.28715600  0.14795467  0.50458495
   0.28817126  0.29347626  0.50487828
   0.28533861  0.42704736  0.50607661
   0.29056200  0.57507088  0.50734911
   0.28786026  0.71838955  0.50712791
   0.28667248  0.86129145  0.50633108
   0.42941387  0.00452500  0.50647307
   0.42948773  0.14840439  0.50579621
   0.42965370  0.86087207  0.50750155
   0.57162776  0.00392668  0.50733717
   0.57165906  0.14741965  0.50652906
   0.57397645  0.29427802  0.50723920
   0.57363525  0.85953024  0.50903915
   0.71379968  0.00303276  0.50747043
   0.71440473  0.14672360  0.50622702
   0.71414370  0.28992743  0.50637905
   0.71017849  0.42998026  0.50949164
   0.70875099  0.85840734  0.51041672
   0.85593617  0.00203621  0.50696085
   0.85682597  0.14590596  0.50563784
   0.85712693  0.28917967  0.50521127
   0.85719500  0.43216173  0.50614613
   0.85745732  0.57465722  0.50779899
   0.85844140  0.71707970  0.50930220
   0.85471964  0.85815090  0.50847657
   0.04742294  0.09797082  0.50488040
   0.04699455  0.24046074  0.50441565
   0.04830078  0.38444285  0.50458803
   0.04925528  0.52732911  0.50536102
   0.04907630  0.67016560  0.50586222
   0.04821489  0.81298429  0.50589457
   0.04772754  0.95555442  0.50541172
   0.19133480  0.09924213  0.50445131
   0.19132237  0.24168032  0.50440747
   0.18994808  0.38283756  0.50500318
   0.19354428  0.52759229  0.50600525
   0.19240745  0.67033222  0.50639645
   0.19159158  0.81334613  0.50603545
   0.19129553  0.95629198  0.50523089
   0.33432248  0.10006191  0.50513388
   0.33852853  0.24417336  0.50498412
   0.33955910  0.67398388  0.50790262
   0.33457190  0.81347941  0.50695934
   0.33401246  0.95659066  0.50603233
   0.47674707  0.09997165  0.50630978
   0.47452512  0.24460658  0.50625095
   0.47475026  0.81010916  0.50848183
   0.47677114  0.95651100  0.50713946
   0.61899774  0.09930901  0.50673214
   0.61897571  0.24313023  0.50669919
   0.61872950  0.95539517  0.50798880
   0.76172551  0.09875282  0.50632797
   0.76194182  0.24188154  0.50577383
   0.76135671  0.38500705  0.50708849
   0.76079948  0.52964532  0.51187362
   0.76318373  0.66568700  0.51515670
   0.75776267  0.80849754  0.51195685
   0.76045590  0.95457220  0.50822816
   0.90389226  0.09738674  0.50576580
   0.90472194  0.24138227  0.50498695
   0.90495819  0.38467533  0.50523108
   0.90544673  0.52738262  0.50619266
   0.90596678  0.66973569  0.50761454
   0.90424463  0.81215555  0.50762563
   0.90327204  0.95386059  0.50680823
   0.71573851  0.71446916  0.51761402
   0.33233752  0.52297991  0.50788934
   0.62743484  0.66578164  0.52584578
   0.42163422  0.56251025  0.51032578
   0.42858646  0.28899152  0.50608303
   0.42944849  0.71996218  0.50870639
   0.71722218  0.57503147  0.51849108
   0.33214446  0.38294424  0.50572942
   0.62004249  0.38462518  0.50885644
   0.61884350  0.81460357  0.51046065
   0.48793519  0.49216505  0.44701298
   0.54309494  0.44587198  0.46498825
   0.54280991  0.49355136  0.43022406
Direct configuration=     8
   0.99916047  0.00230223  0.50555257
   0.99938532  0.14530850  0.50501942
   0.00019771  0.28894085  0.50451208
   0.00068460  0.43200177  0.50487788
   0.00111448  0.57479916  0.50565929
   0.00147278  0.71773242  0.50620616
   0.00003061  0.86033412  0.50604795
   0.14346884  0.00397637  0.50490754
   0.14317769  0.14630967  0.50441196
   0.14251726  0.28799236  0.50439051
   0.14411090  0.43210052  0.50509358
   0.14508190  0.57478877  0.50590497
   0.14453326  0.71774357  0.50605131
   0.14369360  0.86090944  0.50563531
   0.28646538  0.00419248  0.50535951
   0.28716280  0.14795714  0.50458836
   0.28817166  0.29348394  0.50488389
   0.28533279  0.42704971  0.50608094
   0.29055827  0.57507670  0.50734809
   0.28784994  0.71838659  0.50712581
   0.28667166  0.86128437  0.50632769
   0.42941184  0.00452507  0.50647156
   0.42949234  0.14840564  0.50579887
   0.42964357  0.86086800  0.50749873
   0.57162939  0.00393400  0.50733671
   0.57166003  0.14742488  0.50653095
   0.57397858  0.29427916  0.50724515
   0.57363730  0.85953003  0.50903777
   0.71380858  0.00304103  0.50746965
   0.71441253  0.14673111  0.50622787
   0.71414801  0.28993052  0.50638155
   0.71018075  0.42998103  0.50949664
   0.70875475  0.85841030  0.51041597
   0.85593691  0.00204384  0.50696120
   0.85683178  0.14591135  0.50563886
   0.85713276  0.28918322  0.50521129
   0.85719970  0.43216185  0.50614596
   0.85745814  0.57465029  0.50779916
   0.85843597  0.71707412  0.50930303
   0.85471316  0.85815259  0.50847644
   0.04744041  0.09796366  0.50488013
   0.04700738  0.24046285  0.50441667
   0.04830359  0.38444287  0.50458903
   0.04924783  0.52732748  0.50535852
   0.04905304  0.67017741  0.50586063
   0.04820892  0.81299355  0.50589258
   0.04773462  0.95555701  0.50541034
   0.19133373  0.09923869  0.50445325
   0.19134097  0.24167546  0.50441017
   0.18995613  0.38283434  0.50500425
   0.19354763  0.52758523  0.50600442
   0.19240825  0.67033483  0.50639425
   0.19158459  0.81335965  0.50603173
   0.19128787  0.95629741  0.50522956
   0.33431780  0.10006291  0.50513548
   0.33852519  0.24417083  0.50499033
   0.33957161  0.67398289  0.50790128
   0.33458377  0.81348932  0.50695626
   0.33401352  0.95659916  0.50602974
   0.47674810  0.09997258  0.50631078
   0.47452482  0.24460855  0.50625645
   0.47475644  0.81011356  0.50847927
   0.47677803  0.95651345  0.50713759
   0.61899293  0.09929612  0.50673261
   0.61897475  0.24312977  0.50670284
   0.61872700  0.95539329  0.50798864
   0.76171856  0.09874739  0.50632896
   0.76193829  0.24187925  0.50577477
   0.76135479  0.38500808  0.50709086
   0.76079955  0.52964987  0.51187735
   0.76318870  0.66569007  0.51515929
   0.75776530  0.80849918  0.51195693
   0.76045151  0.95457020  0.50822963
   0.90389903  0.09738587  0.50576676
   0.90472105  0.24138218  0.50498762
   0.90495365  0.38467420  0.50523231
   0.90544037  0.52738780  0.50619212
   0.90596789  0.66974491  0.50761463
   0.90425985  0.81216254  0.50762761
   0.90328196  0.95386017  0.50680774
   0.71573182  0.71446717  0.51761594
   0.33234251  0.52297815  0.50789103
   0.62744479  0.66578945  0.52584669
   0.42162870  0.56250789  0.51031380
   0.42859177  0.28899306  0.50609062
   0.42944012  0.71995716  0.50870393
   0.71722235  0.57503053  0.51849615
   0.33214492  0.38293733  0.50573711
   0.62004215  0.38462549  0.50886386
   0.61884092  0.81460505  0.51045927
   0.48796169  0.49221459  0.44704325
   0.54306107  0.44585703  0.46500434
   0.54279846  0.49353927  0.43022406
Direct configuration=     9
   0.99916897  0.00230008  0.50555185
   0.99940275  0.14530867  0.50501867
   0.00020188  0.28894136  0.50451300
   0.00068210  0.43199962  0.50487763
   0.00110681  0.57480344  0.50565863
   0.00146558  0.71774370  0.50620594
   0.00003615  0.86034034  0.50604652
   0.14346701  0.00397727  0.50490724
   0.14318569  0.14630852  0.50441320
   0.14253033  0.28798751  0.50439148
   0.14411432  0.43209757  0.50509384
   0.14508073  0.57478270  0.50590331
   0.14452415  0.71774966  0.50604913
   0.14368095  0.86091660  0.50563448
   0.28645974  0.00419499  0.50535853
   0.28715911  0.14795656  0.50459072
   0.28817184  0.29347817  0.50488743
   0.28533856  0.42704818  0.50608326
   0.29056214  0.57507346  0.50734747
   0.28785884  0.71839016  0.50712303
   0.28667340  0.86129122  0.50632496
   0.42941477  0.00452629  0.50647034
   0.42949034  0.14840603  0.50580070
   0.42965422  0.86087249  0.50749708
   0.57162951  0.00393007  0.50733625
   0.57166070  0.14742236  0.50653221
   0.57397880  0.29427988  0.50724938
   0.57363697  0.85953183  0.50903654
   0.71380297  0.00303687  0.50747055
   0.71440826  0.14672722  0.50622840
   0.71414661  0.28993045  0.50638329
   0.71018003  0.42998237  0.50950024