  99  99   0   0
  0.3914025E+02  0.1727104E-08  0.1727104E-08  0.1500000E-08  0.0000000E+00
  1.000000000000000E-004
  CAR 
 unknown system                          
      6.32544845    -25.85852200  301     -2.35449348      1.00000000
    -25.859  0.0000E+00  0.0000E+00  0.0000E+00  0.0000E+00
    -25.751  0.0000E+00  0.0000E+00  0.0000E+00  0.0000E+00
    -25.644  0.0000E+00  0.0000E+00  0.0000E+00  0.0000E+00
    -25.537  0.0000E+00  0.0000E+00  0.0000E+00  0.0000E+00
    -25.429  0.0000E+00  0.0000E+00  0.0000E+00  0.0000E+00
    -25.322  0.0000E+00  0.0000E+00  0.0000E+00  0.0000E+00
    -25.215  0.0000E+00  0.0000E+00  0.0000E+00  0.0000E+00
    -25.108  0.0000E+00  0.0000E+00  0.0000E+00  0.0000E+00
    -25.000  0.0000E+00  0.0000E+00  0.0000E+00  0.0000E+00
    -24.893  0.0000E+00  0.0000E+00  0.0000E+00  0.0000E+00
    -24.786  0.0000E+00  0.0000E+00  0.0000E+00  0.0000E+00
    -24.678  0.5692E-17  0.5692E-17  0.6106E-18  0.6106E-18
    -24.571  0.3193E-08  0.3193E-08  0.3426E-09  0.3426E-09
    -24.464  0.2492E-03  0.2492E-03  0.2673E-04  0.2673E-04
    -24.357  0.7814E-02  0.7814E-02  0.8650E-03  0.8650E-03
    -24.249  0.1258E-02  0.1258E-02  0.1000E-02  0.1000E-02
    -24.142  0.1637E-06  0.1637E-06  0.1000E-02  0.1000E-02
    -24.035  0.3450E-14  0.3450E-14  0.1000E-02  0.1000E-02
    -23.927  0.0000E+00  0.0000E+00  0.1000E-02  0.1000E-02
    -23.820  0.0000E+00  0.0000E+00  0.1000E-02  0.1000E-02
    -23.713  0.0000E+00  0.0000E+00  0.1000E-02  0.1000E-02
    -23.606  0.0000E+00  0.0000E+00  0.1000E-02  0.1000E-02
    -23.498  0.0000E+00  0.0000E+00  0.1000E-02  0.1000E-02
    -23.391  0.0000E+00  0.0000E+00  0.1000E-02  0.1000E-02
    -23.284  0.0000E+00  0.0000E+00  0.1000E-02  0.1000E-02
    -23.177  0.0000E+00  0.0000E+00  0.1000E-02  0.1000E-02
    -23.069  0.0000E+00  0.0000E+00  0.1000E-02  0.1000E-02
    -22.962  0.0000E+00  0.0000E+00  0.1000E-02  0.1000E-02
    -22.855  0.0000E+00  0.0000E+00  0.1000E-02  0.1000E-02
    -22.747  0.0000E+00  0.0000E+00  0.1000E-02  0.1000E-02
    -22.640  0.0000E+00  0.0000E+00  0.1000E-02  0.1000E-02
    -22.533  0.0000E+00  0.0000E+00  0.1000E-02  0.1000E-02
    -22.426  0.0000E+00  0.0000E+00  0.1000E-02  0.1000E-02
    -22.318  0.0000E+00  0.0000E+00  0.1000E-02  0.1000E-02
    -22.211  0.0000E+00  0.0000E+00  0.1000E-02  0.1000E-02
    -22.104  0.0000E+00  0.0000E+00  0.1000E-02  0.1000E-02
    -21.996  0.4711E-14  0.4711E-14  0.1000E-02  0.1000E-02
    -21.889  0.1115E-06  0.1115E-06  0.1000E-02  0.1000E-02
    -21.782  0.4732E-03  0.4732E-03  0.1051E-02  0.1051E-02
    -21.675  0.6147E-02  0.6147E-02  0.1710E-02  0.1710E-02
    -21.567  0.8415E-02  0.8415E-02  0.2613E-02  0.2613E-02
    -21.460  0.1450E-02  0.1450E-02  0.2768E-02  0.2768E-02
    -21.353  0.8363E-02  0.8363E-02  0.3666E-02  0.3666E-02
    -21.245  0.8857E-02  0.8857E-02  0.4616E-02  0.4616E-02
    -21.138  0.6351E-02  0.6351E-02  0.5297E-02  0.5297E-02
    -21.031  0.1895E-02  0.1895E-02  0.5500E-02  0.5500E-02
    -20.924  0.6338E-02  0.6338E-02  0.6180E-02  0.6180E-02
    -20.816  0.1358E-01  0.1358E-01  0.7638E-02  0.7638E-02
    -20.709  0.8366E-02  0.8366E-02  0.8535E-02  0.8535E-02
    -20.602  0.1986E-02  0.1986E-02  0.8748E-02  0.8748E-02
    -20.495  0.1964E-02  0.1964E-02  0.8959E-02  0.8959E-02
    -20.387  0.5805E-02  0.5805E-02  0.9581E-02  0.9581E-02
    -20.280  0.1133E-01  0.1133E-01  0.1080E-01  0.1080E-01
    -20.173  0.1463E-01  0.1463E-01  0.1237E-01  0.1237E-01
    -20.065  0.6591E-02  0.6591E-02  0.1307E-01  0.1307E-01
    -19.958  0.1662E-02  0.1662E-02  0.1325E-01  0.1325E-01
    -19.851  0.2878E-02  0.2878E-02  0.1356E-01  0.1356E-01
    -19.744  0.7897E-02  0.7897E-02  0.1441E-01  0.1441E-01
    -19.636  0.5327E-02  0.5327E-02  0.1498E-01  0.1498E-01
    -19.529  0.5325E-02  0.5325E-02  0.1555E-01  0.1555E-01
    -19.422  0.1618E-01  0.1618E-01  0.1729E-01  0.1729E-01
    -19.314  0.1143E-01  0.1143E-01  0.1851E-01  0.1851E-01
    -19.207  0.2215E-02  0.2215E-02  0.1875E-01  0.1875E-01
    -19.100  0.3399E-02  0.3399E-02  0.1911E-01  0.1911E-01
    -18.993  0.7651E-02  0.7651E-02  0.1994E-01  0.1994E-01
    -18.885  0.7625E-02  0.7625E-02  0.2075E-01  0.2075E-01
    -18.778  0.3908E-02  0.3908E-02  0.2117E-01  0.2117E-01
    -18.671  0.5122E-02  0.5122E-02  0.2172E-01  0.2172E-01
    -18.563  0.6265E-02  0.6265E-02  0.2239E-01  0.2239E-01
    -18.456  0.1854E-01  0.1854E-01  0.2438E-01  0.2438E-01
    -18.349  0.7223E-02  0.7223E-02  0.2516E-01  0.2516E-01
    -18.242  0.3326E-02  0.3326E-02  0.2552E-01  0.2552E-01
    -18.134  0.7134E-02  0.7134E-02  0.2628E-01  0.2628E-01
    -18.027  0.9165E-02  0.9165E-02  0.2726E-01  0.2726E-01
    -17.920  0.7731E-02  0.7731E-02  0.2809E-01  0.2809E-01
    -17.813  0.5389E-02  0.5389E-02  0.2867E-01  0.2867E-01
    -17.705  0.4343E-02  0.4343E-02  0.2914E-01  0.2914E-01
    -17.598  0.3058E-02  0.3058E-02  0.2947E-01  0.2947E-01
    -17.491  0.5143E-02  0.5143E-02  0.3002E-01  0.3002E-01
    -17.383  0.1727E-01  0.1727E-01  0.3187E-01  0.3187E-01
    -17.276  0.1112E-01  0.1112E-01  0.3306E-01  0.3306E-01
    -17.169  0.9060E-02  0.9060E-02  0.3404E-01  0.3404E-01
    -17.062  0.1032E-01  0.1032E-01  0.3514E-01  0.3514E-01
    -16.954  0.4684E-02  0.4684E-02  0.3565E-01  0.3565E-01
    -16.847  0.8383E-02  0.8383E-02  0.3654E-01  0.3654E-01
    -16.740  0.1006E-01  0.1006E-01  0.3762E-01  0.3762E-01
    -16.632  0.3614E-02  0.3614E-02  0.3801E-01  0.3801E-01
    -16.525  0.3594E-02  0.3594E-02  0.3840E-01  0.3840E-01
    -16.418  0.6148E-02  0.6148E-02  0.3906E-01  0.3906E-01
    -16.311  0.1319E-01  0.1319E-01  0.4047E-01  0.4047E-01
    -16.203  0.1296E-01  0.1296E-01  0.4186E-01  0.4186E-01
    -16.096  0.8076E-02  0.8076E-02  0.4273E-01  0.4273E-01
    -15.989  0.2498E-02  0.2498E-02  0.4300E-01  0.4300E-01
    -15.881  0.1409E-02  0.1409E-02  0.4315E-01  0.4315E-01
    -15.774  0.4960E-02  0.4960E-02  0.4368E-01  0.4368E-01
    -15.667  0.1568E-02  0.1568E-02  0.4385E-01  0.4385E-01
    -15.560  0.3691E-02  0.3691E-02  0.4424E-01  0.4424E-01
    -15.452  0.1805E-02  0.1805E-02  0.4444E-01  0.4444E-01
    -15.345  0.8195E-02  0.8195E-02  0.4532E-01  0.4532E-01
    -15.238  0.7336E-02  0.7336E-02  0.4610E-01  0.4610E-01
    -15.131  0.8784E-02  0.8784E-02  0.4704E-01  0.4704E-01
    -15.023  0.6693E-02  0.6693E-02  0.4776E-01  0.4776E-01
    -14.916  0.6332E-02  0.6332E-02  0.4844E-01  0.4844E-01
    -14.809  0.1728E-01  0.1728E-01  0.5030E-01  0.5030E-01
    -14.701  0.6588E-02  0.6588E-02  0.5100E-01  0.5100E-01
    -14.594  0.2263E-02  0.2263E-02  0.5125E-01  0.5125E-01
    -14.487  0.1213E-01  0.1213E-01  0.5255E-01  0.5255E-01
    -14.380  0.1231E-01  0.1231E-01  0.5387E-01  0.5387E-01
    -14.272  0.6513E-02  0.6513E-02  0.5457E-01  0.5457E-01
    -14.165  0.6802E-02  0.6802E-02  0.5530E-01  0.5530E-01
    -14.058  0.1131E-01  0.1131E-01  0.5651E-01  0.5651E-01
    -13.950  0.1091E-01  0.1091E-01  0.5768E-01  0.5768E-01
    -13.843  0.5362E-02  0.5362E-02  0.5825E-01  0.5825E-01
    -13.736  0.4901E-02  0.4901E-02  0.5878E-01  0.5878E-01
    -13.629  0.4899E-02  0.4899E-02  0.5931E-01  0.5931E-01
    -13.521  0.5475E-02  0.5475E-02  0.5989E-01  0.5989E-01
    -13.414  0.9843E-02  0.9843E-02  0.6095E-01  0.6095E-01
    -13.307  0.7523E-02  0.7523E-02  0.6176E-01  0.6176E-01
    -13.199  0.8271E-02  0.8271E-02  0.6264E-01  0.6264E-01
    -13.092  0.7231E-02  0.7231E-02  0.6342E-01  0.6342E-01
    -12.985  0.4088E-02  0.4088E-02  0.6386E-01  0.6386E-01
    -12.878  0.5859E-02  0.5859E-02  0.6449E-01  0.6449E-01
    -12.770  0.2600E-02  0.2600E-02  0.6477E-01  0.6477E-01
    -12.663  0.1049E-01  0.1049E-01  0.6589E-01  0.6589E-01
    -12.556  0.7503E-02  0.7503E-02  0.6670E-01  0.6670E-01
    -12.449  0.8623E-02  0.8623E-02  0.6762E-01  0.6762E-01
    -12.341  0.1525E-01  0.1525E-01  0.6926E-01  0.6926E-01
    -12.234  0.1253E-01  0.1253E-01  0.7060E-01  0.7060E-01
    -12.127  0.1427E-01  0.1427E-01  0.7213E-01  0.7213E-01
    -12.019  0.6137E-02  0.6137E-02  0.7279E-01  0.7279E-01
    -11.912  0.2306E-02  0.2306E-02  0.7304E-01  0.7304E-01
    -11.805  0.6992E-02  0.6992E-02  0.7379E-01  0.7379E-01
    -11.698  0.8050E-02  0.8050E-02  0.7465E-01  0.7465E-01
    -11.590  0.6509E-02  0.6509E-02  0.7535E-01  0.7535E-01
    -11.483  0.8903E-02  0.8903E-02  0.7630E-01  0.7630E-01
    -11.376  0.1340E-01  0.1340E-01  0.7774E-01  0.7774E-01
    -11.268  0.8367E-02  0.8367E-02  0.7864E-01  0.7864E-01
    -11.161  0.1388E-01  0.1388E-01  0.8013E-01  0.8013E-01
    -11.054  0.1328E-01  0.1328E-01  0.8155E-01  0.8155E-01
    -10.947  0.5621E-02  0.5621E-02  0.8216E-01  0.8216E-01
    -10.839  0.8405E-02  0.8405E-02  0.8306E-01  0.8306E-01
    -10.732  0.1598E-01  0.1598E-01  0.8477E-01  0.8477E-01
    -10.625  0.8334E-02  0.8334E-02  0.8567E-01  0.8567E-01
    -10.517  0.6878E-02  0.6878E-02  0.8641E-01  0.8641E-01
    -10.410  0.5657E-02  0.5657E-02  0.8701E-01  0.8701E-01
    -10.303  0.2106E-02  0.2106E-02  0.8724E-01  0.8724E-01
    -10.196  0.3879E-02  0.3879E-02  0.8765E-01  0.8765E-01
    -10.088  0.1594E-01  0.1594E-01  0.8936E-01  0.8936E-01
     -9.981  0.1696E-01  0.1696E-01  0.9118E-01  0.9118E-01
     -9.874  0.1546E-01  0.1546E-01  0.9284E-01  0.9284E-01
     -9.767  0.2043E-01  0.2043E-01  0.9503E-01  0.9503E-01
     -9.659  0.1979E-01  0.1979E-01  0.9716E-01  0.9716E-01
     -9.552  0.1761E-01  0.1761E-01  0.9905E-01  0.9905E-01
     -9.445  0.6830E-02  0.6830E-02  0.9978E-01  0.9978E-01
     -9.337  0.1988E-01  0.1988E-01  0.1019E+00  0.1019E+00
     -9.230  0.1407E-01  0.1407E-01  0.1034E+00  0.1034E+00
     -9.123  0.1704E-01  0.1704E-01  0.1052E+00  0.1052E+00
     -9.016  0.1846E-01  0.1846E-01  0.1072E+00  0.1072E+00
     -8.908  0.2158E-01  0.2158E-01  0.1095E+00  0.1095E+00
     -8.801  0.3841E-01  0.3841E-01  0.1137E+00  0.1137E+00
     -8.694  0.2359E-01  0.2359E-01  0.1162E+00  0.1162E+00
     -8.586  0.2252E-01  0.2252E-01  0.1186E+00  0.1186E+00
     -8.479  0.1881E-01  0.1881E-01  0.1206E+00  0.1206E+00
     -8.372  0.1699E-01  0.1699E-01  0.1225E+00  0.1225E+00
     -8.265  0.1867E-01  0.1867E-01  0.1245E+00  0.1245E+00
     -8.157  0.2595E-01  0.2595E-01  0.1272E+00  0.1272E+00
     -8.050  0.1940E-01  0.1940E-01  0.1293E+00  0.1293E+00
     -7.943  0.1993E-01  0.1993E-01  0.1315E+00  0.1315E+00
     -7.835  0.1319E-01  0.1319E-01  0.1329E+00  0.1329E+00
     -7.728  0.1927E-01  0.1927E-01  0.1349E+00  0.1349E+00
     -7.621  0.1700E-01  0.1700E-01  0.1368E+00  0.1368E+00
     -7.514  0.1672E-01  0.1672E-01  0.1386E+00  0.1386E+00
     -7.406  0.8129E-02  0.8129E-02  0.1394E+00  0.1394E+00
     -7.299  0.1715E-02  0.1715E-02  0.1396E+00  0.1396E+00
     -7.192  0.2632E-01  0.2632E-01  0.1424E+00  0.1424E+00
     -7.085  0.2116E-01  0.2116E-01  0.1447E+00  0.1447E+00
     -6.977  0.1839E-01  0.1839E-01  0.1467E+00  0.1467E+00
     -6.870  0.1689E-01  0.1689E-01  0.1485E+00  0.1485E+00
     -6.763  0.9651E-02  0.9651E-02  0.1495E+00  0.1495E+00
     -6.655  0.1074E-01  0.1074E-01  0.1507E+00  0.1507E+00
     -6.548  0.1149E-01  0.1149E-01  0.1519E+00  0.1519E+00
     -6.441  0.1104E-01  0.1104E-01  0.1531E+00  0.1531E+00
     -6.334  0.1505E-01  0.1505E-01  0.1547E+00  0.1547E+00
     -6.226  0.1739E-01  0.1739E-01  0.1566E+00  0.1566E+00
     -6.119  0.1722E-01  0.1722E-01  0.1584E+00  0.1584E+00
     -6.012  0.2040E-01  0.2040E-01  0.1606E+00  0.1606E+00
     -5.904  0.9804E-02  0.9804E-02  0.1617E+00  0.1617E+00
     -5.797  0.1313E-01  0.1313E-01  0.1631E+00  0.1631E+00
     -5.690  0.1548E-01  0.1548E-01  0.1647E+00  0.1647E+00
     -5.583  0.1558E-01  0.1558E-01  0.1664E+00  0.1664E+00
     -5.475  0.8915E-02  0.8915E-02  0.1674E+00  0.1674E+00
     -5.368  0.8117E-02  0.8117E-02  0.1682E+00  0.1682E+00
     -5.261  0.4043E-02  0.4043E-02  0.1687E+00  0.1687E+00
     -5.154  0.2133E-02  0.2133E-02  0.1689E+00  0.1689E+00
     -5.046  0.2907E-02  0.2907E-02  0.1692E+00  0.1692E+00
     -4.939  0.2074E-01  0.2074E-01  0.1714E+00  0.1714E+00
     -4.832  0.1843E-01  0.1843E-01  0.1734E+00  0.1734E+00
     -4.724  0.1594E-01  0.1594E-01  0.1751E+00  0.1751E+00
     -4.617  0.5706E-02  0.5706E-02  0.1757E+00  0.1757E+00
     -4.510  0.8940E-02  0.8940E-02  0.1767E+00  0.1767E+00
     -4.403  0.5176E-02  0.5176E-02  0.1772E+00  0.1772E+00
     -4.295  0.1190E-03  0.1190E-03  0.1773E+00  0.1773E+00
     -4.188  0.5265E-02  0.5265E-02  0.1778E+00  0.1778E+00
     -4.081  0.8201E-02  0.8201E-02  0.1787E+00  0.1787E+00
     -3.973  0.7010E-02  0.7010E-02  0.1795E+00  0.1795E+00
     -3.866  0.6988E-02  0.6988E-02  0.1802E+00  0.1802E+00
     -3.759  0.8393E-02  0.8393E-02  0.1811E+00  0.1811E+00
     -3.652  0.6319E-02  0.6319E-02  0.1818E+00  0.1818E+00
     -3.544  0.2031E-02  0.2031E-02  0.1820E+00  0.1820E+00
     -3.437  0.2549E-05  0.2549E-05  0.1820E+00  0.1820E+00
     -3.330  0.7406E-03  0.7406E-03  0.1821E+00  0.1821E+00
     -3.222  0.2668E-02  0.2668E-02  0.1824E+00  0.1824E+00
     -3.115  0.6825E-02  0.6825E-02  0.1831E+00  0.1831E+00
     -3.008  0.1533E-02  0.1533E-02  0.1833E+00  0.1833E+00
     -2.901  0.2027E-02  0.2027E-02  0.1835E+00  0.1835E+00
     -2.793  0.1877E-03  0.1877E-03  0.1835E+00  0.1835E+00
     -2.686  0.1757E-06  0.1757E-06  0.1835E+00  0.1835E+00
     -2.579  0.8094E-03  0.8094E-03  0.1836E+00  0.1836E+00
     -2.472  0.3767E-02  0.3767E-02  0.1840E+00  0.1840E+00
     -2.364  0.8445E-04  0.8445E-04  0.1840E+00  0.1840E+00
     -2.257  0.1911E-04  0.1911E-04  0.1840E+00  0.1840E+00
     -2.150  0.3019E-02  0.3019E-02  0.1843E+00  0.1843E+00
     -2.042  0.1621E-02  0.1621E-02  0.1845E+00  0.1845E+00
     -1.935  0.1433E-05  0.1433E-05  0.1845E+00  0.1845E+00
     -1.828  0.6902E-05  0.6902E-05  0.1845E+00  0.1845E+00
     -1.721  0.1594E-02  0.1594E-02  0.1847E+00  0.1847E+00
     -1.613  0.3195E-02  0.3195E-02  0.1850E+00  0.1850E+00
     -1.506  0.5187E-02  0.5187E-02  0.1856E+00  0.1856E+00
     -1.399  0.3961E-02  0.3961E-02  0.1860E+00  0.1860E+00
     -1.291  0.4044E-04  0.4044E-04  0.1860E+00  0.1860E+00
     -1.184  0.2530E-02  0.2530E-02  0.1863E+00  0.1863E+00
     -1.077  0.9248E-02  0.9248E-02  0.1873E+00  0.1873E+00
     -0.970  0.2218E-02  0.2218E-02  0.1875E+00  0.1875E+00
     -0.862  0.3206E-02  0.3206E-02  0.1878E+00  0.1878E+00
     -0.755  0.1376E-01  0.1376E-01  0.1893E+00  0.1893E+00
     -0.648  0.1388E-01  0.1388E-01  0.1908E+00  0.1908E+00
     -0.540  0.4975E-02  0.4975E-02  0.1913E+00  0.1913E+00
     -0.433  0.1099E-01  0.1099E-01  0.1925E+00  0.1925E+00
     -0.326  0.9354E-02  0.9354E-02  0.1935E+00  0.1935E+00
     -0.219  0.6350E-02  0.6350E-02  0.1942E+00  0.1942E+00
     -0.111  0.3181E-02  0.3181E-02  0.1945E+00  0.1945E+00
     -0.004  0.1037E-01  0.1037E-01  0.1957E+00  0.1957E+00
      0.103  0.7745E-02  0.7745E-02  0.1965E+00  0.1965E+00
      0.210  0.1118E-01  0.1118E-01  0.1977E+00  0.1977E+00
      0.318  0.1152E-01  0.1152E-01  0.1989E+00  0.1989E+00
      0.425  0.7047E-02  0.7047E-02  0.1997E+00  0.1997E+00
      0.532  0.3072E-02  0.3072E-02  0.2000E+00  0.2000E+00
      0.640  0.6766E-02  0.6766E-02  0.2007E+00  0.2007E+00
      0.747  0.1085E-01  0.1085E-01  0.2019E+00  0.2019E+00
      0.854  0.7686E-02  0.7686E-02  0.2027E+00  0.2027E+00
      0.961  0.8100E-02  0.8100E-02  0.2036E+00  0.2036E+00
      1.069  0.8331E-02  0.8331E-02  0.2045E+00  0.2045E+00
      1.176  0.8765E-02  0.8765E-02  0.2054E+00  0.2054E+00
      1.283  0.7880E-02  0.7880E-02  0.2063E+00  0.2063E+00
      1.391  0.9090E-02  0.9090E-02  0.2073E+00  0.2073E+00
      1.498  0.9884E-02  0.9884E-02  0.2083E+00  0.2083E+00
      1.605  0.1950E-01  0.1950E-01  0.2104E+00  0.2104E+00
      1.712  0.1834E-01  0.1834E-01  0.2124E+00  0.2124E+00
      1.820  0.1191E-01  0.1191E-01  0.2136E+00  0.2136E+00
      1.927  0.6094E-02  0.6094E-02  0.2143E+00  0.2143E+00
      2.034  0.1474E-01  0.1474E-01  0.2159E+00  0.2159E+00
      2.142  0.2549E-01  0.2549E-01  0.2186E+00  0.2186E+00
      2.249  0.1558E-01  0.1558E-01  0.2203E+00  0.2203E+00
      2.356  0.1639E-01  0.1639E-01  0.2220E+00  0.2220E+00
      2.463  0.2964E-01  0.2964E-01  0.2252E+00  0.2252E+00
      2.571  0.9074E-02  0.9074E-02  0.2262E+00  0.2262E+00
      2.678  0.9343E-02  0.9343E-02  0.2272E+00  0.2272E+00
      2.785  0.1907E-01  0.1907E-01  0.2292E+00  0.2292E+00
      2.892  0.3247E-01  0.3247E-01  0.2327E+00  0.2327E+00
      3.000  0.3189E-01  0.3189E-01  0.2362E+00  0.2362E+00
      3.107  0.2081E-01  0.2081E-01  0.2384E+00  0.2384E+00
      3.214  0.2370E-01  0.2370E-01  0.2409E+00  0.2409E+00
      3.322  0.2142E-01  0.2142E-01  0.2432E+00  0.2432E+00
      3.429  0.1526E-01  0.1526E-01  0.2449E+00  0.2449E+00
      3.536  0.2986E-01  0.2986E-01  0.2481E+00  0.2481E+00
      3.643  0.1768E-01  0.1768E-01  0.2500E+00  0.2500E+00
      3.751  0.1682E-01  0.1682E-01  0.2518E+00  0.2518E+00
      3.858  0.2902E-01  0.2902E-01  0.2549E+00  0.2549E+00
      3.965  0.1809E-01  0.1809E-01  0.2568E+00  0.2568E+00
      4.073  0.2393E-01  0.2393E-01  0.2594E+00  0.2594E+00
      4.180  0.1585E-01  0.1585E-01  0.2611E+00  0.2611E+00
      4.287  0.2128E-01  0.2128E-01  0.2634E+00  0.2634E+00
      4.394  0.3438E-01  0.3438E-01  0.2671E+00  0.2671E+00
      4.502  0.3541E-01  0.3541E-01  0.2709E+00  0.2709E+00
      4.609  0.2522E-01  0.2522E-01  0.2736E+00  0.2736E+00
      4.716  0.1866E-01  0.1866E-01  0.2756E+00  0.2756E+00
      4.824  0.2762E-01  0.2762E-01  0.2785E+00  0.2785E+00
      4.931  0.1352E-01  0.1352E-01  0.2800E+00  0.2800E+00
      5.038  0.1713E-03  0.1713E-03  0.2800E+00  0.2800E+00
      5.145  0.1676E-08  0.1676E-08  0.2800E+00  0.2800E+00
      5.253  0.2587E-17  0.2587E-17  0.2800E+00  0.2800E+00
      5.360  0.0000E+00  0.0000E+00  0.2800E+00  0.2800E+00
      5.467  0.0000E+00  0.0000E+00  0.2800E+00  0.2800E+00
      5.574  0.0000E+00  0.0000E+00  0.2800E+00  0.2800E+00
      5.682  0.0000E+00  0.0000E+00  0.2800E+00  0.2800E+00
      5.789  0.0000E+00  0.0000E+00  0.2800E+00  0.2800E+00
      5.896  0.0000E+00  0.0000E+00  0.2800E+00  0.2800E+00
      6.004  0.0000E+00  0.0000E+00  0.2800E+00  0.2800E+00
      6.111  0.0000E+00  0.0000E+00  0.2800E+00  0.2800E+00
      6.218  0.0000E+00  0.0000E+00  0.2800E+00  0.2800E+00
      6.325  0.0000E+00  0.0000E+00  0.2800E+00  0.2800E+00
