       N       E                     dE             d eps       ncg     rms          rms(c)
DAV:   1     0.318815623307E+04    0.31882E+04   -0.13425E+05  4720   0.963E+02
DAV:   2    -0.300676358358E+03   -0.34888E+04   -0.32911E+04  6920   0.244E+02
DAV:   3    -0.877472476398E+03   -0.57680E+03   -0.57421E+03  5540   0.103E+02
DAV:   4    -0.897419440264E+03   -0.19947E+02   -0.19876E+02  5660   0.244E+01
DAV:   5    -0.898016697460E+03   -0.59726E+00   -0.59649E+00  6540   0.376E+00    0.523E+01
DAV:   6    -0.737376453026E+03    0.16064E+03   -0.17083E+02  5300   0.190E+01    0.291E+01
DAV:   7    -0.780608668822E+03   -0.43232E+02   -0.65217E+01  5080   0.119E+01    0.142E+01
DAV:   8    -0.810113074064E+03   -0.29504E+02   -0.21111E+01  5460   0.691E+00    0.739E+00
DAV:   9    -0.827246177600E+03   -0.17133E+02   -0.67036E+00  5060   0.359E+00    0.431E+00
DAV:  10    -0.840161040657E+03   -0.12915E+02   -0.47235E+00  5060   0.260E+00    0.231E+00
DAV:  11    -0.846692880170E+03   -0.65318E+01   -0.25127E+00  4840   0.175E+00    0.137E+00
DAV:  12    -0.849627554665E+03   -0.29347E+01   -0.11423E+00  4880   0.120E+00    0.738E-01
DAV:  13    -0.851090527788E+03   -0.14630E+01   -0.42027E-01  5240   0.734E-01    0.235E-01
DAV:  14    -0.851347095640E+03   -0.25657E+00   -0.49821E-02  4980   0.263E-01    0.117E-01
DAV:  15    -0.851359538272E+03   -0.12443E-01   -0.88855E-03  5140   0.114E-01    0.821E-02
DAV:  16    -0.851371503103E+03   -0.11965E-01   -0.25860E-03  4780   0.800E-02    0.630E-02
DAV:  17    -0.851398353001E+03   -0.26850E-01   -0.28253E-03  5020   0.688E-02    0.452E-02
DAV:  18    -0.851409259475E+03   -0.10906E-01   -0.11108E-03  4980   0.472E-02    0.315E-02
DAV:  19    -0.851413425969E+03   -0.41665E-02   -0.32096E-04  5140   0.310E-02    0.190E-02
DAV:  20    -0.851415583100E+03   -0.21571E-02   -0.11584E-04  5020   0.198E-02    0.105E-02
DAV:  21    -0.851416601979E+03   -0.10189E-02   -0.27753E-05  4980   0.116E-02    0.473E-03
DAV:  22    -0.851417036651E+03   -0.43467E-03   -0.99992E-06  4700   0.691E-03    0.257E-03
DAV:  23    -0.851417197087E+03   -0.16044E-03   -0.29526E-06  4640   0.425E-03    0.149E-03
DAV:  24    -0.851417292833E+03   -0.95746E-04   -0.14798E-06  4300   0.273E-03    0.904E-04
DAV:  25    -0.851417332608E+03   -0.39776E-04   -0.95644E-07  3980   0.187E-03    0.556E-04
DAV:  26    -0.851417341944E+03   -0.93353E-05   -0.26518E-07  3580   0.109E-03    0.418E-04
DAV:  27    -0.851417348257E+03   -0.63133E-05   -0.13305E-07  3520   0.624E-04    0.324E-04
DAV:  28    -0.851417350150E+03   -0.18931E-05   -0.68982E-08  3640   0.413E-04    0.301E-04
DAV:  29    -0.851417350679E+03   -0.52927E-06   -0.19694E-08  3700   0.231E-04
   1 F= -.85930649E+03 E0= -.85930649E+03  d E =-.859306E+03  mag=     0.0000
       N       E                     dE             d eps       ncg     rms          rms(c)
DAV:   1    -0.851417965455E+03   -0.61530E-03   -0.22464E-02  4820   0.295E-01    0.332E-02
DAV:   2    -0.851417995709E+03   -0.30254E-04   -0.47917E-04  5180   0.406E-02    0.213E-02
DAV:   3    -0.851417989492E+03    0.62167E-05   -0.30803E-05  5260   0.119E-02    0.112E-02
DAV:   4    -0.851417988976E+03    0.51588E-06   -0.85799E-06  4840   0.548E-03    0.496E-03
DAV:   5    -0.851417989028E+03   -0.51630E-07   -0.85812E-07  3520   0.199E-03    0.198E-03
DAV:   6    -0.851417989021E+03    0.66866E-08   -0.25362E-07  3340   0.124E-03
   2 F= -.85930712E+03 E0= -.85930712E+03  d E =-.630262E-03  mag=     0.0000
       N       E                     dE             d eps       ncg     rms          rms(c)
DAV:   1    -0.851418328599E+03   -0.33957E-03   -0.47994E-02  4720   0.425E-01    0.463E-02
DAV:   2    -0.851418393183E+03   -0.64584E-04   -0.92687E-04  5080   0.559E-02    0.301E-02
DAV:   3    -0.851418381631E+03    0.11551E-04   -0.50729E-05  5240   0.161E-02    0.162E-02
DAV:   4    -0.851418381356E+03    0.27518E-06   -0.20520E-05  4860   0.852E-03    0.653E-03
DAV:   5    -0.851418381560E+03   -0.20344E-06   -0.15296E-06  3920   0.256E-03    0.320E-03
DAV:   6    -0.851418381544E+03    0.15221E-07   -0.43715E-07  3400   0.171E-03
   3 F= -.85930749E+03 E0= -.85930749E+03  d E =-.367719E-03  mag=     0.0000
       N       E                     dE             d eps       ncg     rms          rms(c)
DAV:   1    -0.851418534500E+03   -0.15294E-03   -0.74194E-04  4820   0.526E-02    0.656E-03
DAV:   2    -0.851418535288E+03   -0.78831E-06   -0.16133E-05  4980   0.741E-03    0.439E-03
DAV:   3    -0.851418535111E+03    0.17731E-06   -0.16621E-06  3920   0.258E-03    0.193E-03
DAV:   4    -0.851418535156E+03   -0.44623E-07   -0.27436E-07  3320   0.109E-03    0.967E-04
DAV:   5    -0.851418535218E+03   -0.62559E-07   -0.78624E-08  3300   0.605E-04    0.373E-04
DAV:   6    -0.851418535243E+03   -0.24353E-07   -0.29827E-08  3360   0.448E-04
   4 F= -.85930764E+03 E0= -.85930764E+03  d E =-.148510E-03  mag=     0.0000
       N       E                     dE             d eps       ncg     rms          rms(c)
DAV:   1    -0.851418827752E+03   -0.29253E-03   -0.30831E-03  4680   0.104E-01    0.133E-02
DAV:   2    -0.851418830876E+03   -0.31244E-05   -0.60688E-05  4880   0.141E-02    0.890E-03
DAV:   3    -0.851418830139E+03    0.73761E-06   -0.59613E-06  4900   0.481E-03    0.384E-03
DAV:   4    -0.851418830147E+03   -0.84765E-08   -0.75091E-07  3240   0.173E-03    0.177E-03
DAV:   5    -0.851418830198E+03   -0.50539E-07   -0.21195E-07  3240   0.909E-04    0.531E-04
DAV:   6    -0.851418830215E+03   -0.17870E-07   -0.58195E-08  3280   0.550E-04
   5 F= -.85930791E+03 E0= -.85930791E+03  d E =-.278310E-03  mag=     0.0000
       N       E                     dE             d eps       ncg     rms          rms(c)
DAV:   1    -0.851419252506E+03   -0.42231E-03   -0.83332E-03  4560   0.161E-01    0.216E-02
DAV:   2    -0.851419260421E+03   -0.79150E-05   -0.14179E-04  4760   0.205E-02    0.143E-02
DAV:   3    -0.851419259193E+03    0.12273E-05   -0.10480E-05  4960   0.656E-03    0.582E-03
DAV:   4    -0.851419259494E+03   -0.30073E-06   -0.17827E-06  3880   0.249E-03    0.224E-03
DAV:   5    -0.851419259587E+03   -0.93307E-07   -0.28905E-07  3280   0.111E-03    0.777E-04
DAV:   6    -0.851419259633E+03   -0.45547E-07   -0.98794E-08  3240   0.755E-04
   6 F= -.85930831E+03 E0= -.85930831E+03  d E =-.394044E-03  mag=     0.0000
       N       E                     dE             d eps       ncg     rms          rms(c)
DAV:   1    -0.851419854659E+03   -0.59507E-03   -0.20257E-02  4480   0.237E-01    0.332E-02
DAV:   2    -0.851419872886E+03   -0.18227E-04   -0.31199E-04  4680   0.284E-02    0.217E-02
DAV:   3    -0.851419871062E+03    0.18240E-05   -0.15491E-05  4920   0.809E-03    0.871E-03
DAV:   4    -0.851419872551E+03   -0.14889E-05   -0.40344E-06  4620   0.350E-03    0.263E-03
DAV:   5    -0.851419872678E+03   -0.12758E-06   -0.64520E-07  3780   0.176E-03    0.104E-03
DAV:   6    -0.851419872769E+03   -0.90884E-07   -0.18298E-07  3380   0.109E-03
   7 F= -.85930886E+03 E0= -.85930886E+03  d E =-.551811E-03  mag=     0.0000
       N       E                     dE             d eps       ncg     rms          rms(c)
DAV:   1    -0.851420755597E+03   -0.88292E-03   -0.44765E-02  4480   0.343E-01    0.489E-02
DAV:   2    -0.851420795001E+03   -0.39404E-04   -0.67302E-04  4600   0.400E-02    0.315E-02
DAV:   3    -0.851420791989E+03    0.30123E-05   -0.25788E-05  4680   0.103E-02    0.130E-02
DAV:   4    -0.851420796141E+03   -0.41516E-05   -0.93510E-06  4920   0.511E-03    0.338E-03
DAV:   5    -0.851420796371E+03   -0.23051E-06   -0.17531E-06  4040   0.294E-03    0.139E-03
DAV:   6    -0.851420796466E+03   -0.94340E-07   -0.45072E-07  3600   0.180E-03
   8 F= -.85930969E+03 E0= -.85930969E+03  d E =-.830542E-03  mag=     0.0000
       N       E                     dE             d eps       ncg     rms          rms(c)
DAV:   1    -0.851421962283E+03   -0.11659E-02   -0.79868E-02  4480   0.452E-01    0.649E-02
DAV:   2    -0.851422034317E+03   -0.72034E-04   -0.12249E-03  4560   0.528E-02    0.415E-02
DAV:   3    -0.851422028818E+03    0.54983E-05   -0.41289E-05  4680   0.128E-02    0.179E-02
DAV:   4    -0.851422037515E+03   -0.86972E-05   -0.18046E-05  4720   0.704E-03    0.427E-03
DAV:   5    -0.851422038117E+03   -0.60182E-06   -0.39745E-06  4360   0.458E-03    0.183E-03
DAV:   6    -0.851422037820E+03    0.29722E-06   -0.88559E-07  4060   0.258E-03
   9 F= -.85931081E+03 E0= -.85931081E+03  d E =-.111818E-02  mag=    -0.0000
       N       E                     dE             d eps       ncg     rms          rms(c)
DAV:   1    -0.851423608463E+03   -0.15703E-02   -0.15303E-01  4480   0.623E-01    0.898E-02
DAV:   2    -0.851423750963E+03   -0.14250E-03   -0.23977E-03  4560   0.734E-02    0.569E-02
DAV:   3    -0.851423738379E+03    0.12585E-04   -0.77050E-05  4840   0.173E-02    0.254E-02
DAV:   4    -0.851423756228E+03   -0.17849E-04   -0.36296E-05  4720   0.998E-03    0.580E-03
DAV:   5    -0.851423757532E+03   -0.13036E-05   -0.81494E-06  4660   0.666E-03    0.253E-03
DAV:   6    -0.851423756580E+03    0.95147E-06   -0.16122E-06  4200   0.343E-03
  10 F= -.85931236E+03 E0= -.85931236E+03  d E =-.154998E-02  mag=    -0.0000
       N       E                     dE             d eps       ncg     rms          rms(c)
DAV:   1    -0.851425680477E+03   -0.19229E-02   -0.26600E-01  4480   0.816E-01    0.119E-01
DAV:   2    -0.851425936497E+03   -0.25602E-03   -0.42231E-03  4560   0.967E-02    0.746E-02
DAV:   3    -0.851425910782E+03    0.25715E-04   -0.13086E-04  4820   0.223E-02    0.340E-02
DAV:   4    -0.851425941589E+03   -0.30807E-04   -0.64629E-05  4680   0.133E-02    0.749E-03
DAV:   5    -0.851425943783E+03   -0.21937E-05   -0.14123E-05  4740   0.882E-03    0.331E-03
DAV:   6    -0.851425942165E+03    0.16180E-05   -0.27164E-06  4280   0.442E-03    0.208E-03
DAV:   7    -0.851425943335E+03   -0.11703E-05   -0.10942E-06  4280   0.287E-03    0.109E-03
DAV:   8    -0.851425942889E+03    0.44631E-06   -0.59526E-07  3640   0.221E-03
  11 F= -.85931432E+03 E0= -.85931432E+03  d E =-.196352E-02  mag=     0.0000
       N       E                     dE             d eps       ncg     rms          rms(c)
DAV:   1    -0.851428260486E+03   -0.23172E-02   -0.41033E-01  4480   0.101E+00    0.148E-01
DAV:   2    -0.851428658650E+03   -0.39816E-03   -0.64613E-03  4600   0.120E-01    0.926E-02
DAV:   3    -0.851428614340E+03    0.44309E-04   -0.19680E-04  4920   0.271E-02    0.422E-02
DAV:   4    -0.851428657728E+03   -0.43387E-04   -0.96826E-05  4760   0.156E-02    0.915E-03
DAV:   5    -0.851428658720E+03   -0.99203E-06   -0.16610E-05  4800   0.758E-03    0.383E-03
DAV:   6    -0.851428659319E+03   -0.59982E-06   -0.12421E-06  4680   0.186E-03
  12 F= -.85931676E+03 E0= -.85931676E+03  d E =-.243823E-02  mag=     0.0000
       N       E                     dE             d eps       ncg     rms          rms(c)
DAV:   1    -0.851431376599E+03   -0.27179E-02   -0.56735E-01  4480   0.119E+00    0.175E-01
DAV:   2    -0.851431928220E+03   -0.55162E-03   -0.87767E-03  4600   0.140E-01    0.110E-01
DAV:   3    -0.851431867793E+03    0.60427E-04   -0.27597E-04  4960   0.323E-02    0.488E-02
DAV:   4    -0.851431922786E+03   -0.54994E-04   -0.12820E-04  4680   0.180E-02    0.108E-02
DAV:   5    -0.851431924269E+03   -0.14823E-05   -0.22700E-05  4720   0.897E-03    0.451E-03
DAV:   6    -0.851431925014E+03   -0.74531E-06   -0.17574E-06  4880   0.240E-03
  13 F= -.85931969E+03 E0= -.85931969E+03  d E =-.293322E-02  mag=     0.0000
       N       E                     dE             d eps       ncg     rms          rms(c)
DAV:   1    -0.851435101880E+03   -0.31776E-02   -0.69692E-01  4480   0.133E+00    0.195E-01
DAV:   2    -0.851435784509E+03   -0.68263E-03   -0.10601E-02  4520   0.156E-01    0.123E-01
DAV:   3    -0.851435714436E+03    0.70072E-04   -0.35384E-04  5040   0.372E-02    0.531E-02
DAV:   4    -0.851435775224E+03   -0.60787E-04   -0.14842E-04  4680   0.197E-02    0.124E-02
DAV:   5    -0.851435777356E+03   -0.21324E-05   -0.27454E-05  4760   0.104E-02    0.512E-03
DAV:   6    -0.851435777995E+03   -0.63893E-06   -0.28955E-06  4840   0.386E-03
  14 F= -.85932317E+03 E0= -.85932317E+03  d E =-.347640E-02  mag=     0.0000
       N       E                     dE             d eps       ncg     rms          rms(c)
DAV:   1    -0.851435807271E+03   -0.29915E-04   -0.15388E-04  4840   0.224E-02    0.327E-03
DAV:   2    -0.851435807735E+03   -0.46427E-06   -0.54781E-06  4760   0.531E-03    0.195E-03
DAV:   3    -0.851435808298E+03   -0.56275E-06   -0.11161E-06  4280   0.297E-03    0.112E-03
DAV:   4    -0.851435809082E+03   -0.78422E-06   -0.70205E-07  3760   0.244E-03    0.678E-04
DAV:   5    -0.851435809544E+03   -0.46140E-06   -0.28446E-07  3620   0.149E-03    0.398E-04
DAV:   6    -0.851435810172E+03   -0.62842E-06   -0.26105E-08  3300   0.387E-04
  15 F= -.85932320E+03 E0= -.85932320E+03  d E =-.328719E-04  mag=     0.0000
       N       E                     dE             d eps       ncg     rms          rms(c)
DAV:   1    -0.851435851059E+03   -0.41515E-04   -0.54734E-04  4740   0.419E-02    0.503E-03
DAV:   2    -0.851435852056E+03   -0.99718E-06   -0.12502E-05  5240   0.573E-03    0.339E-03
DAV:   3    -0.851435852093E+03   -0.37035E-07   -0.46963E-07  3100   0.140E-03    0.187E-03
DAV:   4    -0.851435852372E+03   -0.27931E-06   -0.23832E-07  3280   0.950E-04    0.568E-04
DAV:   5    -0.851435852542E+03   -0.17031E-06   -0.60945E-08  3400   0.511E-04    0.389E-04
DAV:   6    -0.851435852653E+03   -0.11077E-06   -0.13293E-08  3160   0.284E-04
  16 F= -.85932325E+03 E0= -.85932325E+03  d E =-.441074E-04  mag=     0.0000
       N       E                     dE             d eps       ncg     rms          rms(c)
DAV:   1    -0.851435892853E+03   -0.40311E-04   -0.10503E-03  4800   0.577E-02    0.694E-03
DAV:   2    -0.851435894334E+03   -0.14806E-05   -0.22838E-05  4880   0.773E-03    0.458E-03
DAV:   3    -0.851435894118E+03    0.21615E-06   -0.92042E-07  3880   0.189E-03    0.249E-03
DAV:   4    -0.851435894204E+03   -0.85740E-07   -0.35322E-07  3480   0.114E-03    0.736E-04
DAV:   5    -0.851435894255E+03   -0.51645E-07   -0.81084E-08  3280   0.575E-04    0.427E-04
DAV:   6    -0.851435894281E+03   -0.26062E-07   -0.18650E-08  3200   0.331E-04
  17 F= -.85932329E+03 E0= -.85932329E+03  d E =-.443127E-04  mag=     0.0000
       N       E                     dE             d eps       ncg     rms          rms(c)
DAV:   1    -0.851435927028E+03   -0.32772E-04   -0.15251E-03  4480   0.686E-02    0.824E-03
DAV:   2    -0.851435928970E+03   -0.19423E-05   -0.30552E-05  5000   0.891E-03    0.532E-03
DAV:   3    -0.851435928648E+03    0.32222E-06   -0.11436E-06  3760   0.215E-03    0.281E-03
DAV:   4    -0.851435928708E+03   -0.60405E-07   -0.48176E-07  3520   0.133E-03    0.772E-04
DAV:   5    -0.851435928735E+03   -0.26797E-07   -0.10436E-07  3440   0.680E-04    0.458E-04
DAV:   6    -0.851435928745E+03   -0.99099E-08   -0.27151E-08  3120   0.403E-04
  18 F= -.85932333E+03 E0= -.85932333E+03  d E =-.380932E-04  mag=     0.0000
       N       E                     dE             d eps       ncg     rms          rms(c)
DAV:   1    -0.851435963676E+03   -0.34941E-04   -0.19191E-03  4480   0.757E-02    0.909E-03
DAV:   2    -0.851435965902E+03   -0.22269E-05   -0.34595E-05  4760   0.940E-03    0.569E-03
DAV:   3    -0.851435965567E+03    0.33536E-06   -0.11536E-06  3880   0.223E-03    0.289E-03
DAV:   4    -0.851435965647E+03   -0.79759E-07   -0.55612E-07  3560   0.144E-03    0.748E-04
DAV:   5    -0.851435965669E+03   -0.22068E-07   -0.13018E-07  3200   0.821E-04    0.477E-04
DAV:   6    -0.851435965675E+03   -0.55588E-08   -0.42456E-08  3140   0.516E-04
  19 F= -.85932337E+03 E0= -.85932337E+03  d E =-.410622E-04  mag=     0.0000
       N       E                     dE             d eps       ncg     rms          rms(c)
DAV:   1    -0.851436019745E+03   -0.54076E-04   -0.23373E-03  4480   0.823E-02    0.991E-03
DAV:   2    -0.851436022274E+03   -0.25289E-05   -0.38640E-05  4720   0.983E-03    0.607E-03
DAV:   3    -0.851436021938E+03    0.33567E-06   -0.11493E-06  3820   0.230E-03    0.297E-03
DAV:   4    -0.851436022047E+03   -0.10840E-06   -0.62932E-07  3540   0.154E-03    0.749E-04
DAV:   5    -0.851436022067E+03   -0.20380E-07   -0.16598E-07  3120   0.972E-04    0.488E-04
DAV:   6    -0.851436022068E+03   -0.11496E-08   -0.60012E-08  3240   0.618E-04
  20 F= -.85932343E+03 E0= -.85932343E+03  d E =-.604109E-04  mag=     0.0000
       N       E                     dE             d eps       ncg     rms          rms(c)
DAV:   1    -0.851436117056E+03   -0.94989E-04   -0.35710E-03  4480   0.101E-01    0.122E-02
DAV:   2    -0.851436120917E+03   -0.38607E-05   -0.57775E-05  4680   0.119E-02    0.748E-03
DAV:   3    -0.851436120445E+03    0.47220E-06   -0.16920E-06  3960   0.280E-03    0.361E-03
DAV:   4    -0.851436120602E+03   -0.15752E-06   -0.90188E-07  3700   0.184E-03    0.901E-04
DAV:   5    -0.851436120635E+03   -0.32829E-07   -0.25313E-07  3160   0.121E-03    0.536E-04
DAV:   6    -0.851436120628E+03    0.71668E-08   -0.93458E-08  3280   0.783E-04
  21 F= -.85932353E+03 E0= -.85932353E+03  d E =-.101728E-03  mag=     0.0000
       N       E                     dE             d eps       ncg     rms          rms(c)
DAV:   1    -0.851436268006E+03   -0.14737E-03   -0.55968E-03  4480   0.125E-01    0.154E-02
DAV:   2    -0.851436274374E+03   -0.63679E-05   -0.92674E-05  4720   0.149E-02    0.948E-03
DAV:   3    -0.851436273635E+03    0.73901E-06   -0.28381E-06  4400   0.354E-03    0.465E-03
DAV:   4    -0.851436273872E+03   -0.23685E-06   -0.12591E-06  3900   0.219E-03    0.117E-03
DAV:   5    -0.851436273928E+03   -0.56112E-07   -0.36703E-07  3440   0.148E-03    0.629E-04
DAV:   6    -0.851436273911E+03    0.16284E-07   -0.14014E-07  3360   0.978E-04
  22 F= -.85932369E+03 E0= -.85932369E+03  d E =-.153708E-03  mag=     0.0000
       N       E                     dE             d eps       ncg     rms          rms(c)
DAV:   1    -0.851436483288E+03   -0.20936E-03   -0.84561E-03  4480   0.151E-01    0.193E-02
DAV:   2    -0.851436493196E+03   -0.99089E-05   -0.14127E-04  4680   0.180E-02    0.118E-02
DAV:   3    -0.851436492155E+03    0.10411E-05   -0.43197E-06  4600   0.432E-03    0.583E-03
DAV:   4    -0.851436492618E+03   -0.46242E-06   -0.17549E-06  3960   0.259E-03    0.147E-03
DAV:   5    -0.851436492711E+03   -0.92848E-07   -0.52927E-07  3480   0.179E-03    0.739E-04
DAV:   6    -0.851436492685E+03    0.25539E-07   -0.20174E-07  3400   0.119E-03
  23 F= -.85932390E+03 E0= -.85932390E+03  d E =-.213138E-03  mag=     0.0000
       N       E                     dE             d eps       ncg     rms          rms(c)
DAV:   1    -0.851436797044E+03   -0.30433E-03   -0.12945E-02  4480   0.180E-01    0.242E-02
DAV:   2    -0.851436812777E+03   -0.15733E-04   -0.21840E-04  4680   0.214E-02    0.147E-02
DAV:   3    -0.851436811347E+03    0.14291E-05   -0.56897E-06  4600   0.492E-03    0.740E-03
DAV:   4    -0.851436812444E+03   -0.10964E-05   -0.27701E-06  4080   0.315E-03    0.176E-03
DAV:   5    -0.851436812599E+03   -0.15508E-06   -0.89858E-07  3760   0.228E-03    0.874E-04
DAV:   6    -0.851436812526E+03    0.72971E-07   -0.28661E-07  3280   0.144E-03
  24 F= -.85932421E+03 E0= -.85932421E+03  d E =-.306505E-03  mag=     0.0000
       N       E                     dE             d eps       ncg     rms          rms(c)
DAV:   1    -0.851437247785E+03   -0.43519E-03   -0.20388E-02  4480   0.219E-01    0.310E-02
DAV:   2    -0.851437273613E+03   -0.25829E-04   -0.35602E-04  4640   0.261E-02    0.187E-02
DAV:   3    -0.851437271477E+03    0.21368E-05   -0.79414E-06  4600   0.567E-03    0.971E-03
DAV:   4    -0.851437273942E+03   -0.24650E-05   -0.50546E-06  4240   0.399E-03    0.219E-03
DAV:   5    -0.851437274198E+03   -0.25629E-06   -0.16590E-06  3940   0.302E-03    0.108E-03
DAV:   6    -0.851437274005E+03    0.19262E-06   -0.41960E-07  3300   0.177E-03
  25 F= -.85932464E+03 E0= -.85932464E+03  d E =-.437728E-03  mag=     0.0000
       N       E                     dE             d eps       ncg     rms          rms(c)
DAV:   1    -0.851437884540E+03   -0.61034E-03   -0.34689E-02  4480   0.276E-01    0.410E-02
DAV:   2    -0.851437929849E+03   -0.45309E-04   -0.63056E-04  4600   0.334E-02    0.245E-02
DAV:   3    -0.851437926006E+03    0.38430E-05   -0.12704E-05  4760   0.691E-03    0.131E-02
DAV:   4    -0.851437931423E+03   -0.54167E-05   -0.97466E-06  4320   0.523E-03    0.283E-03
DAV:   5    -0.851437931768E+03   -0.34587E-06   -0.28987E-06  4120   0.387E-03    0.139E-03
DAV:   6    -0.851437931445E+03    0.32292E-06   -0.56986E-07  3480   0.206E-03
  26 F= -.85932527E+03 E0= -.85932527E+03  d E =-.621389E-03  mag=     0.0000
       N       E                     dE             d eps       ncg     rms          rms(c)
DAV:   1    -0.851438649382E+03   -0.71761E-03   -0.56320E-02  4480   0.347E-01    0.531E-02
DAV:   2    -0.851438722581E+03   -0.73199E-04   -0.10312E-03  4600   0.420E-02    0.312E-02
DAV:   3    -0.851438716446E+03    0.61353E-05   -0.20240E-05  4840   0.857E-03    0.167E-02
DAV:   4    -0.851438725523E+03   -0.90771E-05   -0.16193E-05  4540   0.662E-03    0.356E-03
DAV:   5    -0.851438725912E+03   -0.38835E-06   -0.43850E-06  4240   0.474E-03    0.176E-03
DAV:   6    -0.851438725488E+03    0.42356E-06   -0.80557E-07  3880   0.239E-03
  27 F= -.85932601E+03 E0= -.85932601E+03  d E =-.745180E-03  mag=     0.0000
       N       E                     dE             d eps       ncg     rms          rms(c)
DAV:   1    -0.851439533191E+03   -0.80728E-03   -0.70948E-02  4480   0.399E-01    0.616E-02
DAV:   2    -0.851439622342E+03   -0.89151E-04   -0.12554E-03  4760   0.482E-02    0.356E-02
DAV:   3    -0.851439615906E+03    0.64355E-05   -0.26574E-05  4920   0.101E-02    0.185E-02
DAV:   4    -0.851439624985E+03   -0.90788E-05   -0.17603E-05  4600   0.721E-03    0.402E-03
DAV:   5    -0.851439625541E+03   -0.55606E-06   -0.53824E-06  4440   0.544E-03    0.195E-03
DAV:   6    -0.851439624900E+03    0.64155E-06   -0.10213E-06  3980   0.272E-03
  28 F= -.85932685E+03 E0= -.85932685E+03  d E =-.843596E-03  mag=     0.0000
       N       E                     dE             d eps       ncg     rms          rms(c)
DAV:   1    -0.851440425427E+03   -0.79989E-03   -0.81029E-02  4480   0.449E-01    0.664E-02
DAV:   2    -0.851440524128E+03   -0.98701E-04   -0.13908E-03  4760   0.541E-02    0.398E-02
DAV:   3    -0.851440516742E+03    0.73856E-05   -0.36563E-05  4920   0.123E-02    0.196E-02
DAV:   4    -0.851440525527E+03   -0.87848E-05   -0.17952E-05  4640   0.756E-03    0.469E-03
DAV:   5    -0.851440525966E+03   -0.43870E-06   -0.53936E-06  4720   0.536E-03    0.212E-03
DAV:   6    -0.851440525710E+03    0.25614E-06   -0.10826E-06  4180   0.280E-03
  29 F= -.85932770E+03 E0= -.85932770E+03  d E =-.849121E-03  mag=     0.0000
       N       E                     dE             d eps       ncg     rms          rms(c)
DAV:   1    -0.851441258762E+03   -0.73280E-03   -0.10287E-01  4480   0.519E-01    0.726E-02
DAV:   2    -0.851441383822E+03   -0.12506E-03   -0.17918E-03  4680   0.629E-02    0.447E-02
DAV:   3    -0.851441372162E+03    0.11660E-04   -0.48839E-05  4920   0.141E-02    0.220E-02
DAV:   4    -0.851441384081E+03   -0.11919E-04   -0.24896E-05  4600   0.864E-03    0.535E-03
DAV:   5    -0.851441384438E+03   -0.35633E-06   -0.68323E-06  4760   0.556E-03    0.246E-03
DAV:   6    -0.851441384435E+03    0.28667E-08   -0.92453E-07  4200   0.246E-03
  30 F= -.85932853E+03 E0= -.85932853E+03  d E =-.826182E-03  mag=     0.0000
       N       E                     dE             d eps       ncg     rms          rms(c)
DAV:   1    -0.851441849041E+03   -0.46460E-03   -0.13843E-01  4480   0.625E-01    0.829E-02
DAV:   2    -0.851442008147E+03   -0.15911E-03   -0.24269E-03  4680   0.766E-02    0.514E-02
DAV:   3    -0.851441989644E+03    0.18503E-04   -0.72423E-05  5100   0.171E-02    0.248E-02
DAV:   4    -0.851442002519E+03   -0.12875E-04   -0.35087E-05  4720   0.103E-02    0.583E-03
DAV:   5    -0.851442002768E+03   -0.24866E-06   -0.87813E-06  4760   0.623E-03    0.287E-03
DAV:   6    -0.851442002754E+03    0.13446E-07   -0.91540E-07  4080   0.228E-03
  31 F= -.85932915E+03 E0= -.85932915E+03  d E =-.618053E-03  mag=    -0.0000
       N       E                     dE             d eps       ncg     rms          rms(c)
DAV:   1    -0.851442117781E+03   -0.11501E-03   -0.17502E-01  4480   0.736E-01    0.924E-02
DAV:   2    -0.851442276421E+03   -0.15864E-03   -0.27593E-03  4600   0.889E-02    0.583E-02
DAV:   3    -0.851442251305E+03    0.25117E-04   -0.11848E-04  4960   0.224E-02    0.232E-02
DAV:   4    -0.851442259569E+03   -0.82645E-05   -0.37503E-05  4940   0.105E-02    0.626E-03
DAV:   5    -0.851442259299E+03    0.26979E-06   -0.68787E-06  4720   0.577E-03    0.290E-03
DAV:   6    -0.851442259470E+03   -0.17057E-06   -0.10870E-06  4160   0.266E-03
  32 F= -.85932945E+03 E0= -.85932945E+03  d E =-.304304E-03  mag=    -0.0000
       N       E                     dE             d eps       ncg     rms          rms(c)
DAV:   1    -0.851441754954E+03    0.50435E-03   -0.25568E-01  4480   0.906E-01    0.109E-01
DAV:   2    -0.851441936606E+03   -0.18165E-03   -0.37284E-03  4680   0.108E-01    0.716E-02
DAV:   3    -0.851441895603E+03    0.41003E-04   -0.23258E-04  4860   0.318E-02    0.202E-02
DAV:   4    -0.851441905486E+03   -0.98834E-05   -0.58677E-05  4920   0.119E-02    0.766E-03
DAV:   5    -0.851441905291E+03    0.19510E-06   -0.54173E-06  4720   0.481E-03    0.304E-03
DAV:   6    -0.851441905704E+03   -0.41254E-06   -0.11376E-06  3940   0.257E-03
  33 F= -.85932921E+03 E0= -.85932921E+03  d E =0.242692E-03  mag=     0.0000
       N       E                     dE             d eps       ncg     rms          rms(c)
DAV:   1    -0.851440716418E+03    0.11889E-02   -0.41690E-01  4480   0.116E+00    0.138E-01
DAV:   2    -0.851440967586E+03   -0.25117E-03   -0.58318E-03  4760   0.137E-01    0.921E-02
DAV:   3    -0.851440898491E+03    0.69095E-04   -0.44025E-04  4860   0.435E-02    0.194E-02
DAV:   4    -0.851440911135E+03   -0.12644E-04   -0.10865E-04  5000   0.156E-02    0.938E-03
DAV:   5    -0.851440911422E+03   -0.28742E-06   -0.68313E-06  4920   0.528E-03    0.338E-03
DAV:   6    -0.851440911818E+03   -0.39599E-06   -0.13883E-06  4020   0.287E-03
  34 F= -.85932840E+03 E0= -.85932840E+03  d E =0.806715E-03  mag=     0.0000
       N       E                     dE             d eps       ncg     rms          rms(c)
DAV:   1    -0.851438941343E+03    0.19701E-02   -0.70559E-01  4480   0.149E+00    0.175E-01
DAV:   2    -0.851439421365E+03   -0.48002E-03   -0.10379E-02  4720   0.177E-01    0.119E-01
DAV:   3    -0.851439294709E+03    0.12666E-03   -0.64308E-04  4780   0.521E-02    0.331E-02
DAV:   4    -0.851439325061E+03   -0.30352E-04   -0.16700E-04  5040   0.194E-02    0.121E-02
DAV:   5    -0.851439326595E+03   -0.15345E-05   -0.10440E-05  4920   0.667E-03    0.377E-03
DAV:   6    -0.851439327013E+03   -0.41748E-06   -0.20831E-06  4600   0.361E-03
  35 F= -.85932706E+03 E0= -.85932706E+03  d E =0.134663E-02  mag=     0.0000
       N       E                     dE             d eps       ncg     rms          rms(c)
DAV:   1    -0.851436390852E+03    0.29357E-02   -0.86856E-01  4480   0.168E+00    0.199E-01
DAV:   2    -0.851437022947E+03   -0.63210E-03   -0.13532E-02  4800   0.205E-01    0.135E-01
DAV:   3    -0.851436836081E+03    0.18687E-03   -0.88267E-04  5060   0.610E-02    0.394E-02
DAV:   4    -0.851436866555E+03   -0.30473E-04   -0.21353E-04  5040   0.223E-02    0.142E-02
DAV:   5    -0.851436870278E+03   -0.37238E-05   -0.12453E-05  4900   0.737E-03    0.447E-03
DAV:   6    -0.851436871371E+03   -0.10928E-05   -0.30043E-06  4580   0.483E-03    0.182E-03
DAV:   7    -0.851436871636E+03   -0.26503E-06   -0.14790E-06  4200   0.351E-03
  36 F= -.85932486E+03 E0= -.85932486E+03  d E =0.219627E-02  mag=    -0.0000
       N       E                     dE             d eps       ncg     rms          rms(c)
DAV:   1    -0.851437877234E+03   -0.10059E-02   -0.46970E-02  4880   0.348E-01    0.492E-02
DAV:   2    -0.851437966999E+03   -0.89766E-04   -0.14539E-03  4840   0.512E-02    0.371E-02
DAV:   3    -0.851437950280E+03    0.16719E-04   -0.42339E-05  5280   0.114E-02    0.228E-02
DAV:   4    -0.851437952896E+03   -0.26161E-05   -0.18623E-05  4840   0.670E-03    0.651E-03
DAV:   5    -0.851437954500E+03   -0.16038E-05   -0.42562E-06  4560   0.321E-03    0.210E-03
DAV:   6    -0.851437954859E+03   -0.35945E-06   -0.52164E-07  3920   0.146E-03
  37 F= -.85932594E+03 E0= -.85932594E+03  d E =-.107649E-02  mag=    -0.0000
       N       E                     dE             d eps       ncg     rms          rms(c)
DAV:   1    -0.851437425164E+03    0.52934E-03   -0.40987E-02  5040   0.344E-01    0.477E-02
DAV:   2    -0.851437501510E+03   -0.76346E-04   -0.12706E-03  4880   0.507E-02    0.359E-02
DAV:   3    -0.851437485798E+03    0.15712E-04   -0.44480E-05  5320   0.120E-02    0.215E-02
DAV:   4    -0.851437486292E+03   -0.49348E-06   -0.15258E-05  4600   0.637E-03    0.643E-03
DAV:   5    -0.851437487603E+03   -0.13110E-05   -0.32778E-06  4440   0.315E-03    0.197E-03
DAV:   6    -0.851437488243E+03   -0.64044E-06   -0.54754E-07  3920   0.164E-03
  38 F= -.85932545E+03 E0= -.85932545E+03  d E =0.487434E-03  mag=    -0.0000
       N       E                     dE             d eps       ncg     rms          rms(c)
DAV:   1    -0.851437830596E+03   -0.34299E-03   -0.29841E-03  4880   0.815E-02    0.117E-02
DAV:   2    -0.851437836449E+03   -0.58533E-05   -0.86368E-05  4880   0.117E-02    0.881E-03
DAV:   3    -0.851437835937E+03    0.51258E-06   -0.20149E-06  4360   0.255E-03    0.550E-03
DAV:   4    -0.851437837159E+03   -0.12222E-05   -0.14430E-06  4240   0.207E-03    0.141E-03
DAV:   5    -0.851437837578E+03   -0.41878E-06   -0.42500E-07  3880   0.139E-03    0.630E-04
DAV:   6    -0.851437837876E+03   -0.29872E-06   -0.11012E-07  3320   0.889E-04
  39 F= -.85932580E+03 E0= -.85932580E+03  d E =-.347370E-03  mag=     0.0000
       N       E                     dE             d eps       ncg     rms          rms(c)
DAV:   1    -0.851438226718E+03   -0.38914E-03   -0.96812E-03  4840   0.146E-01    0.209E-02
DAV:   2    -0.851438244553E+03   -0.17836E-04   -0.28089E-04  4760   0.209E-02    0.156E-02
DAV:   3    -0.851438241637E+03    0.29166E-05   -0.63178E-06  4900   0.434E-03    0.982E-03
DAV:   4    -0.851438243360E+03   -0.17231E-05   -0.41272E-06  4320   0.302E-03    0.250E-03
DAV:   5    -0.851438243762E+03   -0.40277E-06   -0.96260E-07  3800   0.146E-03    0.965E-04
DAV:   6    -0.851438243840E+03   -0.77453E-07   -0.10693E-07  3160   0.724E-04
  40 F= -.85932620E+03 E0= -.85932620E+03  d E =-.401164E-03  mag=     0.0000
       N       E                     dE             d eps       ncg     rms          rms(c)
DAV:   1    -0.851438361363E+03   -0.11760E-03   -0.13883E-02  4760   0.176E-01    0.249E-02
DAV:   2    -0.851438386070E+03   -0.24707E-04   -0.39772E-04  4920   0.251E-02    0.186E-02
DAV:   3    -0.851438381527E+03    0.45429E-05   -0.91683E-06  5120   0.526E-03    0.116E-02
DAV:   4    -0.851438383545E+03   -0.20181E-05   -0.57831E-06  4240   0.362E-03    0.299E-03
DAV:   5    -0.851438384071E+03   -0.52604E-06   -0.13620E-06  3980   0.183E-03    0.112E-03
DAV:   6    -0.851438384226E+03   -0.15456E-06   -0.16422E-07  3180   0.975E-04
  41 F= -.85932633E+03 E0= -.85932633E+03  d E =-.132852E-03  mag=     0.0000
       N       E                     dE             d eps       ncg     rms          rms(c)
DAV:   1    -0.851438393449E+03   -0.93773E-05   -0.38038E-06  4380   0.360E-03    0.678E-04
DAV:   2    -0.851438393508E+03   -0.59794E-07   -0.18141E-07  3620   0.108E-03    0.542E-04
DAV:   3    -0.851438393584E+03   -0.75779E-07   -0.58018E-08  3140   0.661E-04    0.426E-04
DAV:   4    -0.851438393664E+03   -0.80247E-07   -0.34428E-08  3300   0.515E-04    0.381E-04
DAV:   5    -0.851438393719E+03   -0.54097E-07   -0.67031E-09  3340   0.239E-04    0.369E-04
DAV:   6    -0.851438393820E+03   -0.10098E-06    0.10799E-10  3280   0.796E-05
  42 F= -.85932634E+03 E0= -.85932634E+03  d E =-.913182E-05  mag=     0.0000
       N       E                     dE             d eps       ncg     rms          rms(c)
DAV:   1    -0.851438411895E+03   -0.18176E-04   -0.14463E-05  4720   0.692E-03    0.100E-03
DAV:   2    -0.851438411945E+03   -0.50015E-07   -0.41437E-07  3720   0.101E-03    0.818E-04
DAV:   3    -0.851438411961E+03   -0.15774E-07   -0.26377E-08  3080   0.343E-04    0.538E-04
DAV:   4    -0.851438411986E+03   -0.25844E-07   -0.78405E-09  3200   0.198E-04    0.378E-04
DAV:   5    -0.851438412001E+03   -0.14712E-07   -0.15492E-10  3200   0.117E-04    0.368E-04
DAV:   6    -0.851438412008E+03   -0.65120E-08    0.20654E-09  3200   0.668E-05
  43 F= -.85932636E+03 E0= -.85932636E+03  d E =-.172144E-04  mag=    -0.0000
       N       E                     dE             d eps       ncg     rms          rms(c)
DAV:   1    -0.851438438491E+03   -0.26490E-04   -0.29706E-05  4680   0.998E-03    0.143E-03
DAV:   2    -0.851438438543E+03   -0.52336E-07   -0.79808E-07  3520   0.140E-03    0.113E-03
DAV:   3    -0.851438438537E+03    0.68540E-08   -0.58471E-08  3120   0.492E-04    0.652E-04
DAV:   4    -0.851438438539E+03   -0.29322E-08   -0.17072E-08  3200   0.265E-04    0.390E-04
DAV:   5    -0.851438438541E+03   -0.18190E-08   -0.15497E-09  3120   0.130E-04    0.369E-04
DAV:   6    -0.851438438542E+03   -0.53114E-09    0.19176E-09  3240   0.707E-05
  44 F= -.85932638E+03 E0= -.85932638E+03  d E =-.249683E-04  mag=    -0.0000
       N       E                     dE             d eps       ncg     rms          rms(c)
DAV:   1    -0.851438472875E+03   -0.34334E-04   -0.46623E-05  4840   0.126E-02    0.180E-03
DAV:   2    -0.851438472944E+03   -0.68620E-07   -0.11888E-06  3480   0.175E-03    0.140E-03
DAV:   3    -0.851438472928E+03    0.16465E-07   -0.98053E-08  3160   0.634E-04    0.729E-04
DAV:   4    -0.851438472927E+03    0.10041E-08   -0.26812E-08  3120   0.326E-04    0.403E-04
DAV:   5    -0.851438472928E+03   -0.13679E-08   -0.44028E-09  3160   0.175E-04    0.371E-04
DAV:   6    -0.851438472929E+03   -0.13897E-08    0.44851E-10  3280   0.116E-04
  45 F= -.85932641E+03 E0= -.85932641E+03  d E =-.321385E-04  mag=    -0.0000
       N       E                     dE             d eps       ncg     rms          rms(c)
DAV:   1    -0.851438515076E+03   -0.42148E-04   -0.63924E-05  4840   0.147E-02    0.214E-03
DAV:   2    -0.851438515158E+03   -0.81876E-07   -0.14821E-06  3480   0.200E-03    0.162E-03
DAV:   3    -0.851438515139E+03    0.19201E-07   -0.14083E-07  3200   0.765E-04    0.739E-04
DAV:   4    -0.851438515140E+03   -0.96043E-09   -0.34093E-08  3080   0.368E-04    0.412E-04
DAV:   5    -0.851438515142E+03   -0.20955E-08   -0.66726E-09  3080   0.206E-04    0.373E-04
DAV:   6    -0.851438515145E+03   -0.28667E-08   -0.11680E-09  3260   0.151E-04
  46 F= -.85932645E+03 E0= -.85932645E+03  d E =-.391729E-04  mag=     0.0000
       N       E                     dE             d eps       ncg     rms          rms(c)
DAV:   1    -0.851438565589E+03   -0.50448E-04   -0.83436E-05  4600   0.167E-02    0.248E-03
DAV:   2    -0.851438565675E+03   -0.85929E-07   -0.16584E-06  3520   0.217E-03    0.180E-03
DAV:   3    -0.851438565658E+03    0.17564E-07   -0.17663E-07  3200   0.872E-04    0.679E-04
DAV:   4    -0.851438565660E+03   -0.26339E-08   -0.37143E-08  3080   0.390E-04    0.419E-04
DAV:   5    -0.851438565664E+03   -0.32596E-08   -0.76200E-09  3040   0.223E-04    0.374E-04
DAV:   6    -0.851438565668E+03   -0.42055E-08   -0.24502E-09  3240   0.178E-04
  47 F= -.85932650E+03 E0= -.85932650E+03  d E =-.465483E-04  mag=    -0.0000
       N       E                     dE             d eps       ncg     rms          rms(c)
DAV:   1    -0.851438632603E+03   -0.66940E-04   -0.14146E-04  4480   0.212E-02    0.318E-03
DAV:   2    -0.851438632724E+03   -0.12077E-06   -0.23459E-06  4000   0.261E-03    0.220E-03
DAV:   3    -0.851438632707E+03    0.16931E-07   -0.19730E-07  3160   0.951E-04    0.697E-04
DAV:   4    -0.851438632712E+03   -0.41910E-08   -0.48309E-08  3120   0.429E-04    0.435E-04
DAV:   5    -0.851438632716E+03   -0.40236E-08   -0.10556E-08  3080   0.253E-04    0.377E-04
DAV:   6    -0.851438632721E+03   -0.59372E-08   -0.42089E-09  3200   0.206E-04
  48 F= -.85932656E+03 E0= -.85932656E+03  d E =-.614523E-04  mag=     0.0000
       N       E                     dE             d eps       ncg     rms          rms(c)
DAV:   1    -0.851438722397E+03   -0.89681E-04   -0.26354E-04  4480   0.277E-02    0.417E-03
DAV:   2    -0.851438722606E+03   -0.20880E-06   -0.38830E-06  4400   0.329E-03    0.279E-03
DAV:   3    -0.851438722597E+03    0.85347E-08   -0.22125E-07  3160   0.103E-03    0.922E-04
DAV:   4    -0.851438722608E+03   -0.11016E-07   -0.67233E-08  3160   0.501E-04    0.462E-04
DAV:   5    -0.851438722614E+03   -0.57626E-08   -0.16916E-08  3080   0.324E-04    0.382E-04
DAV:   6    -0.851438722621E+03   -0.74797E-08   -0.72367E-09  3120   0.247E-04
  49 F= -.85932664E+03 E0= -.85932664E+03  d E =-.821765E-04  mag=     0.0000
       N       E                     dE             d eps       ncg     rms          rms(c)
DAV:   1    -0.851438843509E+03   -0.12090E-03   -0.53056E-04  4480   0.374E-02    0.561E-03
DAV:   2    -0.851438843967E+03   -0.45710E-06   -0.78889E-06  4600   0.440E-03    0.367E-03
DAV:   3    -0.851438843966E+03    0.58208E-09   -0.27634E-07  3080   0.116E-03    0.144E-03
DAV:   4    -0.851438844014E+03   -0.48167E-07   -0.12118E-07  3200   0.657E-04    0.507E-04
DAV:   5    -0.851438844023E+03   -0.86438E-08   -0.35681E-08  3000   0.472E-04    0.391E-04
DAV:   6    -0.851438844025E+03   -0.22192E-08   -0.10308E-08  3280   0.279E-04
  50 F= -.85932675E+03 E0= -.85932675E+03  d E =-.110893E-03  mag=     0.0000
       N       E                     dE             d eps       ncg     rms          rms(c)
DAV:   1    -0.851439006894E+03   -0.16287E-03   -0.10668E-03  4480   0.509E-02    0.764E-03
DAV:   2    -0.851439007908E+03   -0.10146E-05   -0.16793E-05  4560   0.600E-03    0.497E-03
DAV:   3    -0.851439007901E+03    0.68976E-08   -0.47966E-07  3520   0.143E-03    0.221E-03
DAV:   4    -0.851439008053E+03   -0.15157E-06   -0.26543E-07  3520   0.893E-04    0.603E-04
DAV:   5    -0.851439008068E+03   -0.15199E-07   -0.68691E-08  3040   0.619E-04    0.415E-04
DAV:   6    -0.851439008066E+03    0.23720E-08   -0.19221E-08  3160   0.355E-04
  51 F= -.85932690E+03 E0= -.85932690E+03  d E =-.150051E-03  mag=    -0.0000
       N       E                     dE             d eps       ncg     rms          rms(c)
DAV:   1    -0.851439217323E+03   -0.20925E-03   -0.19981E-03  4480   0.683E-02    0.102E-02
DAV:   2    -0.851439219355E+03   -0.20318E-05   -0.32823E-05  4680   0.808E-03    0.666E-03
DAV:   3    -0.851439219307E+03    0.47279E-07   -0.83839E-07  3680   0.185E-03    0.311E-03
DAV:   4    -0.851439219641E+03   -0.33352E-06   -0.52564E-07  3760   0.121E-03    0.743E-04
DAV:   5    -0.851439219666E+03   -0.25138E-07   -0.13403E-07  3000   0.840E-04    0.452E-04
DAV:   6    -0.851439219658E+03    0.77780E-08   -0.38103E-08  3180   0.492E-04
  52 F= -.85932710E+03 E0= -.85932710E+03  d E =-.193391E-03  mag=    -0.0000
       N       E                     dE             d eps       ncg     rms          rms(c)
DAV:   1    -0.851439489731E+03   -0.27006E-03   -0.35041E-03  4480   0.895E-02    0.134E-02
DAV:   2    -0.851439493396E+03   -0.36655E-05   -0.58883E-05  4640   0.106E-02    0.874E-03
DAV:   3    -0.851439493294E+03    0.10244E-06   -0.14548E-06  3960   0.238E-03    0.416E-03
DAV:   4    -0.851439493928E+03   -0.63401E-06   -0.91959E-07  3980   0.157E-03    0.924E-04
DAV:   5    -0.851439493969E+03   -0.40993E-07   -0.22976E-07  3320   0.107E-03    0.513E-04
DAV:   6    -0.851439493951E+03    0.18321E-07   -0.59453E-08  3240   0.619E-04
  53 F= -.85932735E+03 E0= -.85932735E+03  d E =-.250703E-03  mag=    -0.0000
       N       E                     dE             d eps       ncg     rms          rms(c)
DAV:   1    -0.851439834612E+03   -0.34064E-03   -0.55905E-03  4480   0.113E-01    0.170E-02
DAV:   2    -0.851439840348E+03   -0.57359E-05   -0.93171E-05  4640   0.134E-02    0.111E-02
DAV:   3    -0.851439840264E+03    0.84263E-07   -0.23806E-06  4240   0.303E-03    0.520E-03
DAV:   4    -0.851439841256E+03   -0.99243E-06   -0.14004E-06  4080   0.194E-03    0.112E-03
DAV:   5    -0.851439841327E+03   -0.70679E-07   -0.36125E-07  3560   0.138E-03    0.585E-04
DAV:   6    -0.851439841287E+03    0.39967E-07   -0.95873E-08  3160   0.808E-04
  54 F= -.85932767E+03 E0= -.85932767E+03  d E =-.317282E-03  mag=    -0.0000
       N       E                     dE             d eps       ncg     rms          rms(c)
DAV:   1    -0.851440269012E+03   -0.42768E-03   -0.85385E-03  4480   0.141E-01    0.211E-02
DAV:   2    -0.851440277505E+03   -0.84933E-05   -0.13995E-04  4640   0.167E-02    0.137E-02
DAV:   3    -0.851440277484E+03    0.21595E-07   -0.37355E-06  4640   0.379E-03    0.633E-03
DAV:   4    -0.851440278967E+03   -0.14837E-05   -0.19957E-06  4200   0.231E-03    0.136E-03
DAV:   5    -0.851440279065E+03   -0.97200E-07   -0.49471E-07  3720   0.161E-03    0.663E-04
DAV:   6    -0.851440279012E+03    0.52991E-07   -0.12315E-07  3180   0.932E-04
  55 F= -.85932806E+03 E0= -.85932806E+03  d E =-.399699E-03  mag=    -0.0000
       N       E                     dE             d eps       ncg     rms          rms(c)
DAV:   1    -0.851440801958E+03   -0.52289E-03   -0.12100E-02  4480   0.170E-01    0.256E-02
DAV:   2    -0.851440813453E+03   -0.11495E-04   -0.19257E-04  4660   0.201E-02    0.164E-02
DAV:   3    -0.851440813491E+03   -0.37639E-07   -0.54501E-06  4600   0.462E-03    0.739E-03
DAV:   4    -0.851440815460E+03   -0.19689E-05   -0.27080E-06  4320   0.273E-03    0.161E-03
DAV:   5    -0.851440815587E+03   -0.12684E-06   -0.65307E-07  3740   0.189E-03    0.754E-04
DAV:   6    -0.851440815511E+03    0.75437E-07   -0.15986E-07  3240   0.105E-03
  56 F= -.85932855E+03 E0= -.85932855E+03  d E =-.490142E-03  mag=    -0.0000
       N       E                     dE             d eps       ncg     rms          rms(c)
DAV:   1    -0.851441437169E+03   -0.62158E-03   -0.16041E-02  4480   0.200E-01    0.302E-02
DAV:   2    -0.851441451580E+03   -0.14411E-04   -0.24606E-04  4680   0.236E-02    0.191E-02
DAV:   3    -0.851441451753E+03   -0.17392E-06   -0.75718E-06  4680   0.553E-03    0.824E-03
DAV:   4    -0.851441453969E+03   -0.22154E-05   -0.33640E-06  4520   0.308E-03    0.186E-03
DAV:   5    -0.851441454118E+03   -0.14916E-06   -0.72583E-07  3900   0.202E-03    0.816E-04
DAV:   6    -0.851441454073E+03    0.45075E-07   -0.19325E-07  3360   0.115E-03
  57 F= -.85932914E+03 E0= -.85932914E+03  d E =-.584616E-03  mag=    -0.0000
       N       E                     dE             d eps       ncg     rms          rms(c)
DAV:   1    -0.851442162557E+03   -0.70844E-03   -0.21388E-02  4480   0.233E-01    0.349E-02
DAV:   2    -0.851442181913E+03   -0.19356E-04   -0.32623E-04  4680   0.275E-02    0.220E-02
DAV:   3    -0.851442181947E+03   -0.34670E-07   -0.10325E-05  4840   0.653E-03    0.943E-03
DAV:   4    -0.851442184789E+03   -0.28419E-05   -0.44970E-06  4580   0.363E-03    0.216E-03
DAV:   5    -0.851442185033E+03   -0.24313E-06   -0.10115E-06  3920   0.247E-03    0.927E-04
DAV:   6    -0.851442184959E+03    0.73065E-07   -0.31980E-07  3480   0.151E-03
  58 F= -.85932981E+03 E0= -.85932981E+03  d E =-.670514E-03  mag=    -0.0000
       N       E                     dE             d eps       ncg     rms          rms(c)
DAV:   1    -0.851442960473E+03   -0.77544E-03   -0.27881E-02  4480   0.264E-01    0.386E-02
DAV:   2    -0.851442988336E+03   -0.27862E-04   -0.43769E-04  4720   0.312E-02    0.248E-02
DAV:   3    -0.851442987870E+03    0.46565E-06   -0.13105E-05  4860   0.737E-03    0.109E-02
DAV:   4    -0.851442992007E+03   -0.41372E-05   -0.61035E-06  4560   0.421E-03    0.241E-03
DAV:   5    -0.851442992348E+03   -0.34049E-06   -0.14618E-06  4120   0.293E-03    0.104E-03
DAV:   6    -0.851442992238E+03    0.11017E-06   -0.46812E-07  3440   0.189E-03
  59 F= -.85933055E+03 E0= -.85933055E+03  d E =-.740503E-03  mag=    -0.0000
       N       E                     dE             d eps       ncg     rms          rms(c)
DAV:   1    -0.851443825731E+03   -0.83338E-03   -0.35105E-02  4480   0.297E-01    0.421E-02
DAV:   2    -0.851443864242E+03   -0.38511E-04   -0.57104E-04  4800   0.353E-02    0.274E-02
DAV:   3    -0.851443862868E+03    0.13733E-05   -0.16658E-05  4900   0.832E-03    0.123E-02
DAV:   4    -0.851443868099E+03   -0.52310E-05   -0.78263E-06  4560   0.483E-03    0.267E-03
DAV:   5    -0.851443868527E+03   -0.42773E-06   -0.18677E-06  4240   0.332E-03    0.115E-03
DAV:   6    -0.851443868471E+03    0.55807E-07   -0.73477E-07  3800   0.242E-03
  60 F= -.85933136E+03 E0= -.85933136E+03  d E =-.806373E-03  mag=    -0.0000
       N       E                     dE             d eps       ncg     rms          rms(c)
DAV:   1    -0.851444759761E+03   -0.89123E-03   -0.43680E-02  4480   0.337E-01    0.465E-02
DAV:   2    -0.851444807423E+03   -0.47663E-04   -0.70411E-04  4760   0.401E-02    0.301E-02
DAV:   3    -0.851444805461E+03    0.19629E-05   -0.21696E-05  4920   0.957E-03    0.134E-02
DAV:   4    -0.851444811288E+03   -0.58272E-05   -0.96476E-06  4560   0.540E-03    0.297E-03
DAV:   5    -0.851444811716E+03   -0.42853E-06   -0.20982E-06  4280   0.351E-03    0.125E-03
DAV:   6    -0.851444811716E+03    0.94587E-10   -0.79892E-07  3800   0.252E-03
  61 F= -.85933223E+03 E0= -.85933223E+03  d E =-.873090E-03  mag=    -0.0000
       N       E                     dE             d eps       ncg     rms          rms(c)
DAV:   1    -0.851445634197E+03   -0.82248E-03   -0.43904E-02  4480   0.352E-01    0.468E-02
DAV:   2    -0.851445675407E+03   -0.41210E-04   -0.65268E-04  4840   0.418E-02    0.301E-02
DAV:   3    -0.851445673885E+03    0.15225E-05   -0.26724E-05  4800   0.109E-02    0.114E-02
DAV:   4    -0.851445677396E+03   -0.35107E-05   -0.91614E-06  4800   0.543E-03    0.301E-03
DAV:   5    -0.851445677992E+03   -0.59686E-06   -0.19847E-06  4320   0.377E-03    0.117E-03
DAV:   6    -0.851445677995E+03   -0.21828E-08   -0.12893E-06  4000   0.324E-03
  62 F= -.85933304E+03 E0= -.85933304E+03  d E =-.812702E-03  mag=    -0.0000
       N       E                     dE             d eps       ncg     rms          rms(c)
DAV:   1    -0.851445656038E+03    0.21955E-04   -0.97482E-05  4840   0.180E-02    0.222E-03
DAV:   2    -0.851445656308E+03   -0.26967E-06   -0.17485E-06  4340   0.256E-03    0.152E-03
DAV:   3    -0.851445656594E+03   -0.28656E-06   -0.22027E-07  3240   0.124E-03    0.688E-04
DAV:   4    -0.851445656892E+03   -0.29834E-06   -0.17554E-07  3420   0.112E-03    0.427E-04
DAV:   5    -0.851445657005E+03   -0.11243E-06   -0.99097E-08  3440   0.872E-04    0.390E-04
DAV:   6    -0.851445657229E+03   -0.22378E-06   -0.18403E-08  3120   0.338E-04
  63 F= -.85933303E+03 E0= -.85933303E+03  d E =0.176695E-04  mag=    -0.0000
       N       E                     dE             d eps       ncg     rms          rms(c)
DAV:   1    -0.851445609455E+03    0.47550E-04   -0.37779E-04  4760   0.350E-02    0.429E-03
DAV:   2    -0.851445609854E+03   -0.39834E-06   -0.63325E-06  5160   0.438E-03    0.290E-03
DAV:   3    -0.851445609883E+03   -0.29191E-07   -0.33125E-07  3120   0.128E-03    0.120E-03
DAV:   4    -0.851445609997E+03   -0.11457E-06   -0.13153E-07  3240   0.707E-04    0.507E-04
DAV:   5    -0.851445610060E+03   -0.62530E-07   -0.30909E-08  3200   0.409E-04    0.386E-04
DAV:   6    -0.851445610088E+03   -0.27998E-07   -0.74954E-09  3240   0.214E-04
  64 F= -.85933298E+03 E0= -.85933298E+03  d E =0.408534E-04  mag=    -0.0000
       N       E                     dE             d eps       ncg     rms          rms(c)
DAV:   1    -0.851445531368E+03    0.78692E-04   -0.81159E-04  4560   0.505E-02    0.627E-03
DAV:   2    -0.851445532046E+03   -0.67778E-06   -0.13141E-05  4920   0.621E-03    0.419E-03
DAV:   3    -0.851445531963E+03    0.82742E-07   -0.62617E-07  3280   0.176E-03    0.171E-03
DAV:   4    -0.851445532056E+03   -0.92747E-07   -0.25665E-07  3240   0.970E-04    0.609E-04
DAV:   5    -0.851445532074E+03   -0.18270E-07   -0.64387E-08  3160   0.581E-04    0.410E-04
DAV:   6    -0.851445532079E+03   -0.46639E-08   -0.17268E-08  3440   0.310E-04
  65 F= -.85933292E+03 E0= -.85933292E+03  d E =0.681241E-04  mag=    -0.0000
       N       E                     dE             d eps       ncg     rms          rms(c)
DAV:   1    -0.851445422394E+03    0.10968E-03   -0.13826E-03  4480   0.648E-02    0.818E-03
DAV:   2    -0.851445423465E+03   -0.10718E-05   -0.21666E-05  4760   0.781E-03    0.538E-03
DAV:   3    -0.851445423333E+03    0.13206E-06   -0.91446E-07  3700   0.209E-03    0.221E-03
DAV:   4    -0.851445423475E+03   -0.14183E-06   -0.38453E-07  3240   0.117E-03    0.693E-04
DAV:   5    -0.851445423491E+03   -0.16342E-07   -0.11142E-07  3200   0.782E-04    0.432E-04
DAV:   6    -0.851445423488E+03    0.30050E-08   -0.33381E-08  3220   0.443E-04
  66 F= -.85933282E+03 E0= -.85933282E+03  d E =0.949163E-04  mag=    -0.0000
       N       E                     dE             d eps       ncg     rms          rms(c)
DAV:   1    -0.851445283281E+03    0.14021E-03   -0.21470E-03  4480   0.797E-02    0.102E-02
DAV:   2    -0.851445284896E+03   -0.16149E-05   -0.33299E-05  4680   0.953E-03    0.665E-03
DAV:   3    -0.851445284722E+03    0.17397E-06   -0.13124E-06  3840   0.243E-03    0.279E-03
DAV:   4    -0.851445284955E+03   -0.23345E-06   -0.57458E-07  3560   0.137E-03    0.799E-04
DAV:   5    -0.851445284977E+03   -0.21755E-07   -0.14564E-07  3080   0.914E-04    0.459E-04
DAV:   6    -0.851445284970E+03    0.72469E-08   -0.46244E-08  3040   0.518E-04
  67 F= -.85933270E+03 E0= -.85933270E+03  d E =0.121266E-03  mag=    -0.0000
       N       E                     dE             d eps       ncg     rms          rms(c)
DAV:   1    -0.851445116241E+03    0.16874E-03   -0.30948E-03  4480   0.952E-02    0.124E-02
DAV:   2    -0.851445118524E+03   -0.22822E-05   -0.47733E-05  4640   0.114E-02    0.796E-03
DAV:   3    -0.851445118270E+03    0.25392E-06   -0.18565E-06  4040   0.285E-03    0.334E-03
DAV:   4    -0.851445118614E+03   -0.34387E-06   -0.79427E-07  3760   0.161E-03    0.909E-04
DAV:   5    -0.851445118652E+03   -0.37966E-07   -0.21879E-07  3040   0.115E-03    0.495E-04
DAV:   6    -0.851445118628E+03    0.23239E-07   -0.76287E-08  3040   0.676E-04
  68 F= -.85933255E+03 E0= -.85933255E+03  d E =0.145522E-03  mag=    -0.0000
       N       E                     dE             d eps       ncg     rms          rms(c)
DAV:   1    -0.851444904990E+03    0.21366E-03   -0.51594E-03  4480   0.123E-01    0.160E-02
DAV:   2    -0.851444908814E+03   -0.38244E-05   -0.80298E-05  4640   0.147E-02    0.102E-02
DAV:   3    -0.851444908377E+03    0.43688E-06   -0.31426E-06  4560   0.364E-03    0.434E-03
DAV:   4    -0.851444908939E+03   -0.56145E-06   -0.12300E-06  4000   0.198E-03    0.112E-03
DAV:   5    -0.851444908996E+03   -0.57968E-07   -0.30847E-07  3240   0.137E-03    0.566E-04
DAV:   6    -0.851444908962E+03    0.34925E-07   -0.97150E-08  3100   0.788E-04
  69 F= -.85933237E+03 E0= -.85933237E+03  d E =0.183716E-03  mag=    -0.0000
       N       E                     dE             d eps       ncg     rms          rms(c)
DAV:   1    -0.851444646069E+03    0.26293E-03   -0.78689E-03  4480   0.152E-01    0.196E-02
DAV:   2    -0.851444651732E+03   -0.56631E-05   -0.12090E-04  4640   0.182E-02    0.126E-02
DAV:   3    -0.851444651044E+03    0.68756E-06   -0.49898E-06  4560   0.462E-03    0.518E-03
DAV:   4    -0.851444651830E+03   -0.78583E-06   -0.19233E-06  4460   0.248E-03    0.138E-03
DAV:   5    -0.851444651935E+03   -0.10480E-06   -0.48804E-07  3600   0.180E-03    0.672E-04
DAV:   6    -0.851444651849E+03    0.86082E-07   -0.17085E-07  3200   0.108E-03
  70 F= -.85933214E+03 E0= -.85933214E+03  d E =0.226349E-03  mag=    -0.0000
       N       E                     dE             d eps       ncg     rms          rms(c)
DAV:   1    -0.851444349089E+03    0.30285E-03   -0.11046E-02  4480   0.182E-01    0.231E-02
DAV:   2    -0.851444356754E+03   -0.76648E-05   -0.16737E-04  4640   0.217E-02    0.150E-02
DAV:   3    -0.851444355797E+03    0.95741E-06   -0.73031E-06  4640   0.560E-03    0.586E-03
DAV:   4    -0.851444356805E+03   -0.10088E-05   -0.26596E-06  4540   0.292E-03    0.161E-03
DAV:   5    -0.851444356964E+03   -0.15857E-06   -0.69646E-07  3680   0.218E-03    0.763E-04
DAV:   6    -0.851444356819E+03    0.14457E-06   -0.26917E-07  3320   0.138E-03
  71 F= -.85933188E+03 E0= -.85933188E+03  d E =0.259471E-03  mag=    -0.0000
       N       E                     dE             d eps       ncg     rms          rms(c)
DAV:   1    -0.851444046482E+03    0.31048E-03   -0.14750E-02  4480   0.212E-01    0.263E-02
DAV:   2    -0.851444056763E+03   -0.10281E-04   -0.22241E-04  4640   0.253E-02    0.171E-02
DAV:   3    -0.851444055293E+03    0.14707E-05   -0.10155E-05  4720   0.663E-03    0.649E-03
DAV:   4    -0.851444056454E+03   -0.11617E-05   -0.34975E-06  4540   0.333E-03    0.184E-03
DAV:   5    -0.851444056656E+03   -0.20162E-06   -0.87291E-07  3800   0.246E-03    0.842E-04
DAV:   6    -0.851444056474E+03    0.18191E-06   -0.36634E-07  3340   0.164E-03
  72 F= -.85933162E+03 E0= -.85933162E+03  d E =0.262498E-03  mag=    -0.0000
       N       E                     dE             d eps       ncg     rms          rms(c)
DAV:   1    -0.851443784218E+03    0.27244E-03   -0.18169E-02  4480   0.237E-01    0.287E-02
DAV:   2    -0.851443796924E+03   -0.12706E-04   -0.27296E-04  4660   0.282E-02    0.188E-02
DAV:   3    -0.851443794862E+03    0.20623E-05   -0.13022E-05  4720   0.754E-03    0.686E-03
DAV:   4    -0.851443796095E+03   -0.12334E-05   -0.43214E-06  4780   0.369E-03    0.202E-03
DAV:   5    -0.851443796353E+03   -0.25771E-06   -0.10327E-06  3840   0.273E-03    0.891E-04
DAV:   6    -0.851443796127E+03    0.22594E-06   -0.50142E-07  3380   0.195E-03
  73 F= -.85933140E+03 E0= -.85933140E+03  d E =0.224339E-03  mag=    -0.0000
       N       E                     dE             d eps       ncg     rms          rms(c)
DAV:   1    -0.851443605668E+03    0.19068E-03   -0.21470E-02  4480   0.258E-01    0.307E-02
DAV:   2    -0.851443621145E+03   -0.15476E-04   -0.32083E-04  4680   0.307E-02    0.200E-02
DAV:   3    -0.851443618441E+03    0.27032E-05   -0.15394E-05  4780   0.819E-03    0.724E-03
DAV:   4    -0.851443619659E+03   -0.12177E-05   -0.49718E-06  4740   0.394E-03    0.214E-03
DAV:   5    -0.851443619931E+03   -0.27146E-06   -0.10609E-06  3860   0.279E-03    0.896E-04
DAV:   6    -0.851443619720E+03    0.21023E-06   -0.56438E-07  3400   0.209E-03
  74 F= -.85933125E+03 E0= -.85933125E+03  d E =0.148123E-03  mag=    -0.0000
       N       E                     dE             d eps       ncg     rms          rms(c)
DAV:   1    -0.851443559708E+03    0.60223E-04   -0.24410E-02  4480   0.275E-01    0.323E-02
DAV:   2    -0.851443578339E+03   -0.18632E-04   -0.35961E-04  4760   0.325E-02    0.208E-02
DAV:   3    -0.851443575097E+03    0.32421E-05   -0.17614E-05  4780   0.883E-03    0.723E-03
DAV:   4    -0.851443576167E+03   -0.10693E-05   -0.53695E-06  4600   0.404E-03    0.222E-03
DAV:   5    -0.851443576384E+03   -0.21777E-06   -0.92281E-07  3600   0.264E-03    0.893E-04
DAV:   6    -0.851443576314E+03    0.70002E-07   -0.64055E-07  3600   0.225E-03
  75 F= -.85933122E+03 E0= -.85933122E+03  d E =0.263746E-04  mag=    -0.0000
       N       E                     dE             d eps       ncg     rms          rms(c)
DAV:   1    -0.851443680180E+03   -0.10380E-03   -0.30275E-02  4480   0.305E-01    0.356E-02
DAV:   2    -0.851443705469E+03   -0.25289E-04   -0.45120E-04  4760   0.360E-02    0.228E-02
DAV:   3    -0.851443701613E+03    0.38557E-05   -0.20782E-05  4820   0.951E-03    0.827E-03
DAV:   4    -0.851443702886E+03   -0.12732E-05   -0.63193E-06  4760   0.426E-03    0.239E-03
DAV:   5    -0.851443703025E+03   -0.13848E-06   -0.79248E-07  3320   0.230E-03    0.905E-04
DAV:   6    -0.851443703082E+03   -0.57320E-07   -0.46724E-07  3600   0.190E-03
  76 F= -.85933135E+03 E0= -.85933135E+03  d E =-.131274E-03  mag=    -0.0000
       N       E                     dE             d eps       ncg     rms          rms(c)
DAV:   1    -0.851443996535E+03   -0.29351E-03   -0.37611E-02  4480   0.340E-01    0.403E-02
DAV:   2    -0.851444026489E+03   -0.29954E-04   -0.54086E-04  4720   0.399E-02    0.260E-02
DAV:   3    -0.851444022228E+03    0.42612E-05   -0.27739E-05  4920   0.111E-02    0.847E-03
DAV:   4    -0.851444023740E+03   -0.15128E-05   -0.78585E-06  4780   0.457E-03    0.273E-03
DAV:   5    -0.851444023887E+03   -0.14676E-06   -0.79895E-07  3340   0.229E-03    0.997E-04
DAV:   6    -0.851444024053E+03   -0.16611E-06   -0.52802E-07  3600   0.201E-03
  77 F= -.85933167E+03 E0= -.85933167E+03  d E =-.315353E-03  mag=    -0.0000
       N       E                     dE             d eps       ncg     rms          rms(c)
DAV:   1    -0.851444491712E+03   -0.46783E-03   -0.52525E-02  4480   0.399E-01    0.483E-02
DAV:   2    -0.851444535636E+03   -0.43924E-04   -0.76019E-04  4720   0.470E-02    0.310E-02
DAV:   3    -0.851444530198E+03    0.54383E-05   -0.37093E-05  5000   0.128E-02    0.106E-02
DAV:   4    -0.851444532486E+03   -0.22885E-05   -0.10737E-05  4960   0.536E-03    0.324E-03
DAV:   5    -0.851444532704E+03   -0.21778E-06   -0.10856E-06  3480   0.255E-03    0.114E-03
DAV:   6    -0.851444532993E+03   -0.28927E-06   -0.58504E-07  3640   0.209E-03
  78 F= -.85933216E+03 E0= -.85933216E+03  d E =-.493406E-03  mag=    -0.0000
       N       E                     dE             d eps       ncg     rms          rms(c)
DAV:   1    -0.851445119065E+03   -0.58636E-03   -0.81239E-02  4480   0.485E-01    0.592E-02
DAV:   2    -0.851445204224E+03   -0.85159E-04   -0.13096E-03  4720   0.581E-02    0.382E-02
DAV:   3    -0.851445195899E+03    0.83252E-05   -0.48312E-05  5120   0.142E-02    0.165E-02
DAV:   4    -0.851445201719E+03   -0.58207E-05   -0.17286E-05  4760   0.724E-03    0.396E-03
DAV:   5    -0.851445202117E+03   -0.39788E-06   -0.25191E-06  4220   0.347E-03    0.153E-03
DAV:   6    -0.851445202414E+03   -0.29646E-06   -0.68286E-07  3720   0.231E-03
  79 F= -.85933280E+03 E0= -.85933280E+03  d E =-.633593E-03  mag=    -0.0000
       N       E                     dE             d eps       ncg     rms          rms(c)
DAV:   1    -0.851445883773E+03   -0.68166E-03   -0.10046E-01  4480   0.552E-01    0.677E-02
DAV:   2    -0.851445972214E+03   -0.88440E-04   -0.14859E-03  4840   0.654E-02    0.436E-02
DAV:   3    -0.851445961624E+03    0.10590E-04   -0.74988E-05  4900   0.181E-02    0.151E-02
DAV:   4    -0.851445965727E+03   -0.41028E-05   -0.20415E-05  5080   0.752E-03    0.475E-03
DAV:   5    -0.851445966247E+03   -0.52035E-06   -0.23263E-06  4180   0.374E-03    0.170E-03
DAV:   6    -0.851445966883E+03   -0.63552E-06   -0.13653E-06  4100   0.333E-03
  80 F= -.85933353E+03 E0= -.85933353E+03  d E =-.729782E-03  mag=     0.0000
       N       E                     dE             d eps       ncg     rms          rms(c)
DAV:   1    -0.851446601470E+03   -0.63522E-03   -0.15475E-01  4480   0.682E-01    0.823E-02
DAV:   2    -0.851446770077E+03   -0.16861E-03   -0.26109E-03  4760   0.839E-02    0.536E-02
DAV:   3    -0.851446750107E+03    0.19970E-04   -0.10828E-04  5080   0.211E-02    0.236E-02
DAV:   4    -0.851446759344E+03   -0.92369E-05   -0.32675E-05  4760   0.101E-02    0.613E-03
DAV:   5    -0.851446760359E+03   -0.10151E-05   -0.39008E-06  4660   0.418E-03    0.236E-03
DAV:   6    -0.851446760988E+03   -0.62869E-06   -0.96514E-07  3960   0.277E-03
  81 F= -.85933430E+03 E0= -.85933430E+03  d E =-.771775E-03  mag=    -0.0000
       N       E                     dE             d eps       ncg     rms          rms(c)
DAV:   1    -0.851447265089E+03   -0.50473E-03   -0.21453E-01  4480   0.836E-01    0.992E-02
DAV:   2    -0.851447477879E+03   -0.21279E-03   -0.35989E-03  4760   0.105E-01    0.661E-02
DAV:   3    -0.851447442138E+03    0.35741E-04   -0.22480E-04  5040   0.303E-02    0.256E-02
DAV:   4    -0.851447448878E+03   -0.67404E-05   -0.48540E-05  4760   0.122E-02    0.938E-03
DAV:   5    -0.851447450507E+03   -0.16288E-05   -0.51000E-06  4920   0.525E-03    0.328E-03
DAV:   6    -0.851447451465E+03   -0.95831E-06   -0.23813E-06  4520   0.448E-03
  82 F= -.85933493E+03 E0= -.85933493E+03  d E =-.626730E-03  mag=    -0.0000
       N       E                     dE             d eps       ncg     rms          rms(c)
DAV:   1    -0.851447793479E+03   -0.34297E-03   -0.17300E-02  4640   0.254E-01    0.304E-02
DAV:   2    -0.851447813332E+03   -0.19854E-04   -0.40912E-04  4920   0.371E-02    0.210E-02
DAV:   3    -0.851447807035E+03    0.62979E-05   -0.36775E-05  5120   0.116E-02    0.996E-03
DAV:   4    -0.851447807141E+03   -0.10647E-06   -0.58629E-06  4840   0.534E-03    0.468E-03
DAV:   5    -0.851447808391E+03   -0.12495E-05   -0.25098E-06  4280   0.448E-03    0.122E-03
DAV:   6    -0.851447808292E+03    0.98124E-07   -0.18420E-06  4440   0.399E-03
  83 F= -.85933530E+03 E0= -.85933530E+03  d E =-.372333E-03  mag=    -0.0000
       N       E                     dE             d eps       ncg     rms          rms(c)
DAV:   1    -0.851447431077E+03    0.37731E-03   -0.19294E-02  4560   0.268E-01    0.317E-02
DAV:   2    -0.851447453373E+03   -0.22296E-04   -0.44539E-04  4880   0.385E-02    0.219E-02
DAV:   3    -0.851447445998E+03    0.73753E-05   -0.39738E-05  5280   0.119E-02    0.102E-02
DAV:   4    -0.851447445605E+03    0.39321E-06   -0.55800E-06  4840   0.421E-03    0.478E-03
DAV:   5    -0.851447445883E+03   -0.27815E-06   -0.87135E-07  3220   0.207E-03    0.118E-03
DAV:   6    -0.851447445989E+03   -0.10561E-06   -0.30515E-07  3440   0.134E-03
  84 F= -.85933496E+03 E0= -.85933496E+03  d E =0.341762E-03  mag=    -0.0000
       N       E                     dE             d eps       ncg     rms          rms(c)
DAV:   1    -0.851447565055E+03   -0.11917E-03   -0.80162E-04  4600   0.548E-02    0.648E-03
DAV:   2    -0.851447566086E+03   -0.10314E-05   -0.19257E-05  5120   0.804E-03    0.451E-03
DAV:   3    -0.851447565831E+03    0.25539E-06   -0.15260E-06  3280   0.249E-03    0.213E-03
DAV:   4    -0.851447565884E+03   -0.52874E-07   -0.37900E-07  3240   0.143E-03    0.930E-04
DAV:   5    -0.851447565994E+03   -0.10992E-06   -0.21425E-07  3260   0.124E-03    0.445E-04
DAV:   6    -0.851447565965E+03    0.29009E-07   -0.10588E-07  3320   0.897E-04
  85 F= -.85933507E+03 E0= -.85933507E+03  d E =-.118715E-03  mag=     0.0000
       N       E                     dE             d eps       ncg     rms          rms(c)
DAV:   1    -0.851447696824E+03   -0.13083E-03   -0.25441E-03  4600   0.976E-02    0.116E-02
DAV:   2    -0.851447699934E+03   -0.31097E-05   -0.60503E-05  4800   0.142E-02    0.797E-03
DAV:   3    -0.851447698967E+03    0.96675E-06   -0.52422E-06  5160   0.423E-03    0.385E-03
DAV:   4    -0.851447698876E+03    0.90608E-07   -0.59204E-07  3200   0.144E-03    0.177E-03
DAV:   5    -0.851447698897E+03   -0.20889E-07   -0.19095E-07  3120   0.903E-04    0.499E-04
DAV:   6    -0.851447698907E+03   -0.99244E-08   -0.50672E-08  3320   0.455E-04
  86 F= -.85933521E+03 E0= -.85933521E+03  d E =-.130900E-03  mag=     0.0000
       N       E                     dE             d eps       ncg     rms          rms(c)
DAV:   1    -0.851447717971E+03   -0.19074E-04   -0.36969E-03  4560   0.118E-01    0.139E-02
DAV:   2    -0.851447722385E+03   -0.44134E-05   -0.86851E-05  4760   0.170E-02    0.958E-03
DAV:   3    -0.851447720956E+03    0.14289E-05   -0.75341E-06  5320   0.508E-03    0.460E-03
DAV:   4    -0.851447720818E+03    0.13778E-06   -0.89197E-07  3200   0.174E-03    0.212E-03
DAV:   5    -0.851447720834E+03   -0.16284E-07   -0.25859E-07  3280   0.105E-03    0.559E-04
DAV:   6    -0.851447720840E+03   -0.54642E-08   -0.69812E-08  3160   0.558E-04
  87 F= -.85933523E+03 E0= -.85933523E+03  d E =-.196687E-04  mag=     0.0000
       N       E                     dE             d eps       ncg     rms          rms(c)
DAV:   1    -0.851447721032E+03   -0.19776E-06   -0.26564E-06  4120   0.314E-03    0.493E-04
DAV:   2    -0.851447721037E+03   -0.50713E-08   -0.70125E-08  3360   0.565E-04    0.428E-04
DAV:   3    -0.851447721043E+03   -0.63519E-08   -0.15016E-08  3040   0.321E-04    0.364E-04
DAV:   4    -0.851447721048E+03   -0.48458E-08   -0.73200E-09  3240   0.270E-04    0.355E-04
DAV:   5    -0.851447721047E+03    0.13606E-08   -0.17601E-09  3140   0.179E-04    0.351E-04
DAV:   6    -0.851447721049E+03   -0.24593E-08    0.22687E-09  3140   0.618E-05
  88 F= -.85933523E+03 E0= -.85933523E+03  d E =-.455958E-06  mag=    -0.0000
       N       E                     dE             d eps       ncg     rms          rms(c)
DAV:   1    -0.851447720962E+03    0.85289E-07   -0.10453E-05  4680   0.621E-03    0.752E-04
DAV:   2    -0.851447720972E+03   -0.10703E-07   -0.21468E-07  3080   0.898E-04    0.586E-04
DAV:   3    -0.851447720971E+03    0.10550E-08   -0.36916E-08  3180   0.405E-04    0.393E-04
DAV:   4    -0.851447720973E+03   -0.14115E-08   -0.52491E-09  3160   0.184E-04    0.362E-04
DAV:   5    -0.851447720974E+03   -0.88767E-09    0.49015E-10  3020   0.103E-04    0.351E-04
DAV:   6    -0.851447720974E+03   -0.56025E-09    0.20999E-09  3160   0.651E-05
  89 F= -.85933523E+03 E0= -.85933523E+03  d E =-.411149E-06  mag=     0.0000
       N       E                     dE             d eps       ncg     rms          rms(c)
DAV:   1    -0.851447720241E+03    0.73297E-06   -0.22105E-05  4480   0.900E-03    0.105E-03
DAV:   2    -0.851447720256E+03   -0.15396E-07   -0.38980E-07  3040   0.121E-03    0.757E-04
DAV:   3    -0.851447720252E+03    0.38708E-08   -0.72987E-08  3040   0.553E-04    0.424E-04
DAV:   4    -0.851447720254E+03   -0.14916E-08   -0.12678E-08  2700   0.250E-04    0.371E-04
DAV:   5    -0.851447720255E+03   -0.13169E-08   -0.15182E-09  2860   0.137E-04    0.352E-04
DAV:   6    -0.851447720255E+03   -0.21100E-09    0.12816E-09  2240   0.891E-05
  90 F= -.85933523E+03 E0= -.85933523E+03  d E =-.140427E-07  mag=     0.0000
       N       E                     dE             d eps       ncg     rms          rms(c)
DAV:   1    -0.851447717805E+03    0.24501E-05   -0.35376E-05  4480   0.113E-02    0.129E-03
DAV:   2    -0.851447717829E+03   -0.24214E-07   -0.60491E-07  2960   0.150E-03    0.912E-04
DAV:   3    -0.851447717823E+03    0.57407E-08   -0.11277E-07  3080   0.683E-04    0.457E-04
DAV:   4    -0.851447717826E+03   -0.26921E-08   -0.20747E-08  2280   0.306E-04    0.380E-04
DAV:   5    -0.851447717827E+03   -0.12296E-08   -0.38239E-09  2660   0.170E-04    0.353E-04
DAV:   6    -0.851447717828E+03   -0.29104E-09    0.24901E-10  2240   0.116E-04
  91 F= -.85933522E+03 E0= -.85933522E+03  d E =0.144744E-05  mag=    -0.0000
       N       E                     dE             d eps       ncg     rms          rms(c)
DAV:   1    -0.851447713424E+03    0.44036E-05   -0.48742E-05  4480   0.132E-02    0.148E-03
DAV:   2    -0.851447713461E+03   -0.37202E-07   -0.83127E-07  3080   0.172E-03    0.105E-03
DAV:   3    -0.851447713451E+03    0.94660E-08   -0.12763E-07  3000   0.731E-04    0.490E-04
DAV:   4    -0.851447713455E+03   -0.31432E-08   -0.23570E-08  2380   0.319E-04    0.384E-04
DAV:   5    -0.851447713457E+03   -0.21319E-08   -0.44184E-09  2800   0.180E-04    0.354E-04
DAV:   6    -0.851447713457E+03   -0.11642E-09   -0.29008E-11  2560   0.128E-04
  92 F= -.85933522E+03 E0= -.85933522E+03  d E =0.321715E-05  mag=    -0.0000
       N       E                     dE             d eps       ncg     rms          rms(c)
DAV:   1    -0.851447706857E+03    0.65995E-05   -0.62256E-05  4480   0.148E-02    0.163E-03
DAV:   2    -0.851447706904E+03   -0.46530E-07   -0.10085E-06  3120   0.189E-03    0.115E-03
DAV:   3    -0.851447706895E+03    0.91968E-08   -0.15315E-07  2920   0.804E-04    0.502E-04
DAV:   4    -0.851447706898E+03   -0.36380E-08   -0.29532E-08  2560   0.352E-04    0.388E-04
DAV:   5    -0.851447706900E+03   -0.20664E-08   -0.61137E-09  2800   0.200E-04    0.354E-04
DAV:   6    -0.851447706901E+03   -0.32742E-09   -0.96744E-10  2680   0.148E-04
  93 F= -.85933522E+03 E0= -.85933522E+03  d E =0.525599E-05  mag=     0.0000
       N       E                     dE             d eps       ncg     rms          rms(c)
DAV:   1    -0.851447696820E+03    0.10081E-04   -0.93094E-05  4480   0.180E-02    0.195E-03
DAV:   2    -0.851447696892E+03   -0.72294E-07   -0.14645E-06  3480   0.222E-03    0.137E-03
DAV:   3    -0.851447696877E+03    0.15127E-07   -0.15878E-07  3040   0.835E-04    0.548E-04
DAV:   4    -0.851447696882E+03   -0.50277E-08   -0.38652E-08  2780   0.382E-04    0.391E-04
DAV:   5    -0.851447696885E+03   -0.26921E-08   -0.80513E-09  2860   0.217E-04    0.355E-04
DAV:   6    -0.851447696885E+03   -0.29104E-09   -0.21027E-09  2820   0.167E-04
  94 F= -.85933521E+03 E0= -.85933521E+03  d E =0.846713E-05  mag=     0.0000
       N       E                     dE             d eps       ncg     rms          rms(c)
DAV:   1    -0.851447682434E+03    0.14450E-04   -0.13802E-04  4480   0.216E-02    0.234E-03
DAV:   2    -0.851447682535E+03   -0.10111E-06   -0.20363E-06  3640   0.260E-03    0.162E-03
DAV:   3    -0.851447682516E+03    0.19347E-07   -0.19458E-07  3000   0.933E-04    0.584E-04
DAV:   4    -0.851447682525E+03   -0.86584E-08   -0.53123E-08  2960   0.434E-04    0.396E-04
DAV:   5    -0.851447682527E+03   -0.22483E-08   -0.11012E-08  2840   0.243E-04    0.356E-04
DAV:   6    -0.851447682528E+03   -0.79308E-09   -0.31737E-09  2920   0.183E-04
  95 F= -.85933520E+03 E0= -.85933520E+03  d E =0.124124E-04  mag=    -0.0000
       N       E                     dE             d eps       ncg     rms          rms(c)
DAV:   1    -0.851447662914E+03    0.19613E-04   -0.20676E-04  4480   0.262E-02    0.283E-03
DAV:   2    -0.851447663056E+03   -0.14202E-06   -0.29015E-06  3840   0.308E-03    0.194E-03
DAV:   3    -0.851447663032E+03    0.23792E-07   -0.25044E-07  2960   0.107E-03    0.639E-04
DAV:   4    -0.851447663045E+03   -0.12180E-07   -0.72666E-08  2920   0.503E-04    0.404E-04
DAV:   5    -0.851447663048E+03   -0.32960E-08   -0.16106E-08  2920   0.292E-04    0.358E-04
DAV:   6    -0.851447663049E+03   -0.90222E-09   -0.58525E-09  2920   0.225E-04
  96 F= -.85933518E+03 E0= -.85933518E+03  d E =0.170698E-04  mag=    -0.0000
       N       E                     dE             d eps       ncg     rms          rms(c)
DAV:   1    -0.851447636409E+03    0.26639E-04   -0.31972E-04  4480   0.325E-02    0.355E-03
DAV:   2    -0.851447636635E+03   -0.22590E-06   -0.46302E-06  4440   0.383E-03    0.241E-03
DAV:   3    -0.851447636591E+03    0.43634E-07   -0.24691E-07  3000   0.111E-03    0.849E-04
DAV:   4    -0.851447636609E+03   -0.17419E-07   -0.84823E-08  3000   0.560E-04    0.423E-04
DAV:   5    -0.851447636613E+03   -0.40818E-08   -0.19926E-08  2960   0.343E-04    0.361E-04
DAV:   6    -0.851447636613E+03   -0.80036E-09   -0.55431E-09  3160   0.223E-04
  97 F= -.85933516E+03 E0= -.85933516E+03  d E =0.230762E-04  mag=    -0.0000
       N       E                     dE             d eps       ncg     rms          rms(c)
DAV:   1    -0.851447599589E+03    0.37024E-04   -0.51209E-04  4480   0.412E-02    0.453E-03
DAV:   2    -0.851447599962E+03   -0.37328E-06   -0.75945E-06  4680   0.489E-03    0.305E-03
DAV:   3    -0.851447599886E+03    0.76179E-07   -0.38017E-07  3000   0.138E-03    0.109E-03
DAV:   4    -0.851447599914E+03   -0.27852E-07   -0.13874E-07  3020   0.733E-04    0.468E-04
DAV:   5    -0.851447599922E+03   -0.86002E-08   -0.41482E-08  3060   0.512E-04    0.371E-04
DAV:   6    -0.851447599920E+03    0.21537E-08   -0.16869E-08  3000   0.358E-04
  98 F= -.85933512E+03 E0= -.85933512E+03  d E =0.320401E-04  mag=    -0.0000
       N       E                     dE             d eps       ncg     rms          rms(c)
DAV:   1    -0.851447546056E+03    0.53866E-04   -0.81381E-04  4480   0.519E-02    0.575E-03
DAV:   2    -0.851447546658E+03   -0.60180E-06   -0.12243E-05  4720   0.619E-03    0.385E-03
DAV:   3    -0.851447546534E+03    0.12390E-06   -0.59698E-07  3000   0.171E-03    0.139E-03
DAV:   4    -0.851447546578E+03   -0.43430E-07   -0.21794E-07  3000   0.902E-04    0.528E-04
DAV:   5    -0.851447546589E+03   -0.11009E-07   -0.61912E-08  3080   0.601E-04    0.379E-04
DAV:   6    -0.851447546587E+03    0.14770E-08   -0.21962E-08  3040   0.391E-04
  99 F= -.85933508E+03 E0= -.85933508E+03  d E =0.467551E-04  mag=    -0.0000
       N       E                     dE             d eps       ncg     rms          rms(c)
DAV:   1    -0.851447469684E+03    0.76905E-04   -0.12785E-03  4480   0.647E-02    0.725E-03
DAV:   2    -0.851447470612E+03   -0.92878E-06   -0.19109E-05  4720   0.770E-03    0.481E-03
DAV:   3    -0.851447470428E+03    0.18428E-06   -0.90870E-07  3160   0.209E-03    0.173E-03
DAV:   4    -0.851447470496E+03   -0.68445E-07   -0.32379E-07  3000   0.110E-03    0.596E-04
DAV:   5    -0.851447470519E+03   -0.22388E-07   -0.10636E-07  3080   0.807E-04    0.393E-04
DAV:   6    -0.851447470508E+03    0.10441E-07   -0.38940E-08  3000   0.516E-04
 100 F= -.85933501E+03 E0= -.85933501E+03  d E =0.667820E-04  mag=    -0.0000
       N       E                     dE             d eps       ncg     rms          rms(c)
DAV:   1    -0.851447361910E+03    0.10861E-03   -0.19530E-03  4480   0.796E-02    0.896E-03
DAV:   2    -0.851447363263E+03   -0.13530E-05   -0.28481E-05  4760   0.940E-03    0.598E-03
DAV:   3    -0.851447363000E+03    0.26323E-06   -0.15049E-06  3640   0.265E-03    0.196E-03
DAV:   4    -0.851447363096E+03   -0.96334E-07   -0.45233E-07  3000   0.124E-03    0.697E-04
DAV:   5    -0.851447363116E+03   -0.19660E-07   -0.11079E-07  3080   0.815E-04    0.416E-04
DAV:   6    -0.851447363119E+03   -0.33760E-08   -0.54874E-08  3160   0.627E-04
 101 F= -.85933491E+03 E0= -.85933491E+03  d E =0.951330E-04  mag=    -0.0000
       N       E                     dE             d eps       ncg     rms          rms(c)
DAV:   1    -0.851447225528E+03    0.13759E-03   -0.28612E-03  4480   0.965E-02    0.108E-02
DAV:   2    -0.851447227391E+03   -0.18631E-05   -0.40814E-05  4760   0.113E-02    0.730E-03
DAV:   3    -0.851447227015E+03    0.37601E-06   -0.25900E-06  4400   0.343E-03    0.207E-03
DAV:   4    -0.851447227122E+03   -0.10686E-06   -0.60928E-07  3080   0.137E-03    0.836E-04
DAV:   5    -0.851447227141E+03   -0.18634E-07   -0.11385E-07  3080   0.793E-04    0.461E-04
DAV:   6    -0.851447227161E+03   -0.20380E-07   -0.72167E-08  3200   0.734E-04
 102 F= -.85933479E+03 E0= -.85933479E+03  d E =0.121124E-03  mag=    -0.0000
       N       E                     dE             d eps       ncg     rms          rms(c)
DAV:   1    -0.851447067422E+03    0.15972E-03   -0.42268E-03  4480   0.117E-01    0.131E-02
DAV:   2    -0.851447070121E+03   -0.26993E-05   -0.60077E-05  4760   0.138E-02    0.886E-03
DAV:   3    -0.851447069532E+03    0.58927E-06   -0.39972E-06  4560   0.426E-03    0.239E-03
DAV:   4    -0.851447069679E+03   -0.14732E-06   -0.98114E-07  3360   0.166E-03    0.101E-03
DAV:   5    -0.851447069702E+03   -0.22410E-07   -0.10920E-07  3080   0.798E-04    0.509E-04
DAV:   6    -0.851447069724E+03   -0.21755E-07   -0.80748E-08  3120   0.762E-04
 103 F= -.85933465E+03 E0= -.85933465E+03  d E =0.140322E-03  mag=    -0.0000
       N       E                     dE             d eps       ncg     rms          rms(c)
DAV:   1    -0.851446901426E+03    0.16828E-03   -0.60470E-03  4480   0.140E-01    0.155E-02
DAV:   2    -0.851446905209E+03   -0.37837E-05   -0.84774E-05  4720   0.163E-02    0.104E-02
DAV:   3    -0.851446904341E+03    0.86803E-06   -0.53769E-06  4640   0.491E-03    0.275E-03
DAV:   4    -0.851446904564E+03   -0.22284E-06   -0.13818E-06  3520   0.192E-03    0.111E-03
DAV:   5    -0.851446904608E+03   -0.43488E-07   -0.15547E-07  3120   0.103E-03    0.505E-04
DAV:   6    -0.851446904623E+03   -0.15134E-07   -0.13371E-07  3280   0.988E-04
 104 F= -.85933451E+03 E0= -.85933451E+03  d E =0.146274E-03  mag=    -0.0000
       N       E                     dE             d eps       ncg     rms          rms(c)
DAV:   1    -0.851446752551E+03    0.15206E-03   -0.78998E-03  4480   0.160E-01    0.177E-02
DAV:   2    -0.851446757266E+03   -0.47150E-05   -0.11056E-04  4680   0.188E-02    0.119E-02
DAV:   3    -0.851446756079E+03    0.11876E-05   -0.73602E-06  5000   0.568E-03    0.308E-03
DAV:   4    -0.851446756358E+03   -0.27964E-06   -0.18621E-06  3600   0.215E-03    0.126E-03
DAV:   5    -0.851446756416E+03   -0.57560E-07   -0.16047E-07  3120   0.103E-03    0.522E-04
DAV:   6    -0.851446756434E+03   -0.17593E-07   -0.12488E-07  3400   0.958E-04
 105 F= -.85933438E+03 E0= -.85933438E+03  d E =0.129690E-03  mag=    -0.0000
       N       E                     dE             d eps       ncg     rms          rms(c)
DAV:   1    -0.851446649648E+03    0.10677E-03   -0.98835E-03  4480   0.179E-01    0.197E-02
DAV:   2    -0.851446655293E+03   -0.56455E-05   -0.13640E-04  4680   0.210E-02    0.133E-02
DAV:   3    -0.851446653778E+03    0.15156E-05   -0.98881E-06  5080   0.661E-03    0.324E-03
DAV:   4    -0.851446654075E+03   -0.29733E-06   -0.24476E-06  3600   0.247E-03    0.145E-03
DAV:   5    -0.851446654143E+03   -0.67674E-07   -0.17330E-07  3240   0.989E-04    0.587E-04
DAV:   6    -0.851446654173E+03   -0.30690E-07   -0.11071E-07  3240   0.901E-04
 106 F= -.85933429E+03 E0= -.85933429E+03  d E =0.865467E-04  mag=    -0.0000
       N       E                     dE             d eps       ncg     rms          rms(c)
DAV:   1    -0.851446623135E+03    0.31008E-04   -0.11740E-02  4480   0.196E-01    0.214E-02
DAV:   2    -0.851446629820E+03   -0.66854E-05   -0.15871E-04  4640   0.227E-02    0.146E-02
DAV:   3    -0.851446628122E+03    0.16980E-05   -0.12544E-05  4980   0.749E-03    0.317E-03
DAV:   4    -0.851446628425E+03   -0.30337E-06   -0.32237E-06  3720   0.292E-03    0.162E-03
DAV:   5    -0.851446628518E+03   -0.92899E-07   -0.28073E-07  3200   0.131E-03    0.662E-04
DAV:   6    -0.851446628570E+03   -0.51252E-07   -0.22799E-07  3500   0.131E-03
 107 F= -.85933427E+03 E0= -.85933427E+03  d E =0.159770E-04  mag=    -0.0000
       N       E                     dE             d eps       ncg     rms          rms(c)
DAV:   1    -0.851446698784E+03   -0.70266E-04   -0.14933E-02  4480   0.220E-01    0.243E-02
DAV:   2    -0.851446708488E+03   -0.97037E-05   -0.20669E-04  4680   0.256E-02    0.165E-02
DAV:   3    -0.851446706637E+03    0.18512E-05   -0.13245E-05  5000   0.765E-03    0.438E-03
DAV:   4    -0.851446707213E+03   -0.57654E-06   -0.35069E-06  3800   0.301E-03    0.168E-03
DAV:   5    -0.851446707335E+03   -0.12143E-06   -0.34724E-07  3320   0.155E-03    0.655E-04
DAV:   6    -0.851446707380E+03   -0.45002E-07   -0.29674E-07  3540   0.149E-03
 108 F= -.85933436E+03 E0= -.85933436E+03  d E =-.819382E-04  mag=    -0.0000
       N       E                     dE             d eps       ncg     rms          rms(c)
DAV:   1    -0.851446906683E+03   -0.19935E-03   -0.19600E-02  4480   0.249E-01    0.286E-02
DAV:   2    -0.851446921309E+03   -0.14627E-04   -0.28367E-04  4760   0.294E-02    0.192E-02
DAV:   3    -0.851446919331E+03    0.19786E-05   -0.15427E-05  4920   0.825E-03    0.621E-03
[...]
DAV:   1    -0.851450727149E+03    0.33058E-03   -0.51557E-02  4480   0.403E-01    0.491E-02
DAV:   2    -0.851450755779E+03   -0.28630E-04   -0.74183E-04  4640   0.478E-02    0.329E-02
DAV:   3    -0.851450751431E+03    0.43478E-05   -0.47375E-05  4680   0.145E-02    0.958E-03
DAV:   4    -0.851450754268E+03   -0.28367E-05   -0.12236E-05  4720   0.561E-03    0.364E-03
DAV:   5    -0.851450754366E+03   -0.98051E-07   -0.11595E-06  3800   0.236E-03    0.151E-03
DAV:   6    -0.851450754452E+03   -0.86380E-07   -0.26533E-07  3360   0.125E-03
 250 F= -.85933834E+03 E0= -.85933834E+03  d E =0.243961E-03  mag=     0.0000
       N       E                     dE             d eps       ncg     rms          rms(c)
DAV:   1    -0.851450381307E+03    0.37306E-03   -0.64326E-02  4480   0.455E-01    0.551E-02
DAV:   2    -0.851450420369E+03   -0.39062E-04   -0.97387E-04  4640   0.549E-02    0.369E-02
DAV:   3    -0.851450413984E+03    0.63849E-05   -0.59440E-05  4720   0.161E-02    0.117E-02
DAV:   4    -0.851450417949E+03   -0.39650E-05   -0.15739E-05  4680   0.635E-03    0.421E-03
DAV:   5    -0.851450418079E+03   -0.12917E-06   -0.14384E-06  3880   0.264E-03    0.167E-03
DAV:   6    -0.851450418181E+03   -0.10237E-06   -0.31248E-07  3440   0.133E-03
 251 F= -.85933806E+03 E0= -.85933806E+03  d E =0.280572E-03  mag=     0.0000
       N       E                     dE             d eps       ncg     rms          rms(c)
DAV:   1    -0.851450474506E+03   -0.56427E-04   -0.10796E-03  4760   0.637E-02    0.762E-03
DAV:   2    -0.851450475831E+03   -0.13256E-05   -0.24495E-05  4880   0.916E-03    0.512E-03
DAV:   3    -0.851450475544E+03    0.28708E-06   -0.19007E-06  3720   0.283E-03    0.233E-03
DAV:   4    -0.851450475710E+03   -0.16527E-06   -0.51223E-07  3480   0.155E-03    0.961E-04
DAV:   5    -0.851450475884E+03   -0.17398E-06   -0.15281E-07  3520   0.947E-04    0.553E-04
DAV:   6    -0.851450475984E+03   -0.10088E-06   -0.42252E-08  3320   0.502E-04
 252 F= -.85933812E+03 E0= -.85933812E+03  d E =-.576584E-04  mag=    -0.0000
       N       E                     dE             d eps       ncg     rms          rms(c)
DAV:   1    -0.851450518680E+03   -0.42796E-04   -0.20081E-03  4560   0.858E-02    0.101E-02
DAV:   2    -0.851450520947E+03   -0.22668E-05   -0.42797E-05  4960   0.119E-02    0.669E-03
DAV:   3    -0.851450520374E+03    0.57293E-06   -0.31877E-06  4600   0.348E-03    0.317E-03
DAV:   4    -0.851450520423E+03   -0.48713E-07   -0.56620E-07  3320   0.149E-03    0.121E-03
DAV:   5    -0.851450520507E+03   -0.84721E-07   -0.14109E-07  3360   0.743E-04    0.460E-04
DAV:   6    -0.851450520558E+03   -0.50335E-07   -0.33684E-08  3360   0.379E-04
 253 F= -.85933816E+03 E0= -.85933816E+03  d E =-.418443E-04  mag=     0.0000
       N       E                     dE             d eps       ncg     rms          rms(c)
DAV:   1    -0.851450533095E+03   -0.12588E-04   -0.31467E-05  4660   0.108E-02    0.130E-03
DAV:   2    -0.851450533143E+03   -0.47956E-07   -0.66388E-07  3760   0.155E-03    0.896E-04
DAV:   3    -0.851450533155E+03   -0.11772E-07   -0.10016E-07  3060   0.649E-04    0.423E-04
DAV:   4    -0.851450533174E+03   -0.19267E-07   -0.18114E-08  3200   0.295E-04    0.287E-04
DAV:   5    -0.851450533195E+03   -0.20351E-07   -0.35323E-09  3100   0.178E-04    0.252E-04
DAV:   6    -0.851450533201E+03   -0.62428E-08    0.80889E-10  3440   0.110E-04
 254 F= -.85933817E+03 E0= -.85933817E+03  d E =-.118460E-04  mag=    -0.0000
       N       E                     dE             d eps       ncg     rms          rms(c)
DAV:   1    -0.851450555943E+03   -0.22748E-04   -0.10864E-04  4580   0.200E-02    0.240E-03
DAV:   2    -0.851450556055E+03   -0.11158E-06   -0.23412E-06  4080   0.283E-03    0.163E-03
DAV:   3    -0.851450556015E+03    0.39923E-07   -0.22353E-07  3160   0.977E-04    0.720E-04
DAV:   4    -0.851450556019E+03   -0.43729E-08   -0.59129E-08  3160   0.483E-04    0.351E-04
DAV:   5    -0.851450556023E+03   -0.41546E-08   -0.11963E-08  3200   0.242E-04    0.261E-04
DAV:   6    -0.851450556025E+03   -0.16444E-08   -0.75053E-10  3200   0.120E-04
 255 F= -.85933819E+03 E0= -.85933819E+03  d E =-.210884E-04  mag=     0.0000
       N       E                     dE             d eps       ncg     rms          rms(c)
DAV:   1    -0.851450587612E+03   -0.31588E-04   -0.18990E-04  4560   0.262E-02    0.312E-03
DAV:   2    -0.851450587815E+03   -0.20330E-06   -0.40820E-06  4440   0.365E-03    0.213E-03
DAV:   3    -0.851450587745E+03    0.69769E-07   -0.28242E-07  3240   0.111E-03    0.969E-04
DAV:   4    -0.851450587745E+03   -0.13097E-09   -0.86168E-08  3160   0.594E-04    0.400E-04
DAV:   5    -0.851450587747E+03   -0.19209E-08   -0.18092E-08  3080   0.294E-04    0.274E-04
DAV:   6    -0.851450587748E+03   -0.10114E-08   -0.20283E-09  3040   0.144E-04
 256 F= -.85933822E+03 E0= -.85933822E+03  d E =-.288232E-04  mag=    -0.0000
       N       E                     dE             d eps       ncg     rms          rms(c)
DAV:   1    -0.851450626881E+03   -0.39134E-04   -0.23932E-04  4480   0.285E-02    0.344E-03
DAV:   2    -0.851450627143E+03   -0.26175E-06   -0.48505E-06  4560   0.385E-03    0.233E-03
DAV:   3    -0.851450627071E+03    0.71173E-07   -0.26082E-07  3240   0.108E-03    0.110E-03
DAV:   4    -0.851450627079E+03   -0.74942E-08   -0.99100E-08  3200   0.637E-04    0.403E-04
DAV:   5    -0.851450627081E+03   -0.21610E-08   -0.20683E-08  2960   0.323E-04    0.282E-04
DAV:   6    -0.851450627082E+03   -0.12224E-08   -0.26278E-09  2920   0.156E-04
 257 F= -.85933826E+03 E0= -.85933826E+03  d E =-.352316E-04  mag=    -0.0000
       N       E                     dE             d eps       ncg     rms          rms(c)
DAV:   1    -0.851450676331E+03   -0.49250E-04   -0.24266E-04  4480   0.267E-02    0.336E-03
DAV:   2    -0.851450676585E+03   -0.25395E-06   -0.43810E-06  4520   0.337E-03    0.225E-03
DAV:   3    -0.851450676550E+03    0.34634E-07   -0.17923E-07  3160   0.895E-04    0.110E-03
DAV:   4    -0.851450676577E+03   -0.26659E-07   -0.91098E-08  3120   0.582E-04    0.360E-04
DAV:   5    -0.851450676578E+03   -0.16007E-08   -0.18679E-08  2960   0.305E-04    0.273E-04
DAV:   6    -0.851450676580E+03   -0.17171E-08   -0.18332E-09  2920   0.137E-04
 258 F= -.85933830E+03 E0= -.85933830E+03  d E =-.444683E-04  mag=    -0.0000
       N       E                     dE             d eps       ncg     rms          rms(c)
DAV:   1    -0.851450739424E+03   -0.62845E-04   -0.27844E-04  4480   0.267E-02    0.356E-03
DAV:   2    -0.851450739701E+03   -0.27779E-06   -0.46076E-06  4360   0.314E-03    0.234E-03
DAV:   3    -0.851450739684E+03    0.17149E-07   -0.13213E-07  3040   0.762E-04    0.116E-03
DAV:   4    -0.851450739737E+03   -0.53034E-07   -0.91901E-08  3200   0.542E-04    0.342E-04
DAV:   5    -0.851450739739E+03   -0.14334E-08   -0.19763E-08  3000   0.304E-04    0.268E-04
DAV:   6    -0.851450739738E+03    0.50932E-09   -0.14083E-09  2960   0.130E-04
 259 F= -.85933836E+03 E0= -.85933836E+03  d E =-.574292E-04  mag=    -0.0000
       N       E                     dE             d eps       ncg     rms          rms(c)
DAV:   1    -0.851450823924E+03   -0.84185E-04   -0.47237E-04  4480   0.348E-02    0.467E-03
DAV:   2    -0.851450824408E+03   -0.48387E-06   -0.80254E-06  4520   0.416E-03    0.308E-03
DAV:   3    -0.851450824374E+03    0.34204E-07   -0.20057E-07  3120   0.958E-04    0.153E-03
DAV:   4    -0.851450824470E+03   -0.96516E-07   -0.15370E-07  3040   0.703E-04    0.392E-04
DAV:   5    -0.851450824473E+03   -0.28813E-08   -0.32224E-08  2960   0.367E-04    0.283E-04
DAV:   6    -0.851450824474E+03   -0.77853E-09   -0.29214E-09  3120   0.151E-04
 260 F= -.85933844E+03 E0= -.85933844E+03  d E =-.776795E-04  mag=    -0.0000
       N       E                     dE             d eps       ncg     rms          rms(c)
DAV:   1    -0.851450931976E+03   -0.10750E-03   -0.72915E-04  4480   0.448E-02    0.597E-03
DAV:   2    -0.851450932707E+03   -0.73093E-06   -0.12497E-05  4640   0.552E-03    0.394E-03
DAV:   3    -0.851450932652E+03    0.55043E-07   -0.41576E-07  3280   0.137E-03    0.184E-03
DAV:   4    -0.851450932767E+03   -0.11492E-06   -0.22010E-07  3200   0.877E-04    0.474E-04
DAV:   5    -0.851450932772E+03   -0.48894E-08   -0.46658E-08  2960   0.451E-04    0.310E-04
DAV:   6    -0.851450932774E+03   -0.23574E-08   -0.68801E-09  3240   0.202E-04
 261 F= -.85933854E+03 E0= -.85933854E+03  d E =-.996883E-04  mag=    -0.0000
       N       E                     dE             d eps       ncg     rms          rms(c)
DAV:   1    -0.851451066431E+03   -0.13366E-03   -0.10879E-03  4480   0.544E-02    0.743E-03
DAV:   2    -0.851451067471E+03   -0.10398E-05   -0.18200E-05  4640   0.666E-03    0.488E-03
DAV:   3    -0.851451067410E+03    0.61467E-07   -0.61692E-07  3480   0.165E-03    0.221E-03
DAV:   4    -0.851451067574E+03   -0.16390E-06   -0.30161E-07  3240   0.102E-03    0.544E-04
DAV:   5    -0.851451067579E+03   -0.56316E-08   -0.65705E-08  3040   0.527E-04    0.331E-04
DAV:   6    -0.851451067584E+03   -0.46130E-08   -0.10848E-08  3280   0.237E-04
 262 F= -.85933866E+03 E0= -.85933866E+03  d E =-.124019E-03  mag=     0.0000
       N       E                     dE             d eps       ncg     rms          rms(c)
DAV:   1    -0.851451235816E+03   -0.16824E-03   -0.14053E-03  4480   0.605E-02    0.866E-03
DAV:   2    -0.851451237018E+03   -0.12016E-05   -0.21677E-05  4760   0.715E-03    0.566E-03
DAV:   3    -0.851451237013E+03    0.46639E-08   -0.71311E-07  3640   0.176E-03    0.235E-03
DAV:   4    -0.851451237212E+03   -0.19859E-06   -0.31793E-07  3520   0.988E-04    0.582E-04
DAV:   5    -0.851451237217E+03   -0.50422E-08   -0.56056E-08  3080   0.502E-04    0.331E-04
DAV:   6    -0.851451237223E+03   -0.61700E-08   -0.88433E-09  3400   0.227E-04
 263 F= -.85933882E+03 E0= -.85933882E+03  d E =-.156178E-03  mag=     0.0000
       N       E                     dE             d eps       ncg     rms          rms(c)
DAV:   1    -0.851451447732E+03   -0.21052E-03   -0.19564E-03  4480   0.718E-02    0.103E-02
DAV:   2    -0.851451449375E+03   -0.16428E-05   -0.29642E-05  4840   0.848E-03    0.677E-03
DAV:   3    -0.851451449370E+03    0.50495E-08   -0.10637E-06  3680   0.217E-03    0.263E-03
DAV:   4    -0.851451449603E+03   -0.23315E-06   -0.41160E-07  3600   0.112E-03    0.677E-04
DAV:   5    -0.851451449618E+03   -0.14537E-07   -0.64782E-08  3160   0.534E-04    0.351E-04
DAV:   6    -0.851451449631E+03   -0.12820E-07   -0.11727E-08  3440   0.248E-04
 264 F= -.85933901E+03 E0= -.85933901E+03  d E =-.196738E-03  mag=     0.0000
       N       E                     dE             d eps       ncg     rms          rms(c)
DAV:   1    -0.851451705673E+03   -0.25606E-03   -0.29343E-03  4480   0.886E-02    0.125E-02
DAV:   2    -0.851451708352E+03   -0.26782E-05   -0.46251E-05  4720   0.107E-02    0.823E-03
DAV:   3    -0.851451708263E+03    0.89094E-07   -0.17186E-06  3960   0.271E-03    0.333E-03
DAV:   4    -0.851451708604E+03   -0.34192E-06   -0.62047E-07  3560   0.139E-03    0.817E-04
DAV:   5    -0.851451708622E+03   -0.17710E-07   -0.98902E-08  3160   0.643E-04    0.395E-04
DAV:   6    -0.851451708643E+03   -0.20613E-07   -0.19488E-08  3440   0.303E-04
 265 F= -.85933925E+03 E0= -.85933925E+03  d E =-.239317E-03  mag=     0.0000
       N       E                     dE             d eps       ncg     rms          rms(c)
DAV:   1    -0.851452016132E+03   -0.30751E-03   -0.46285E-03  4480   0.107E-01    0.153E-02
DAV:   2    -0.851452020903E+03   -0.47704E-05   -0.76629E-05  4760   0.129E-02    0.999E-03
DAV:   3    -0.851452020683E+03    0.21983E-06   -0.22643E-06  4240   0.301E-03    0.453E-03
DAV:   4    -0.851452021373E+03   -0.68993E-06   -0.10793E-06  3880   0.175E-03    0.971E-04
DAV:   5    -0.851452021398E+03   -0.25495E-07   -0.17222E-07  3240   0.782E-04    0.462E-04
DAV:   6    -0.851452021416E+03   -0.17979E-07   -0.25447E-08  3440   0.341E-04
 266 F= -.85933954E+03 E0= -.85933954E+03  d E =-.289202E-03  mag=     0.0000
       N       E                     dE             d eps       ncg     rms          rms(c)
DAV:   1    -0.851452383253E+03   -0.36185E-03   -0.68807E-03  4480   0.130E-01    0.185E-02
DAV:   2    -0.851452390787E+03   -0.75343E-05   -0.11803E-04  4640   0.157E-02    0.121E-02
DAV:   3    -0.851452390338E+03    0.44882E-06   -0.33435E-06  4720   0.357E-03    0.573E-03
DAV:   4    -0.851452391402E+03   -0.10639E-05   -0.16429E-06  4080   0.210E-03    0.118E-03
DAV:   5    -0.851452391450E+03   -0.48014E-07   -0.24989E-07  3560   0.889E-04    0.576E-04
DAV:   6    -0.851452391473E+03   -0.23545E-07   -0.30278E-08  3400   0.369E-04
 267 F= -.85933988E+03 E0= -.85933988E+03  d E =-.342107E-03  mag=     0.0000
       N       E                     dE             d eps       ncg     rms          rms(c)
DAV:   1    -0.851452820118E+03   -0.42867E-03   -0.75798E-03  4480   0.144E-01    0.204E-02
DAV:   2    -0.851452826833E+03   -0.67144E-05   -0.11428E-04  4640   0.171E-02    0.131E-02
DAV:   3    -0.851452826620E+03    0.21332E-06   -0.45322E-06  4600   0.437E-03    0.513E-03
DAV:   4    -0.851452827324E+03   -0.70496E-06   -0.14766E-06  4120   0.206E-03    0.134E-03
DAV:   5    -0.851452827354E+03   -0.29584E-07   -0.17168E-07  3120   0.912E-04    0.562E-04
DAV:   6    -0.851452827395E+03   -0.40454E-07   -0.46388E-08  3400   0.459E-04
 268 F= -.85934029E+03 E0= -.85934029E+03  d E =-.406338E-03  mag=     0.0000
       N       E                     dE             d eps       ncg     rms          rms(c)
DAV:   1    -0.851453283627E+03   -0.45627E-03   -0.93032E-03  4480   0.163E-01    0.224E-02
DAV:   2    -0.851453291193E+03   -0.75665E-05   -0.13423E-04  4720   0.193E-02    0.144E-02
DAV:   3    -0.851453290751E+03    0.44263E-06   -0.63728E-06  4640   0.526E-03    0.512E-03
DAV:   4    -0.851453291372E+03   -0.62149E-06   -0.18054E-06  4040   0.226E-03    0.155E-03
DAV:   5    -0.851453291426E+03   -0.54111E-07   -0.19616E-07  3040   0.101E-03    0.631E-04
DAV:   6    -0.851453291501E+03   -0.75226E-07   -0.59467E-08  3400   0.522E-04
 269 F= -.85934073E+03 E0= -.85934073E+03  d E =-.435162E-03  mag=    -0.0000
       N       E                     dE             d eps       ncg     rms          rms(c)
DAV:   1    -0.851453721950E+03   -0.43052E-03   -0.11307E-02  4480   0.182E-01    0.238E-02
DAV:   2    -0.851453731808E+03   -0.98573E-05   -0.17144E-04  4640   0.217E-02    0.153E-02
DAV:   3    -0.851453730920E+03    0.88768E-06   -0.78303E-06  4720   0.578E-03    0.589E-03
DAV:   4    -0.851453731688E+03   -0.76804E-06   -0.23838E-06  4240   0.260E-03    0.172E-03
DAV:   5    -0.851453731761E+03   -0.72694E-07   -0.24312E-07  3120   0.111E-03    0.710E-04
DAV:   6    -0.851453731845E+03   -0.83899E-07   -0.73652E-08  3360   0.575E-04
 270 F= -.85934114E+03 E0= -.85934114E+03  d E =-.413679E-03  mag=     0.0000
       N       E                     dE             d eps       ncg     rms          rms(c)
DAV:   1    -0.851453718333E+03    0.13428E-04   -0.84847E-05  4880   0.165E-02    0.206E-03
DAV:   2    -0.851453718478E+03   -0.14491E-06   -0.15679E-06  4040   0.220E-03    0.141E-03
DAV:   3    -0.851453718542E+03   -0.63890E-07   -0.14641E-07  3160   0.804E-04    0.635E-04
DAV:   4    -0.851453718632E+03   -0.90280E-07   -0.45506E-08  3240   0.456E-04    0.329E-04
DAV:   5    -0.851453718681E+03   -0.48829E-07   -0.97745E-09  3300   0.265E-04    0.283E-04
DAV:   6    -0.851453718741E+03   -0.59932E-07   -0.71207E-10  3140   0.125E-04
 271 F= -.85934113E+03 E0= -.85934113E+03  d E =0.998243E-05  mag=    -0.0000
       N       E                     dE             d eps       ncg     rms          rms(c)
DAV:   1    -0.851453688487E+03    0.30194E-04   -0.25447E-04  4700   0.277E-02    0.353E-03
DAV:   2    -0.851453688728E+03   -0.24153E-06   -0.45333E-06  4960   0.354E-03    0.241E-03
DAV:   3    -0.851453688729E+03   -0.93860E-09   -0.23504E-07  3100   0.102E-03    0.104E-03
DAV:   4    -0.851453688781E+03   -0.51470E-07   -0.98665E-08  3200   0.589E-04    0.370E-04
DAV:   5    -0.851453688799E+03   -0.18474E-07   -0.17172E-08  3240   0.279E-04    0.278E-04
DAV:   6    -0.851453688814E+03   -0.14385E-07   -0.18680E-09  3120   0.132E-04
 272 F= -.85934111E+03 E0= -.85934111E+03  d E =0.247756E-04  mag=    -0.0000
       N       E                     dE             d eps       ncg     rms          rms(c)
DAV:   1    -0.851453644611E+03    0.44188E-04   -0.36402E-04  4640   0.317E-02    0.429E-03
DAV:   2    -0.851453644863E+03   -0.25173E-06   -0.57922E-06  4700   0.385E-03    0.289E-03
DAV:   3    -0.851453644873E+03   -0.10405E-07   -0.26123E-07  3220   0.110E-03    0.114E-03
DAV:   4    -0.851453644923E+03   -0.50037E-07   -0.11670E-07  3180   0.618E-04    0.388E-04
DAV:   5    -0.851453644925E+03   -0.17972E-08   -0.20492E-08  3220   0.322E-04    0.283E-04
DAV:   6    -0.851453644928E+03   -0.25248E-08   -0.37282E-09  3160   0.182E-04
 273 F= -.85934107E+03 E0= -.85934107E+03  d E =0.377078E-04  mag=    -0.0000
       N       E                     dE             d eps       ncg     rms          rms(c)
DAV:   1    -0.851453594116E+03    0.50809E-04   -0.40328E-04  4480   0.330E-02    0.471E-03
DAV:   2    -0.851453594309E+03   -0.19290E-06   -0.56003E-06  4520   0.383E-03    0.312E-03
DAV:   3    -0.851453594359E+03   -0.50211E-07   -0.26707E-07  3180   0.112E-03    0.991E-04
DAV:   4    -0.851453594399E+03   -0.39654E-07   -0.10563E-07  3120   0.576E-04    0.381E-04
DAV:   5    -0.851453594401E+03   -0.21464E-08   -0.17012E-08  3120   0.308E-04    0.278E-04
DAV:   6    -0.851453594402E+03   -0.50932E-09   -0.36561E-09  3180   0.186E-04
 274 F= -.85934102E+03 E0= -.85934102E+03  d E =0.437358E-04  mag=    -0.0000
       N       E                     dE             d eps       ncg     rms          rms(c)
DAV:   1    -0.851453543241E+03    0.51160E-04   -0.47499E-04  4480   0.371E-02    0.527E-03
DAV:   2    -0.851453543434E+03   -0.19339E-06   -0.67461E-06  4480   0.439E-03    0.349E-03
DAV:   3    -0.851453543490E+03   -0.56163E-07   -0.37409E-07  3040   0.135E-03    0.102E-03
DAV:   4    -0.851453543531E+03   -0.40585E-07   -0.12970E-07  3040   0.655E-04    0.414E-04
DAV:   5    -0.851453543534E+03   -0.31141E-08   -0.19161E-08  3060   0.311E-04    0.287E-04
DAV:   6    -0.851453543536E+03   -0.16225E-08   -0.41568E-09  3220   0.181E-04
 275 F= -.85934098E+03 E0= -.85934098E+03  d E =0.432413E-04  mag=    -0.0000
       N       E                     dE             d eps       ncg     rms          rms(c)
DAV:   1    -0.851453495048E+03    0.48486E-04   -0.51100E-04  4480   0.396E-02    0.558E-03
DAV:   2    -0.851453495289E+03   -0.24143E-06   -0.79328E-06  4640   0.481E-03    0.365E-03
DAV:   3    -0.851453495311E+03   -0.21471E-07   -0.41507E-07  3040   0.139E-03    0.124E-03
DAV:   4    -0.851453495364E+03   -0.53558E-07   -0.13618E-07  2980   0.697E-04    0.419E-04
DAV:   5    -0.851453495373E+03   -0.86729E-08   -0.24949E-08  2960   0.343E-04    0.287E-04
DAV:   6    -0.851453495376E+03   -0.29395E-08   -0.52749E-09  3280   0.198E-04
 276 F= -.85934094E+03 E0= -.85934094E+03  d E =0.404702E-04  mag=    -0.0000
       N       E                     dE             d eps       ncg     rms          rms(c)
DAV:   1    -0.851453456515E+03    0.38858E-04   -0.70226E-04  4480   0.455E-02    0.639E-03
DAV:   2    -0.851453456863E+03   -0.34765E-06   -0.10946E-05  4640   0.553E-03    0.407E-03
DAV:   3    -0.851453456888E+03   -0.25189E-07   -0.50850E-07  3320   0.151E-03    0.157E-03
DAV:   4    -0.851453456977E+03   -0.88956E-07   -0.16891E-07  3120   0.776E-04    0.450E-04
DAV:   5    -0.851453456994E+03   -0.16953E-07   -0.34240E-08  3040   0.371E-04    0.300E-04
DAV:   6    -0.851453457000E+03   -0.56098E-08   -0.68296E-09  3200   0.203E-04
 277 F= -.85934091E+03 E0= -.85934091E+03  d E =0.308212E-04  mag=    -0.0000
