unknown system                          
           1
    17.271038    0.000000    0.000000
    -8.635519   14.957158    0.000000
     0.000000    0.000000   15.000000
   C    H    O 
    88    10     1
Direct configuration=     1
   0.00104295  0.00034262  0.50220079
   0.00041377  0.14289686  0.50318257
   0.00010123  0.28564237  0.50335601
   0.00039299  0.42867785  0.50379954
   0.00099756  0.57184106  0.50357224
   0.00212098  0.71509622  0.50273954
   0.00212188  0.85816187  0.50188097
   0.14416298  0.00065410  0.49969196
   0.14340582  0.14311559  0.49894505
   0.14244170  0.28529690  0.49637896
   0.14245876  0.42832039  0.49635840
   0.14338078  0.57143720  0.49900745
   0.14416710  0.71463419  0.50025398
   0.14441065  0.85776963  0.50058356
   0.28668270  0.00020703  0.49839719
   0.28630962  0.14282949  0.49490773
   0.28553488  0.28637100  0.48562151
   0.28329312  0.42728872  0.47690343
   0.28548048  0.57024693  0.48506803
   0.28636580  0.71463417  0.49441590
   0.28670528  0.85763294  0.49836850
   0.42957927  0.00038367  0.49830982
   0.42926594  0.14294892  0.49759027
   0.42719935  0.28248712  0.49467126
   0.42735440  0.71590118  0.49172615
   0.42928729  0.85748388  0.49616999
   0.57217544  0.00045270  0.49920314
   0.57218359  0.14298617  0.50044161
   0.57292707  0.28645117  0.50107318
   0.57302848  0.85776492  0.49710837
   0.71506235  0.00024650  0.50121433
   0.71509580  0.14316050  0.50282048
   0.71499676  0.28600038  0.50340607
   0.71469250  0.42828579  0.50332292
   0.71912430  0.57429611  0.50117135
   0.71920855  0.71620408  0.49878383
   0.71478442  0.85771476  0.49925306
   0.85806684  0.00037026  0.50269722
   0.85757820  0.14295195  0.50431800
   0.85754015  0.28576771  0.50485467
   0.85800815  0.42886270  0.50454242
   0.85887325  0.57239437  0.50339444
   0.86055464  0.71588317  0.50176746
   0.85893782  0.85772643  0.50124185
   0.04837457  0.09552128  0.50196795
   0.04739466  0.23779368  0.50182137
   0.04739288  0.38076996  0.50204290
   0.04835098  0.52400796  0.50274082
   0.04904868  0.66715610  0.50251378
   0.04938735  0.81026801  0.50184523
   0.04905297  0.95301968  0.50139473
   0.19119707  0.09539165  0.49748458
   0.19027054  0.23800992  0.49480361
   0.18891672  0.38004501  0.49134168
   0.19026266  0.52343808  0.49438759
   0.19122914  0.66695844  0.49762818
   0.19177386  0.81004168  0.49971632
   0.19176095  0.95284607  0.49946419
   0.33417162  0.09556437  0.49691374
   0.33429629  0.23798927  0.49092601
   0.32804855  0.37799273  0.47099493
   0.32834056  0.52132930  0.47145430
   0.33436609  0.66750521  0.48968720
   0.33419941  0.80978451  0.49637884
   0.33422440  0.95269220  0.49841587
   0.47705795  0.09539151  0.49885441
   0.47618633  0.23808522  0.49791222
   0.47623653  0.80929274  0.49496995
   0.47706145  0.95284099  0.49793418
   0.61968829  0.09546488  0.50091372
   0.61990401  0.23827056  0.50173406
   0.62176447  0.37975921  0.50254204
   0.62186174  0.81327437  0.49725629
   0.61996724  0.95290622  0.49916374
   0.76261125  0.09561002  0.50307848
   0.76256921  0.23819625  0.50396528
   0.76281894  0.38117364  0.50390524
   0.76313860  0.52559180  0.50280942
   0.76541931  0.66836256  0.50047493
   0.76326101  0.80888080  0.49963585
   0.76288155  0.95291167  0.50116927
   0.90524510  0.09516819  0.50391936
   0.90498165  0.23808407  0.50480554
   0.90520652  0.38122582  0.50486085
   0.90591326  0.52441964  0.50417301
   0.90697626  0.66753733  0.50289944
   0.90699319  0.81066131  0.50172444
   0.90599025  0.95272189  0.50224324
   0.46319343  0.35504956  0.49659478
   0.39872918  0.41260731  0.45315425
   0.39966535  0.55691423  0.45741482
   0.64671900  0.67684071  0.49797297
   0.64659651  0.54133781  0.50149551
   0.58592649  0.41645922  0.50292664
   0.58598543  0.74074396  0.49610060
   0.46337816  0.67930693  0.49200738
   0.49970057  0.54657923  0.59433116
   0.47448709  0.51336462  0.49846777
   0.52505272  0.55441636  0.53492443
Direct configuration=     2
   0.00103077  0.00033771  0.50219190
   0.00040735  0.14291801  0.50318118
   0.00011598  0.28563288  0.50336620
   0.00040231  0.42867431  0.50375013
   0.00098296  0.57184220  0.50354882
   0.00213887  0.71509767  0.50272855
   0.00209840  0.85813161  0.50189516
   0.14417570  0.00063875  0.49968224
   0.14343446  0.14315006  0.49894756
   0.14244170  0.28528919  0.49637487
   0.14247836  0.42831391  0.49633732
   0.14341557  0.57146362  0.49899623
   0.14418412  0.71468286  0.50024897
   0.14441131  0.85775098  0.50058354
   0.28667685  0.00017364  0.49839779
   0.28632426  0.14283027  0.49490535
   0.28551883  0.28637773  0.48561380
   0.28326861  0.42730461  0.47691676
   0.28547108  0.57024214  0.48507187
   0.28637301  0.71464080  0.49441420
   0.28668836  0.85761197  0.49835965
   0.42954663  0.00038112  0.49830421
   0.42928044  0.14296060  0.49760634
   0.42720845  0.28249257  0.49468741
   0.42734734  0.71592102  0.49172486
   0.42926909  0.85747140  0.49616650
   0.57217302  0.00045479  0.49919811
   0.57220120  0.14302279  0.50043642
   0.57294876  0.28645740  0.50107894
   0.57303837  0.85773102  0.49709493
   0.71508008  0.00022923  0.50120744
   0.71512264  0.14319399  0.50282015
   0.71500646  0.28600165  0.50341925
   0.71469360  0.42828057  0.50334617
   0.71912091  0.57428972  0.50118918
   0.71920774  0.71624179  0.49879587
   0.71480551  0.85771745  0.49926153
   0.85801841  0.00035060  0.50270504
   0.85755500  0.14292950  0.50429572
   0.85752475  0.28576208  0.50487783
   0.85797471  0.42884155  0.50456478
   0.85886675  0.57238818  0.50340352
   0.86057844  0.71591440  0.50176911
   0.85891300  0.85770827  0.50125146
   0.04839465  0.09555145  0.50196423
   0.04742414  0.23780441  0.50181119
   0.04741055  0.38076724  0.50204559
   0.04837371  0.52401780  0.50273029
   0.04907381  0.66715231  0.50251588
   0.04943503  0.81030127  0.50184034
   0.04905959  0.95302265  0.50138439
   0.19117609  0.09538223  0.49747808
   0.19026553  0.23802593  0.49477762
   0.18891320  0.38003876  0.49135931
   0.19027267  0.52342878  0.49438410
   0.19120707  0.66697405  0.49761735
   0.19176224  0.81002470  0.49971888
   0.19174505  0.95282027  0.49946225
   0.33416161  0.09553588  0.49694841
   0.33428795  0.23800984  0.49090482
   0.32800777  0.37798631  0.47101411
   0.32834569  0.52135338  0.47143835
   0.33435930  0.66751457  0.48970162
   0.33417737  0.80979382  0.49637484
   0.33422120  0.95266643  0.49841211
   0.47706860  0.09538598  0.49885497
   0.47623338  0.23810901  0.49791726
   0.47624555  0.80929457  0.49495625
   0.47704870  0.95283483  0.49794065
   0.61969987  0.09548623  0.50092217
   0.61992768  0.23827332  0.50173420
   0.62176039  0.37975068  0.50253706
   0.62189370  0.81325832  0.49725747
   0.61997288  0.95288668  0.49915793
   0.76259059  0.09559314  0.50305061
   0.76255506  0.23821363  0.50397705
   0.76281857  0.38116594  0.50390122
   0.76312286  0.52557197  0.50281922
   0.76541915  0.66837906  0.50048881
   0.76326479  0.80888770  0.49963859
   0.76287178  0.95289503  0.50117404
   0.90524052  0.09516052  0.50389648
   0.90499362  0.23808914  0.50478961
   0.90521488  0.38124070  0.50488328
   0.90589914  0.52438514  0.50418788
   0.90697524  0.66754412  0.50288220
   0.90697775  0.81069189  0.50172404
   0.90597970  0.95271564  0.50225597
   0.46319296  0.35505156  0.49659442
   0.39872789  0.41261177  0.45319381
   0.39967282  0.55691902  0.45743882
   0.64671482  0.67684025  0.49798942
   0.64659107  0.54133487  0.50150511
   0.58592573  0.41645840  0.50292576
   0.58598446  0.74074271  0.49610145
   0.46337403  0.67931162  0.49200554
   0.49969862  0.54657033  0.59434778
   0.47447818  0.51336363  0.49849324
   0.52501417  0.55436115  0.53498770
Direct configuration=     3
   0.00103397  0.00034068  0.50219221
   0.00041029  0.14291662  0.50318080
   0.00011776  0.28563437  0.50336756
   0.00040486  0.42867535  0.50374786
   0.00098535  0.57183932  0.50354746
   0.00214135  0.71509902  0.50272747
   0.00210309  0.85813818  0.50189635
   0.14417353  0.00063928  0.49968162
   0.14343243  0.14314918  0.49894674
   0.14244334  0.28529083  0.49637357
   0.14247731  0.42831351  0.49633578
   0.14341412  0.57146283  0.49899549
   0.14418253  0.71467923  0.50024877
   0.14441398  0.85775275  0.50058361
   0.28667496  0.00017137  0.49839777
   0.28632088  0.14282908  0.49490410
   0.28551668  0.28637842  0.48560997
   0.28326965  0.42730627  0.47691376
   0.28547275  0.57024509  0.48507019
   0.28636853  0.71464109  0.49441380
   0.28668631  0.85761123  0.49835876
   0.42954956  0.00037996  0.49830385
   0.42928197  0.14296025  0.49760730
   0.42720811  0.28249239  0.49468660
   0.42734682  0.71591893  0.49172367
   0.42927042  0.85747352  0.49616588
   0.57217406  0.00045488  0.49919793
   0.57220029  0.14301980  0.50043554
   0.57295235  0.28645769  0.50107886
   0.57304074  0.85773045  0.49709345
   0.71507554  0.00022815  0.50120665
   0.71511930  0.14319130  0.50282012
   0.71500558  0.28600280  0.50342028
   0.71469198  0.42827832  0.50334794
   0.71912063  0.57429192  0.50119049
   0.71920564  0.71623784  0.49879654
   0.71480524  0.85771521  0.49926239
   0.85802361  0.00035183  0.50270667
   0.85755651  0.14293100  0.50429350
   0.85752773  0.28576507  0.50488040
   0.85797759  0.42884119  0.50456771
   0.85886599  0.57238642  0.50340452
   0.86057557  0.71591518  0.50176891
   0.85891371  0.85771265  0.50125275
   0.04839360  0.09555224  0.50196461
   0.04742291  0.23780442  0.50181139
   0.04741128  0.38076664  0.50204475
   0.04837481  0.52401912  0.50272823
   0.04907198  0.66715437  0.50251588
   0.04943013  0.81029580  0.50184043
   0.04905704  0.95301812  0.50138418
   0.19118111  0.09538380  0.49747659
   0.19026668  0.23802668  0.49477402
   0.18891298  0.38003825  0.49135931
   0.19027381  0.52342950  0.49438278
   0.19121268  0.66697879  0.49761541
   0.19176458  0.81002871  0.49971932
   0.19174850  0.95281894  0.49946221
   0.33416386  0.09553625  0.49695024
   0.33429042  0.23800972  0.49090174
   0.32800810  0.37799031  0.47101027
   0.32834458  0.52135308  0.47143402
   0.33435833  0.66751474  0.48970189
   0.33417731  0.80979158  0.49637401
   0.33421763  0.95266375  0.49841141
   0.47706809  0.09538863  0.49885466
   0.47623247  0.23810898  0.49791719
   0.47624529  0.80929570  0.49495473
   0.47704707  0.95283453  0.49794106
   0.61970194  0.09548811  0.50092264
   0.61992920  0.23827655  0.50173389
   0.62176224  0.37975250  0.50253696
   0.62189511  0.81325773  0.49725734
   0.61997301  0.95288476  0.49915735
   0.76259225  0.09559314  0.50304911
   0.76255877  0.23821437  0.50397895
   0.76281565  0.38116470  0.50390226
   0.76312350  0.52557220  0.50282075
   0.76542057  0.66838014  0.50048987
   0.76326488  0.80889007  0.49963904
   0.76287064  0.95289332  0.50117496
   0.90523638  0.09515895  0.50389489
   0.90499106  0.23808647  0.50478918
   0.90521178  0.38123764  0.50488547
   0.90589649  0.52438682  0.50418975
   0.90697759  0.66754519  0.50288118
   0.90697796  0.81068930  0.50172437
   0.90597515  0.95271419  0.50225773
   0.46319323  0.35505254  0.49659289
   0.39872372  0.41261034  0.45319150
   0.39967380  0.55691985  0.45743480
   0.64671493  0.67684110  0.49799023
   0.64659053  0.54133474  0.50150545
   0.58592578  0.41645786  0.50292531
   0.58598435  0.74074091  0.49610132
   0.46337240  0.67931306  0.49200479
   0.49969621  0.54657045  0.59436594
   0.47447196  0.51335905  0.49850493
   0.52501471  0.55435818  0.53499423
Direct configuration=     4
   0.00103945  0.00034580  0.50219342
   0.00041465  0.14291441  0.50318124
   0.00012083  0.28563685  0.50337102
   0.00040949  0.42867710  0.50374432
   0.00098951  0.57183427  0.50354556
   0.00214560  0.71510136  0.50272589
   0.00211130  0.85814939  0.50189910
   0.14416990  0.00064008  0.49968033
   0.14342911  0.14314777  0.49894467
   0.14244636  0.28529390  0.49637020
   0.14247569  0.42831283  0.49633224
   0.14341207  0.57146175  0.49899416
   0.14417981  0.71467299  0.50024873
   0.14441860  0.85775568  0.50058404
   0.28667190  0.00016732  0.49839739
   0.28631540  0.14282703  0.49490012
   0.28551308  0.28638001  0.48559874
   0.28327132  0.42730943  0.47690299
   0.28547588  0.57025056  0.48506428
   0.28636084  0.71464180  0.49441246
   0.28668276  0.85760976  0.49835707
   0.42955473  0.00037858  0.49830292
   0.42928479  0.14295984  0.49760827
   0.42720776  0.28249229  0.49468278
   0.42734567  0.71591529  0.49172052
   0.42927276  0.85747718  0.49616444
   0.57217601  0.00045497  0.49919770
   0.57219877  0.14301468  0.50043374
   0.57295893  0.28645842  0.50107817
   0.57304512  0.85772909  0.49709052
   0.71506751  0.00022608  0.50120563
   0.71511379  0.14318668  0.50282072
   0.71500425  0.28600488  0.50342267
   0.71468919  0.42827443  0.50335136
   0.71912022  0.57429585  0.50119218
   0.71920205  0.71623099  0.49879680
   0.71480496  0.85771119  0.49926410
   0.85803216  0.00035366  0.50271017
   0.85755913  0.14293358  0.50429014
   0.85753315  0.28577024  0.50488643
   0.85798253  0.42884048  0.50457416
   0.85886461  0.57238352  0.50340673
   0.86057071  0.71591662  0.50176851
   0.85891489  0.85772034  0.50125555
   0.04839198  0.09555363  0.50196578
   0.04742101  0.23780446  0.50181223
   0.04741283  0.38076569  0.50204368
   0.04837707  0.52402138  0.50272492
   0.04906889  0.66715772  0.50251647
   0.04942175  0.81028636  0.50184106
   0.04905277  0.95301052  0.50138413
   0.19118980  0.09538649  0.49747297
   0.19026871  0.23802796  0.49476559
   0.18891278  0.38003750  0.49135749
   0.19027597  0.52343088  0.49437946
   0.19122194  0.66698689  0.49761217
   0.19176829  0.81003513  0.49972010
   0.19175453  0.95281660  0.49946208
   0.33416788  0.09553680  0.49695285
   0.33429466  0.23800954  0.49089299
   0.32800806  0.37799731  0.47099633
   0.32834249  0.52135281  0.47141971
   0.33435651  0.66751521  0.48970101
   0.33417722  0.80978761  0.49637220
   0.33421139  0.95265879  0.49840986
   0.47706739  0.09539319  0.49885368
   0.47623118  0.23810907  0.49791584
   0.47624496  0.80929762  0.49495143
   0.47704451  0.95283413  0.49794176
   0.61970553  0.09549123  0.50092378
   0.61993202  0.23828212  0.50173320
   0.62176559  0.37975573  0.50253648
   0.62189763  0.81325624  0.49725694
   0.61997305  0.95288111  0.49915641
   0.76259511  0.09559301  0.50304692
   0.76256556  0.23821574  0.50398343
   0.76281060  0.38116249  0.50390468
   0.76312439  0.52557262  0.50282356
   0.76542293  0.66838212  0.50049120
   0.76326498  0.80889399  0.49963968
   0.76286868  0.95289023  0.50117723
   0.90522942  0.09515627  0.50389274
   0.90498686  0.23808191  0.50478944
   0.90520679  0.38123243  0.50489071
   0.90589202  0.52438965  0.50419404
   0.90698180  0.66754714  0.50287946
   0.90697855  0.81068582  0.50172555
   0.90596763  0.95271202  0.50226183
   0.46319364  0.35505443  0.49658766
   0.39871522  0.41260713  0.45317645
   0.39967514  0.55692123  0.45741819
   0.64671492  0.67684253  0.49799023
   0.64658943  0.54133460  0.50150492
   0.58592589  0.41645683  0.50292410
   0.58598421  0.74073744  0.49610081
   0.46336930  0.67931547  0.49200267
   0.49969483  0.54657452  0.59441085
   0.47445528  0.51334590  0.49854034
   0.52501477  0.55435306  0.53501431
Direct configuration=     5
   0.00104488  0.00035201  0.50219582
   0.00041896  0.14291181  0.50318333
   0.00012426  0.28563942  0.50337734
   0.00041532  0.42867899  0.50374073
   0.00099429  0.57182835  0.50354413
   0.00215032  0.71510403  0.50272451
   0.00212094  0.85816190  0.50190379
   0.14416606  0.00064073  0.49967828
   0.14342576  0.14314639  0.49894086
   0.14245027  0.28529790  0.49636393
   0.14247423  0.42831211  0.49632616
   0.14341077  0.57146125  0.49899238
   0.14417665  0.71466592  0.50024925
   0.14442387  0.85775873  0.50058516
   0.28666884  0.00016241  0.49839627
   0.28630999  0.14282476  0.49489178
   0.28550923  0.28638277  0.48557613
   0.28327318  0.42731378  0.47687953
   0.28548065  0.57025690  0.48505132
   0.28635207  0.71464319  0.49440950
   0.28667860  0.85760756  0.49835464
   0.42956067  0.00037725  0.49830121
   0.42928842  0.14295984  0.49760813
   0.42720791  0.28249265  0.49467345
   0.42734417  0.71591167  0.49171506
   0.42927551  0.85748139  0.49616193
   0.57217864  0.00045486  0.49919762
   0.57219716  0.14300895  0.50043101
   0.57296737  0.28645980  0.50107624
   0.57305077  0.85772662  0.49708619
   0.71505787  0.00022322  0.50120502
   0.71510807  0.14318140  0.50282270
   0.71500323  0.28600747  0.50342678
   0.71468598  0.42826998  0.50335619
   0.71911988  0.57430072  0.50119312
   0.71919802  0.71622303  0.49879544
   0.71480589  0.85770713  0.49926661
   0.85804164  0.00035555  0.50271623
   0.85756212  0.14293651  0.50428692
   0.85754004  0.28577612  0.50489684
   0.85798809  0.42883943  0.50458466
   0.85886292  0.57238056  0.50341035
   0.86056542  0.71591851  0.50176789
   0.85891613  0.85772953  0.50126004
   0.04839054  0.09555528  0.50196821
   0.04741928  0.23780460  0.50181416
   0.04741523  0.38076483  0.50204308
   0.04838048  0.52402392  0.50272129
   0.04906545  0.66716103  0.50251828
   0.04941232  0.81027560  0.50184268
   0.04904818  0.95300246  0.50138470
   0.19119975  0.09538947  0.49746651
   0.19027113  0.23802942  0.49475102
   0.18891291  0.38003697  0.49135168
   0.19027884  0.52343282  0.49437336
   0.19123242  0.66699636  0.49760779
   0.19177232  0.81004215  0.49972143
   0.19176118  0.95281453  0.49946135
   0.33417281  0.09553721  0.49695495
   0.33429945  0.23800941  0.49087563
   0.32800665  0.37800572  0.47096528
   0.32833984  0.52135324  0.47138915
   0.33435392  0.66751543  0.48969731
   0.33417714  0.80978283  0.49636926
   0.33420407  0.95265233  0.49840733
   0.47706701  0.09539845  0.49885160
   0.47623042  0.23810956  0.49791186
   0.47624489  0.80929981  0.49494606
   0.47704216  0.95283406  0.49794261
   0.61970965  0.09549449  0.50092578
   0.61993568  0.23828848  0.50173204
   0.62176976  0.37975966  0.50253526
   0.62190070  0.81325339  0.49725613
   0.61997257  0.95287610  0.49915536
   0.76259766  0.09559268  0.50304492
   0.76257424  0.23821752  0.50399117
   0.76280478  0.38115979  0.50390892
   0.76312491  0.52557319  0.50282727
   0.76542545  0.66838467  0.50049185
   0.76326494  0.80889806  0.49964017
   0.76286637  0.95288631  0.50118128
   0.90522183  0.09515330  0.50389126
   0.90498259  0.23807685  0.50479169
   0.90520199  0.38122668  0.50489991
   0.90588712  0.52439275  0.50420129
   0.90698688  0.66754963  0.50287740
   0.90697978  0.81068309  0.50172787
   0.90595980  0.95271044  0.50226889
   0.46319399  0.35505711  0.49657634
   0.39870257  0.41260195  0.45313691
   0.39967601  0.55692276  0.45737948
   0.64671444  0.67684412  0.49798760
   0.64658780  0.54133467  0.50150218
   0.58592609  0.41645540  0.50292178
   0.58598416  0.74073255  0.49609968
   0.46336508  0.67931815  0.49199850
   0.49969895  0.54658703  0.59449045
   0.47442369  0.51331996  0.49861286
   0.52501067  0.55434595  0.53505878
Direct configuration=     6
   0.00104880  0.00035778  0.50220011
   0.00042184  0.14290937  0.50318791
   0.00012716  0.28564118  0.50338725
   0.00042143  0.42868045  0.50373834
   0.00099861  0.57182348  0.50354459
   0.00215416  0.71510632  0.50272405
   0.00212838  0.85817127  0.50191071
   0.14416332  0.00064092  0.49967536
   0.14342373  0.14314567  0.49893474
   0.14245449  0.28530232  0.49635390
   0.14247379  0.42831172  0.49631704
   0.14341170  0.57146222  0.49899026
   0.14417382  0.71465994  0.50025072
   0.14442841  0.85776086  0.50058729
   0.28666775  0.00015884  0.49839359
   0.28630698  0.14282295  0.49487740
   0.28550640  0.28638695  0.48553807
   0.28327425  0.42731951  0.47683832
   0.28548642  0.57026337  0.48502839
   0.28634459  0.71464540  0.49440424
   0.28667483  0.85760465  0.49835155
   0.42956578  0.00037624  0.49829850
   0.42929239  0.14296075  0.49760572
   0.42720906  0.28249387  0.49465606
   0.42734206  0.71590912  0.49170635
   0.42927810  0.85748510  0.49615809
   0.57218165  0.00045438  0.49919783
   0.57219722  0.14300481  0.50042781
   0.57297638  0.28646205  0.50107240
   0.57305682  0.85772270  0.49708053
   0.71504951  0.00021908  0.50120546
   0.71510425  0.14317695  0.50282681
   0.71500335  0.28601007  0.50343297
   0.71468325  0.42826621  0.50336215
   0.71911981  0.57430562  0.50119218
   0.71919494  0.71621678  0.49879175
   0.71480817  0.85770371  0.49926983
   0.85804791  0.00035627  0.50272544
   0.85756399  0.14293823  0.50428550
   0.85754733  0.28578118  0.50491252
   0.85799276  0.42883811  0.50459974
   0.85886124  0.57237869  0.50341556
   0.86056142  0.71592075  0.50176702
   0.85891703  0.85773828  0.50126642
   0.04839005  0.09555690  0.50197230
   0.04741865  0.23780492  0.50181763
   0.04741851  0.38076450  0.50204365
   0.04838501  0.52402605  0.50271826
   0.04906267  0.66716292  0.50252187
   0.04940454  0.81026643  0.50184577
   0.04904477  0.95299670  0.50138632
   0.19120817  0.09539146  0.49745705
   0.19027365  0.23803015  0.49472942
   0.18891383  0.38003723  0.49133964
   0.19028222  0.52343525  0.49436365
   0.19124150  0.66700506  0.49760246
   0.19177559  0.81004783  0.49972353
   0.19176625  0.95281359  0.49945963
   0.33417777  0.09553719  0.49695517
   0.33430356  0.23800958  0.49084674
   0.32800289  0.37801374  0.47091008
   0.32833648  0.52135425  0.47133709
   0.33435087  0.66751582  0.48968906
   0.33417717  0.80977839  0.49636504
   0.33419749  0.95264529  0.49840366
   0.47706747  0.09540309  0.49884798
   0.47623116  0.23811078  0.49790387
   0.47624545  0.80930173  0.49493831
   0.47704125  0.95283476  0.49794341
   0.61971327  0.09549676  0.50092877
   0.61993973  0.23829396  0.50173034
   0.62177405  0.37976350  0.50253295
   0.62190384  0.81324877  0.49725472
   0.61997122  0.95287019  0.49915442
   0.76259907  0.09559190  0.50304408
   0.76258277  0.23821926  0.50400280
   0.76279974  0.38115717  0.50391544
   0.76312446  0.52557389  0.50283151
   0.76542735  0.66838743  0.50049085
   0.76326471  0.80890084  0.49964021
   0.76286428  0.95288228  0.50118755
   0.90521593  0.09515088  0.50389170
   0.90497994  0.23807275  0.50479726
   0.90519957  0.38122215  0.50491394
   0.90588330  0.52439439  0.50421179
   0.90699174  0.66755230  0.50287538
   0.90698188  0.81068278  0.50173159
   0.90595443  0.95271077  0.50227950
   0.46319411  0.35506042  0.49655652
   0.39868609  0.41259471  0.45306116
   0.39967551  0.55692403  0.45730919
   0.64671317  0.67684543  0.49798051
   0.64658574  0.54133519  0.50149587
   0.58592641  0.41645371  0.50291799
   0.58598434  0.74072652  0.49609762
   0.46336013  0.67932036  0.49199156
   0.49971332  0.54661253  0.59461186
   0.47437305  0.51327726  0.49873596
   0.52499822  0.55433743  0.53513815
Direct configuration=     7
   0.00105016  0.00036218  0.50220646
   0.00042238  0.14290756  0.50319563
   0.00012900  0.28564147  0.50340130
   0.00042714  0.42868111  0.50373828
   0.00100153  0.57182055  0.50354780
   0.00215574  0.71510722  0.50272563
   0.00213216  0.85817510  0.50192012
   0.14416260  0.00064044  0.49967150
   0.14342411  0.14314597  0.49892580
   0.14245855  0.28530653  0.49633939
   0.14247506  0.42831199  0.49630445
   0.14341591  0.57146523  0.49898781
   0.14417190  0.71465653  0.50025346
   0.14443110  0.85776136  0.50059067
   0.28666929  0.00015711  0.49838909
   0.28630797  0.14282206  0.49485558
   0.28550554  0.28639253  0.48548113
   0.28327364  0.42732616  0.47677475
   0.28549220  0.57026912  0.48499415
   0.28634024  0.71464839  0.49439609
   0.28667225  0.85760107  0.49834786
   0.42956802  0.00037505  0.49829443
   0.42929598  0.14296315  0.49759975
   0.42721207  0.28249651  0.49462883
   0.42733910  0.71590844  0.49169361
   0.42928016  0.85748751  0.49615268
   0.57218470  0.00045334  0.49919848
   0.57219926  0.14300340  0.50042412
   0.57298450  0.28646500  0.50106664
   0.57306176  0.85771725  0.49707411
   0.71504397  0.00021400  0.50120747
   0.71510389  0.14317448  0.50283369
   0.71500527  0.28601216  0.50344154
   0.71468240  0.42826498  0.50336906
   0.71912020  0.57430928  0.50118818
   0.71919347  0.71621359  0.49878467
   0.71481167  0.85770125  0.49927373
   0.85804930  0.00035561  0.50273837
   0.85756420  0.14293819  0.50428693
   0.85755411  0.28578419  0.50493422
   0.85799537  0.42883650  0.50461989
   0.85885989  0.57237867  0.50342252
   0.86056008  0.71592331  0.50176589
   0.85891741  0.85774498  0.50127486
   0.04839103  0.09555830  0.50197840
   0.04741980  0.23780546  0.50182303
   0.04742262  0.38076490  0.50204595
   0.04839058  0.52402724  0.50271662
   0.04906129  0.66716238  0.50252772
   0.04940040  0.81026175  0.50185075
   0.04904373  0.95299545  0.50138886
   0.19121321  0.09539190  0.49744392
   0.19027573  0.23803087  0.49470027
   0.18891595  0.38003879  0.49131939
   0.19028604  0.52343803  0.49434961
   0.19124708  0.66701131  0.49759635
   0.19177717  0.81005057  0.49972656
   0.19176875  0.95281397  0.49945692
   0.33418215  0.09553660  0.49695233
   0.33430569  0.23800998  0.49080437
   0.32799607  0.37801980  0.47082480
   0.32833319  0.52135672  0.47125808
   0.33434769  0.66751674  0.48967472
   0.33417743  0.80977526  0.49635938
   0.33419319  0.95263857  0.49839872
   0.47706920  0.09540608  0.49884250
   0.47623419  0.23811304  0.49789076
   0.47624692  0.80930295  0.49492795
   0.47704266  0.95283646  0.49794395
   0.61971570  0.09549715  0.50093286
   0.61994384  0.23829724  0.50172801
   0.62177784  0.37976658  0.50252929
   0.62190676  0.81324215  0.49725255
   0.61996893  0.95286370  0.49915375
   0.76259876  0.09559030  0.50304522
   0.76258947  0.23822048  0.50401834
   0.76279680  0.38115518  0.50392469
   0.76312267  0.52557468  0.50283603
   0.76542810  0.66839010  0.50048739
   0.76326441  0.80890135  0.49963959
   0.76286282  0.95287863  0.50119638
   0.90521369  0.09514967  0.50389560
   0.90498013  0.23807063  0.50480730
   0.90520121  0.38122020  0.50493355
   0.90588166  0.52439400  0.50422597
   0.90699537  0.66755479  0.50287374
   0.90698477  0.81068591  0.50173693
   0.90595337  0.95271382  0.50229415
   0.46319384  0.35506422  0.49652624
   0.39866606  0.41258541  0.45293969
   0.39967277  0.55692456  0.45719969
   0.64671092  0.67684615  0.49796748
   0.64658336  0.54133636  0.50148492
   0.58592684  0.41645186  0.50291242
   0.58598487  0.74071951  0.49609443
   0.46335475  0.67932144  0.49198129
   0.49974204  0.54665477  0.59478033
   0.47430026  0.51321477  0.49892100
   0.52497455  0.55432805  0.53526191
Direct configuration=     8
   0.00104877  0.00036459  0.50221485
   0.00042021  0.14290755  0.50320518
   0.00012970  0.28564007  0.50341911
   0.00043209  0.42868090  0.50374048
   0.00100253  0.57181985  0.50355363
   0.00215469  0.71510639  0.50272913
   0.00213166  0.85817262  0.50193178
   0.14416425  0.00063936  0.49966664
   0.14342743  0.14314740  0.49891393
   0.14246202  0.28531002  0.49632058
   0.14247840  0.42831323  0.49628853
   0.14342377  0.57147048  0.49898470
   0.14417116  0.71465657  0.50025731
   0.14443127  0.85776005  0.50059521
   0.28667351  0.00015730  0.49838293
   0.28631354  0.14282233  0.49482666
   0.28550644  0.28639911  0.48540643
   0.28327001  0.42733288  0.47669117
   0.28549679  0.57027334  0.48494958
   0.28633998  0.71465191  0.49438507
   0.28667123  0.85759684  0.49834354
   0.42956682  0.00037390  0.49828906
   0.42929951  0.14296680  0.49759084
   0.42721683  0.28250053  0.49459207
   0.42733515  0.71591013  0.49167699
   0.42928155  0.85748826  0.49614568
   0.57218746  0.00045162  0.49919956
   0.57220328  0.14300519  0.50042000
   0.57299092  0.28646850  0.50105898
   0.57306487  0.85771002  0.49706688
   0.71504197  0.00020827  0.50121092
   0.71510762  0.14317464  0.50284319
   0.71500929  0.28601328  0.50345245
   0.71468384  0.42826685  0.50337690
   0.71912074  0.57431123  0.50118143
   0.71919369  0.71621410  0.49877448
   0.71481592  0.85769972  0.49927830
   0.85804554  0.00035448  0.50275454
   0.85756251  0.14293613  0.50429087
   0.85756010  0.28578452  0.50496109
   0.85799468  0.42883425  0.50464466
   0.85885951  0.57238075  0.50343067
   0.86056317  0.71592594  0.50176474
   0.85891783  0.85774807  0.50128487
   0.04839365  0.09555948  0.50198629
   0.04742303  0.23780607  0.50182967
   0.04742737  0.38076598  0.50204977
   0.04839697  0.52402735  0.50271605
   0.04906157  0.66715904  0.50253548
   0.04940108  0.81026265  0.50185750
   0.04904540  0.95299949  0.50139228
   0.19121335  0.09539038  0.49742781
   0.19027733  0.23803177  0.49466373
   0.18891956  0.38004209  0.49129099
   0.19029043  0.52344112  0.49433126
   0.19124689  0.66701280  0.49758985
   0.19177645  0.81004936  0.49973037
   0.19176833  0.95281558  0.49945323
   0.33418565  0.09553554  0.49694643
   0.33430527  0.23801183  0.49075005
   0.32798588  0.37802327  0.47071272
   0.32833159  0.52136124  0.47115556
   0.33434534  0.66751838  0.48965442
   0.33417806  0.80977425  0.49635228
   0.33419263  0.95263384  0.49839308
   0.47707228  0.09540684  0.49883526
   0.47623994  0.23811662  0.49787285
   0.47624935  0.80930323  0.49491502
   0.47704660  0.95283911  0.49794410
   0.61971637  0.09549551  0.50093727
   0.61994790  0.23829766  0.50172510
   0.62178079  0.37976848  0.50252440
   0.62190933  0.81323353  0.49724960
   0.61996586  0.95285686  0.49915321
   0.76259642  0.09558747  0.50304811
   0.76259397  0.23822123  0.50403709
   0.76279684  0.38115427  0.50393691
   0.76311962  0.52557562  0.50284100
   0.76542758  0.66839247  0.50048166
   0.76326433  0.80889926  0.49963853
   0.76286209  0.95287560  0.50120764
   0.90521514  0.09514966  0.50390225
   0.90498364  0.23807083  0.50482170
   0.90520765  0.38122158  0.50495851
   0.90588265  0.52439143  0.50424367