  97  97   0   0
  0.3994726E+02  0.1727104E-08  0.1727104E-08  0.1500000E-08  0.5000000E-16
   1.0000000000000000E-004
  CAR 
 unknown system                          
      5.89934936    -31.37831127  301     -2.55489522      1.00000000
    -31.378  0.0000E+00  0.0000E+00  0.0000E+00  0.0000E+00
    -31.254  0.0000E+00  0.0000E+00  0.0000E+00  0.0000E+00
    -31.130  0.0000E+00  0.0000E+00  0.0000E+00  0.0000E+00
    -31.006  0.0000E+00  0.0000E+00  0.0000E+00  0.0000E+00
    -30.881  0.0000E+00  0.0000E+00  0.0000E+00  0.0000E+00
    -30.757  0.0000E+00  0.0000E+00  0.0000E+00  0.0000E+00
    -30.633  0.0000E+00  0.0000E+00  0.0000E+00  0.0000E+00
    -30.508  0.0000E+00  0.0000E+00  0.0000E+00  0.0000E+00
    -30.384  0.0000E+00  0.0000E+00  0.0000E+00  0.0000E+00
    -30.260  0.0000E+00  0.0000E+00  0.0000E+00  0.0000E+00
    -30.136  0.0000E+00  0.0000E+00  0.0000E+00  0.0000E+00
    -30.011  0.0000E+00  0.0000E+00  0.0000E+00  0.0000E+00
    -29.887  0.1183E-09  0.1183E-09  0.1470E-10  0.1470E-10
    -29.763  0.3388E-03  0.3388E-03  0.4209E-04  0.4209E-04
    -29.639  0.2378E-01  0.2378E-01  0.2997E-02  0.2997E-02
    -29.514  0.6317E-02  0.6317E-02  0.3782E-02  0.3782E-02
    -29.390  0.2306E-01  0.2306E-01  0.6648E-02  0.6648E-02
    -29.266  0.2185E-01  0.2185E-01  0.9363E-02  0.9363E-02
    -29.142  0.5184E-01  0.5184E-01  0.1580E-01  0.1580E-01
    -29.017  0.3069E-01  0.3069E-01  0.1962E-01  0.1962E-01
    -28.893  0.3077E-02  0.3077E-02  0.2000E-01  0.2000E-01
    -28.769  0.3217E-07  0.3217E-07  0.2000E-01  0.2000E-01
    -28.645  0.0000E+00  0.0000E+00  0.2000E-01  0.2000E-01
    -28.520  0.0000E+00  0.0000E+00  0.2000E-01  0.2000E-01
    -28.396  0.0000E+00  0.0000E+00  0.2000E-01  0.2000E-01
    -28.272  0.0000E+00  0.0000E+00  0.2000E-01  0.2000E-01
    -28.148  0.0000E+00  0.0000E+00  0.2000E-01  0.2000E-01
    -28.023  0.0000E+00  0.0000E+00  0.2000E-01  0.2000E-01
    -27.899  0.0000E+00  0.0000E+00  0.2000E-01  0.2000E-01
    -27.775  0.0000E+00  0.0000E+00  0.2000E-01  0.2000E-01
    -27.651  0.0000E+00  0.0000E+00  0.2000E-01  0.2000E-01
    -27.526  0.0000E+00  0.0000E+00  0.2000E-01  0.2000E-01
    -27.402  0.0000E+00  0.0000E+00  0.2000E-01  0.2000E-01
    -27.278  0.0000E+00  0.0000E+00  0.2000E-01  0.2000E-01
    -27.154  0.0000E+00  0.0000E+00  0.2000E-01  0.2000E-01
    -27.029  0.0000E+00  0.0000E+00  0.2000E-01  0.2000E-01
    -26.905  0.0000E+00  0.0000E+00  0.2000E-01  0.2000E-01
    -26.781  0.0000E+00  0.0000E+00  0.2000E-01  0.2000E-01
    -26.656  0.0000E+00  0.0000E+00  0.2000E-01  0.2000E-01
    -26.532  0.0000E+00  0.0000E+00  0.2000E-01  0.2000E-01
    -26.408  0.0000E+00  0.0000E+00  0.2000E-01  0.2000E-01
    -26.284  0.0000E+00  0.0000E+00  0.2000E-01  0.2000E-01
    -26.159  0.0000E+00  0.0000E+00  0.2000E-01  0.2000E-01
    -26.035  0.0000E+00  0.0000E+00  0.2000E-01  0.2000E-01
    -25.911  0.0000E+00  0.0000E+00  0.2000E-01  0.2000E-01
    -25.787  0.0000E+00  0.0000E+00  0.2000E-01  0.2000E-01
    -25.662  0.0000E+00  0.0000E+00  0.2000E-01  0.2000E-01
    -25.538  0.0000E+00  0.0000E+00  0.2000E-01  0.2000E-01
    -25.414  0.0000E+00  0.0000E+00  0.2000E-01  0.2000E-01
    -25.290  0.0000E+00  0.0000E+00  0.2000E-01  0.2000E-01
    -25.165  0.0000E+00  0.0000E+00  0.2000E-01  0.2000E-01
    -25.041  0.0000E+00  0.0000E+00  0.2000E-01  0.2000E-01
    -24.917  0.0000E+00  0.0000E+00  0.2000E-01  0.2000E-01
    -24.793  0.0000E+00  0.0000E+00  0.2000E-01  0.2000E-01
    -24.668  0.0000E+00  0.0000E+00  0.2000E-01  0.2000E-01
    -24.544  0.0000E+00  0.0000E+00  0.2000E-01  0.2000E-01
    -24.420  0.0000E+00  0.0000E+00  0.2000E-01  0.2000E-01
    -24.296  0.0000E+00  0.0000E+00  0.2000E-01  0.2000E-01
    -24.171  0.0000E+00  0.0000E+00  0.2000E-01  0.2000E-01
    -24.047  0.0000E+00  0.0000E+00  0.2000E-01  0.2000E-01
    -23.923  0.0000E+00  0.0000E+00  0.2000E-01  0.2000E-01
    -23.799  0.0000E+00  0.0000E+00  0.2000E-01  0.2000E-01
    -23.674  0.0000E+00  0.0000E+00  0.2000E-01  0.2000E-01
    -23.550  0.0000E+00  0.0000E+00  0.2000E-01  0.2000E-01
    -23.426  0.0000E+00  0.0000E+00  0.2000E-01  0.2000E-01
    -23.301  0.0000E+00  0.0000E+00  0.2000E-01  0.2000E-01
    -23.177  0.0000E+00  0.0000E+00  0.2000E-01  0.2000E-01
    -23.053  0.0000E+00  0.0000E+00  0.2000E-01  0.2000E-01
    -22.929  0.0000E+00  0.0000E+00  0.2000E-01  0.2000E-01
    -22.804  0.0000E+00  0.0000E+00  0.2000E-01  0.2000E-01
    -22.680  0.0000E+00  0.0000E+00  0.2000E-01  0.2000E-01
    -22.556  0.5126E-10  0.5126E-10  0.2000E-01  0.2000E-01
    -22.432  0.2351E-03  0.2351E-03  0.2003E-01  0.2003E-01
    -22.307  0.3729E-01  0.3729E-01  0.2466E-01  0.2466E-01
    -22.183  0.1612E-01  0.1612E-01  0.2667E-01  0.2667E-01
    -22.059  0.4613E-05  0.4613E-05  0.2667E-01  0.2667E-01
    -21.935  0.3825E-03  0.3825E-03  0.2671E-01  0.2671E-01
    -21.810  0.3358E-01  0.3358E-01  0.3089E-01  0.3089E-01
    -21.686  0.3677E-01  0.3677E-01  0.3546E-01  0.3546E-01
    -21.562  0.1112E-01  0.1112E-01  0.3684E-01  0.3684E-01
    -21.438  0.3169E-01  0.3169E-01  0.4077E-01  0.4077E-01
    -21.313  0.7141E-02  0.7141E-02  0.4166E-01  0.4166E-01
    -21.189  0.2099E-01  0.2099E-01  0.4427E-01  0.4427E-01
    -21.065  0.3222E-01  0.3222E-01  0.4827E-01  0.4827E-01
    -20.941  0.2539E-01  0.2539E-01  0.5143E-01  0.5143E-01
    -20.816  0.1453E-01  0.1453E-01  0.5323E-01  0.5323E-01
    -20.692  0.1677E-01  0.1677E-01  0.5532E-01  0.5532E-01
    -20.568  0.2295E-01  0.2295E-01  0.5817E-01  0.5817E-01
    -20.444  0.2591E-01  0.2591E-01  0.6139E-01  0.6139E-01
    -20.319  0.3566E-01  0.3566E-01  0.6582E-01  0.6582E-01
    -20.195  0.1593E-01  0.1593E-01  0.6780E-01  0.6780E-01
    -20.071  0.5311E-02  0.5311E-02  0.6846E-01  0.6846E-01
    -19.946  0.2319E-01  0.2319E-01  0.7134E-01  0.7134E-01
    -19.822  0.2525E-01  0.2525E-01  0.7448E-01  0.7448E-01
    -19.698  0.2881E-01  0.2881E-01  0.7806E-01  0.7806E-01
    -19.574  0.3855E-01  0.3855E-01  0.8285E-01  0.8285E-01
    -19.449  0.2421E-01  0.2421E-01  0.8586E-01  0.8586E-01
    -19.325  0.1590E-01  0.1590E-01  0.8783E-01  0.8783E-01
    -19.201  0.1481E-01  0.1481E-01  0.8967E-01  0.8967E-01
    -19.077  0.1769E-01  0.1769E-01  0.9187E-01  0.9187E-01
    -18.952  0.1604E-01  0.1604E-01  0.9386E-01  0.9386E-01
    -18.828  0.1995E-01  0.1995E-01  0.9634E-01  0.9634E-01
    -18.704  0.5252E-01  0.5252E-01  0.1029E+00  0.1029E+00
    -18.580  0.2429E-01  0.2429E-01  0.1059E+00  0.1059E+00
    -18.455  0.1754E-01  0.1754E-01  0.1081E+00  0.1081E+00
    -18.331  0.3452E-01  0.3452E-01  0.1124E+00  0.1124E+00
    -18.207  0.1682E-01  0.1682E-01  0.1144E+00  0.1144E+00
    -18.083  0.1544E-01  0.1544E-01  0.1164E+00  0.1164E+00
    -17.958  0.1805E-01  0.1805E-01  0.1186E+00  0.1186E+00
    -17.834  0.2091E-01  0.2091E-01  0.1212E+00  0.1212E+00
    -17.710  0.2112E-01  0.2112E-01  0.1238E+00  0.1238E+00
    -17.586  0.4955E-01  0.4955E-01  0.1300E+00  0.1300E+00
    -17.461  0.3705E-01  0.3705E-01  0.1346E+00  0.1346E+00
    -17.337  0.3436E-01  0.3436E-01  0.1389E+00  0.1389E+00
    -17.213  0.1304E-01  0.1304E-01  0.1405E+00  0.1405E+00
    -17.089  0.2205E-01  0.2205E-01  0.1432E+00  0.1432E+00
    -16.964  0.2902E-01  0.2902E-01  0.1468E+00  0.1468E+00
    -16.840  0.1884E-01  0.1884E-01  0.1492E+00  0.1492E+00
    -16.716  0.2000E-01  0.2000E-01  0.1517E+00  0.1517E+00
    -16.592  0.3534E-01  0.3534E-01  0.1560E+00  0.1560E+00
    -16.467  0.4728E-01  0.4728E-01  0.1619E+00  0.1619E+00
    -16.343  0.2314E-01  0.2314E-01  0.1648E+00  0.1648E+00
    -16.219  0.1769E-02  0.1769E-02  0.1650E+00  0.1650E+00
    -16.094  0.9214E-02  0.9214E-02  0.1662E+00  0.1662E+00
    -15.970  0.5284E-02  0.5284E-02  0.1668E+00  0.1668E+00
    -15.846  0.9113E-02  0.9113E-02  0.1679E+00  0.1679E+00
    -15.722  0.2049E-01  0.2049E-01  0.1705E+00  0.1705E+00
    -15.597  0.1767E-01  0.1767E-01  0.1727E+00  0.1727E+00
    -15.473  0.2541E-01  0.2541E-01  0.1758E+00  0.1758E+00
    -15.349  0.2298E-01  0.2298E-01  0.1787E+00  0.1787E+00
    -15.225  0.3780E-01  0.3780E-01  0.1834E+00  0.1834E+00
    -15.100  0.2910E-01  0.2910E-01  0.1870E+00  0.1870E+00
    -14.976  0.2757E-01  0.2757E-01  0.1904E+00  0.1904E+00
    -14.852  0.2047E-01  0.2047E-01  0.1930E+00  0.1930E+00
    -14.728  0.3183E-01  0.3183E-01  0.1969E+00  0.1969E+00
    -14.603  0.3174E-01  0.3174E-01  0.2009E+00  0.2009E+00
    -14.479  0.4723E-01  0.4723E-01  0.2068E+00  0.2068E+00
    -14.355  0.3507E-01  0.3507E-01  0.2111E+00  0.2111E+00
    -14.231  0.1576E-01  0.1576E-01  0.2131E+00  0.2131E+00
    -14.106  0.1802E-01  0.1802E-01  0.2153E+00  0.2153E+00
    -13.982  0.1458E-01  0.1458E-01  0.2171E+00  0.2171E+00
    -13.858  0.1680E-01  0.1680E-01  0.2192E+00  0.2192E+00
    -13.734  0.4207E-01  0.4207E-01  0.2244E+00  0.2244E+00
    -13.609  0.3293E-01  0.3293E-01  0.2285E+00  0.2285E+00
    -13.485  0.2664E-01  0.2664E-01  0.2318E+00  0.2318E+00
    -13.361  0.1845E-01  0.1845E-01  0.2341E+00  0.2341E+00
    -13.237  0.1011E-01  0.1011E-01  0.2354E+00  0.2354E+00
    -13.112  0.1871E-01  0.1871E-01  0.2377E+00  0.2377E+00
    -12.988  0.2328E-01  0.2328E-01  0.2406E+00  0.2406E+00
    -12.864  0.2473E-01  0.2473E-01  0.2437E+00  0.2437E+00
    -12.739  0.7045E-01  0.7045E-01  0.2524E+00  0.2524E+00
    -12.615  0.2384E-01  0.2384E-01  0.2554E+00  0.2554E+00
    -12.491  0.2559E-01  0.2559E-01  0.2586E+00  0.2586E+00
    -12.367  0.4032E-01  0.4032E-01  0.2636E+00  0.2636E+00
    -12.242  0.2461E-01  0.2461E-01  0.2666E+00  0.2666E+00
    -12.118  0.2074E-01  0.2074E-01  0.2692E+00  0.2692E+00
    -11.994  0.2675E-01  0.2675E-01  0.2725E+00  0.2725E+00
    -11.870  0.4295E-01  0.4295E-01  0.2779E+00  0.2779E+00
    -11.745  0.3378E-01  0.3378E-01  0.2821E+00  0.2821E+00
    -11.621  0.4705E-01  0.4705E-01  0.2879E+00  0.2879E+00
    -11.497  0.3955E-01  0.3955E-01  0.2928E+00  0.2928E+00
    -11.373  0.3605E-01  0.3605E-01  0.2973E+00  0.2973E+00
    -11.248  0.4668E-01  0.4668E-01  0.3031E+00  0.3031E+00
    -11.124  0.3457E-01  0.3457E-01  0.3074E+00  0.3074E+00
    -11.000  0.2895E-01  0.2895E-01  0.3110E+00  0.3110E+00
    -10.876  0.2988E-01  0.2988E-01  0.3147E+00  0.3147E+00
    -10.751  0.3308E-01  0.3308E-01  0.3188E+00  0.3188E+00
    -10.627  0.2909E-01  0.2909E-01  0.3224E+00  0.3224E+00
    -10.503  0.3896E-01  0.3896E-01  0.3273E+00  0.3273E+00
    -10.379  0.5332E-01  0.5332E-01  0.3339E+00  0.3339E+00
    -10.254  0.5776E-01  0.5776E-01  0.3411E+00  0.3411E+00
    -10.130  0.6262E-01  0.6262E-01  0.3489E+00  0.3489E+00
    -10.006  0.6488E-01  0.6488E-01  0.3569E+00  0.3569E+00
     -9.882  0.6989E-01  0.6989E-01  0.3656E+00  0.3656E+00
     -9.757  0.5343E-01  0.5343E-01  0.3723E+00  0.3723E+00
     -9.633  0.8201E-01  0.8201E-01  0.3824E+00  0.3824E+00
     -9.509  0.6822E-01  0.6822E-01  0.3909E+00  0.3909E+00
     -9.384  0.9051E-01  0.9051E-01  0.4022E+00  0.4022E+00
     -9.260  0.7491E-01  0.7491E-01  0.4115E+00  0.4115E+00
     -9.136  0.5611E-01  0.5611E-01  0.4184E+00  0.4184E+00
     -9.012  0.7535E-01  0.7535E-01  0.4278E+00  0.4278E+00
     -8.887  0.8881E-01  0.8881E-01  0.4388E+00  0.4388E+00
     -8.763  0.7868E-01  0.7868E-01  0.4486E+00  0.4486E+00
     -8.639  0.5781E-01  0.5781E-01  0.4558E+00  0.4558E+00
     -8.515  0.3645E-01  0.3645E-01  0.4603E+00  0.4603E+00
     -8.390  0.6150E-01  0.6150E-01  0.4680E+00  0.4680E+00
     -8.266  0.6676E-01  0.6676E-01  0.4763E+00  0.4763E+00
     -8.142  0.6300E-01  0.6300E-01  0.4841E+00  0.4841E+00
     -8.018  0.7185E-01  0.7185E-01  0.4930E+00  0.4930E+00
     -7.893  0.5516E-01  0.5516E-01  0.4999E+00  0.4999E+00
     -7.769  0.4018E-01  0.4018E-01  0.5049E+00  0.5049E+00
     -7.645  0.4384E-01  0.4384E-01  0.5103E+00  0.5103E+00
     -7.521  0.4215E-01  0.4215E-01  0.5156E+00  0.5156E+00
     -7.396  0.6786E-01  0.6786E-01  0.5240E+00  0.5240E+00
     -7.272  0.6257E-01  0.6257E-01  0.5318E+00  0.5318E+00
     -7.148  0.6889E-01  0.6889E-01  0.5403E+00  0.5403E+00
     -7.024  0.6587E-01  0.6587E-01  0.5485E+00  0.5485E+00
     -6.899  0.4329E-01  0.4329E-01  0.5539E+00  0.5539E+00
     -6.775  0.4404E-01  0.4404E-01  0.5594E+00  0.5594E+00
     -6.651  0.3499E-01  0.3499E-01  0.5637E+00  0.5637E+00
     -6.527  0.2947E-01  0.2947E-01  0.5674E+00  0.5674E+00
     -6.402  0.3025E-01  0.3025E-01  0.5711E+00  0.5711E+00
     -6.278  0.7415E-01  0.7415E-01  0.5803E+00  0.5803E+00
     -6.154  0.6865E-01  0.6865E-01  0.5889E+00  0.5889E+00
     -6.030  0.1939E-01  0.1939E-01  0.5913E+00  0.5913E+00
     -5.905  0.5515E-01  0.5515E-01  0.5981E+00  0.5981E+00
     -5.781  0.4549E-01  0.4549E-01  0.6038E+00  0.6038E+00
     -5.657  0.2717E-01  0.2717E-01  0.6072E+00  0.6072E+00
     -5.532  0.1654E-01  0.1654E-01  0.6092E+00  0.6092E+00
     -5.408  0.2188E-01  0.2188E-01  0.6119E+00  0.6119E+00
     -5.284  0.1117E-01  0.1117E-01  0.6133E+00  0.6133E+00
     -5.160  0.5176E-01  0.5176E-01  0.6198E+00  0.6198E+00
     -5.035  0.5595E-01  0.5595E-01  0.6267E+00  0.6267E+00
     -4.911  0.5357E-01  0.5357E-01  0.6334E+00  0.6334E+00
     -4.787  0.2092E-01  0.2092E-01  0.6360E+00  0.6360E+00
     -4.663  0.1663E-01  0.1663E-01  0.6380E+00  0.6380E+00
     -4.538  0.1213E-01  0.1213E-01  0.6395E+00  0.6395E+00
     -4.414  0.4544E-01  0.4544E-01  0.6452E+00  0.6452E+00
     -4.290  0.2990E-01  0.2990E-01  0.6489E+00  0.6489E+00
     -4.166  0.2215E-01  0.2215E-01  0.6517E+00  0.6517E+00
     -4.041  0.3661E-01  0.3661E-01  0.6562E+00  0.6562E+00
     -3.917  0.3635E-01  0.3635E-01  0.6607E+00  0.6607E+00
     -3.793  0.2791E-01  0.2791E-01  0.6642E+00  0.6642E+00
     -3.669  0.1975E-01  0.1975E-01  0.6666E+00  0.6666E+00
     -3.544  0.1469E-02  0.1469E-02  0.6668E+00  0.6668E+00
     -3.420  0.7739E-02  0.7739E-02  0.6678E+00  0.6678E+00
     -3.296  0.1990E-01  0.1990E-01  0.6703E+00  0.6703E+00
     -3.172  0.5386E-02  0.5386E-02  0.6709E+00  0.6709E+00
     -3.047  0.5820E-02  0.5820E-02  0.6717E+00  0.6717E+00
     -2.923  0.8890E-04  0.8890E-04  0.6717E+00  0.6717E+00
     -2.799  0.6247E-02  0.6247E-02  0.6724E+00  0.6724E+00
     -2.675  0.7082E-02  0.7082E-02  0.6733E+00  0.6733E+00
     -2.550  0.5646E-04  0.5646E-04  0.6733E+00  0.6733E+00
     -2.426  0.1372E-03  0.1372E-03  0.6734E+00  0.6734E+00
     -2.302  0.1141E-01  0.1141E-01  0.6748E+00  0.6748E+00
     -2.177  0.1866E-02  0.1866E-02  0.6750E+00  0.6750E+00
     -2.053  0.3907E-03  0.3907E-03  0.6750E+00  0.6750E+00
     -1.929  0.6686E-02  0.6686E-02  0.6759E+00  0.6759E+00
     -1.805  0.1200E-01  0.1200E-01  0.6774E+00  0.6774E+00
     -1.680  0.1628E-01  0.1628E-01  0.6794E+00  0.6794E+00
     -1.556  0.4882E-02  0.4882E-02  0.6800E+00  0.6800E+00
     -1.432  0.6110E-03  0.6110E-03  0.6801E+00  0.6801E+00
     -1.308  0.1735E-01  0.1735E-01  0.6822E+00  0.6822E+00
     -1.183  0.1344E-01  0.1344E-01  0.6839E+00  0.6839E+00
     -1.059  0.3201E-01  0.3201E-01  0.6879E+00  0.6879E+00
     -0.935  0.5701E-01  0.5701E-01  0.6950E+00  0.6950E+00
     -0.811  0.1133E-01  0.1133E-01  0.6964E+00  0.6964E+00
     -0.686  0.3197E-01  0.3197E-01  0.7003E+00  0.7003E+00
     -0.562  0.3995E-01  0.3995E-01  0.7053E+00  0.7053E+00
     -0.438  0.1792E-01  0.1792E-01  0.7075E+00  0.7075E+00
     -0.314  0.1910E-01  0.1910E-01  0.7099E+00  0.7099E+00
     -0.189  0.1990E-01  0.1990E-01  0.7124E+00  0.7124E+00
     -0.065  0.3113E-01  0.3113E-01  0.7162E+00  0.7162E+00
      0.059  0.4611E-01  0.4611E-01  0.7220E+00  0.7220E+00
      0.183  0.3591E-01  0.3591E-01  0.7264E+00  0.7264E+00
      0.308  0.3547E-02  0.3547E-02  0.7269E+00  0.7269E+00
      0.432  0.1748E-01  0.1748E-01  0.7291E+00  0.7291E+00
      0.556  0.1800E-01  0.1800E-01  0.7313E+00  0.7313E+00
      0.680  0.2089E-01  0.2089E-01  0.7339E+00  0.7339E+00
      0.805  0.2171E-01  0.2171E-01  0.7366E+00  0.7366E+00
      0.929  0.1904E-01  0.1904E-01  0.7389E+00  0.7389E+00
      1.053  0.3755E-01  0.3755E-01  0.7436E+00  0.7436E+00
      1.178  0.2005E-01  0.2005E-01  0.7461E+00  0.7461E+00
      1.302  0.3016E-01  0.3016E-01  0.7499E+00  0.7499E+00
      1.426  0.7103E-01  0.7103E-01  0.7587E+00  0.7587E+00
      1.550  0.5301E-01  0.5301E-01  0.7653E+00  0.7653E+00
      1.675  0.2264E-01  0.2264E-01  0.7681E+00  0.7681E+00
      1.799  0.2182E-01  0.2182E-01  0.7708E+00  0.7708E+00
      1.923  0.4052E-01  0.4052E-01  0.7758E+00  0.7758E+00
      2.047  0.8820E-01  0.8820E-01  0.7868E+00  0.7868E+00
      2.172  0.4541E-01  0.4541E-01  0.7924E+00  0.7924E+00
      2.296  0.3166E-01  0.3166E-01  0.7964E+00  0.7964E+00
      2.420  0.6988E-01  0.6988E-01  0.8050E+00  0.8050E+00
      2.544  0.7323E-01  0.7323E-01  0.8141E+00  0.8141E+00
      2.669  0.3623E-01  0.3623E-01  0.8186E+00  0.8186E+00
      2.793  0.5471E-01  0.5471E-01  0.8254E+00  0.8254E+00
      2.917  0.1157E+00  0.1157E+00  0.8398E+00  0.8398E+00
      3.041  0.1507E+00  0.1507E+00  0.8585E+00  0.8585E+00
      3.166  0.4102E-01  0.4102E-01  0.8636E+00  0.8636E+00
      3.290  0.4669E-01  0.4669E-01  0.8694E+00  0.8694E+00
      3.414  0.6098E-01  0.6098E-01  0.8770E+00  0.8770E+00
      3.538  0.8347E-01  0.8347E-01  0.8874E+00  0.8874E+00
      3.663  0.4699E-01  0.4699E-01  0.8932E+00  0.8932E+00
      3.787  0.7297E-01  0.7297E-01  0.9023E+00  0.9023E+00
      3.911  0.9575E-01  0.9575E-01  0.9142E+00  0.9142E+00
      4.035  0.9371E-01  0.9371E-01  0.9258E+00  0.9258E+00
      4.160  0.5222E-01  0.5222E-01  0.9323E+00  0.9323E+00
      4.284  0.7999E-02  0.7999E-02  0.9333E+00  0.9333E+00
      4.408  0.8493E-04  0.8493E-04  0.9333E+00  0.9333E+00
      4.533  0.2973E-10  0.2973E-10  0.9333E+00  0.9333E+00
      4.657  0.0000E+00  0.0000E+00  0.9333E+00  0.9333E+00
      4.781  0.0000E+00  0.0000E+00  0.9333E+00  0.9333E+00
      4.905  0.0000E+00  0.0000E+00  0.9333E+00  0.9333E+00
      5.030  0.0000E+00  0.0000E+00  0.9333E+00  0.9333E+00
      5.154  0.0000E+00  0.0000E+00  0.9333E+00  0.9333E+00
      5.278  0.0000E+00  0.0000E+00  0.9333E+00  0.9333E+00
      5.402  0.0000E+00  0.0000E+00  0.9333E+00  0.9333E+00
      5.527  0.0000E+00  0.0000E+00  0.9333E+00  0.9333E+00
      5.651  0.0000E+00  0.0000E+00  0.9333E+00  0.9333E+00
      5.775  0.0000E+00  0.0000E+00  0.9333E+00  0.9333E+00
      5.899  0.0000E+00  0.0000E+00  0.9333E+00  0.9333E+00
