       N       E                     dE             d eps       ncg     rms          rms(c)
DAV:   1     0.375167898666E+04    0.37517E+04   -0.15586E+05  4850   0.111E+03
DAV:   2    -0.177733927946E+03   -0.39294E+04   -0.37154E+04  6680   0.274E+02
DAV:   3    -0.861840518837E+03   -0.68411E+03   -0.68083E+03  5570   0.120E+02
DAV:   4    -0.884127209638E+03   -0.22287E+02   -0.22180E+02  5520   0.269E+01
DAV:   5    -0.884811551657E+03   -0.68434E+00   -0.68336E+00  6400   0.402E+00    0.525E+01
DAV:   6    -0.867210078605E+03    0.17601E+02   -0.21246E+01  5430   0.968E+00    0.339E+01
DAV:   7    -0.846605187819E+03    0.20605E+02   -0.35084E+01  5270   0.995E+00    0.206E+01
DAV:   8    -0.841727382329E+03    0.48778E+01   -0.20191E+01  5240   0.705E+00    0.860E+00
DAV:   9    -0.841899003263E+03   -0.17162E+00   -0.11667E+00  5260   0.232E+00    0.402E+00
DAV:  10    -0.841723616599E+03    0.17539E+00   -0.51575E-01  5170   0.133E+00    0.141E+00
DAV:  11    -0.841694555601E+03    0.29061E-01   -0.15591E-01  5140   0.750E-01    0.396E-01
DAV:  12    -0.841693797551E+03    0.75805E-03   -0.26153E-02  5280   0.334E-01    0.153E-01
DAV:  13    -0.841694060489E+03   -0.26294E-03   -0.36156E-03  5330   0.119E-01    0.107E-01
DAV:  14    -0.841694061786E+03   -0.12967E-05   -0.53807E-04  5210   0.477E-02    0.744E-02
DAV:  15    -0.841694122887E+03   -0.61101E-04   -0.23367E-04  5060   0.335E-02    0.301E-02
DAV:  16    -0.841694135214E+03   -0.12327E-04   -0.58564E-05  5120   0.161E-02    0.182E-02
DAV:  17    -0.841694134809E+03    0.40502E-06   -0.18539E-05  5640   0.105E-02    0.832E-03
DAV:  18    -0.841694134522E+03    0.28685E-06   -0.42464E-06  4440   0.705E-03
   1 F= -.84952981E+03 E0= -.84952981E+03  d E =-.849530E+03  mag=    -0.0001
       N       E                     dE             d eps       ncg     rms          rms(c)
DAV:   1    -0.841694209588E+03   -0.74779E-04   -0.39509E-03  4780   0.130E-01    0.128E-02
DAV:   2    -0.841694216469E+03   -0.68810E-05   -0.92662E-05  5240   0.187E-02    0.110E-02
DAV:   3    -0.841694215336E+03    0.11328E-05   -0.32687E-06  4480   0.379E-03    0.828E-03
DAV:   4    -0.841694214510E+03    0.82605E-06   -0.27465E-06  4000   0.358E-03
   2 F= -.84952988E+03 E0= -.84952988E+03  d E =-.697978E-04  mag=    -0.0000
       N       E                     dE             d eps       ncg     rms          rms(c)
DAV:   1    -0.841694296958E+03   -0.81622E-04   -0.80367E-03  4740   0.180E-01    0.160E-02
DAV:   2    -0.841694310719E+03   -0.13762E-04   -0.16979E-04  4680   0.251E-02    0.125E-02
DAV:   3    -0.841694309862E+03    0.85728E-06   -0.28507E-06  4630   0.363E-03
   3 F= -.84952996E+03 E0= -.84952996E+03  d E =-.770025E-04  mag=     0.0000
       N       E                     dE             d eps       ncg     rms          rms(c)
DAV:   1    -0.841694416107E+03   -0.10539E-03   -0.16966E-02  4720   0.261E-01    0.246E-02
DAV:   2    -0.841694442817E+03   -0.26711E-04   -0.34290E-04  4640   0.358E-02    0.197E-02
DAV:   3    -0.841694441108E+03    0.17090E-05   -0.69539E-06  5340   0.550E-03    0.151E-02
DAV:   4    -0.841694442502E+03   -0.13942E-05   -0.72139E-06  4380   0.632E-03    0.458E-03
DAV:   5    -0.841694443026E+03   -0.52375E-06   -0.22332E-06  3520   0.267E-03
   4 F= -.84953007E+03 E0= -.84953007E+03  d E =-.111849E-03  mag=    -0.0000
       N       E                     dE             d eps       ncg     rms          rms(c)
DAV:   1    -0.841694534367E+03   -0.91864E-04   -0.24413E-02  4700   0.317E-01    0.284E-02
DAV:   2    -0.841694577936E+03   -0.43569E-04   -0.54240E-04  4740   0.449E-02    0.228E-02
DAV:   3    -0.841694574477E+03    0.34586E-05   -0.11839E-05  5840   0.711E-03    0.177E-02
DAV:   4    -0.841694574295E+03    0.18175E-06   -0.11284E-05  4640   0.789E-03    0.629E-03
DAV:   5    -0.841694575031E+03   -0.73566E-06   -0.35024E-06  3620   0.343E-03
   5 F= -.84953017E+03 E0= -.84953017E+03  d E =-.101299E-03  mag=     0.0000
       N       E                     dE             d eps       ncg     rms          rms(c)
DAV:   1    -0.841694637054E+03   -0.62759E-04   -0.13315E-02  4680   0.240E-01    0.234E-02
DAV:   2    -0.841694661214E+03   -0.24160E-04   -0.32382E-04  5340   0.349E-02    0.199E-02
DAV:   3    -0.841694657540E+03    0.36738E-05   -0.11578E-05  5850   0.674E-03    0.153E-02
DAV:   4    -0.841694655004E+03    0.25360E-05   -0.80938E-06  4560   0.636E-03    0.689E-03
DAV:   5    -0.841694655218E+03   -0.21375E-06   -0.27156E-06  3520   0.323E-03
   6 F= -.84953025E+03 E0= -.84953025E+03  d E =-.733748E-04  mag=     0.0000
       N       E                     dE             d eps       ncg     rms          rms(c)
DAV:   1    -0.841694729262E+03   -0.74257E-04   -0.31689E-03  4660   0.117E-01    0.113E-02
DAV:   2    -0.841694734896E+03   -0.56343E-05   -0.77323E-05  5260   0.171E-02    0.963E-03
DAV:   3    -0.841694734030E+03    0.86564E-06   -0.23934E-06  3960   0.323E-03
   7 F= -.84953032E+03 E0= -.84953032E+03  d E =-.684666E-04  mag=     0.0000
       N       E                     dE             d eps       ncg     rms          rms(c)
DAV:   1    -0.841694818009E+03   -0.83113E-04   -0.89150E-03  4720   0.190E-01    0.178E-02
DAV:   2    -0.841694833080E+03   -0.15071E-04   -0.18963E-04  4600   0.263E-02    0.138E-02
DAV:   3    -0.841694832259E+03    0.82122E-06   -0.30145E-06  4780   0.376E-03
   8 F= -.84953040E+03 E0= -.84953040E+03  d E =-.797140E-04  mag=    -0.0000
       N       E                     dE             d eps       ncg     rms          rms(c)
DAV:   1    -0.841694946828E+03   -0.11375E-03   -0.19250E-02  4680   0.279E-01    0.257E-02
DAV:   2    -0.841694979378E+03   -0.32551E-04   -0.40470E-04  4600   0.385E-02    0.198E-02
DAV:   3    -0.841694977797E+03    0.15818E-05   -0.68999E-06  5340   0.551E-03    0.153E-02
DAV:   4    -0.841694979801E+03   -0.20047E-05   -0.71380E-06  4440   0.644E-03    0.455E-03
DAV:   5    -0.841694980362E+03   -0.56073E-06   -0.22350E-06  3640   0.274E-03
   9 F= -.84953052E+03 E0= -.84953052E+03  d E =-.122031E-03  mag=     0.0000
       N       E                     dE             d eps       ncg     rms          rms(c)
DAV:   1    -0.841695078186E+03   -0.98385E-04   -0.29132E-02  4660   0.346E-01    0.304E-02
DAV:   2    -0.841695132937E+03   -0.54751E-04   -0.66148E-04  4720   0.491E-02    0.233E-02
DAV:   3    -0.841695129533E+03    0.34038E-05   -0.11943E-05  5800   0.722E-03    0.181E-02
DAV:   4    -0.841695130074E+03   -0.54097E-06   -0.11836E-05  4540   0.810E-03    0.617E-03
DAV:   5    -0.841695130912E+03   -0.83751E-06   -0.36942E-06  4080   0.352E-03
  10 F= -.84953064E+03 E0= -.84953064E+03  d E =-.121731E-03  mag=    -0.0000
       N       E                     dE             d eps       ncg     rms          rms(c)
DAV:   1    -0.841695204587E+03   -0.74513E-04   -0.18073E-02  4640   0.278E-01    0.268E-02
DAV:   2    -0.841695237613E+03   -0.33026E-04   -0.43658E-04  5240   0.403E-02    0.223E-02
DAV:   3    -0.841695233126E+03    0.44877E-05   -0.13910E-05  5900   0.742E-03    0.171E-02
DAV:   4    -0.841695230423E+03    0.27024E-05   -0.10073E-05  4520   0.724E-03    0.734E-03
DAV:   5    -0.841695230871E+03   -0.44777E-06   -0.36402E-06  3640   0.360E-03
  11 F= -.84953072E+03 E0= -.84953072E+03  d E =-.797851E-04  mag=    -0.0000
       N       E                     dE             d eps       ncg     rms          rms(c)
DAV:   1    -0.841695316026E+03   -0.85603E-04   -0.37548E-03  4660   0.128E-01    0.126E-02
DAV:   2    -0.841695322459E+03   -0.64329E-05   -0.91497E-05  5380   0.185E-02    0.108E-02
DAV:   3    -0.841695321302E+03    0.11567E-05   -0.33524E-06  4370   0.374E-03    0.822E-03
DAV:   4    -0.841695320538E+03    0.76377E-06   -0.31253E-06  3960   0.373E-03
  12 F= -.84953080E+03 E0= -.84953080E+03  d E =-.815608E-04  mag=     0.0000
       N       E                     dE             d eps       ncg     rms          rms(c)
DAV:   1    -0.841695403671E+03   -0.82369E-04   -0.83329E-03  4640   0.184E-01    0.168E-02
DAV:   2    -0.841695417843E+03   -0.14172E-04   -0.17818E-04  4600   0.257E-02    0.130E-02
DAV:   3    -0.841695416984E+03    0.85945E-06   -0.28249E-06  4550   0.369E-03
  13 F= -.84953088E+03 E0= -.84953088E+03  d E =-.814329E-04  mag=     0.0000
       N       E                     dE             d eps       ncg     rms          rms(c)
DAV:   1    -0.841695531706E+03   -0.11386E-03   -0.18134E-02  4600   0.270E-01    0.253E-02
DAV:   2    -0.841695561411E+03   -0.29705E-04   -0.37450E-04  4580   0.371E-02    0.197E-02
DAV:   3    -0.841695559844E+03    0.15668E-05   -0.63477E-06  5250   0.535E-03    0.152E-02
DAV:   4    -0.841695561781E+03   -0.19364E-05   -0.75372E-06  4400   0.651E-03    0.419E-03
DAV:   5    -0.841695562260E+03   -0.47953E-06   -0.22010E-06  3740   0.269E-03
  14 F= -.84953101E+03 E0= -.84953101E+03  d E =-.124942E-03  mag=    -0.0000
       N       E                     dE             d eps       ncg     rms          rms(c)
DAV:   1    -0.841695678695E+03   -0.11691E-03   -0.28830E-02  4600   0.344E-01    0.303E-02
DAV:   2    -0.841695730174E+03   -0.51478E-04   -0.63310E-04  4570   0.484E-02    0.233E-02
DAV:   3    -0.841695726946E+03    0.32277E-05   -0.10925E-05  5560   0.701E-03    0.181E-02
DAV:   4    -0.841695728440E+03   -0.14942E-05   -0.12166E-05  4500   0.825E-03    0.562E-03
DAV:   5    -0.841695729244E+03   -0.80332E-06   -0.35455E-06  4000   0.342E-03
  15 F= -.84953115E+03 E0= -.84953115E+03  d E =-.140620E-03  mag=     0.0000
       N       E                     dE             d eps       ncg     rms          rms(c)
DAV:   1    -0.841695795158E+03   -0.66718E-04   -0.27903E-02  4580   0.341E-01    0.318E-02
DAV:   2    -0.841695848256E+03   -0.53098E-04   -0.66521E-04  4920   0.491E-02    0.261E-02
DAV:   3    -0.841695842846E+03    0.54101E-05   -0.15326E-05  5860   0.795E-03    0.204E-02
DAV:   4    -0.841695840227E+03    0.26189E-05   -0.18481E-05  4620   0.973E-03    0.683E-03
DAV:   5    -0.841695841073E+03   -0.84573E-06   -0.52817E-06  4220   0.412E-03
  16 F= -.84953124E+03 E0= -.84953124E+03  d E =-.888803E-04  mag=    -0.0000
       N       E                     dE             d eps       ncg     rms          rms(c)
DAV:   1    -0.841695939176E+03   -0.98949E-04   -0.51939E-03  4580   0.149E-01    0.155E-02
DAV:   2    -0.841695948131E+03   -0.89555E-05   -0.12916E-04  5480   0.218E-02    0.136E-02
DAV:   3    -0.841695946172E+03    0.19599E-05   -0.46804E-06  5100   0.427E-03    0.104E-02
DAV:   4    -0.841695944623E+03    0.15488E-05   -0.50560E-06  4380   0.487E-03    0.422E-03
DAV:   5    -0.841695944661E+03   -0.37755E-07   -0.12822E-06  3160   0.213E-03
  17 F= -.84953133E+03 E0= -.84953133E+03  d E =-.975718E-04  mag=    -0.0000
       N       E                     dE             d eps       ncg     rms          rms(c)
DAV:   1    -0.841696022882E+03   -0.78259E-04   -0.77310E-03  4640   0.177E-01    0.156E-02
DAV:   2    -0.841696036210E+03   -0.13328E-04   -0.16512E-04  4560   0.248E-02    0.122E-02
DAV:   3    -0.841696035209E+03    0.10015E-05   -0.27104E-06  4460   0.359E-03    0.946E-03
DAV:   4    -0.841696035600E+03   -0.39177E-06   -0.42949E-06  4180   0.464E-03
  18 F= -.84953141E+03 E0= -.84953141E+03  d E =-.797095E-04  mag=     0.0000
       N       E                     dE             d eps       ncg     rms          rms(c)
DAV:   1    -0.841696139014E+03   -0.10381E-03   -0.15642E-02  4580   0.253E-01    0.224E-02
DAV:   2    -0.841696165523E+03   -0.26509E-04   -0.33079E-04  4520   0.353E-02    0.174E-02
DAV:   3    -0.841696163887E+03    0.16357E-05   -0.57315E-06  5140   0.511E-03    0.135E-02
DAV:   4    -0.841696165302E+03   -0.14143E-05   -0.65697E-06  4340   0.601E-03    0.416E-03
DAV:   5    -0.841696165724E+03   -0.42200E-06   -0.18834E-06  3430   0.250E-03
  19 F= -.84953152E+03 E0= -.84953152E+03  d E =-.107041E-03  mag=     0.0000
       N       E                     dE             d eps       ncg     rms          rms(c)
DAV:   1    -0.841696248215E+03   -0.82913E-04   -0.22639E-02  4600   0.303E-01    0.275E-02
DAV:   2    -0.841696289641E+03   -0.41426E-04   -0.51564E-04  4900   0.433E-02    0.222E-02
DAV:   3    -0.841696286035E+03    0.36056E-05   -0.11541E-05  5700   0.701E-03    0.174E-02
DAV:   4    -0.841696285201E+03    0.83423E-06   -0.10897E-05  4500   0.753E-03    0.639E-03
DAV:   5    -0.841696286064E+03   -0.86337E-06   -0.37433E-06  4080   0.344E-03
  20 F= -.84953162E+03 E0= -.84953162E+03  d E =-.102648E-03  mag=    -0.0000
       N       E                     dE             d eps       ncg     rms          rms(c)
DAV:   1    -0.841696357226E+03   -0.72025E-04   -0.10273E-02  4540   0.211E-01    0.209E-02
DAV:   2    -0.841696376136E+03   -0.18910E-04   -0.26234E-04  5260   0.314E-02    0.183E-02
DAV:   3    -0.841696373276E+03    0.28600E-05   -0.98544E-06  5660   0.631E-03    0.144E-02
DAV:   4    -0.841696371453E+03    0.18223E-05   -0.59247E-06  4450   0.564E-03    0.697E-03
DAV:   5    -0.841696371724E+03   -0.27032E-06   -0.25306E-06  3360   0.318E-03
  21 F= -.84953169E+03 E0= -.84953169E+03  d E =-.687793E-04  mag=    -0.0000
       N       E                     dE             d eps       ncg     rms          rms(c)
DAV:   1    -0.841696430126E+03   -0.58673E-04   -0.32638E-03  4560   0.116E-01    0.116E-02
DAV:   2    -0.841696436409E+03   -0.62826E-05   -0.84396E-05  5260   0.172E-02    0.102E-02
DAV:   3    -0.841696435478E+03    0.93073E-06   -0.26925E-06  4100   0.337E-03
  22 F= -.84953175E+03 E0= -.84953175E+03  d E =-.602645E-04  mag=    -0.0000
       N       E                     dE             d eps       ncg     rms          rms(c)
DAV:   1    -0.841696506609E+03   -0.70201E-04   -0.62296E-03  4620   0.158E-01    0.159E-02
DAV:   2    -0.841696515341E+03   -0.87320E-05   -0.12183E-04  4560   0.214E-02    0.130E-02
DAV:   3    -0.841696514414E+03    0.92748E-06   -0.24746E-06  4300   0.349E-03
  23 F= -.84953182E+03 E0= -.84953182E+03  d E =-.681884E-04  mag=    -0.0000
       N       E                     dE             d eps       ncg     rms          rms(c)
DAV:   1    -0.841696608588E+03   -0.93246E-04   -0.13025E-02  4580   0.229E-01    0.220E-02
DAV:   2    -0.841696627077E+03   -0.18489E-04   -0.24628E-04  4620   0.307E-02    0.181E-02
DAV:   3    -0.841696625451E+03    0.16254E-05   -0.51956E-06  5180   0.488E-03    0.137E-02
DAV:   4    -0.841696626812E+03   -0.13605E-05   -0.62311E-06  4280   0.586E-03    0.383E-03
DAV:   5    -0.841696627102E+03   -0.28979E-06   -0.18852E-06  3560   0.244E-03
  24 F= -.84953192E+03 E0= -.84953192E+03  d E =-.996799E-04  mag=     0.0000
       N       E                     dE             d eps       ncg     rms          rms(c)
DAV:   1    -0.841696721724E+03   -0.94912E-04   -0.20636E-02  4620   0.290E-01    0.268E-02
DAV:   2    -0.841696756005E+03   -0.34282E-04   -0.43865E-04  4950   0.408E-02    0.220E-02
DAV:   3    -0.841696752639E+03    0.33667E-05   -0.94475E-06  5800   0.653E-03    0.170E-02
DAV:   4    -0.841696752517E+03    0.12130E-06   -0.10872E-05  4440   0.772E-03    0.540E-03
DAV:   5    -0.841696753127E+03   -0.60915E-06   -0.33053E-06  3940   0.327E-03
  25 F= -.84953203E+03 E0= -.84953203E+03  d E =-.105731E-03  mag=    -0.0000
       N       E                     dE             d eps       ncg     rms          rms(c)
DAV:   1    -0.841696803724E+03   -0.51207E-04   -0.15940E-02  4560   0.259E-01    0.257E-02
DAV:   2    -0.841696832917E+03   -0.29192E-04   -0.38398E-04  5060   0.380E-02    0.219E-02
DAV:   3    -0.841696829089E+03    0.38280E-05   -0.11555E-05  5880   0.700E-03    0.172E-02
DAV:   4    -0.841696826294E+03    0.27945E-05   -0.10111E-05  4660   0.736E-03    0.673E-03
DAV:   5    -0.841696826650E+03   -0.35572E-06   -0.34939E-06  3760   0.354E-03
  26 F= -.84953209E+03 E0= -.84953209E+03  d E =-.654550E-04  mag=    -0.0000
       N       E                     dE             d eps       ncg     rms          rms(c)
DAV:   1    -0.841696903383E+03   -0.77089E-04   -0.44961E-03  4560   0.140E-01    0.145E-02
DAV:   2    -0.841696911907E+03   -0.85239E-05   -0.11944E-04  5340   0.212E-02    0.126E-02
DAV:   3    -0.841696910464E+03    0.14433E-05   -0.40929E-06  4620   0.425E-03    0.985E-03
DAV:   4    -0.841696909325E+03    0.11388E-05   -0.40242E-06  4360   0.439E-03    0.429E-03
DAV:   5    -0.841696909400E+03   -0.75335E-07   -0.10441E-06  2920   0.206E-03
  27 F= -.84953216E+03 E0= -.84953216E+03  d E =-.729026E-04  mag=    -0.0000
       N       E                     dE             d eps       ncg     rms          rms(c)
DAV:   1    -0.841696975708E+03   -0.66383E-04   -0.50704E-03  4640   0.141E-01    0.131E-02
DAV:   2    -0.841696983208E+03   -0.74997E-05   -0.99215E-05  4580   0.192E-02    0.109E-02
DAV:   3    -0.841696982311E+03    0.89723E-06   -0.22643E-06  4180   0.327E-03
  28 F= -.84953223E+03 E0= -.84953223E+03  d E =-.628034E-04  mag=     0.0000
       N       E                     dE             d eps       ncg     rms          rms(c)
DAV:   1    -0.841697072033E+03   -0.88825E-04   -0.10648E-02  4580   0.206E-01    0.203E-02
DAV:   2    -0.841697087228E+03   -0.15195E-04   -0.20474E-04  4740   0.277E-02    0.169E-02
DAV:   3    -0.841697085571E+03    0.16572E-05   -0.48607E-06  5140   0.475E-03    0.128E-02
DAV:   4    -0.841697086050E+03   -0.47926E-06   -0.57163E-06  4240   0.552E-03
  29 F= -.84953231E+03 E0= -.84953231E+03  d E =-.857614E-04  mag=     0.0000
       N       E                     dE             d eps       ncg     rms          rms(c)
DAV:   1    -0.841697158840E+03   -0.73270E-04   -0.14198E-02  4580   0.240E-01    0.233E-02
DAV:   2    -0.841697181490E+03   -0.22650E-04   -0.30094E-04  5020   0.340E-02    0.195E-02
DAV:   3    -0.841697178812E+03    0.26780E-05   -0.89477E-06  5760   0.624E-03    0.150E-02
DAV:   4    -0.841697177935E+03    0.87731E-06   -0.65944E-06  4380   0.604E-03
  30 F= -.84953239E+03 E0= -.84953239E+03  d E =-.799047E-04  mag=    -0.0000
       N       E                     dE             d eps       ncg     rms          rms(c)
DAV:   1    -0.841697242909E+03   -0.64097E-04   -0.91848E-03  4600   0.199E-01    0.207E-02
DAV:   2    -0.841697259778E+03   -0.16869E-04   -0.23789E-04  5160   0.303E-02    0.174E-02
DAV:   3    -0.841697257416E+03    0.23629E-05   -0.89678E-06  5720   0.622E-03    0.135E-02
DAV:   4    -0.841697256059E+03    0.13564E-05   -0.45140E-06  4500   0.493E-03    0.669E-03
DAV:   5    -0.841697256354E+03   -0.29448E-06   -0.20022E-06  3280   0.306E-03
  31 F= -.84953245E+03 E0= -.84953245E+03  d E =-.619074E-04  mag=    -0.0000
       N       E                     dE             d eps       ncg     rms          rms(c)
DAV:   1    -0.841697310417E+03   -0.54358E-04   -0.31611E-03  4580   0.116E-01    0.117E-02
DAV:   2    -0.841697315944E+03   -0.55261E-05   -0.78514E-05  5140   0.175E-02    0.101E-02
DAV:   3    -0.841697314960E+03    0.98324E-06   -0.30065E-06  4220   0.371E-03
  32 F= -.84953251E+03 E0= -.84953251E+03  d E =-.549287E-04  mag=     0.0000
       N       E                     dE             d eps       ncg     rms          rms(c)
DAV:   1    -0.841697381790E+03   -0.65846E-04   -0.52925E-03  4600   0.144E-01    0.149E-02
DAV:   2    -0.841697388685E+03   -0.68951E-05   -0.99942E-05  4620   0.192E-02    0.126E-02
DAV:   3    -0.841697387610E+03    0.10753E-05   -0.25810E-06  4340   0.349E-03    0.935E-03
DAV:   4    -0.841697387925E+03   -0.31546E-06   -0.39120E-06  4120   0.428E-03
  33 F= -.84953257E+03 E0= -.84953257E+03  d E =-.604304E-04  mag=    -0.0000
       N       E                     dE             d eps       ncg     rms          rms(c)
DAV:   1    -0.841697463501E+03   -0.75891E-04   -0.10047E-02  4600   0.198E-01    0.187E-02
DAV:   2    -0.841697478168E+03   -0.14668E-04   -0.19353E-04  4720   0.266E-02    0.157E-02
DAV:   3    -0.841697476369E+03    0.17993E-05   -0.46819E-06  5080   0.455E-03    0.120E-02
DAV:   4    -0.841697476418E+03   -0.49375E-07   -0.62476E-06  4280   0.555E-03
  34 F= -.84953265E+03 E0= -.84953265E+03  d E =-.756531E-04  mag=     0.0000
       N       E                     dE             d eps       ncg     rms          rms(c)
DAV:   1    -0.841697547585E+03   -0.71216E-04   -0.12521E-02  4560   0.225E-01    0.219E-02
DAV:   2    -0.841697567176E+03   -0.19590E-04   -0.26571E-04  4940   0.312E-02    0.188E-02
DAV:   3    -0.841697564205E+03    0.29707E-05   -0.81383E-06  5660   0.578E-03    0.144E-02
DAV:   4    -0.841697563136E+03    0.10684E-05   -0.74660E-06  4340   0.623E-03    0.568E-03
DAV:   5    -0.841697563598E+03   -0.46105E-06   -0.24756E-06  3380   0.284E-03
  35 F= -.84953271E+03 E0= -.84953271E+03  d E =-.674149E-04  mag=     0.0000
       N       E                     dE             d eps       ncg     rms          rms(c)
DAV:   1    -0.841697626014E+03   -0.62877E-04   -0.65848E-03  4560   0.167E-01    0.167E-02
DAV:   2    -0.841697636962E+03   -0.10948E-04   -0.15408E-04  5260   0.237E-02    0.147E-02
DAV:   3    -0.841697634756E+03    0.22061E-05   -0.57755E-06  5460   0.477E-03    0.112E-02
DAV:   4    -0.841697633342E+03    0.14138E-05   -0.53132E-06  4340   0.503E-03    0.474E-03
DAV:   5    -0.841697633437E+03   -0.94580E-07   -0.14348E-06  3280   0.226E-03
  36 F= -.84953277E+03 E0= -.84953277E+03  d E =-.617146E-04  mag=    -0.0000
       N       E                     dE             d eps       ncg     rms          rms(c)
DAV:   1    -0.841697687713E+03   -0.54370E-04   -0.36690E-03  4560   0.123E-01    0.118E-02
DAV:   2    -0.841697693731E+03   -0.60189E-05   -0.82484E-05  4940   0.174E-02    0.103E-02
DAV:   3    -0.841697692738E+03    0.99363E-06   -0.24528E-06  4340   0.328E-03
  37 F= -.84953282E+03 E0= -.84953282E+03  d E =-.502853E-04  mag=     0.0000
       N       E                     dE             d eps       ncg     rms          rms(c)
DAV:   1    -0.841697762069E+03   -0.68337E-04   -0.61222E-03  4580   0.156E-01    0.154E-02
DAV:   2    -0.841697770956E+03   -0.88871E-05   -0.12099E-04  4600   0.210E-02    0.129E-02
DAV:   3    -0.841697769866E+03    0.10899E-05   -0.28309E-06  4500   0.359E-03    0.971E-03
DAV:   4    -0.841697770214E+03   -0.34802E-06   -0.46455E-06  4180   0.463E-03
  38 F= -.84953289E+03 E0= -.84953289E+03  d E =-.646492E-04  mag=     0.0000
       N       E                     dE             d eps       ncg     rms          rms(c)
DAV:   1    -0.841697847636E+03   -0.77770E-04   -0.10665E-02  4560   0.206E-01    0.196E-02
DAV:   2    -0.841697863977E+03   -0.16341E-04   -0.21840E-04  4700   0.284E-02    0.163E-02
DAV:   3    -0.841697862210E+03    0.17674E-05   -0.57328E-06  5420   0.495E-03    0.125E-02
DAV:   4    -0.841697862111E+03    0.98800E-07   -0.52862E-06  4260   0.530E-03
  39 F= -.84953296E+03 E0= -.84953296E+03  d E =-.752561E-04  mag=     0.0000
       N       E                     dE             d eps       ncg     rms          rms(c)
DAV:   1    -0.841697924853E+03   -0.62643E-04   -0.10968E-02  4560   0.213E-01    0.211E-02
DAV:   2    -0.841697942668E+03   -0.17815E-04   -0.24189E-04  5020   0.298E-02    0.179E-02
DAV:   3    -0.841697939890E+03    0.27783E-05   -0.81272E-06  5800   0.573E-03    0.136E-02
DAV:   4    -0.841697938714E+03    0.11759E-05   -0.66622E-06  4420   0.580E-03    0.558E-03
DAV:   5    -0.841697939037E+03   -0.32358E-06   -0.20439E-06  3300   0.268E-03
  40 F= -.84953303E+03 E0= -.84953303E+03  d E =-.631199E-04  mag=    -0.0000
       N       E                     dE             d eps       ncg     rms          rms(c)
DAV:   1    -0.841698007430E+03   -0.68716E-04   -0.48096E-03  4560   0.143E-01    0.145E-02
DAV:   2    -0.841698015329E+03   -0.78992E-05   -0.11350E-04  5220   0.205E-02    0.128E-02
DAV:   3    -0.841698013669E+03    0.16597E-05   -0.45379E-06  4880   0.424E-03    0.975E-03
DAV:   4    -0.841698012644E+03    0.10257E-05   -0.41642E-06  4300   0.438E-03    0.428E-03
DAV:   5    -0.841698012711E+03   -0.66932E-07   -0.10154E-06  3180   0.192E-03
  41 F= -.84953309E+03 E0= -.84953309E+03  d E =-.627889E-04  mag=    -0.0000
       N       E                     dE             d eps       ncg     rms          rms(c)
DAV:   1    -0.841698068194E+03   -0.55551E-04   -0.40479E-03  4580   0.128E-01    0.120E-02
DAV:   2    -0.841698074432E+03   -0.62378E-05   -0.83829E-05  4880   0.175E-02    0.104E-02
DAV:   3    -0.841698073451E+03    0.98105E-06   -0.23011E-06  4260   0.322E-03
  42 F= -.84953314E+03 E0= -.84953314E+03  d E =-.511760E-04  mag=    -0.0000
       N       E                     dE             d eps       ncg     rms          rms(c)
DAV:   1    -0.841698148051E+03   -0.73619E-04   -0.68478E-03  4580   0.165E-01    0.164E-02
DAV:   2    -0.841698157794E+03   -0.97432E-05   -0.13438E-04  4840   0.223E-02    0.140E-02
DAV:   3    -0.841698156382E+03    0.14123E-05   -0.36250E-06  4720   0.401E-03    0.105E-02
DAV:   4    -0.841698156508E+03   -0.12605E-06   -0.51769E-06  4240   0.487E-03
  43 F= -.84953321E+03 E0= -.84953321E+03  d E =-.674557E-04  mag=    -0.0000
       N       E                     dE             d eps       ncg     rms          rms(c)
DAV:   1    -0.841698215355E+03   -0.58973E-04   -0.88210E-03  4560   0.189E-01    0.188E-02
DAV:   2    -0.841698228867E+03   -0.13512E-04   -0.18528E-04  4960   0.262E-02    0.160E-02
DAV:   3    -0.841698226785E+03    0.20821E-05   -0.59489E-06  5400   0.494E-03    0.122E-02
DAV:   4    -0.841698226140E+03    0.64485E-06   -0.57918E-06  4340   0.535E-03
  44 F= -.84953327E+03 E0= -.84953327E+03  d E =-.601672E-04  mag=     0.0000
       N       E                     dE             d eps       ncg     rms          rms(c)
DAV:   1    -0.841698287322E+03   -0.60538E-04   -0.61023E-03  4560   0.160E-01    0.166E-02
DAV:   2    -0.841698297252E+03   -0.99293E-05   -0.14175E-04  5200   0.228E-02    0.143E-02
DAV:   3    -0.841698295301E+03    0.19503E-05   -0.56387E-06  5420   0.469E-03    0.108E-02
DAV:   4    -0.841698294361E+03    0.94000E-06   -0.43793E-06  4240   0.460E-03
  45 F= -.84953333E+03 E0= -.84953333E+03  d E =-.581404E-04  mag=     0.0000
       N       E                     dE             d eps       ncg     rms          rms(c)
DAV:   1    -0.841698342804E+03   -0.47503E-04   -0.37206E-03  4540   0.125E-01    0.125E-02
DAV:   2    -0.841698348881E+03   -0.60766E-05   -0.85180E-05  5120   0.177E-02    0.108E-02
DAV:   3    -0.841698347824E+03    0.10570E-05   -0.29176E-06  4340   0.351E-03    0.819E-03
DAV:   4    -0.841698347423E+03    0.40067E-06   -0.36483E-06  4140   0.394E-03
  46 F= -.84953338E+03 E0= -.84953338E+03  d E =-.474583E-04  mag=     0.0000
       N       E                     dE             d eps       ncg     rms          rms(c)
DAV:   1    -0.841698402133E+03   -0.54310E-04   -0.48563E-03  4560   0.140E-01    0.137E-02
DAV:   2    -0.841698409516E+03   -0.73831E-05   -0.10149E-04  4800   0.195E-02    0.116E-02
DAV:   3    -0.841698408496E+03    0.10206E-05   -0.27383E-06  4420   0.353E-03    0.882E-03
DAV:   4    -0.841698408470E+03    0.25590E-07   -0.40528E-06  4080   0.429E-03
  47 F= -.84953342E+03 E0= -.84953342E+03  d E =-.493619E-04  mag=    -0.0000
       N       E                     dE             d eps       ncg     rms          rms(c)
DAV:   1    -0.841698462645E+03   -0.54149E-04   -0.69786E-03  4560   0.169E-01    0.168E-02
DAV:   2    -0.841698473497E+03   -0.10853E-04   -0.14814E-04  4880   0.236E-02    0.141E-02
DAV:   3    -0.841698471957E+03    0.15401E-05   -0.45273E-06  5080   0.441E-03    0.107E-02
DAV:   4    -0.841698471584E+03    0.37310E-06   -0.44287E-06  4200   0.468E-03
  48 F= -.84953348E+03 E0= -.84953348E+03  d E =-.558817E-04  mag=     0.0000
       N       E                     dE             d eps       ncg     rms          rms(c)
DAV:   1    -0.841698534465E+03   -0.62507E-04   -0.69830E-03  4560   0.170E-01    0.171E-02
DAV:   2    -0.841698545596E+03   -0.11132E-04   -0.15523E-04  5080   0.241E-02    0.145E-02
DAV:   3    -0.841698543883E+03    0.17137E-05   -0.53388E-06  5240   0.469E-03    0.110E-02
DAV:   4    -0.841698543257E+03    0.62562E-06   -0.46148E-06  4180   0.475E-03
  49 F= -.84953354E+03 E0= -.84953354E+03  d E =-.564773E-04  mag=     0.0000
       N       E                     dE             d eps       ncg     rms          rms(c)
DAV:   1    -0.841698595005E+03   -0.51122E-04   -0.52416E-03  4560   0.148E-01    0.151E-02
DAV:   2    -0.841698603343E+03   -0.83379E-05   -0.11822E-04  5140   0.210E-02    0.129E-02
DAV:   3    -0.841698601857E+03    0.14859E-05   -0.42567E-06  4720   0.418E-03    0.972E-03
DAV:   4    -0.841698601284E+03    0.57321E-06   -0.43496E-06  4160   0.441E-03
  50 F= -.84953359E+03 E0= -.84953359E+03  d E =-.517504E-04  mag=     0.0000
       N       E                     dE             d eps       ncg     rms          rms(c)
DAV:   1    -0.841698655130E+03   -0.53273E-04   -0.47891E-03  4560   0.141E-01    0.141E-02
DAV:   2    -0.841698662817E+03   -0.76869E-05   -0.10581E-04  5000   0.199E-02    0.118E-02
DAV:   3    -0.841698661712E+03    0.11048E-05   -0.32149E-06  4540   0.372E-03    0.897E-03
DAV:   4    -0.841698661475E+03    0.23744E-06   -0.39866E-06  4180   0.425E-03
  51 F= -.84953364E+03 E0= -.84953364E+03  d E =-.486062E-04  mag=     0.0000
       N       E                     dE             d eps       ncg     rms          rms(c)
DAV:   1    -0.841698714191E+03   -0.52479E-04   -0.55501E-03  4560   0.151E-01    0.149E-02
DAV:   2    -0.841698722812E+03   -0.86203E-05   -0.11801E-04  5000   0.211E-02    0.126E-02
DAV:   3    -0.841698721563E+03    0.12487E-05   -0.33340E-06  4560   0.381E-03    0.961E-03
DAV:   4    -0.841698721343E+03    0.22001E-06   -0.46222E-06  4220   0.459E-03
  52 F= -.84953369E+03 E0= -.84953369E+03  d E =-.501486E-04  mag=    -0.0000
       N       E                     dE             d eps       ncg     rms          rms(c)
DAV:   1    -0.841698775151E+03   -0.53588E-04   -0.61544E-03  4560   0.160E-01    0.160E-02
DAV:   2    -0.841698785023E+03   -0.98715E-05   -0.13475E-04  5080   0.226E-02    0.135E-02
DAV:   3    -0.841698783532E+03    0.14904E-05   -0.39799E-06  4680   0.414E-03    0.103E-02
DAV:   4    -0.841698783103E+03    0.42968E-06   -0.50659E-06  4200   0.487E-03
  53 F= -.84953374E+03 E0= -.84953374E+03  d E =-.525017E-04  mag=     0.0000
       N       E                     dE             d eps       ncg     rms          rms(c)
DAV:   1    -0.841698840339E+03   -0.56806E-04   -0.54234E-03  4560   0.151E-01    0.152E-02
DAV:   2    -0.841698849118E+03   -0.87791E-05   -0.12133E-04  5120   0.213E-02    0.129E-02
DAV:   3    -0.841698847732E+03    0.13855E-05   -0.36686E-06  4540   0.395E-03    0.979E-03
DAV:   4    -0.841698847286E+03    0.44608E-06   -0.50161E-06  4240   0.472E-03
  54 F= -.84953379E+03 E0= -.84953379E+03  d E =-.524170E-04  mag=    -0.0000
       N       E                     dE             d eps       ncg     rms          rms(c)
DAV:   1    -0.841698898074E+03   -0.50342E-04   -0.47830E-03  4560   0.141E-01    0.140E-02
DAV:   2    -0.841698905314E+03   -0.72401E-05   -0.10227E-04  5000   0.196E-02    0.120E-02
DAV:   3    -0.841698904066E+03    0.12479E-05   -0.32462E-06  4500   0.372E-03    0.904E-03
DAV:   4    -0.841698903760E+03    0.30628E-06   -0.43370E-06  4220   0.435E-03
  55 F= -.84953384E+03 E0= -.84953384E+03  d E =-.502777E-04  mag=     0.0000
       N       E                     dE             d eps       ncg     rms          rms(c)
DAV:   1    -0.841698958189E+03   -0.54123E-04   -0.51705E-03  4560   0.146E-01    0.143E-02
DAV:   2    -0.841698965877E+03   -0.76877E-05   -0.10781E-04  4980   0.200E-02    0.123E-02
DAV:   3    -0.841698964592E+03    0.12846E-05   -0.32738E-06  4540   0.373E-03    0.934E-03
DAV:   4    -0.841698964316E+03    0.27617E-06   -0.45046E-06  4280   0.446E-03
  56 F= -.84953389E+03 E0= -.84953389E+03  d E =-.501621E-04  mag=     0.0000
       N       E                     dE             d eps       ncg     rms          rms(c)
DAV:   1    -0.841699017227E+03   -0.52634E-04   -0.56529E-03  4560   0.153E-01    0.151E-02
DAV:   2    -0.841699025762E+03   -0.85350E-05   -0.11931E-04  4980   0.211E-02    0.129E-02
DAV:   3    -0.841699024352E+03    0.14102E-05   -0.36145E-06  4540   0.393E-03    0.979E-03
DAV:   4    -0.841699024019E+03    0.33244E-06   -0.48848E-06  4240   0.463E-03
  57 F= -.84953394E+03 E0= -.84953394E+03  d E =-.515401E-04  mag=    -0.0000
       N       E                     dE             d eps       ncg     rms          rms(c)
DAV:   1    -0.841699081092E+03   -0.56740E-04   -0.53525E-03  4560   0.149E-01    0.147E-02
DAV:   2    -0.841699089230E+03   -0.81378E-05   -0.11387E-04  5040   0.205E-02    0.127E-02
DAV:   3    -0.841699087821E+03    0.14085E-05   -0.36451E-06  4600   0.389E-03    0.965E-03
DAV:   4    -0.841699087433E+03    0.38880E-06   -0.48971E-06  4220   0.460E-03
  58 F= -.84953400E+03 E0= -.84953400E+03  d E =-.513257E-04  mag=     0.0000
       N       E                     dE             d eps       ncg     rms          rms(c)
DAV:   1    -0.841699141014E+03   -0.53192E-04   -0.49314E-03  4560   0.143E-01    0.142E-02
DAV:   2    -0.841699148516E+03   -0.75027E-05   -0.10528E-04  5040   0.197E-02    0.122E-02
DAV:   3    -0.841699147212E+03    0.13046E-05   -0.33011E-06  4420   0.374E-03    0.927E-03
DAV:   4    -0.841699146850E+03    0.36202E-06   -0.45988E-06  4260   0.443E-03
  59 F= -.84953405E+03 E0= -.84953405E+03  d E =-.505541E-04  mag=     0.0000
       N       E                     dE             d eps       ncg     rms          rms(c)
DAV:   1    -0.841699201097E+03   -0.53885E-04   -0.48752E-03  4560   0.142E-01    0.140E-02
DAV:   2    -0.841699208384E+03   -0.72875E-05   -0.10220E-04  4940   0.195E-02    0.121E-02
DAV:   3    -0.841699207152E+03    0.12325E-05   -0.32165E-06  4500   0.367E-03    0.917E-03
DAV:   4    -0.841699206819E+03    0.33302E-06   -0.43999E-06  4220   0.436E-03
  60 F= -.84953410E+03 E0= -.84953410E+03  d E =-.493843E-04  mag=    -0.0000
       N       E                     dE             d eps       ncg     rms          rms(c)
DAV:   1    -0.841699260845E+03   -0.53693E-04   -0.51452E-03  4560   0.145E-01    0.145E-02
DAV:   2    -0.841699268521E+03   -0.76761E-05   -0.10737E-04  4950   0.199E-02    0.124E-02
DAV:   3    -0.841699267188E+03    0.13323E-05   -0.33753E-06  4520   0.377E-03    0.939E-03
DAV:   4    -0.841699266834E+03    0.35456E-06   -0.45735E-06  4200   0.445E-03
  61 F= -.84953415E+03 E0= -.84953415E+03  d E =-.503073E-04  mag=    -0.0000
