<?xml version="1.0" encoding="ISO-8859-1"?>
<modeling>
 <generator>
  <i name="program" type="string">vasp </i>
  <i name="version" type="string">6.4.2  </i>
  <i name="subversion" type="string">20Jul23 (build Jan 24 2024 13:44:02) complex                          parallel </i>
  <i name="platform" type="string">LinuxNV </i>
  <i name="date" type="string">2025 11 14 </i>
  <i name="time" type="string">00:02:37 </i>
 </generator>
 <incar>
  <i type="int" name="ISTART">     0</i>
  <i type="string" name="ALGO">Normal</i>
  <i type="logical" name="ADDGRID"> T  </i>
  <i type="int" name="ISPIN">     2</i>
  <i type="int" name="IMIX">     4</i>
  <i name="AMIX">      0.20000000</i>
  <i name="BMIX">      0.00010000</i>
  <i name="AMIX_MAG">      0.80000000</i>
  <i name="BMIX_MAG">      0.00010000</i>
  <i type="int" name="ICHARG">     2</i>
  <i type="int" name="NELM">   200</i>
  <i type="int" name="IBRION">     3</i>
  <i name="EDIFF">      0.00000100</i>
  <i name="EDIFFG">     -0.03000000</i>
  <i type="int" name="NSW">   300</i>
  <i type="int" name="ISIF">     2</i>
  <i type="int" name="ISYM">     0</i>
  <i name="ENCUT">    520.00000000</i>
  <i name="POTIM">      0.05000000</i>
  <v name="MAGMOM">      0.60000000      0.60000000      0.60000000      0.60000000      0.60000000      0.60000000      0.60000000      0.60000000      0.60000000      0.60000000      0.60000000      0.60000000      0.60000000      0.60000000      0.60000000      0.60000000      0.60000000      0.60000000      0.60000000      0.60000000
      0.60000000      0.60000000      0.60000000      0.60000000      0.60000000      0.60000000      0.60000000      0.60000000      0.60000000      0.60000000      0.60000000      0.60000000      0.60000000      0.60000000      0.60000000      0.60000000      0.60000000      0.60000000      0.60000000      0.60000000
      0.60000000      0.60000000      0.60000000      0.60000000      0.60000000      0.60000000      0.60000000      0.60000000      0.60000000      0.60000000      0.60000000      0.60000000      0.60000000      0.60000000      0.60000000      0.60000000      0.60000000      0.60000000      0.60000000      0.60000000
      0.60000000      0.60000000      0.60000000      0.60000000      0.60000000      0.60000000      0.60000000      0.60000000      0.60000000      0.60000000      0.60000000      0.60000000      0.60000000      0.60000000      0.60000000      0.60000000      0.60000000      0.60000000      0.60000000      0.60000000
      0.60000000      0.60000000      0.60000000      0.60000000      0.60000000      0.60000000      0.60000000      0.60000000      0.60000000      0.60000000      0.60000000      0.60000000      0.60000000      0.60000000      0.60000000      0.60000000      0.60000000</v>
  <i type="string" name="LREAL">Auto</i>
  <i type="int" name="ISMEAR">     0</i>
  <i name="SIGMA">      0.05000000</i>
  <i type="logical" name="LWAVE"> F  </i>
  <i type="logical" name="LCHARG"> F  </i>
  <i type="logical" name="LASPH"> T  </i>
  <i type="int" name="IVDW">    12</i>
  <i name="SPRING">     -5.00000000</i>
 </incar>
 <primitive_cell>
  <structure name="primitive_cell" >
   <crystal>
    <varray name="basis" >
     <v>      17.27103806       0.00000000       0.00000000 </v>
     <v>      -8.63551903      14.95715771       0.00000000 </v>
     <v>       0.00000000       0.00000000      15.00000000 </v>
    </varray>
    <i name="volume">   3874.88459904 </i>
    <varray name="rec_basis" >
     <v>       0.05790040       0.03342881      -0.00000000 </v>
     <v>       0.00000000       0.06685762       0.00000000 </v>
     <v>       0.00000000      -0.00000000       0.06666667 </v>
    </varray>
   </crystal>
   <varray name="positions" >
    <v>       0.99817044       0.99887119       0.50332474 </v>
    <v>       0.99744211       0.14126561       0.50543980 </v>
    <v>       0.99759049       0.28441072       0.50507041 </v>
    <v>       0.99807682       0.42755332       0.50445781 </v>
    <v>       0.99838146       0.57061527       0.50060977 </v>
    <v>       0.99945767       0.71390070       0.49879651 </v>
    <v>       0.99976472       0.85710111       0.50008073 </v>
    <v>       0.14151842       0.99958539       0.49295526 </v>
    <v>       0.14065367       0.14188349       0.49855885 </v>
    <v>       0.13995771       0.28438829       0.49784182 </v>
    <v>       0.14082602       0.42798904       0.49670812 </v>
    <v>       0.14125117       0.57058270       0.49653382 </v>
    <v>       0.14142577       0.71350935       0.49319686 </v>
    <v>       0.14168365       0.85661438       0.49178951 </v>
    <v>       0.28416421       0.99914774       0.49102723 </v>
    <v>       0.28390286       0.14156856       0.49212223 </v>
    <v>       0.28315926       0.28492630       0.49232443 </v>
    <v>       0.28157505       0.42672274       0.47822787 </v>
    <v>       0.28532947       0.57192204       0.48697083 </v>
    <v>       0.28388083       0.71426667       0.49297884 </v>
    <v>       0.28391258       0.85679384       0.49147552 </v>
    <v>       0.42713190       0.99908721       0.49485411 </v>
    <v>       0.42682313       0.14166794       0.49609469 </v>
    <v>       0.42206460       0.27719021       0.52030765 </v>
    <v>       0.42600937       0.85590212       0.49858258 </v>
    <v>       0.56926167       0.99783224       0.50425919 </v>
    <v>       0.56967054       0.14119991       0.50523545 </v>
    <v>       0.57027699       0.28460512       0.50567688 </v>
    <v>       0.56733415       0.85309509       0.51428877 </v>
    <v>       0.71138194       0.99653421       0.51245907 </v>
    <v>       0.71229089       0.14082581       0.50933872 </v>
    <v>       0.71270252       0.28453168       0.51153806 </v>
    <v>       0.71320189       0.42840055       0.51275160 </v>
    <v>       0.72156676       0.57653933       0.54281690 </v>
    <v>       0.71171609       0.85303084       0.52575923 </v>
    <v>       0.85464748       0.99776212       0.51230487 </v>
    <v>       0.85451207       0.14078935       0.50966619 </v>
    <v>       0.85506816       0.28424788       0.50991941 </v>
    <v>       0.85567843       0.42773331       0.51139229 </v>
    <v>       0.85644854       0.57173831       0.50890597 </v>
    <v>       0.85887605       0.71527038       0.51461172 </v>
    <v>       0.85681913       0.85604893       0.51597492 </v>
    <v>       0.04554578       0.09413303       0.50250535 </v>
    <v>       0.04473263       0.23646986       0.50308587 </v>
    <v>       0.04539034       0.37988417       0.50262371 </v>
    <v>       0.04599963       0.52285694       0.50072464 </v>
    <v>       0.04632977       0.66589908       0.49662268 </v>
    <v>       0.04674091       0.80904080       0.49600586 </v>
    <v>       0.04640333       0.95193455       0.49824507 </v>
    <v>       0.18859897       0.09441597       0.49291446 </v>
    <v>       0.18758608       0.23698689       0.49765829 </v>
    <v>       0.18706567       0.37943687       0.49259465 </v>
    <v>       0.18922671       0.52344848       0.49395709 </v>
    <v>       0.18870746       0.66594175       0.49348381 </v>
    <v>       0.18899966       0.80890181       0.49127985 </v>
    <v>       0.18911506       0.95177397       0.49096738 </v>
    <v>       0.33171312       0.09428105       0.49279765 </v>
    <v>       0.33114100       0.23646827       0.49964966 </v>
    <v>       0.32471871       0.37572661       0.47217855 </v>
    <v>       0.32691037       0.52131701       0.47413788 </v>
    <v>       0.33474730       0.66987758       0.49276925 </v>
    <v>       0.33127925       0.80908311       0.49375705 </v>
    <v>       0.33177177       0.95171318       0.49170520 </v>
    <v>       0.47480336       0.09417314       0.49738373 </v>
    <v>       0.47403186       0.23648836       0.50569211 </v>
    <v>       0.46998765       0.80468475       0.50486883 </v>
    <v>       0.47436234       0.95116338       0.49908191 </v>
    <v>       0.61699395       0.09319072       0.50642436 </v>
    <v>       0.61758851       0.23669139       0.50956545 </v>
    <v>       0.62149646       0.37807351       0.49542411 </v>
    <v>       0.61769699       0.81019766       0.52881238 </v>
    <v>       0.61593154       0.94888447       0.50970445 </v>
    <v>       0.75929081       0.09254944       0.51038987 </v>
    <v>       0.75997424       0.23633458       0.51037036 </v>
    <v>       0.76041027       0.37999640       0.51456791 </v>
    <v>       0.76115968       0.52542908       0.51991517 </v>
    <v>       0.76578864       0.67142164       0.53357547 </v>
    <v>       0.76166573       0.80467934       0.52900479 </v>
    <v>       0.75913301       0.94876830       0.51636009 </v>
    <v>       0.90201191       0.09297834       0.50908204 </v>
    <v>       0.90227713       0.23634068       0.50846584 </v>
    <v>       0.90279217       0.37985345       0.50905366 </v>
    <v>       0.90318131       0.52320800       0.50588022 </v>
    <v>       0.90472563       0.66660614       0.50671270 </v>
    <v>       0.90521548       0.80974107       0.50963359 </v>
    <v>       0.90309467       0.95089573       0.51036303 </v>
    <v>       0.45976008       0.35676006       0.56317731 </v>
    <v>       0.41002585       0.41654571       0.44241648 </v>
    <v>       0.41513338       0.56365952       0.45858576 </v>
    <v>       0.63928203       0.53561773       0.57943150 </v>
    <v>       0.58161524       0.42070018       0.45955561 </v>
    <v>       0.57227588       0.72268209       0.54782800 </v>
    <v>       0.42412148       0.71469998       0.49994516 </v>
    <v>       0.71976746       0.71588100       0.54131406 </v>
    <v>       0.61145650       0.63449069       0.47980776 </v>
    <v>       0.53092708       0.54341453       0.45318555 </v>
    <v>       0.58657801       0.59198524       0.43022414 </v>
   </varray>
  </structure>
  <varray name="primitive_index" >
   <v type="int" >        1 </v>
   <v type="int" >        2 </v>
   <v type="int" >        3 </v>
   <v type="int" >        4 </v>
   <v type="int" >        5 </v>
   <v type="int" >        6 </v>
   <v type="int" >        7 </v>
   <v type="int" >        8 </v>
   <v type="int" >        9 </v>
   <v type="int" >       10 </v>
   <v type="int" >       11 </v>
   <v type="int" >       12 </v>
   <v type="int" >       13 </v>
   <v type="int" >       14 </v>
   <v type="int" >       15 </v>
   <v type="int" >       16 </v>
   <v type="int" >       17 </v>
   <v type="int" >       18 </v>
   <v type="int" >       19 </v>
   <v type="int" >       20 </v>
   <v type="int" >       21 </v>
   <v type="int" >       22 </v>
   <v type="int" >       23 </v>
   <v type="int" >       24 </v>
   <v type="int" >       25 </v>
   <v type="int" >       26 </v>
   <v type="int" >       27 </v>
   <v type="int" >       28 </v>
   <v type="int" >       29 </v>
   <v type="int" >       30 </v>
   <v type="int" >       31 </v>
   <v type="int" >       32 </v>
   <v type="int" >       33 </v>
   <v type="int" >       34 </v>
   <v type="int" >       35 </v>
   <v type="int" >       36 </v>
   <v type="int" >       37 </v>
   <v type="int" >       38 </v>
   <v type="int" >       39 </v>
   <v type="int" >       40 </v>
   <v type="int" >       41 </v>
   <v type="int" >       42 </v>
   <v type="int" >       43 </v>
   <v type="int" >       44 </v>
   <v type="int" >       45 </v>
   <v type="int" >       46 </v>
   <v type="int" >       47 </v>
   <v type="int" >       48 </v>
   <v type="int" >       49 </v>
   <v type="int" >       50 </v>
   <v type="int" >       51 </v>
   <v type="int" >       52 </v>
   <v type="int" >       53 </v>
   <v type="int" >       54 </v>
   <v type="int" >       55 </v>
   <v type="int" >       56 </v>
   <v type="int" >       57 </v>
   <v type="int" >       58 </v>
   <v type="int" >       59 </v>
   <v type="int" >       60 </v>
   <v type="int" >       61 </v>
   <v type="int" >       62 </v>
   <v type="int" >       63 </v>
   <v type="int" >       64 </v>
   <v type="int" >       65 </v>
   <v type="int" >       66 </v>
   <v type="int" >       67 </v>
   <v type="int" >       68 </v>
   <v type="int" >       69 </v>
   <v type="int" >       70 </v>
   <v type="int" >       71 </v>
   <v type="int" >       72 </v>
   <v type="int" >       73 </v>
   <v type="int" >       74 </v>
   <v type="int" >       75 </v>
   <v type="int" >       76 </v>
   <v type="int" >       77 </v>
   <v type="int" >       78 </v>
   <v type="int" >       79 </v>
   <v type="int" >       80 </v>
   <v type="int" >       81 </v>
   <v type="int" >       82 </v>
   <v type="int" >       83 </v>
   <v type="int" >       84 </v>
   <v type="int" >       85 </v>
   <v type="int" >       86 </v>
   <v type="int" >       87 </v>
   <v type="int" >       88 </v>
   <v type="int" >       89 </v>
   <v type="int" >       90 </v>
   <v type="int" >       91 </v>
   <v type="int" >       92 </v>
   <v type="int" >       93 </v>
   <v type="int" >       94 </v>
   <v type="int" >       95 </v>
   <v type="int" >       96 </v>
   <v type="int" >       97 </v>
  </varray>
 </primitive_cell>
 <kpoints>
  <generation param="Gamma">
   <v type="int" name="divisions">       2        2        1 </v>
   <v name="usershift">      0.00000000       0.00000000       0.00000000 </v>
   <v name="genvec1">      0.50000000       0.00000000       0.00000000 </v>
   <v name="genvec2">      0.00000000       0.50000000       0.00000000 </v>
   <v name="genvec3">      0.00000000       0.00000000       1.00000000 </v>
   <v name="shift">      0.00000000       0.00000000       0.00000000 </v>
  </generation>
  <varray name="kpointlist" >
   <v>       0.00000000       0.00000000       0.00000000 </v>
   <v>       0.50000000       0.00000000       0.00000000 </v>
   <v>       0.00000000       0.50000000       0.00000000 </v>
   <v>       0.50000000       0.50000000       0.00000000 </v>
  </varray>
  <varray name="weights" >
   <v>       0.25000000 </v>
   <v>       0.25000000 </v>
   <v>       0.25000000 </v>
   <v>       0.25000000 </v>
  </varray>
 </kpoints>
 <parameters>
  <separator name="general" >
   <i type="string" name="SYSTEM">unknown system</i>
   <i type="logical" name="LCOMPAT"> F  </i>
  </separator>
  <separator name="electronic" >
   <i type="string" name="PREC">normal</i>
   <i name="ENMAX">    520.00000000</i>
   <i name="ENAUG">    644.87300000</i>
   <i name="EDIFF">      0.00000100</i>
   <i type="int" name="IALGO">    38</i>
   <i type="int" name="IWAVPR">    11</i>
   <i type="int" name="NBANDS">   280</i>
   <i type="int" name="NBANDSLOW">    -1</i>
   <i type="int" name="NBANDSHIGH">    -1</i>
   <i name="NELECT">    404.00000000</i>
   <i type="int" name="TURBO">     0</i>
   <i type="int" name="IRESTART">     0</i>
   <i type="int" name="NREBOOT">     0</i>
   <i type="int" name="NMIN">     0</i>
   <i name="EREF">      0.00000000</i>
   <separator name="electronic smearing" >
    <i type="int" name="ISMEAR">     0</i>
    <i name="SIGMA">      0.05000000</i>
    <i name="KSPACING">      0.50000000</i>
    <i type="logical" name="KGAMMA"> T  </i>
    <i type="logical" name="KBLOWUP"> T  </i>
   </separator>
   <separator name="electronic projectors" >
    <i type="logical" name="LREAL"> T  </i>
    <v name="ROPT">     -0.00050000     -0.00050000     -0.00050000     -0.00050000     -0.00050000</v>
    <i type="int" name="LMAXPAW">  -100</i>
    <i type="int" name="LMAXMIX">     2</i>
    <i type="logical" name="NLSPLINE"> F  </i>
   </separator>
   <separator name="electronic startup" >
    <i type="int" name="ISTART">     0</i>
    <i type="int" name="ICHARG">     2</i>
    <i type="int" name="INIWAV">     1</i>
   </separator>
   <separator name="electronic spin" >
    <i type="int" name="ISPIN">     2</i>
    <i type="logical" name="LNONCOLLINEAR"> F  </i>
    <v name="MAGMOM">      0.60000000      0.60000000      0.60000000      0.60000000      0.60000000      0.60000000      0.60000000      0.60000000      0.60000000      0.60000000      0.60000000      0.60000000      0.60000000      0.60000000      0.60000000      0.60000000      0.60000000      0.60000000      0.60000000      0.60000000
      0.60000000      0.60000000      0.60000000      0.60000000      0.60000000      0.60000000      0.60000000      0.60000000      0.60000000      0.60000000      0.60000000      0.60000000      0.60000000      0.60000000      0.60000000      0.60000000      0.60000000      0.60000000      0.60000000      0.60000000
      0.60000000      0.60000000      0.60000000      0.60000000      0.60000000      0.60000000      0.60000000      0.60000000      0.60000000      0.60000000      0.60000000      0.60000000      0.60000000      0.60000000      0.60000000      0.60000000      0.60000000      0.60000000      0.60000000      0.60000000
      0.60000000      0.60000000      0.60000000      0.60000000      0.60000000      0.60000000      0.60000000      0.60000000      0.60000000      0.60000000      0.60000000      0.60000000      0.60000000      0.60000000      0.60000000      0.60000000      0.60000000      0.60000000      0.60000000      0.60000000
      0.60000000      0.60000000      0.60000000      0.60000000      0.60000000      0.60000000      0.60000000      0.60000000      0.60000000      0.60000000      0.60000000      0.60000000      0.60000000      0.60000000      0.60000000      0.60000000      0.60000000</v>
    <i name="NUPDOWN">     -1.00000000</i>
    <i type="logical" name="LSORBIT"> F  </i>
    <v name="SAXIS">      0.00000000      0.00000000      1.00000000</v>
    <i type="logical" name="LSPIRAL"> F  </i>
    <v name="QSPIRAL">      0.00000000      0.00000000      0.00000000</v>
    <i type="logical" name="LZEROZ"> F  </i>
   </separator>
   <separator name="electronic exchange-correlation" >
    <i type="logical" name="LASPH"> T  </i>
    <i type="logical" name="LMETAGGA"> F  </i>
   </separator>
   <separator name="electronic convergence" >
    <i type="int" name="NELM">   200</i>
    <i type="int" name="NELMDL">    -5</i>
    <i type="int" name="NELMIN">     2</i>
    <i name="ENINI">    520.00000000</i>
    <separator name="electronic convergence detail" >
     <i type="logical" name="LDIAG"> T  </i>
     <i type="logical" name="LSUBROT"> F  </i>
     <i name="WEIMIN">      0.00100000</i>
     <i name="EBREAK">      0.00000000</i>
     <i name="DEPER">      0.30000000</i>
     <i type="int" name="NRMM">     4</i>
     <i name="TIME">      0.40000000</i>
    </separator>
   </separator>
   <separator name="electronic mixer" >
    <i name="AMIX">      0.20000000</i>
    <i name="BMIX">      0.00010000</i>
    <i name="AMIN">      0.10000000</i>
    <i name="AMIX_MAG">      0.80000000</i>
    <i name="BMIX_MAG">      0.00010000</i>
    <separator name="electronic mixer details" >
     <i type="int" name="IMIX">     4</i>
     <i type="logical" name="MIXFIRST"> F  </i>
     <i type="int" name="MAXMIX">   -45</i>
     <i name="WC">    100.00000000</i>
     <i type="int" name="INIMIX">     1</i>
     <i type="int" name="MIXPRE">     1</i>
     <i type="int" name="MREMOVE">     5</i>
    </separator>
   </separator>
   <separator name="electronic dipolcorrection" >
    <i type="logical" name="LDIPOL"> F  </i>
    <i type="logical" name="LMONO"> F  </i>
    <i type="int" name="IDIPOL">     0</i>
    <i name="EPSILON">      1.00000000</i>
    <v name="DIPOL">   -100.00000000   -100.00000000   -100.00000000</v>
    <i name="EFIELD">      0.00000000</i>
   </separator>
  </separator>
  <separator name="grids" >
   <i type="int" name="NGX">    96</i>
   <i type="int" name="NGY">    96</i>
   <i type="int" name="NGZ">    84</i>
   <i type="int" name="NGXF">   192</i>
   <i type="int" name="NGYF">   192</i>
   <i type="int" name="NGZF">   168</i>
   <i type="logical" name="ADDGRID"> T  </i>
  </separator>
  <separator name="ionic" >
   <i type="int" name="NSW">   300</i>
   <i type="int" name="IBRION">     3</i>
   <i type="int" name="MDALGO">     0</i>
   <i type="int" name="ISIF">     2</i>
   <i name="PSTRESS">      0.00000000</i>
   <i name="EDIFFG">     -0.03000000</i>
   <i type="int" name="NFREE">     0</i>
   <i name="POTIM">      0.05000000</i>
   <i name="SMASS">     -3.00000000</i>
   <i name="SCALEE">      1.00000000</i>
  </separator>
  <separator name="ionic md" >
   <i name="TEBEG">      0.00010000</i>
   <i name="TEEND">      0.00010000</i>
   <i type="int" name="NBLOCK">     1</i>
   <i type="int" name="KBLOCK">   300</i>
   <i type="int" name="NPACO">   256</i>
   <i name="APACO">     10.00000000</i>
  </separator>
  <separator name="symmetry" >
   <i type="int" name="ISYM">     0</i>
   <i name="SYMPREC">      0.00001000</i>
  </separator>
  <separator name="dos" >
   <i type="int" name="LORBIT">     0</i>
   <v name="RWIGS">     -1.00000000     -1.00000000     -1.00000000     -1.00000000     -1.00000000</v>
   <i type="int" name="NEDOS">   301</i>
   <i name="EMIN">     10.00000000</i>
   <i name="EMAX">    -10.00000000</i>
   <i name="EFERMI">      0.00000000</i>
  </separator>
  <separator name="writing" >
   <i type="int" name="NWRITE">     2</i>
   <i type="logical" name="LWAVE"> F  </i>
   <i type="logical" name="LDOWNSAMPLE"> F  </i>
   <i type="logical" name="LCHARG"> F  </i>
   <i type="logical" name="LPARD"> F  </i>
   <i type="logical" name="LVTOT"> F  </i>
   <i type="logical" name="LVHAR"> F  </i>
   <i type="logical" name="LELF"> F  </i>
   <i type="logical" name="LOPTICS"> F  </i>
   <v name="STM">      0.00000000      0.00000000      0.00000000      0.00000000      0.00000000      0.00000000      0.00000000</v>
  </separator>
  <separator name="performance" >
   <i type="int" name="NPAR">     5</i>
   <i type="int" name="NSIM">     4</i>
   <i type="int" name="NBLK">    -1</i>
   <i type="logical" name="LPLANE"> T  </i>
   <i type="logical" name="LSCALAPACK"> T  </i>
   <i type="logical" name="LSCAAWARE"> F  </i>
   <i type="logical" name="LSCALU"> F  </i>
   <i type="logical" name="LASYNC"> F  </i>
   <i type="logical" name="LORBITALREAL"> F  </i>
  </separator>
  <separator name="miscellaneous" >
   <i type="int" name="IDIOT">     3</i>
   <i type="int" name="PHON_NSTRUCT">    -1</i>
   <i type="logical" name="LMUSIC"> F  </i>
   <v name="POMASS">     12.01100000     18.99800000     14.00100000      1.00000000     16.00000000</v>
   <v name="DARWINR">      0.00000000      0.00000000      0.00000000      0.00000000      0.00000000</v>
   <v name="DARWINV">      1.00000000      1.00000000      1.00000000      1.00000000      1.00000000</v>
   <i type="logical" name="LCORR"> T  </i>
  </separator>
  <i type="logical" name="GGA_COMPAT"> T  </i>
  <i type="logical" name="LBERRY"> F  </i>
  <i type="int" name="ICORELEVEL">     0</i>
  <i type="logical" name="LDAU"> F  </i>
  <i type="int" name="I_CONSTRAINED_M">     0</i>
  <separator name="electronic exchange-correlation" >
   <i type="string" name="GGA">--</i>
   <i type="int" name="VOSKOWN">     0</i>
   <i type="logical" name="LHFCALC"> F  </i>
   <i type="string" name="PRECFOCK"></i>
   <i type="logical" name="LSYMGRAD"> F  </i>
   <i type="logical" name="LHFONE"> F  </i>
   <i type="logical" name="LRHFCALC"> F  </i>
   <i type="logical" name="LTHOMAS"> F  </i>
   <i type="logical" name="LMODELHF"> F  </i>
   <i type="logical" name="LFOCKACE"> F  </i>
   <i name="ENCUT4O">     -1.00000000</i>
   <i type="int" name="EXXOEP">     0</i>
   <i type="int" name="FOURORBIT">     0</i>
   <i name="AEXX">      0.00000000</i>
   <i name="HFALPHA">      0.00000000</i>
   <i name="MCALPHA">      0.00000000</i>
   <i name="ALDAX">      1.00000000</i>
   <i name="AGGAX">      1.00000000</i>
   <i name="ALDAC">      1.00000000</i>
   <i name="AGGAC">      1.00000000</i>
   <i type="int" name="NKREDX">     1</i>
   <i type="int" name="NKREDY">     1</i>
   <i type="int" name="NKREDZ">     1</i>
   <i type="logical" name="SHIFTRED"> F  </i>
   <i type="logical" name="ODDONLY"> F  </i>
   <i type="logical" name="EVENONLY"> F  </i>
   <i type="int" name="LMAXFOCK">     0</i>
   <i type="int" name="NMAXFOCKAE">     0</i>
   <i type="logical" name="LFOCKAEDFT"> F  </i>
   <i name="HFSCREEN">      0.00000000</i>
   <i name="HFSCREENC">      0.00000000</i>
   <i type="int" name="NBANDSGWLOW">     0</i>
  </separator>
  <separator name="vdW DFT" >
   <i type="logical" name="LUSE_VDW"> F  </i>
   <i type="int" name="IVDW_NL">     1</i>
   <i type="logical" name="LSPIN_VDW"> F  </i>
   <i name="Zab_VDW">     -0.84910000</i>
   <i name="PARAM1">      0.12340000</i>
   <i name="PARAM2">      1.00000000</i>
   <i name="PARAM3">      0.00000000</i>
  </separator>
  <separator name="model GW" >
   <i type="int" name="MODEL_GW">     0</i>
   <i name="MODEL_EPS0">     23.96835834</i>
   <i name="MODEL_ALPHA">      1.00000000</i>
  </separator>
  <separator name="linear response parameters" >
   <i type="logical" name="LEPSILON"> F  </i>
   <i type="logical" name="LRPA"> F  </i>
   <i type="logical" name="LNABLA"> F  </i>
   <i type="logical" name="LVEL"> F  </i>
   <i name="CSHIFT">      0.10000000</i>
   <i name="OMEGAMAX">     -1.00000000</i>
   <i name="DEG_THRESHOLD">      0.00200000</i>
   <i name="RTIME">     -0.10000000</i>
   <i name="WPLASMAI">      0.00000000</i>
   <v name="DFIELD">      0.00000000      0.00000000      0.00000000</v>
   <v name="WPLASMA">      0.00000000      0.00000000      0.00000000      0.00000000      0.00000000      0.00000000      0.00000000      0.00000000      0.00000000</v>
  </separator>
  <separator name="orbital magnetization" >
   <i type="logical" name="NUCIND"> F  </i>
   <v name="MAGPOS">      0.00000000      0.00000000      0.00000000</v>
   <i type="logical" name="LNICSALL"> T  </i>
   <i type="logical" name="ORBITALMAG"> F  </i>
   <i type="logical" name="LMAGBLOCH"> F  </i>
   <i type="logical" name="LCHIMAG"> F  </i>
   <i type="logical" name="LGAUGE"> T  </i>
   <i type="int" name="MAGATOM">     0</i>
   <v name="MAGDIPOL">      0.00000000      0.00000000      0.00000000</v>
   <v name="AVECCONST">      0.00000000      0.00000000      0.00000000</v>
  </separator>
  <separator name="response functions" >
   <i type="logical" name="LALL_IN_ONE"> F  </i>
   <i type="int" name="IALL_IN_ONE">    -1</i>
   <i type="int" name="NBANDS_WAVE">    -1</i>
   <i type="logical" name="LFINITE_TEMPERATURE"> F  </i>
   <i type="logical" name="LADDER"> F  </i>
   <i type="logical" name="LRPAFORCE"> F  </i>
   <i type="logical" name="LFXC"> F  </i>
   <i type="logical" name="LHARTREE"> T  </i>
   <i type="int" name="IBSE">     0</i>
   <v type="int" name="KPOINT">    -1     0     0     0</v>
   <i type="logical" name="LTCTC"> F  </i>
   <i type="logical" name="LTCTE"> F  </i>
   <i type="logical" name="LTETE"> F  </i>
   <i type="logical" name="LTRIPLET"> F  </i>
   <i type="logical" name="LFXCEPS"> F  </i>
   <i type="logical" name="LFXHEG"> F  </i>
   <i type="int" name="NATURALO">     2</i>
   <i type="logical" name="LHOLEGF"> F  </i>
   <i type="logical" name="L2ORDER"> F  </i>
   <i type="logical" name="LDMP1"> F  </i>
   <i type="logical" name="LMP2LT"> F  </i>
   <i type="logical" name="LSMP2LT"> F  </i>
   <i type="logical" name="LGWLF"> F  </i>
   <i name="ENCUTGW">     -1.60000002</i>
   <i name="ENCUTGWSOFT">     -1.60000002</i>
   <i name="ENCUTLF">     -1.00000000</i>
   <i type="logical" name="LESF_SPLINES"> F  </i>
   <i type="int" name="LMAXMP2">    -1</i>
   <i name="SCISSOR">      0.00000000</i>
   <i type="int" name="NOMEGA">     0</i>
   <i type="int" name="NOMEGAR">     0</i>
   <i type="int" name="NBANDSGW">    -1</i>
   <i type="int" name="NBANDSO">    -1</i>
   <i type="int" name="NBANDSV">    -1</i>
   <i type="int" name="NELMGW">     1</i>
   <i type="int" name="NELMHF">     1</i>
   <i type="int" name="DIM">     3</i>
   <i type="int" name="IESPILON">     4</i>
   <i type="int" name="ANTIRES">     0</i>
   <i name="OMEGAMAX">    -30.00000000</i>
   <i name="OMEGAMIN">    -30.00000000</i>
   <i name="OMEGATL">   -200.00000000</i>
   <i type="int" name="OMEGAGRID">     0</i>
   <i name="CSHIFT">     -0.10000000</i>
   <i type="logical" name="LSELFENERGY"> F  </i>
   <i type="logical" name="LSPECTRAL"> F  </i>
   <i type="logical" name="LSPECTRALGW"> F  </i>
   <i type="logical" name="LSINGLES"> F  </i>
   <i type="logical" name="LFERMIGW"> F  </i>
   <i type="logical" name="ODDONLYGW"> F  </i>
   <i type="logical" name="EVENONLYGW"> F  </i>
   <i type="int" name="NKREDLFX">     1</i>
   <i type="int" name="NKREDLFY">     1</i>
   <i type="int" name="NKREDLFZ">     1</i>
   <i type="int" name="MAXMEM">  2800</i>
   <i type="int" name="TELESCOPE">     0</i>
   <i type="int" name="NTAUPAR">    -1</i>
   <i type="int" name="NOMEGAPAR">    -1</i>
   <i name="DAMP_NEWTON">      0.80000001</i>
   <i name="LAMBDA">      1.00000000</i>
  </separator>
  <separator name="External order field" >
   <i name="OFIELD_KAPPA">      0.00000000</i>
   <v name="OFIELD_K">      0.00000000      0.00000000      0.00000000</v>
   <i name="OFIELD_Q6_NEAR">      0.00000000</i>
   <i name="OFIELD_Q6_FAR">      0.00000000</i>
   <i name="OFIELD_A">      0.00000000</i>
  </separator>
  <separator name="optional k-points parameters" >
   <i type="int" name="KPOINTS_OPT_MODE">     1</i>
   <i type="logical" name="LKPOINTS_OPT"> F  </i>
  </separator>
 </parameters>
 <atominfo>
  <atoms>      97 </atoms>
  <types>       5 </types>
  <array name="atoms" >
   <dimension dim="1">ion</dimension>
   <field type="string">element</field>
   <field type="int">atomtype</field>
   <set>
    <rc><c>C </c><c>   1</c></rc>
    <rc><c>C </c><c>   1</c></rc>
    <rc><c>C </c><c>   1</c></rc>
    <rc><c>C </c><c>   1</c></rc>
    <rc><c>C </c><c>   1</c></rc>
    <rc><c>C </c><c>   1</c></rc>
    <rc><c>C </c><c>   1</c></rc>
    <rc><c>C </c><c>   1</c></rc>
    <rc><c>C </c><c>   1</c></rc>
    <rc><c>C </c><c>   1</c></rc>
    <rc><c>C </c><c>   1</c></rc>
    <rc><c>C </c><c>   1</c></rc>
    <rc><c>C </c><c>   1</c></rc>
    <rc><c>C </c><c>   1</c></rc>
    <rc><c>C </c><c>   1</c></rc>
    <rc><c>C </c><c>   1</c></rc>
    <rc><c>C </c><c>   1</c></rc>
    <rc><c>C </c><c>   1</c></rc>
    <rc><c>C </c><c>   1</c></rc>
    <rc><c>C </c><c>   1</c></rc>
    <rc><c>C </c><c>   1</c></rc>
    <rc><c>C </c><c>   1</c></rc>
    <rc><c>C </c><c>   1</c></rc>
    <rc><c>C </c><c>   1</c></rc>
    <rc><c>C </c><c>   1</c></rc>
    <rc><c>C </c><c>   1</c></rc>
    <rc><c>C </c><c>   1</c></rc>
    <rc><c>C </c><c>   1</c></rc>
    <rc><c>C </c><c>   1</c></rc>
    <rc><c>C </c><c>   1</c></rc>
    <rc><c>C </c><c>   1</c></rc>
    <rc><c>C </c><c>   1</c></rc>
    <rc><c>C </c><c>   1</c></rc>
    <rc><c>C </c><c>   1</c></rc>
    <rc><c>C </c><c>   1</c></rc>
    <rc><c>C </c><c>   1</c></rc>
    <rc><c>C </c><c>   1</c></rc>
    <rc><c>C </c><c>   1</c></rc>
    <rc><c>C </c><c>   1</c></rc>
    <rc><c>C </c><c>   1</c></rc>
    <rc><c>C </c><c>   1</c></rc>
    <rc><c>C </c><c>   1</c></rc>
    <rc><c>C </c><c>   1</c></rc>
    <rc><c>C </c><c>   1</c></rc>
    <rc><c>C </c><c>   1</c></rc>
    <rc><c>C </c><c>   1</c></rc>
    <rc><c>C </c><c>   1</c></rc>
    <rc><c>C </c><c>   1</c></rc>
    <rc><c>C </c><c>   1</c></rc>
    <rc><c>C </c><c>   1</c></rc>
    <rc><c>C </c><c>   1</c></rc>
    <rc><c>C </c><c>   1</c></rc>
    <rc><c>C </c><c>   1</c></rc>
    <rc><c>C </c><c>   1</c></rc>
    <rc><c>C </c><c>   1</c></rc>
    <rc><c>C </c><c>   1</c></rc>
    <rc><c>C </c><c>   1</c></rc>
    <rc><c>C </c><c>   1</c></rc>
    <rc><c>C </c><c>   1</c></rc>
    <rc><c>C </c><c>   1</c></rc>
    <rc><c>C </c><c>   1</c></rc>
    <rc><c>C </c><c>   1</c></rc>
    <rc><c>C </c><c>   1</c></rc>
    <rc><c>C </c><c>   1</c></rc>
    <rc><c>C </c><c>   1</c></rc>
    <rc><c>C </c><c>   1</c></rc>
    <rc><c>C </c><c>   1</c></rc>
    <rc><c>C </c><c>   1</c></rc>
    <rc><c>C </c><c>   1</c></rc>
    <rc><c>C </c><c>   1</c></rc>
    <rc><c>C </c><c>   1</c></rc>
    <rc><c>C </c><c>   1</c></rc>
    <rc><c>C </c><c>   1</c></rc>
    <rc><c>C </c><c>   1</c></rc>
    <rc><c>C </c><c>   1</c></rc>
    <rc><c>C </c><c>   1</c></rc>
    <rc><c>C </c><c>   1</c></rc>
    <rc><c>C </c><c>   1</c></rc>
    <rc><c>C </c><c>   1</c></rc>
    <rc><c>C </c><c>   1</c></rc>
    <rc><c>C </c><c>   1</c></rc>
    <rc><c>C </c><c>   1</c></rc>
    <rc><c>C </c><c>   1</c></rc>
    <rc><c>C </c><c>   1</c></rc>
    <rc><c>C </c><c>   1</c></rc>
    <rc><c>C </c><c>   1</c></rc>
    <rc><c>F </c><c>   2</c></rc>
    <rc><c>F </c><c>   2</c></rc>
    <rc><c>F </c><c>   2</c></rc>
    <rc><c>F </c><c>   2</c></rc>
    <rc><c>F </c><c>   2</c></rc>
    <rc><c>F </c><c>   2</c></rc>
    <rc><c>N </c><c>   3</c></rc>
    <rc><c>N </c><c>   3</c></rc>
    <rc><c>H </c><c>   4</c></rc>
    <rc><c>H </c><c>   4</c></rc>
    <rc><c>O </c><c>   5</c></rc>
   </set>
  </array>
  <array name="atomtypes" >
   <dimension dim="1">type</dimension>
   <field type="int">atomspertype</field>
   <field type="string">element</field>
   <field>mass</field>
   <field>valence</field>
   <field type="string">pseudopotential</field>
   <set>
    <rc><c>  86</c><c>C </c><c>     12.01100000</c><c>      4.00000000</c><c>  PAW_PBE C 08Apr2002                   </c></rc>
    <rc><c>   6</c><c>F </c><c>     18.99800000</c><c>      7.00000000</c><c>  PAW_PBE F 08Apr2002                   </c></rc>
    <rc><c>   2</c><c>N </c><c>     14.00100000</c><c>      5.00000000</c><c>  PAW_PBE N 08Apr2002                   </c></rc>
    <rc><c>   2</c><c>H </c><c>      1.00000000</c><c>      1.00000000</c><c>  PAW_PBE H 15Jun2001                   </c></rc>
    <rc><c>   1</c><c>O </c><c>     16.00000000</c><c>      6.00000000</c><c>  PAW_PBE O 08Apr2002                   </c></rc>
   </set>
  </array>
 </atominfo>
 <structure name="initialpos" >
  <crystal>
   <varray name="basis" >
    <v>      17.27103806       0.00000000       0.00000000 </v>
    <v>      -8.63551903      14.95715771       0.00000000 </v>
    <v>       0.00000000       0.00000000      15.00000000 </v>
   </varray>
   <i name="volume">   3874.88459904 </i>
   <varray name="rec_basis" >
    <v>       0.05790040       0.03342881      -0.00000000 </v>
    <v>       0.00000000       0.06685762       0.00000000 </v>
    <v>       0.00000000      -0.00000000       0.06666667 </v>
   </varray>
  </crystal>
  <varray name="positions" >
   <v>       0.99817044       0.99887119       0.50332474 </v>
   <v>       0.99744211       0.14126561       0.50543980 </v>
   <v>       0.99759049       0.28441072       0.50507041 </v>
   <v>       0.99807682       0.42755332       0.50445781 </v>
   <v>       0.99838146       0.57061527       0.50060977 </v>
   <v>       0.99945767       0.71390070       0.49879651 </v>
   <v>       0.99976472       0.85710111       0.50008073 </v>
   <v>       0.14151842       0.99958539       0.49295526 </v>
   <v>       0.14065367       0.14188349       0.49855885 </v>
   <v>       0.13995771       0.28438829       0.49784182 </v>
   <v>       0.14082602       0.42798904       0.49670812 </v>
   <v>       0.14125117       0.57058270       0.49653382 </v>
   <v>       0.14142577       0.71350935       0.49319686 </v>
   <v>       0.14168365       0.85661438       0.49178951 </v>
   <v>       0.28416421       0.99914774       0.49102723 </v>
   <v>       0.28390286       0.14156856       0.49212223 </v>
   <v>       0.28315926       0.28492630       0.49232443 </v>
   <v>       0.28157505       0.42672274       0.47822787 </v>
   <v>       0.28532947       0.57192204       0.48697083 </v>
   <v>       0.28388083       0.71426667       0.49297884 </v>
   <v>       0.28391258       0.85679384       0.49147552 </v>
   <v>       0.42713190       0.99908721       0.49485411 </v>
   <v>       0.42682313       0.14166794       0.49609469 </v>
   <v>       0.42206460       0.27719021       0.52030765 </v>
   <v>       0.42600937       0.85590212       0.49858258 </v>
   <v>       0.56926167       0.99783224       0.50425919 </v>
   <v>       0.56967054       0.14119991       0.50523545 </v>
   <v>       0.57027699       0.28460512       0.50567688 </v>
   <v>       0.56733415       0.85309509       0.51428877 </v>
   <v>       0.71138194       0.99653421       0.51245907 </v>
   <v>       0.71229089       0.14082581       0.50933872 </v>
   <v>       0.71270252       0.28453168       0.51153806 </v>
   <v>       0.71320189       0.42840055       0.51275160 </v>
   <v>       0.72156676       0.57653933       0.54281690 </v>
   <v>       0.71171609       0.85303084       0.52575923 </v>
   <v>       0.85464748       0.99776212       0.51230487 </v>
   <v>       0.85451207       0.14078935       0.50966619 </v>
   <v>       0.85506816       0.28424788       0.50991941 </v>
   <v>       0.85567843       0.42773331       0.51139229 </v>
   <v>       0.85644854       0.57173831       0.50890597 </v>
   <v>       0.85887605       0.71527038       0.51461172 </v>
   <v>       0.85681913       0.85604893       0.51597492 </v>
   <v>       0.04554578       0.09413303       0.50250535 </v>
   <v>       0.04473263       0.23646986       0.50308587 </v>
   <v>       0.04539034       0.37988417       0.50262371 </v>
   <v>       0.04599963       0.52285694       0.50072464 </v>
   <v>       0.04632977       0.66589908       0.49662268 </v>
   <v>       0.04674091       0.80904080       0.49600586 </v>
   <v>       0.04640333       0.95193455       0.49824507 </v>
   <v>       0.18859897       0.09441597       0.49291446 </v>
   <v>       0.18758608       0.23698689       0.49765829 </v>
   <v>       0.18706567       0.37943687       0.49259465 </v>
   <v>       0.18922671       0.52344848       0.49395709 </v>
   <v>       0.18870746       0.66594175       0.49348381 </v>
   <v>       0.18899966       0.80890181       0.49127985 </v>
   <v>       0.18911506       0.95177397       0.49096738 </v>
   <v>       0.33171312       0.09428105       0.49279765 </v>
   <v>       0.33114100       0.23646827       0.49964966 </v>
   <v>       0.32471871       0.37572661       0.47217855 </v>
   <v>       0.32691037       0.52131701       0.47413788 </v>
   <v>       0.33474730       0.66987758       0.49276925 </v>
   <v>       0.33127925       0.80908311       0.49375705 </v>
   <v>       0.33177177       0.95171318       0.49170520 </v>
   <v>       0.47480336       0.09417314       0.49738373 </v>
   <v>       0.47403186       0.23648836       0.50569211 </v>
   <v>       0.46998765       0.80468475       0.50486883 </v>
   <v>       0.47436234       0.95116338       0.49908191 </v>
   <v>       0.61699395       0.09319072       0.50642436 </v>
   <v>       0.61758851       0.23669139       0.50956545 </v>
   <v>       0.62149646       0.37807351       0.49542411 </v>
   <v>       0.61769699       0.81019766       0.52881238 </v>
   <v>       0.61593154       0.94888447       0.50970445 </v>
   <v>       0.75929081       0.09254944       0.51038987 </v>
   <v>       0.75997424       0.23633458       0.51037036 </v>
   <v>       0.76041027       0.37999640       0.51456791 </v>
   <v>       0.76115968       0.52542908       0.51991517 </v>
   <v>       0.76578864       0.67142164       0.53357547 </v>
   <v>       0.76166573       0.80467934       0.52900479 </v>
   <v>       0.75913301       0.94876830       0.51636009 </v>
   <v>       0.90201191       0.09297834       0.50908204 </v>
   <v>       0.90227713       0.23634068       0.50846584 </v>
   <v>       0.90279217       0.37985345       0.50905366 </v>
   <v>       0.90318131       0.52320800       0.50588022 </v>
   <v>       0.90472563       0.66660614       0.50671270 </v>
   <v>       0.90521548       0.80974107       0.50963359 </v>
   <v>       0.90309467       0.95089573       0.51036303 </v>
   <v>       0.45976008       0.35676006       0.56317731 </v>
   <v>       0.41002585       0.41654571       0.44241648 </v>
   <v>       0.41513338       0.56365952       0.45858576 </v>
   <v>       0.63928203       0.53561773       0.57943150 </v>
   <v>       0.58161524       0.42070018       0.45955561 </v>
   <v>       0.57227588       0.72268209       0.54782800 </v>
   <v>       0.42412148       0.71469998       0.49994516 </v>
   <v>       0.71976746       0.71588100       0.54131406 </v>
   <v>       0.61145650       0.63449069       0.47980776 </v>
   <v>       0.53092708       0.54341453       0.45318555 </v>
   <v>       0.58657801       0.59198524       0.43022414 </v>
  </varray>
  <varray name="selective"  type="logical" >
   <v type="logical" >  T  T  T </v>
   <v type="logical" >  T  T  T </v>
   <v type="logical" >  T  T  T </v>
   <v type="logical" >  T  T  T </v>
   <v type="logical" >  T  T  T </v>
   <v type="logical" >  T  T  T </v>
   <v type="logical" >  T  T  T </v>
   <v type="logical" >  T  T  T </v>
   <v type="logical" >  T  T  T </v>
   <v type="logical" >  T  T  T </v>
   <v type="logical" >  T  T  T </v>
   <v type="logical" >  T  T  T </v>
   <v type="logical" >  T  T  T </v>
   <v type="logical" >  T  T  T </v>
   <v type="logical" >  T  T  T </v>
   <v type="logical" >  T  T  T </v>
   <v type="logical" >  T  T  T </v>
   <v type="logical" >  T  T  T </v>
   <v type="logical" >  T  T  T </v>
   <v type="logical" >  T  T  T </v>
   <v type="logical" >  T  T  T </v>
   <v type="logical" >  T  T  T </v>
   <v type="logical" >  T  T  T </v>
   <v type="logical" >  T  T  T </v>
   <v type="logical" >  T  T  T </v>
   <v type="logical" >  T  T  T </v>
   <v type="logical" >  T  T  T </v>
   <v type="logical" >  T  T  T </v>
   <v type="logical" >  T  T  T </v>
   <v type="logical" >  T  T  T </v>
   <v type="logical" >  T  T  T </v>
   <v type="logical" >  T  T  T </v>
   <v type="logical" >  T  T  T </v>
   <v type="logical" >  T  T  T </v>
   <v type="logical" >  T  T  T </v>
   <v type="logical" >  T  T  T </v>
   <v type="logical" >  T  T  T </v>
   <v type="logical" >  T  T  T </v>
   <v type="logical" >  T  T  T </v>
   <v type="logical" >  T  T  T </v>
   <v type="logical" >  T  T  T </v>
   <v type="logical" >  T  T  T </v>
   <v type="logical" >  T  T  T </v>
   <v type="logical" >  T  T  T </v>
   <v type="logical" >  T  T  T </v>
   <v type="logical" >  T  T  T </v>
   <v type="logical" >  T  T  T </v>
   <v type="logical" >  T  T  T </v>
   <v type="logical" >  T  T  T </v>
   <v type="logical" >  T  T  T </v>
   <v type="logical" >  T  T  T </v>
   <v type="logical" >  T  T  T </v>
   <v type="logical" >  T  T  T </v>
   <v type="logical" >  T  T  T </v>
   <v type="logical" >  T  T  T </v>
   <v type="logical" >  T  T  T </v>
   <v type="logical" >  T  T  T </v>
   <v type="logical" >  T  T  T </v>
   <v type="logical" >  T  T  T </v>
   <v type="logical" >  T  T  T </v>
   <v type="logical" >  T  T  T </v>
   <v type="logical" >  T  T  T </v>
   <v type="logical" >  T  T  T </v>
   <v type="logical" >  T  T  T </v>
   <v type="logical" >  T  T  T </v>
   <v type="logical" >  T  T  T </v>
   <v type="logical" >  T  T  T </v>
   <v type="logical" >  T  T  T </v>
   <v type="logical" >  T  T  T </v>
   <v type="logical" >  T  T  T </v>
   <v type="logical" >  T  T  T </v>
   <v type="logical" >  T  T  T </v>
   <v type="logical" >  T  T  T </v>
   <v type="logical" >  T  T  T </v>
   <v type="logical" >  T  T  T </v>
   <v type="logical" >  T  T  T </v>
   <v type="logical" >  T  T  T </v>
   <v type="logical" >  T  T  T </v>
   <v type="logical" >  T  T  T </v>
   <v type="logical" >  T  T  T </v>
   <v type="logical" >  T  T  T </v>
   <v type="logical" >  T  T  T </v>
   <v type="logical" >  T  T  T </v>
   <v type="logical" >  T  T  T </v>
   <v type="logical" >  T  T  T </v>
   <v type="logical" >  T  T  T </v>
   <v type="logical" >  T  T  T </v>
   <v type="logical" >  T  T  T </v>
   <v type="logical" >  T  T  T </v>
   <v type="logical" >  T  T  T </v>
   <v type="logical" >  T  T  T </v>
   <v type="logical" >  T  T  T </v>
   <v type="logical" >  T  T  T </v>
   <v type="logical" >  T  T  T </v>
   <v type="logical" >  T  T  T </v>
   <v type="logical" >  T  T  T </v>
   <v type="logical" >  T  T  F </v>
  </varray>
  <nose>
   <v>      -3.00000000       0.00000000       0.00010000       0.00010000 </v>
  </nose>
 </structure>
 <calculation>
  <scstep>
   <time name="dav">   78.56   79.00</time>
   <time name="total">   85.76   86.26</time>
   <energy>
    <i name="alphaZ">    207.25300192 </i>
    <i name="ewald">  41389.89942675 </i>
    <i name="hartreedc"> -55087.84066122 </i>
    <i name="XCdc">   1433.64261605 </i>
    <i name="pawpsdc">  13324.18077321 </i>
    <i name="pawaedc"> -13407.67620897 </i>
    <i name="eentropy">     -0.04135020 </i>
    <i name="bandstr">  -1706.63853326 </i>
    <i name="atom">  17598.89992239 </i>
    <i name="e_fr_energy">   3751.67898666 </i>
    <i name="e_wo_entrp">   3751.72033687 </i>
    <i name="e_0_energy">   3751.69966176 </i>
   </energy>
  </scstep>
  <scstep>
   <time name="dav">  100.44  101.04</time>
   <time name="total">  100.44  101.04</time>
   <energy>
    <i name="e_fr_energy">   -177.73392795 </i>
    <i name="e_wo_entrp">   -177.73368442 </i>
    <i name="e_0_energy">   -177.73380618 </i>
   </energy>
  </scstep>
  <scstep>
   <time name="dav">   86.65   87.17</time>
   <time name="total">   86.65   87.17</time>
   <energy>
    <i name="e_fr_energy">   -861.84051884 </i>
    <i name="e_wo_entrp">   -861.83624120 </i>
    <i name="e_0_energy">   -861.83838002 </i>
   </energy>
  </scstep>
  <scstep>
   <time name="dav">   85.56   86.06</time>
   <time name="total">   85.56   86.06</time>
   <energy>
    <i name="e_fr_energy">   -884.12720964 </i>
    <i name="e_wo_entrp">   -884.12213453 </i>
    <i name="e_0_energy">   -884.12467208 </i>
   </energy>
  </scstep>
  <scstep>
   <time name="dav">   96.41   96.99</time>
   <time name="total">  102.53  103.15</time>
   <energy>
    <i name="e_fr_energy">   -884.81155166 </i>
    <i name="e_wo_entrp">   -884.80637589 </i>
    <i name="e_0_energy">   -884.80896377 </i>
   </energy>
  </scstep>
  <scstep>
   <time name="dav">   84.01   84.51</time>
   <time name="total">   97.56   98.13</time>
   <energy>
    <i name="e_fr_energy">   -867.21007861 </i>
    <i name="e_wo_entrp">   -867.20973383 </i>
    <i name="e_0_energy">   -867.20990622 </i>
   </energy>
  </scstep>
  <scstep>
   <time name="dav">   81.80   82.31</time>
   <time name="total">   95.32   95.93</time>
   <energy>
    <i name="e_fr_energy">   -846.60518782 </i>
    <i name="e_wo_entrp">   -846.60518698 </i>
    <i name="e_0_energy">   -846.60518740 </i>
   </energy>
  </scstep>
  <scstep>
   <time name="dav">   81.67   82.15</time>
   <time name="total">   94.99   95.54</time>
   <energy>
    <i name="e_fr_energy">   -841.72738233 </i>
    <i name="e_wo_entrp">   -841.72738233 </i>
    <i name="e_0_energy">   -841.72738233 </i>
   </energy>
  </scstep>
  <scstep>
   <time name="dav">   81.54   82.03</time>
   <time name="total">   95.07   95.63</time>
   <energy>
    <i name="e_fr_energy">   -841.89900326 </i>
    <i name="e_wo_entrp">   -841.89900326 </i>
    <i name="e_0_energy">   -841.89900326 </i>
   </energy>
  </scstep>
  <scstep>
   <time name="dav">   81.03   81.52</time>
   <time name="total">   94.02   94.57</time>
   <energy>
    <i name="e_fr_energy">   -841.72361660 </i>
    <i name="e_wo_entrp">   -841.72361660 </i>
    <i name="e_0_energy">   -841.72361660 </i>
   </energy>
  </scstep>
  <scstep>
   <time name="dav">   80.88   81.35</time>
   <time name="total">   94.71   95.26</time>
   <energy>
    <i name="e_fr_energy">   -841.69455560 </i>
    <i name="e_wo_entrp">   -841.69455560 </i>
    <i name="e_0_energy">   -841.69455560 </i>
   </energy>
  </scstep>
  <scstep>
   <time name="dav">   82.54   83.02</time>
   <time name="total">   96.35   96.90</time>
   <energy>
    <i name="e_fr_energy">   -841.69379755 </i>
    <i name="e_wo_entrp">   -841.69379755 </i>
    <i name="e_0_energy">   -841.69379755 </i>
   </energy>
  </scstep>
  <scstep>
   <time name="dav">   82.49   82.96</time>
   <time name="total">   96.15   96.72</time>
   <energy>
    <i name="e_fr_energy">   -841.69406049 </i>
    <i name="e_wo_entrp">   -841.69406049 </i>
    <i name="e_0_energy">   -841.69406049 </i>
   </energy>
  </scstep>
  <scstep>
   <time name="dav">   81.12   81.65</time>
   <time name="total">   94.60   95.19</time>
   <energy>
    <i name="e_fr_energy">   -841.69406179 </i>
    <i name="e_wo_entrp">   -841.69406179 </i>
    <i name="e_0_energy">   -841.69406179 </i>
   </energy>
  </scstep>
  <scstep>
   <time name="dav">   78.90   79.38</time>
   <time name="total">   92.78   93.33</time>
   <energy>
    <i name="e_fr_energy">   -841.69412289 </i>
    <i name="e_wo_entrp">   -841.69412289 </i>
    <i name="e_0_energy">   -841.69412289 </i>
   </energy>
  </scstep>
  <scstep>
   <time name="dav">   80.84   81.30</time>
   <time name="total">   94.50   95.03</time>
   <energy>
    <i name="e_fr_energy">   -841.69413521 </i>
    <i name="e_wo_entrp">   -841.69413521 </i>
    <i name="e_0_energy">   -841.69413521 </i>
   </energy>
  </scstep>
  <scstep>
   <time name="dav">   86.82   87.35</time>
   <time name="total">  100.47  101.09</time>
   <energy>
    <i name="e_fr_energy">   -841.69413481 </i>
    <i name="e_wo_entrp">   -841.69413481 </i>
    <i name="e_0_energy">   -841.69413481 </i>
   </energy>
  </scstep>
  <scstep>
   <time name="dav">   72.43   72.86</time>
   <time name="total">   79.98   80.44</time>
   <energy>
    <i name="alphaZ">    207.25300192 </i>
    <i name="ewald">  41389.89942675 </i>
    <i name="hartreedc"> -56564.96685526 </i>
    <i name="XCdc">   1483.58671420 </i>
    <i name="pawpsdc">  40926.25390499 </i>
    <i name="pawaedc"> -41021.09151449 </i>
    <i name="eentropy">     -0.00000000 </i>
    <i name="bandstr">  -4861.52873503 </i>
    <i name="atom">  17598.89992239 </i>
    <i name="e_fr_energy">   -841.69413452 </i>
    <i name="e_wo_entrp">   -841.69413452 </i>
    <i name="e_0_energy">   -841.69413452 </i>
   </energy>
  </scstep>
  <structure>
   <crystal>
    <varray name="basis" >
     <v>      17.27103806       0.00000000       0.00000000 </v>
     <v>      -8.63551903      14.95715771       0.00000000 </v>
     <v>       0.00000000       0.00000000      15.00000000 </v>
    </varray>
    <i name="volume">   3874.88459904 </i>
    <varray name="rec_basis" >
     <v>       0.05790040       0.03342881      -0.00000000 </v>
     <v>       0.00000000       0.06685762       0.00000000 </v>
     <v>       0.00000000      -0.00000000       0.06666667 </v>
    </varray>
   </crystal>
   <varray name="positions" >
    <v>       0.99817044       0.99887119       0.50332474 </v>
    <v>       0.99744211       0.14126561       0.50543980 </v>
    <v>       0.99759049       0.28441072       0.50507041 </v>
    <v>       0.99807682       0.42755332       0.50445781 </v>
    <v>       0.99838146       0.57061527       0.50060977 </v>
    <v>       0.99945767       0.71390070       0.49879651 </v>
    <v>       0.99976472       0.85710111       0.50008073 </v>
    <v>       0.14151842       0.99958539       0.49295526 </v>
    <v>       0.14065367       0.14188349       0.49855885 </v>
    <v>       0.13995771       0.28438829       0.49784182 </v>
    <v>       0.14082602       0.42798904       0.49670812 </v>
    <v>       0.14125117       0.57058270       0.49653382 </v>
    <v>       0.14142577       0.71350935       0.49319686 </v>
    <v>       0.14168365       0.85661438       0.49178951 </v>
    <v>       0.28416421       0.99914774       0.49102723 </v>
    <v>       0.28390286       0.14156856       0.49212223 </v>
    <v>       0.28315926       0.28492630       0.49232443 </v>
    <v>       0.28157505       0.42672274       0.47822787 </v>
    <v>       0.28532947       0.57192204       0.48697083 </v>
    <v>       0.28388083       0.71426667       0.49297884 </v>
    <v>       0.28391258       0.85679384       0.49147552 </v>
    <v>       0.42713190       0.99908721       0.49485411 </v>
    <v>       0.42682313       0.14166794       0.49609469 </v>
    <v>       0.42206460       0.27719021       0.52030765 </v>
    <v>       0.42600937       0.85590212       0.49858258 </v>
    <v>       0.56926167       0.99783224       0.50425919 </v>
    <v>       0.56967054       0.14119991       0.50523545 </v>
    <v>       0.57027699       0.28460512       0.50567688 </v>
    <v>       0.56733415       0.85309509       0.51428877 </v>
    <v>       0.71138194       0.99653421       0.51245907 </v>
    <v>       0.71229089       0.14082581       0.50933872 </v>
    <v>       0.71270252       0.28453168       0.51153806 </v>
    <v>       0.71320189       0.42840055       0.51275160 </v>
    <v>       0.72156676       0.57653933       0.54281690 </v>
    <v>       0.71171609       0.85303084       0.52575923 </v>
    <v>       0.85464748       0.99776212       0.51230487 </v>
    <v>       0.85451207       0.14078935       0.50966619 </v>
    <v>       0.85506816       0.28424788       0.50991941 </v>
    <v>       0.85567843       0.42773331       0.51139229 </v>
    <v>       0.85644854       0.57173831       0.50890597 </v>
    <v>       0.85887605       0.71527038       0.51461172 </v>
    <v>       0.85681913       0.85604893       0.51597492 </v>
    <v>       0.04554578       0.09413303       0.50250535 </v>
    <v>       0.04473263       0.23646986       0.50308587 </v>
    <v>       0.04539034       0.37988417       0.50262371 </v>
    <v>       0.04599963       0.52285694       0.50072464 </v>
    <v>       0.04632977       0.66589908       0.49662268 </v>
    <v>       0.04674091       0.80904080       0.49600586 </v>
    <v>       0.04640333       0.95193455       0.49824507 </v>
    <v>       0.18859897       0.09441597       0.49291446 </v>
    <v>       0.18758608       0.23698689       0.49765829 </v>
    <v>       0.18706567       0.37943687       0.49259465 </v>
    <v>       0.18922671       0.52344848       0.49395709 </v>
    <v>       0.18870746       0.66594175       0.49348381 </v>
    <v>       0.18899966       0.80890181       0.49127985 </v>
    <v>       0.18911506       0.95177397       0.49096738 </v>
    <v>       0.33171312       0.09428105       0.49279765 </v>
    <v>       0.33114100       0.23646827       0.49964966 </v>
    <v>       0.32471871       0.37572661       0.47217855 </v>
    <v>       0.32691037       0.52131701       0.47413788 </v>
    <v>       0.33474730       0.66987758       0.49276925 </v>
    <v>       0.33127925       0.80908311       0.49375705 </v>
    <v>       0.33177177       0.95171318       0.49170520 </v>
    <v>       0.47480336       0.09417314       0.49738373 </v>
    <v>       0.47403186       0.23648836       0.50569211 </v>
    <v>       0.46998765       0.80468475       0.50486883 </v>
    <v>       0.47436234       0.95116338       0.49908191 </v>
    <v>       0.61699395       0.09319072       0.50642436 </v>
    <v>       0.61758851       0.23669139       0.50956545 </v>
    <v>       0.62149646       0.37807351       0.49542411 </v>
    <v>       0.61769699       0.81019766       0.52881238 </v>
    <v>       0.61593154       0.94888447       0.50970445 </v>
    <v>       0.75929081       0.09254944       0.51038987 </v>
    <v>       0.75997424       0.23633458       0.51037036 </v>
    <v>       0.76041027       0.37999640       0.51456791 </v>
    <v>       0.76115968       0.52542908       0.51991517 </v>
    <v>       0.76578864       0.67142164       0.53357547 </v>
    <v>       0.76166573       0.80467934       0.52900479 </v>
    <v>       0.75913301       0.94876830       0.51636009 </v>
    <v>       0.90201191       0.09297834       0.50908204 </v>
    <v>       0.90227713       0.23634068       0.50846584 </v>
    <v>       0.90279217       0.37985345       0.50905366 </v>
    <v>       0.90318131       0.52320800       0.50588022 </v>
    <v>       0.90472563       0.66660614       0.50671270 </v>
    <v>       0.90521548       0.80974107       0.50963359 </v>
    <v>       0.90309467       0.95089573       0.51036303 </v>
    <v>       0.45976008       0.35676006       0.56317731 </v>
    <v>       0.41002585       0.41654571       0.44241648 </v>
    <v>       0.41513338       0.56365952       0.45858576 </v>
    <v>       0.63928203       0.53561773       0.57943150 </v>
    <v>       0.58161524       0.42070018       0.45955561 </v>
    <v>       0.57227588       0.72268209       0.54782800 </v>
    <v>       0.42412148       0.71469998       0.49994516 </v>
    <v>       0.71976746       0.71588100       0.54131406 </v>
    <v>       0.61145650       0.63449069       0.47980776 </v>
    <v>       0.53092708       0.54341453       0.45318555 </v>
    <v>       0.58657801       0.59198524       0.43022414 </v>
   </varray>
  </structure>
  <varray name="forces" >
   <v>      -0.00490502       0.00720999       0.00378289 </v>
   <v>       0.00234618       0.00092072       0.00021109 </v>
   <v>       0.00067360      -0.00018812      -0.00308853 </v>
   <v>      -0.00046176      -0.00347268       0.00001461 </v>
   <v>      -0.00054386      -0.00796163       0.00334480 </v>
   <v>      -0.00757915      -0.00190801       0.00524270 </v>
   <v>      -0.00832450       0.01343029       0.00826155 </v>
   <v>      -0.02314676       0.01544775       0.00231558 </v>
   <v>      -0.00255990       0.00457524      -0.00063962 </v>
   <v>       0.00162722      -0.00294920      -0.00423628 </v>
   <v>       0.00166689      -0.00657387      -0.00117666 </v>
   <v>       0.00070640      -0.00838868       0.00131402 </v>
   <v>       0.00495781      -0.01483713       0.00028014 </v>
   <v>      -0.01107246      -0.00018105       0.00148462 </v>
   <v>      -0.00592197       0.00956354      -0.00057327 </v>
   <v>      -0.02204493       0.02418359      -0.00081882 </v>
   <v>      -0.00216644      -0.00394947      -0.00073550 </v>
   <v>       0.00597982      -0.00240761       0.00198610 </v>
   <v>       0.00250311      -0.00360657       0.00429505 </v>
   <v>       0.00399390      -0.00715086       0.00250107 </v>
   <v>       0.00525876      -0.00320933      -0.00057558 </v>
   <v>       0.00469279       0.00220173       0.00247453 </v>
   <v>      -0.00681851       0.00681190       0.00393733 </v>
   <v>      -0.01219655      -0.00116493       0.00646222 </v>
   <v>       0.00538810      -0.00250688       0.00567932 </v>
   <v>       0.00638479       0.00171318       0.00589906 </v>
   <v>       0.00258127       0.00303655       0.00532679 </v>
   <v>      -0.00193604      -0.00006406       0.00816125 </v>
   <v>       0.00226166      -0.00116926       0.01141158 </v>
   <v>       0.00048228      -0.00025436       0.00837882 </v>
   <v>       0.00201254       0.00188799       0.00596521 </v>
   <v>       0.00228349       0.00240467       0.00584087 </v>
   <v>      -0.00105694      -0.00036987       0.00572282 </v>
   <v>       0.00093283       0.00416270       0.00436493 </v>
   <v>      -0.00044695      -0.00031503       0.01050012 </v>
   <v>       0.00046343       0.00151194       0.00645757 </v>
   <v>      -0.00040736       0.00154963       0.00274001 </v>
   <v>       0.00020728       0.00149181       0.00233247 </v>
   <v>       0.00218803      -0.00134089       0.00416834 </v>
   <v>      -0.00413834      -0.00383712       0.00904658 </v>
   <v>      -0.00432732       0.00189085       0.01307500 </v>
   <v>      -0.00274387       0.00274710       0.00272736 </v>
   <v>      -0.00171773      -0.00400471       0.00162197 </v>
   <v>      -0.00300232      -0.00067944      -0.00340582 </v>
   <v>      -0.00047309       0.00155831      -0.00258700 </v>
   <v>      -0.00181570       0.00448296       0.00094635 </v>
   <v>       0.00160443       0.00645389       0.00181573 </v>
   <v>       0.01450532      -0.00737472       0.00282024 </v>
   <v>       0.01411469      -0.01146339       0.00520495 </v>
   <v>       0.00969029      -0.01504645      -0.00041158 </v>
   <v>      -0.00140259      -0.00052867      -0.00269145 </v>
   <v>      -0.00335372       0.00370027      -0.00248092 </v>
   <v>      -0.00161320       0.00403972       0.00130046 </v>
   <v>      -0.00676628       0.01289366       0.00135547 </v>
   <v>       0.00072394       0.00377877      -0.00125094 </v>
   <v>       0.01402540      -0.01042968      -0.00013830 </v>
   <v>       0.01587737      -0.02081627       0.00009015 </v>
   <v>       0.00887685      -0.00951637       0.00143017 </v>
   <v>      -0.00019164       0.00426834       0.00245403 </v>
   <v>      -0.00122812       0.00295037       0.00767584 </v>
   <v>      -0.00325669       0.00175670       0.00687052 </v>
   <v>      -0.00745625       0.00426246       0.00318155 </v>
   <v>      -0.00160454      -0.00471785      -0.00020045 </v>
   <v>      -0.00071152      -0.00751474       0.00277009 </v>
   <v>       0.00659575      -0.00687739       0.00613796 </v>
   <v>      -0.00345912      -0.00000349       0.01007916 </v>
   <v>      -0.00514967      -0.00054578       0.00466978 </v>
   <v>      -0.00344502      -0.00402946       0.00497149 </v>
   <v>      -0.00273325      -0.00433861       0.00529689 </v>
   <v>      -0.00276553      -0.00248577       0.00525074 </v>
   <v>      -0.00086371      -0.00069184       0.01109906 </v>
   <v>      -0.00225195      -0.00214885       0.00943321 </v>
   <v>      -0.00071464      -0.00304669       0.00533084 </v>
   <v>      -0.00318034      -0.00296089       0.00505376 </v>
   <v>      -0.00242241      -0.00630624       0.00541751 </v>
   <v>      -0.00333976       0.00031119       0.00983670 </v>
   <v>       0.00255490      -0.00043399       0.00996153 </v>
   <v>      -0.00027695      -0.00071891       0.01161619 </v>
   <v>       0.00098428      -0.00313983       0.00907235 </v>
   <v>      -0.00173635      -0.00305910       0.00344383 </v>
   <v>       0.00005652      -0.00477852      -0.00064198 </v>
   <v>      -0.00142490      -0.00006941       0.00210296 </v>
   <v>       0.00024590       0.00249320       0.00580036 </v>
   <v>       0.00576580       0.00135401       0.00813970 </v>
   <v>       0.00410234      -0.00523085       0.01214967 </v>
   <v>      -0.00030375      -0.00488708       0.00875012 </v>
   <v>      -0.00225768      -0.00399623       0.01099468 </v>
   <v>       0.00071290       0.00234618       0.00677004 </v>
   <v>       0.00318465       0.00475622       0.02345946 </v>
   <v>      -0.01255849       0.00591027      -0.00130652 </v>
   <v>      -0.00282250      -0.00585826       0.00542501 </v>
   <v>      -0.00195535      -0.00161522       0.01317334 </v>
   <v>       0.00122177      -0.00181982       0.01060452 </v>
   <v>      -0.00079943       0.00022430       0.00895451 </v>
   <v>       0.01227199       0.01404996      -0.03513225 </v>
   <v>       0.01368123       0.02275479      -0.06472669 </v>
   <v>       0.02146439       0.02785442      -0.31142113 </v>
  </varray>
  <varray name="stress" >
   <v>       1.49268586       0.68126772      -0.02912324 </v>
   <v>       0.68126736      -3.26914837      -0.02016220 </v>
   <v>      -0.02912388      -0.02016292      -0.20081515 </v>
  </varray>
  <energy>
   <i name="e_fr_energy">   -849.52981354 </i>
   <i name="e_wo_entrp">   -849.52981353 </i>
   <i name="e_0_energy">   -849.52981354 </i>
  </energy>
  <time name="totalsc"> 2028.08 2039.71</time>
 </calculation>
 <calculation>
  <scstep>
   <time name="dav">   77.30   77.75</time>
   <time name="total">   90.55   91.08</time>
   <energy>
    <i name="alphaZ">    207.25300192 </i>
    <i name="ewald">  41389.60019793 </i>
    <i name="hartreedc"> -56564.64556469 </i>
    <i name="XCdc">   1483.58569159 </i>
    <i name="pawpsdc">  40925.62762382 </i>
    <i name="pawaedc"> -41020.46478381 </i>
    <i name="eentropy">     -0.00000000 </i>
    <i name="bandstr">  -4861.55029873 </i>
    <i name="atom">  17598.89992239 </i>
    <i name="e_fr_energy">   -841.69420959 </i>
    <i name="e_wo_entrp">   -841.69420959 </i>
    <i name="e_0_energy">   -841.69420959 </i>
   </energy>
  </scstep>
  <scstep>
   <time name="dav">   82.50   83.02</time>
   <time name="total">   96.03   96.61</time>
   <energy>
    <i name="e_fr_energy">   -841.69421647 </i>
    <i name="e_wo_entrp">   -841.69421647 </i>
    <i name="e_0_energy">   -841.69421647 </i>
   </energy>
  </scstep>
  <scstep>
   <time name="dav">   73.57   74.01</time>
   <time name="total">   86.85   87.35</time>
   <energy>
    <i name="e_fr_energy">   -841.69421534 </i>
    <i name="e_wo_entrp">   -841.69421534 </i>
    <i name="e_0_energy">   -841.69421534 </i>
   </energy>
  </scstep>
  <scstep>
   <time name="dav">   50.07   50.34</time>
   <time name="total">   56.48   56.79</time>
   <energy>
    <i name="alphaZ">    207.25300192 </i>
    <i name="ewald">  41389.60019793 </i>
    <i name="hartreedc"> -56564.61125989 </i>
    <i name="XCdc">   1483.58462940 </i>
    <i name="pawpsdc">  40924.95149403 </i>
    <i name="pawaedc"> -41019.78769553 </i>
    <i name="eentropy">     -0.00000000 </i>
    <i name="bandstr">  -4861.58450475 </i>
    <i name="atom">  17598.89992239 </i>
    <i name="e_fr_energy">   -841.69421451 </i>
    <i name="e_wo_entrp">   -841.69421451 </i>
    <i name="e_0_energy">   -841.69421451 </i>
   </energy>
  </scstep>
  <structure>
   <crystal>
    <varray name="basis" >
     <v>      17.27103806       0.00000000       0.00000000 </v>
     <v>      -8.63551903      14.95715771       0.00000000 </v>
     <v>       0.00000000       0.00000000      15.00000000 </v>
    </varray>
    <i name="volume">   3874.88459904 </i>
    <varray name="rec_basis" >
     <v>       0.05790040       0.03342881      -0.00000000 </v>
     <v>       0.00000000       0.06685762       0.00000000 </v>
     <v>       0.00000000      -0.00000000       0.06666667 </v>
    </varray>
   </crystal>
   <varray name="positions" >
    <v>       0.99817011       0.99887591       0.50332735 </v>
    <v>       0.99744388       0.14126635       0.50543971 </v>
    <v>       0.99759101       0.28441079       0.50506806 </v>
    <v>       0.99807580       0.42755132       0.50445771 </v>
    <v>       0.99837899       0.57061039       0.50061168 </v>
    <v>       0.99945309       0.71389972       0.49879964 </v>
    <v>       0.99976445       0.85710985       0.50008613 </v>
    <v>       0.14151057       0.99959550       0.49295623 </v>
    <v>       0.14065380       0.14188659       0.49855723 </v>
    <v>       0.13995776       0.28438658       0.49783721 </v>
    <v>       0.14082498       0.42798499       0.49670569 </v>
    <v>       0.14124914       0.57057757       0.49653417 </v>
    <v>       0.14142406       0.71350007       0.49319652 </v>
    <v>       0.14167762       0.85661452       0.49179000 </v>
    <v>       0.28416423       0.99915423       0.49102616 </v>
    <v>       0.28389844       0.14158438       0.49211998 </v>
    <v>       0.28315669       0.28492397       0.49232020 </v>
    <v>       0.28157718       0.42672116       0.47822273 </v>
    <v>       0.28532954       0.57191984       0.48696912 </v>
    <v>       0.28388109       0.71426232       0.49297915 </v>
    <v>       0.28391478       0.85679207       0.49147458 </v>
    <v>       0.42713552       0.99908901       0.49485489 </v>
    <v>       0.42682183       0.14167289       0.49609592 </v>
    <v>       0.42205732       0.27719001       0.52030930 </v>
    <v>       0.42601189       0.85590072       0.49858551 </v>
    <v>       0.56926605       0.99783368       0.50426230 </v>
    <v>       0.56967324       0.14120232       0.50523779 </v>
    <v>       0.57027625       0.28460579       0.50568159 </v>
    <v>       0.56733523       0.85309467       0.51429744 </v>
    <v>       0.71138234       0.99653422       0.51246494 </v>
    <v>       0.71229288       0.14082728       0.50934203 </v>
    <v>       0.71270486       0.28453350       0.51154152 </v>
    <v>       0.71320192       0.42840066       0.51275709 </v>
    <v>       0.72157030       0.57654209       0.54282587 </v>
    <v>       0.71171595       0.85303086       0.52576961 </v>
    <v>       0.85464839       0.99776321       0.51230982 </v>
    <v>       0.85451256       0.14079052       0.50966797 </v>
    <v>       0.85506904       0.28424904       0.50992084 </v>
    <v>       0.85567971       0.42773267       0.51139520 </v>
    <v>       0.85644562       0.57173612       0.50891242 </v>
    <v>       0.85887441       0.71527162       0.51462188 </v>
    <v>       0.85681856       0.85605074       0.51597861 </v>
    <v>       0.04554364       0.09413056       0.50250604 </v>
    <v>       0.04473090       0.23646959       0.50308300 </v>
    <v>       0.04539084       0.37988537       0.50262150 </v>
    <v>       0.04600041       0.52286008       0.50072508 </v>
    <v>       0.04633306       0.66590350       0.49662346 </v>
    <v>       0.04674682       0.80903626       0.49600740 </v>
    <v>       0.04640760       0.95192725       0.49824834 </v>
    <v>       0.18859961       0.09440642       0.49291311 </v>
    <v>       0.18758516       0.23698672       0.49765418 </v>
    <v>       0.18706505       0.37943943       0.49259004 </v>
    <v>       0.18922725       0.52345129       0.49395631 </v>
    <v>       0.18870816       0.66595036       0.49348396 </v>
    <v>       0.18900156       0.80890454       0.49127850 </v>
    <v>       0.18911974       0.95176750       0.49096676 </v>
    <v>       0.33171554       0.09426801       0.49279652 </v>
    <v>       0.33114288       0.23646245       0.49964770 </v>
    <v>       0.32471950       0.37572920       0.47217426 </v>
    <v>       0.32690951       0.52131887       0.47413310 </v>
    <v>       0.33474636       0.66987889       0.49277084 </v>
    <v>       0.33127677       0.80908613       0.49375828 </v>
    <v>       0.33176963       0.95171048       0.49170446 </v>
    <v>       0.47480081       0.09416875       0.49738445 </v>
    <v>       0.47403361       0.23648463       0.50569460 </v>
    <v>       0.46998596       0.80468483       0.50487501 </v>
    <v>       0.47435956       0.95116332       0.49908418 </v>
    <v>       0.61699098       0.09318848       0.50642670 </v>
    <v>       0.61758586       0.23668908       0.50956809 </v>
    <v>       0.62149494       0.37807287       0.49542882 </v>
    <v>       0.61769650       0.81019805       0.52882408 </v>
    <v>       0.61592979       0.94888337       0.50971070 </v>
    <v>       0.75928965       0.09254767       0.51039321 </v>
    <v>       0.75997179       0.23633291       0.51037323 </v>
    <v>       0.76040739       0.37999255       0.51457186 </v>
    <v>       0.76115894       0.52542959       0.51992425 </v>
    <v>       0.76579056       0.67142142       0.53358682 </v>
    <v>       0.76166565       0.80467903       0.52901657 </v>
    <v>       0.75913274       0.94876638       0.51636734 </v>
    <v>       0.90201014       0.09297649       0.50908443 </v>
    <v>       0.90227586       0.23633779       0.50846535 </v>
    <v>       0.90279174       0.37985361       0.50905506 </v>
    <v>       0.90318273       0.52320982       0.50588394 </v>
    <v>       0.90472963       0.66660726       0.50671840 </v>
    <v>       0.90521614       0.80973772       0.50964255 </v>
    <v>       0.90309303       0.95089262       0.51036961 </v>
    <v>       0.45975655       0.35675820       0.56318167 </v>
    <v>       0.41002630       0.41654655       0.44241456 </v>
    <v>       0.41513332       0.56366247       0.45858156 </v>
    <v>       0.63928079       0.53562046       0.57944207 </v>
    <v>       0.58161363       0.42069900       0.45956193 </v>
    <v>       0.57227423       0.72268301       0.54784581 </v>
    <v>       0.42412192       0.71469883       0.49995011 </v>
    <v>       0.71976805       0.71588156       0.54132657 </v>
    <v>       0.61146259       0.63449550       0.47981156 </v>
    <v>       0.53093822       0.54341813       0.45318565 </v>
    <v>       0.58658593       0.59199364       0.43022414 </v>
   </varray>
  </structure>
  <varray name="forces" >
   <v>      -0.00042100      -0.00105715       0.00398742 </v>
   <v>      -0.00097112      -0.00044950       0.00036780 </v>
   <v>      -0.00086091      -0.00038354      -0.00302585 </v>
   <v>      -0.00063581      -0.00033116      -0.00004322 </v>
   <v>      -0.00109848       0.00003180       0.00306050 </v>
   <v>       0.00060931      -0.00056268       0.00314305 </v>
   <v>       0.00232676       0.00009071       0.00791927 </v>
   <v>       0.00477175      -0.00473091       0.00167305 </v>
   <v>      -0.00017564      -0.00101992      -0.00078388 </v>
   <v>      -0.00114422      -0.00009755      -0.00423401 </v>
   <v>      -0.00080223       0.00093768      -0.00064644 </v>
   <v>      -0.00073664       0.00014410       0.00113565 </v>
   <v>      -0.00159592       0.00125806      -0.00024566 </v>
   <v>       0.00091148      -0.00042074      -0.00035958 </v>
   <v>       0.00035158      -0.00242093      -0.00075327 </v>
   <v>       0.00164338       0.00084946      -0.00090603 </v>
   <v>      -0.00018990      -0.00070053      -0.00108021 </v>
   <v>       0.00168430       0.00105879       0.00224592 </v>
   <v>      -0.00001181      -0.00029688       0.00471094 </v>
   <v>      -0.00044025       0.00011450       0.00269469 </v>
   <v>      -0.00065611      -0.00051841      -0.00058616 </v>
   <v>      -0.00051243      -0.00146950       0.00220552 </v>
   <v>      -0.00076501      -0.00196886       0.00357841 </v>
   <v>      -0.00007326      -0.00239042       0.00660231 </v>
   <v>      -0.00054099      -0.00070855       0.00550166 </v>
   <v>       0.00066032      -0.00078117       0.00573931 </v>
   <v>      -0.00186167      -0.00285084       0.00352086 </v>
   <v>      -0.00057910      -0.00178118       0.00801438 </v>
   <v>      -0.00010636      -0.00124231       0.01124759 </v>
   <v>       0.00000714      -0.00165976       0.00843435 </v>
   <v>      -0.00044901      -0.00086093       0.00586899 </v>
   <v>      -0.00105188      -0.00122242       0.00571524 </v>
   <v>      -0.00215041      -0.00148282       0.00576088 </v>
   <v>      -0.00210041       0.00213696       0.00595663 </v>
   <v>      -0.00047713      -0.00120016       0.01079296 </v>
   <v>      -0.00040936      -0.00077076       0.00676592 </v>
   <v>      -0.00079040      -0.00115305       0.00276022 </v>
   <v>      -0.00066009      -0.00081107       0.00234240 </v>
   <v>      -0.00048323      -0.00067761       0.00431543 </v>
   <v>      -0.00205379      -0.00061413       0.00892024 </v>
   <v>       0.00107830      -0.00089971       0.01101999 </v>
   <v>       0.00123689      -0.00411518       0.00330944 </v>
   <v>      -0.00032389       0.00024426       0.00147910 </v>
   <v>      -0.00060967      -0.00043230      -0.00346462 </v>
   <v>      -0.00049824      -0.00049058      -0.00245205 </v>
   <v>      -0.00055307      -0.00120134       0.00117121 </v>
   <v>      -0.00096174      -0.00159790       0.00221991 </v>
   <v>      -0.00072584      -0.00218542       0.00372478 </v>
   <v>      -0.00338258       0.00109262       0.00474985 </v>
   <v>      -0.00196967       0.00071359      -0.00010004 </v>
   <v>      -0.00038769      -0.00081903      -0.00267274 </v>
   <v>       0.00032122      -0.00050754      -0.00256236 </v>
   <v>      -0.00043418      -0.00079858       0.00126107 </v>
   <v>       0.00000349      -0.00000294       0.00146943 </v>
   <v>      -0.00022010      -0.00153191      -0.00106300 </v>
   <v>      -0.00249923       0.00037835       0.00013834 </v>
   <v>      -0.00310156       0.00182673       0.00014450 </v>
   <v>      -0.00187122      -0.00051377       0.00109773 </v>
   <v>       0.00138937      -0.00500032       0.00490286 </v>
   <v>       0.00147422       0.00049492       0.00742546 </v>
   <v>       0.00032082      -0.00087553       0.00676036 </v>
   <v>       0.00168067      -0.00183787       0.00175876 </v>
   <v>       0.00018057      -0.00081252      -0.00009520 </v>
   <v>      -0.00005467      -0.00038021       0.00315286 </v>
   <v>      -0.00223054      -0.00059047       0.00745303 </v>
   <v>      -0.00011345      -0.00157025       0.01031041 </v>
   <v>       0.00138411      -0.00041055       0.00498125 </v>
   <v>       0.00035366      -0.00072662       0.00527428 </v>
   <v>      -0.00067661      -0.00046863       0.00560040 </v>
   <v>      -0.00165826      -0.00139284       0.00584771 </v>
   <v>      -0.00023864      -0.00138295       0.01162017 </v>
   <v>       0.00051271      -0.00135944       0.00951968 </v>
   <v>      -0.00008777      -0.00115022       0.00543257 </v>
   <v>      -0.00034390      -0.00052410       0.00508965 </v>
   <v>      -0.00073006      -0.00213667       0.00545860 </v>
   <v>      -0.00277499      -0.00052438       0.00953462 </v>
   <v>       0.00012305       0.00121997       0.01023392 </v>
   <v>      -0.00030265      -0.00030689       0.01112193 </v>
   <v>       0.00058174      -0.00117310       0.00900211 </v>
   <v>      -0.00008097      -0.00057692       0.00337437 </v>
   <v>      -0.00080528       0.00016708       0.00083445 </v>
   <v>      -0.00034230      -0.00060200       0.00208171 </v>
   <v>      -0.00121399      -0.00104644       0.00601632 </v>
   <v>      -0.00125511      -0.00115328       0.00907828 </v>
   <v>      -0.00077462       0.00087446       0.01035883 </v>
   <v>       0.00018947      -0.00003435       0.00789272 </v>
   <v>      -0.00360335      -0.00440850       0.01057833 </v>
   <v>       0.00308305      -0.00032516       0.00868927 </v>
   <v>       0.00318258       0.00502179       0.02325335 </v>
   <v>      -0.01095810       0.00685962      -0.00208390 </v>
   <v>      -0.00351142      -0.00531683       0.00544696 </v>
   <v>      -0.00189943      -0.00195369       0.01345984 </v>
   <v>      -0.00093411      -0.00057675       0.01048520 </v>
   <v>       0.00004515      -0.00008486       0.00867895 </v>
   <v>       0.01209725       0.01387345      -0.03532620 </v>
   <v>       0.01356067       0.02287775      -0.06478929 </v>
   <v>       0.02116852       0.02816731      -0.31020245 </v>
  </varray>
  <varray name="stress" >
   <v>       1.48522418       0.68570013      -0.03004246 </v>
   <v>       0.68569979      -3.26344742      -0.01887827 </v>
   <v>      -0.03004310      -0.01887900      -0.18715656 </v>
  </varray>
  <energy>
   <i name="e_fr_energy">   -849.52988333 </i>
   <i name="e_wo_entrp">   -849.52988333 </i>
   <i name="e_0_energy">   -849.52988333 </i>
  </energy>
  <time name="totalsc">  498.39  501.46</time>
 </calculation>
 <calculation>
  <scstep>
   <time name="dav">   76.56   77.08</time>
   <time name="total">   89.89   90.48</time>
   <energy>
    <i name="alphaZ">    207.25300192 </i>
    <i name="ewald">  41389.08051599 </i>
    <i name="hartreedc"> -56564.10529456 </i>
    <i name="XCdc">   1483.58396959 </i>
    <i name="pawpsdc">  40924.76484173 </i>
    <i name="pawaedc"> -41019.60098969 </i>
    <i name="eentropy">     -0.00000000 </i>
    <i name="bandstr">  -4861.57026433 </i>
    <i name="atom">  17598.89992239 </i>
    <i name="e_fr_energy">   -841.69429696 </i>
    <i name="e_wo_entrp">   -841.69429696 </i>
    <i name="e_0_energy">   -841.69429696 </i>
   </energy>
  </scstep>
  <scstep>
   <time name="dav">   76.57   77.02</time>
   <time name="total">   90.06   90.58</time>
   <energy>
    <i name="e_fr_energy">   -841.69431072 </i>
    <i name="e_wo_entrp">   -841.69431072 </i>
[...]
       <r>   -17.8341     6.2740    36.3614 </r>
       <r>   -17.7098     6.3359    37.1486 </r>
       <r>   -17.5856    14.8655    38.9958 </r>
       <r>   -17.4613    11.1160    40.3771 </r>
       <r>   -17.3371    10.3074    41.6579 </r>
       <r>   -17.2128     3.9123    42.1440 </r>
       <r>   -17.0885     6.6162    42.9661 </r>
       <r>   -16.9643     8.7064    44.0480 </r>
       <r>   -16.8400     5.6520    44.7503 </r>
       <r>   -16.7158     5.9985    45.4957 </r>
       <r>   -16.5915    10.6009    46.8129 </r>
       <r>   -16.4672    14.1837    48.5754 </r>
       <r>   -16.3430     6.9419    49.4379 </r>
       <r>   -16.2187     0.5306    49.5039 </r>
       <r>   -16.0945     2.7641    49.8473 </r>
       <r>   -15.9702     1.5852    50.0443 </r>
       <r>   -15.8460     2.7338    50.3840 </r>
       <r>   -15.7217     6.1471    51.1479 </r>
       <r>   -15.5974     5.3009    51.8065 </r>
       <r>   -15.4732     7.6220    52.7536 </r>
       <r>   -15.3489     6.8939    53.6103 </r>
       <r>   -15.2247    11.3393    55.0193 </r>
       <r>   -15.1004     8.7302    56.1041 </r>
       <r>   -14.9761     8.2716    57.1319 </r>
       <r>   -14.8519     6.1420    57.8951 </r>
       <r>   -14.7276     9.5497    59.0817 </r>
       <r>   -14.6034     9.5225    60.2650 </r>
       <r>   -14.4791    14.1681    62.0255 </r>
       <r>   -14.3548    10.5220    63.3329 </r>
       <r>   -14.2306     4.7290    63.9206 </r>
       <r>   -14.1063     5.4048    64.5922 </r>
       <r>   -13.9821     4.3732    65.1356 </r>
       <r>   -13.8578     5.0391    65.7617 </r>
       <r>   -13.7336    12.6201    67.3299 </r>
       <r>   -13.6093     9.8787    68.5574 </r>
       <r>   -13.4850     7.9911    69.5504 </r>
       <r>   -13.3608     5.5359    70.2382 </r>
       <r>   -13.2365     3.0324    70.6150 </r>
       <r>   -13.1123     5.6141    71.3126 </r>
       <r>   -12.9880     6.9844    72.1805 </r>
       <r>   -12.8637     7.4189    73.1024 </r>
       <r>   -12.7395    21.1343    75.7285 </r>
       <r>   -12.6152     7.1524    76.6173 </r>
       <r>   -12.4910     7.6774    77.5712 </r>
       <r>   -12.3667    12.0965    79.0743 </r>
       <r>   -12.2424     7.3830    79.9917 </r>
       <r>   -12.1182     6.2234    80.7651 </r>
       <r>   -11.9939     8.0258    81.7623 </r>
       <r>   -11.8697    12.8849    83.3634 </r>
       <r>   -11.7454    10.1347    84.6227 </r>
       <r>   -11.6212    14.1145    86.3766 </r>
       <r>   -11.4969    11.8636    87.8507 </r>
       <r>   -11.3726    10.8164    89.1948 </r>
       <r>   -11.2484    14.0054    90.9351 </r>
       <r>   -11.1241    10.3696    92.2236 </r>
       <r>   -10.9999     8.6855    93.3028 </r>
       <r>   -10.8756     8.9652    94.4168 </r>
       <r>   -10.7513     9.9229    95.6498 </r>
       <r>   -10.6271     8.7260    96.7341 </r>
       <r>   -10.5028    11.6867    98.1863 </r>
       <r>   -10.3786    15.9968   100.1740 </r>
       <r>   -10.2543    17.3267   102.3270 </r>
       <r>   -10.1300    18.7863   104.6614 </r>
       <r>   -10.0058    19.4628   107.0798 </r>
       <r>    -9.8815    20.9664   109.6851 </r>
       <r>    -9.7573    16.0281   111.6767 </r>
       <r>    -9.6330    24.6036   114.7339 </r>
       <r>    -9.5088    20.4645   117.2768 </r>
       <r>    -9.3845    27.1534   120.6508 </r>
       <r>    -9.2602    22.4730   123.4433 </r>
       <r>    -9.1360    16.8321   125.5349 </r>
       <r>    -9.0117    22.6041   128.3436 </r>
       <r>    -8.8875    26.6430   131.6542 </r>
       <r>    -8.7632    23.6036   134.5872 </r>
       <r>    -8.6389    17.3436   136.7423 </r>
       <r>    -8.5147    10.9356   138.1011 </r>
       <r>    -8.3904    18.4510   140.3938 </r>
       <r>    -8.2662    20.0272   142.8824 </r>
       <r>    -8.1419    18.9008   145.2310 </r>
       <r>    -8.0176    21.5552   147.9094 </r>
       <r>    -7.8934    16.5493   149.9658 </r>
       <r>    -7.7691    12.0549   151.4637 </r>
       <r>    -7.6449    13.1509   153.0979 </r>
       <r>    -7.5206    12.6458   154.6692 </r>
       <r>    -7.3963    20.3567   157.1987 </r>
       <r>    -7.2721    18.7714   159.5312 </r>
       <r>    -7.1478    20.6684   162.0995 </r>
       <r>    -7.0236    19.7619   164.5551 </r>
       <r>    -6.8993    12.9874   166.1689 </r>
       <r>    -6.7751    13.2122   167.8106 </r>
       <r>    -6.6508    10.4961   169.1148 </r>
       <r>    -6.5265     8.8398   170.2132 </r>
       <r>    -6.4023     9.0750   171.3409 </r>
       <r>    -6.2780    22.2439   174.1049 </r>
       <r>    -6.1538    20.5957   176.6641 </r>
       <r>    -6.0295     5.8177   177.3870 </r>
       <r>    -5.9052    16.5444   179.4428 </r>
       <r>    -5.7810    13.6480   181.1387 </r>
       <r>    -5.6567     8.1510   182.1515 </r>
       <r>    -5.5325     4.9606   182.7679 </r>
       <r>    -5.4082     6.5646   183.5836 </r>
       <r>    -5.2839     3.3509   184.0000 </r>
       <r>    -5.1597    15.5265   185.9293 </r>
       <r>    -5.0354    16.7842   188.0149 </r>
       <r>    -4.9112    16.0718   190.0119 </r>
       <r>    -4.7869     6.2768   190.7919 </r>
       <r>    -4.6627     4.9882   191.4117 </r>
       <r>    -4.5384     3.6400   191.8640 </r>
       <r>    -4.4141    13.6331   193.5581 </r>
       <r>    -4.2899     8.9693   194.6726 </r>
       <r>    -4.1656     6.6449   195.4983 </r>
       <r>    -4.0414    10.9835   196.8631 </r>
       <r>    -3.9171    10.9041   198.2180 </r>
       <r>    -3.7928     8.3725   199.2583 </r>
       <r>    -3.6686     5.9258   199.9947 </r>
       <r>    -3.5443     0.4407   200.0494 </r>
       <r>    -3.4201     2.3218   200.3379 </r>
       <r>    -3.2958     5.9712   201.0799 </r>
       <r>    -3.1715     1.6158   201.2807 </r>
       <r>    -3.0473     1.7461   201.4977 </r>
       <r>    -2.9230     0.0267   201.5010 </r>
       <r>    -2.7988     1.8742   201.7339 </r>
       <r>    -2.6745     2.1247   201.9979 </r>
       <r>    -2.5503     0.0169   202.0000 </r>
       <r>    -2.4260     0.0411   202.0051 </r>
       <r>    -2.3017     3.4230   202.4305 </r>
       <r>    -2.1775     0.5597   202.5000 </r>
       <r>    -2.0532     0.1172   202.5146 </r>
       <r>    -1.9290     2.0057   202.7638 </r>
       <r>    -1.8047     3.5986   203.2109 </r>
       <r>    -1.6804     4.8839   203.8178 </r>
       <r>    -1.5562     1.4646   203.9998 </r>
       <r>    -1.4319     0.1833   204.0226 </r>
       <r>    -1.3077     5.2060   204.6695 </r>
       <r>    -1.1834     4.0305   205.1703 </r>
       <r>    -1.0591     9.6040   206.3637 </r>
       <r>    -0.9349    17.1024   208.4888 </r>
       <r>    -0.8106     3.3979   208.9110 </r>
       <r>    -0.6864     9.5919   210.1029 </r>
       <r>    -0.5621    11.9853   211.5922 </r>
       <r>    -0.4379     5.3758   212.2602 </r>
       <r>    -0.3136     5.7311   212.9723 </r>
       <r>    -0.1893     5.9694   213.7140 </r>
       <r>    -0.0651     9.3389   214.8745 </r>
       <r>     0.0592    13.8327   216.5933 </r>
       <r>     0.1834    10.7726   217.9319 </r>
       <r>     0.3077     1.0641   218.0641 </r>
       <r>     0.4320     5.2442   218.7158 </r>
       <r>     0.5562     5.3996   219.3867 </r>
       <r>     0.6805     6.2680   220.1656 </r>
       <r>     0.8047     6.5137   220.9750 </r>
       <r>     0.9290     5.7125   221.6848 </r>
       <r>     1.0533    11.2649   223.0846 </r>
       <r>     1.1775     6.0162   223.8321 </r>
       <r>     1.3018     9.0469   224.9563 </r>
       <r>     1.4260    21.3101   227.6043 </r>
       <r>     1.5503    15.9042   229.5805 </r>
       <r>     1.6745     6.7913   230.4244 </r>
       <r>     1.7988     6.5469   231.2379 </r>
       <r>     1.9231    12.1557   232.7484 </r>
       <r>     2.0473    26.4591   236.0361 </r>
       <r>     2.1716    13.6229   237.7289 </r>
       <r>     2.2958     9.4979   238.9091 </r>
       <r>     2.4201    20.9628   241.5139 </r>
       <r>     2.5444    21.9691   244.2438 </r>
       <r>     2.6686    10.8686   245.5943 </r>
       <r>     2.7929    16.4140   247.6339 </r>
       <r>     2.9171    34.7047   251.9463 </r>
       <r>     3.0414    45.2030   257.5631 </r>
       <r>     3.1657    12.3051   259.0921 </r>
       <r>     3.2899    14.0062   260.8325 </r>
       <r>     3.4142    18.2950   263.1058 </r>
       <r>     3.5384    25.0414   266.2175 </r>
       <r>     3.6627    14.0960   267.9690 </r>
       <r>     3.7869    21.8908   270.6891 </r>
       <r>     3.9112    28.7249   274.2585 </r>
       <r>     4.0355    28.1140   277.7519 </r>
       <r>     4.1597    15.6670   279.6986 </r>
       <r>     4.2840     2.3998   279.9968 </r>
       <r>     4.4082     0.0255   280.0000 </r>
       <r>     4.5325     0.0000   280.0000 </r>
       <r>     4.6568     0.0000   280.0000 </r>
       <r>     4.7810     0.0000   280.0000 </r>
       <r>     4.9053     0.0000   280.0000 </r>
       <r>     5.0295     0.0000   280.0000 </r>
       <r>     5.1538     0.0000   280.0000 </r>
       <r>     5.2781     0.0000   280.0000 </r>
       <r>     5.4023     0.0000   280.0000 </r>
       <r>     5.5266     0.0000   280.0000 </r>
       <r>     5.6508     0.0000   280.0000 </r>
       <r>     5.7751     0.0000   280.0000 </r>
       <r>     5.8993     0.0000   280.0000 </r>
      </set>
     </set>
    </array>
   </total>
  </dos>
 </calculation>
 <structure name="finalpos" >
  <crystal>
   <varray name="basis" >
    <v>      17.27103806       0.00000000       0.00000000 </v>
    <v>      -8.63551903      14.95715771       0.00000000 </v>
    <v>       0.00000000       0.00000000      15.00000000 </v>
   </varray>
   <i name="volume">   3874.88459904 </i>
   <varray name="rec_basis" >
    <v>       0.05790040       0.03342881      -0.00000000 </v>
    <v>       0.00000000       0.06685762       0.00000000 </v>
    <v>       0.00000000      -0.00000000       0.06666667 </v>
   </varray>
  </crystal>
  <varray name="positions" >
   <v>       0.99814039       0.99885312       0.50370905 </v>
   <v>       0.99740133       0.14124318       0.50542873 </v>
   <v>       0.99753802       0.28438294       0.50489917 </v>
   <v>       0.99803111       0.42752067       0.50449240 </v>
   <v>       0.99833337       0.57058619       0.50089349 </v>
   <v>       0.99940712       0.71388028       0.49921204 </v>
   <v>       0.99973611       0.85709086       0.50057315 </v>
   <v>       0.14148114       0.99955238       0.49296038 </v>
   <v>       0.14061010       0.14184858       0.49831712 </v>
   <v>       0.13989976       0.28435344       0.49737311 </v>
   <v>       0.14078888       0.42795450       0.49646480 </v>
   <v>       0.14120575       0.57054219       0.49650945 </v>
   <v>       0.14137468       0.71346104       0.49319245 </v>
   <v>       0.14164355       0.85657853       0.49179799 </v>
   <v>       0.28414361       0.99910734       0.49090627 </v>
   <v>       0.28387848       0.14155055       0.49190208 </v>
   <v>       0.28311008       0.28489902       0.49192067 </v>
   <v>       0.28156458       0.42671499       0.47788072 </v>
   <v>       0.28530158       0.57189186       0.48690372 </v>
   <v>       0.28386223       0.71422032       0.49302118 </v>
   <v>       0.28389698       0.85674562       0.49142356 </v>
   <v>       0.42712203       0.99904289       0.49496641 </v>
   <v>       0.42680327       0.14163988       0.49616680 </v>
   <v>       0.42194640       0.27711490       0.52037519 </v>
   <v>       0.42601069       0.85584766       0.49890445 </v>
   <v>       0.56925221       0.99778853       0.50473730 </v>
   <v>       0.56964070       0.14116732       0.50554547 </v>
   <v>       0.57022835       0.28459168       0.50617602 </v>
   <v>       0.56730601       0.85304903       0.51518442 </v>
   <v>       0.71135096       0.99648937       0.51320866 </v>
   <v>       0.71226205       0.14079472       0.50976288 </v>
   <v>       0.71265328       0.28450676       0.51197494 </v>
   <v>       0.71316883       0.42839603       0.51351360 </v>
   <v>       0.72159259       0.57658837       0.54385311 </v>
   <v>       0.71170087       0.85303640       0.52690015 </v>
   <v>       0.85462846       0.99774747       0.51301089 </v>
   <v>       0.85447380       0.14076284       0.50992934 </v>
   <v>       0.85502316       0.28422290       0.51015006 </v>
   <v>       0.85564435       0.42771169       0.51187046 </v>
   <v>       0.85639977       0.57172455       0.50966896 </v>
   <v>       0.85887553       0.71527723       0.51556405 </v>
   <v>       0.85681444       0.85604916       0.51692886 </v>
   <v>       0.04550571       0.09410514       0.50254142 </v>
   <v>       0.04467370       0.23643933       0.50279365 </v>
   <v>       0.04534694       0.37985953       0.50246051 </v>
   <v>       0.04595658       0.52283356       0.50079056 </v>
   <v>       0.04627851       0.66587219       0.49682999 </v>
   <v>       0.04670675       0.80901028       0.49630499 </v>
   <v>       0.04637741       0.95190969       0.49853750 </v>
   <v>       0.18857051       0.09437577       0.49275094 </v>
   <v>       0.18752847       0.23694608       0.49720380 </v>
   <v>       0.18702242       0.37941320       0.49220839 </v>
   <v>       0.18918790       0.52342163       0.49385886 </v>
   <v>       0.18867404       0.66591402       0.49345593 </v>
   <v>       0.18896994       0.80885765       0.49121207 </v>
   <v>       0.18909018       0.95173456       0.49090165 </v>
   <v>       0.33169259       0.09423716       0.49267555 </v>
   <v>       0.33109647       0.23643769       0.49943863 </v>
   <v>       0.32470490       0.37571228       0.47184308 </v>
   <v>       0.32690053       0.52133776       0.47386155 </v>
   <v>       0.33472924       0.66983439       0.49294185 </v>
   <v>       0.33127791       0.80903965       0.49383105 </v>
   <v>       0.33175533       0.95166004       0.49165527 </v>
   <v>       0.47478162       0.09412959       0.49754720 </v>
   <v>       0.47397517       0.23643835       0.50594374 </v>
   <v>       0.46995805       0.80460353       0.50546832 </v>
   <v>       0.47435398       0.95111288       0.49938982 </v>
   <v>       0.61696580       0.09314528       0.50682270 </v>
   <v>       0.61754039       0.23666558       0.50998131 </v>
   <v>       0.62147950       0.37809091       0.49612345 </v>
   <v>       0.61768100       0.81021362       0.53003918 </v>
   <v>       0.61590321       0.94883265       0.51044742 </v>
   <v>       0.75925376       0.09250675       0.51086311 </v>
   <v>       0.75992999       0.23630765       0.51074498 </v>
   <v>       0.76037011       0.37996878       0.51508791 </v>
   <v>       0.76111844       0.52543525       0.52082595 </v>
   <v>       0.76585208       0.67147389       0.53471854 </v>
   <v>       0.76167357       0.80469742       0.53013967 </v>
   <v>       0.75911636       0.94875104       0.51725649 </v>
   <v>       0.90197564       0.09295351       0.50938525 </v>
   <v>       0.90222840       0.23631157       0.50852315 </v>
   <v>       0.90275563       0.37983361       0.50928247 </v>
   <v>       0.90314084       0.52319422       0.50642854 </v>
   <v>       0.90469324       0.66659897       0.50742212 </v>
   <v>       0.90521695       0.80974379       0.51051283 </v>
   <v>       0.90308224       0.95088489       0.51109512 </v>
   <v>       0.45953699       0.35662792       0.56333207 </v>
   <v>       0.41010817       0.41659055       0.44237378 </v>
   <v>       0.41512389       0.56374450       0.45821762 </v>
   <v>       0.63922921       0.53579003       0.58033357 </v>
   <v>       0.58164445       0.42082920       0.46038090 </v>
   <v>       0.57225257       0.72274239       0.54932984 </v>
   <v>       0.42409027       0.71462338       0.50047303 </v>
   <v>       0.71982506       0.71592351       0.54258374 </v>
   <v>       0.61208581       0.63500873       0.48018884 </v>
   <v>       0.53208929       0.54384970       0.45290741 </v>
   <v>       0.58756223       0.59292609       0.43022414 </v>
  </varray>
  <varray name="selective"  type="logical" >
   <v type="logical" >  T  T  T </v>
   <v type="logical" >  T  T  T </v>
   <v type="logical" >  T  T  T </v>
   <v type="logical" >  T  T  T </v>
   <v type="logical" >  T  T  T </v>
   <v type="logical" >  T  T  T </v>
   <v type="logical" >  T  T  T </v>
   <v type="logical" >  T  T  T </v>
   <v type="logical" >  T  T  T </v>
   <v type="logical" >  T  T  T </v>
   <v type="logical" >  T  T  T </v>
   <v type="logical" >  T  T  T </v>
   <v type="logical" >  T  T  T </v>
   <v type="logical" >  T  T  T </v>
   <v type="logical" >  T  T  T </v>
   <v type="logical" >  T  T  T </v>
   <v type="logical" >  T  T  T </v>
   <v type="logical" >  T  T  T </v>
   <v type="logical" >  T  T  T </v>
   <v type="logical" >  T  T  T </v>
   <v type="logical" >  T  T  T </v>
   <v type="logical" >  T  T  T </v>
   <v type="logical" >  T  T  T </v>
   <v type="logical" >  T  T  T </v>
   <v type="logical" >  T  T  T </v>
   <v type="logical" >  T  T  T </v>
   <v type="logical" >  T  T  T </v>
   <v type="logical" >  T  T  T </v>
   <v type="logical" >  T  T  T </v>
   <v type="logical" >  T  T  T </v>
   <v type="logical" >  T  T  T </v>
   <v type="logical" >  T  T  T </v>
   <v type="logical" >  T  T  T </v>
   <v type="logical" >  T  T  T </v>
   <v type="logical" >  T  T  T </v>
   <v type="logical" >  T  T  T </v>
   <v type="logical" >  T  T  T </v>
   <v type="logical" >  T  T  T </v>
   <v type="logical" >  T  T  T </v>
   <v type="logical" >  T  T  T </v>
   <v type="logical" >  T  T  T </v>
   <v type="logical" >  T  T  T </v>
   <v type="logical" >  T  T  T </v>
   <v type="logical" >  T  T  T </v>
   <v type="logical" >  T  T  T </v>
   <v type="logical" >  T  T  T </v>
   <v type="logical" >  T  T  T </v>
   <v type="logical" >  T  T  T </v>
   <v type="logical" >  T  T  T </v>
   <v type="logical" >  T  T  T </v>
   <v type="logical" >  T  T  T </v>
   <v type="logical" >  T  T  T </v>
   <v type="logical" >  T  T  T </v>
   <v type="logical" >  T  T  T </v>
   <v type="logical" >  T  T  T </v>
   <v type="logical" >  T  T  T </v>
   <v type="logical" >  T  T  T </v>
   <v type="logical" >  T  T  T </v>
   <v type="logical" >  T  T  T </v>
   <v type="logical" >  T  T  T </v>
   <v type="logical" >  T  T  T </v>
   <v type="logical" >  T  T  T </v>
   <v type="logical" >  T  T  T </v>
   <v type="logical" >  T  T  T </v>
   <v type="logical" >  T  T  T </v>
   <v type="logical" >  T  T  T </v>
   <v type="logical" >  T  T  T </v>
   <v type="logical" >  T  T  T </v>
   <v type="logical" >  T  T  T </v>
   <v type="logical" >  T  T  T </v>
   <v type="logical" >  T  T  T </v>
   <v type="logical" >  T  T  T </v>
   <v type="logical" >  T  T  T </v>
   <v type="logical" >  T  T  T </v>
   <v type="logical" >  T  T  T </v>
   <v type="logical" >  T  T  T </v>
   <v type="logical" >  T  T  T </v>
   <v type="logical" >  T  T  T </v>
   <v type="logical" >  T  T  T </v>
   <v type="logical" >  T  T  T </v>
   <v type="logical" >  T  T  T </v>
   <v type="logical" >  T  T  T </v>
   <v type="logical" >  T  T  T </v>
   <v type="logical" >  T  T  T </v>
   <v type="logical" >  T  T  T </v>
   <v type="logical" >  T  T  T </v>
   <v type="logical" >  T  T  T </v>
   <v type="logical" >  T  T  T </v>
   <v type="logical" >  T  T  T </v>
   <v type="logical" >  T  T  T </v>
   <v type="logical" >  T  T  T </v>
   <v type="logical" >  T  T  T </v>
   <v type="logical" >  T  T  T </v>
   <v type="logical" >  T  T  T </v>
   <v type="logical" >  T  T  T </v>
   <v type="logical" >  T  T  T </v>
   <v type="logical" >  T  T  F </v>
  </varray>
  <nose>
   <v>      -3.00000000       0.00000000       0.00010000       0.00010000 </v>
  </nose>
 </structure>
</modeling>
