unknown system                          
            1
    17.271038    0.000000    0.000000
    -8.635519   14.957158    0.000000
     0.000000    0.000000   15.000000
   C    F    N    H    O 
    86     6     2     2     1
Direct configuration=     1
   0.99817044  0.99887119  0.50332474
   0.99744211  0.14126561  0.50543980
   0.99759049  0.28441072  0.50507041
   0.99807682  0.42755332  0.50445781
   0.99838146  0.57061527  0.50060977
   0.99945767  0.71390070  0.49879651
   0.99976472  0.85710111  0.50008073
   0.14151842  0.99958539  0.49295526
   0.14065367  0.14188349  0.49855885
   0.13995771  0.28438829  0.49784182
   0.14082602  0.42798904  0.49670812
   0.14125117  0.57058270  0.49653382
   0.14142577  0.71350935  0.49319686
   0.14168365  0.85661438  0.49178951
   0.28416421  0.99914774  0.49102723
   0.28390286  0.14156856  0.49212223
   0.28315926  0.28492630  0.49232443
   0.28157505  0.42672274  0.47822787
   0.28532947  0.57192204  0.48697083
   0.28388083  0.71426667  0.49297884
   0.28391258  0.85679384  0.49147552
   0.42713190  0.99908721  0.49485411
   0.42682313  0.14166794  0.49609469
   0.42206460  0.27719021  0.52030765
   0.42600937  0.85590212  0.49858258
   0.56926167  0.99783224  0.50425919
   0.56967054  0.14119991  0.50523545
   0.57027699  0.28460512  0.50567688
   0.56733415  0.85309509  0.51428877
   0.71138194  0.99653421  0.51245907
   0.71229089  0.14082581  0.50933872
   0.71270252  0.28453168  0.51153806
   0.71320189  0.42840055  0.51275160
   0.72156676  0.57653933  0.54281690
   0.71171609  0.85303084  0.52575923
   0.85464748  0.99776212  0.51230487
   0.85451207  0.14078935  0.50966619
   0.85506816  0.28424788  0.50991941
   0.85567843  0.42773331  0.51139229
   0.85644854  0.57173831  0.50890597
   0.85887605  0.71527038  0.51461172
   0.85681913  0.85604893  0.51597492
   0.04554578  0.09413303  0.50250535
   0.04473263  0.23646986  0.50308587
   0.04539034  0.37988417  0.50262371
   0.04599963  0.52285694  0.50072464
   0.04632977  0.66589908  0.49662268
   0.04674091  0.80904080  0.49600586
   0.04640333  0.95193455  0.49824507
   0.18859897  0.09441597  0.49291446
   0.18758608  0.23698689  0.49765829
   0.18706567  0.37943687  0.49259465
   0.18922671  0.52344848  0.49395709
   0.18870746  0.66594175  0.49348381
   0.18899966  0.80890181  0.49127985
   0.18911506  0.95177397  0.49096738
   0.33171312  0.09428105  0.49279765
   0.33114100  0.23646827  0.49964966
   0.32471871  0.37572661  0.47217855
   0.32691037  0.52131701  0.47413788
   0.33474730  0.66987758  0.49276925
   0.33127925  0.80908311  0.49375705
   0.33177177  0.95171318  0.49170520
   0.47480336  0.09417314  0.49738373
   0.47403186  0.23648836  0.50569211
   0.46998765  0.80468475  0.50486883
   0.47436234  0.95116338  0.49908191
   0.61699395  0.09319072  0.50642436
   0.61758851  0.23669139  0.50956545
   0.62149646  0.37807351  0.49542411
   0.61769699  0.81019766  0.52881238
   0.61593154  0.94888447  0.50970445
   0.75929081  0.09254944  0.51038987
   0.75997424  0.23633458  0.51037036
   0.76041027  0.37999640  0.51456791
   0.76115968  0.52542908  0.51991517
   0.76578864  0.67142164  0.53357547
   0.76166573  0.80467934  0.52900479
   0.75913301  0.94876830  0.51636009
   0.90201191  0.09297834  0.50908204
   0.90227713  0.23634068  0.50846584
   0.90279217  0.37985345  0.50905366
   0.90318131  0.52320800  0.50588022
   0.90472563  0.66660614  0.50671270
   0.90521548  0.80974107  0.50963359
   0.90309467  0.95089573  0.51036303
   0.45976008  0.35676006  0.56317731
   0.41002585  0.41654571  0.44241648
   0.41513338  0.56365952  0.45858576
   0.63928203  0.53561773  0.57943150
   0.58161524  0.42070018  0.45955561
   0.57227588  0.72268209  0.54782800
   0.42412148  0.71469998  0.49994516
   0.71976746  0.71588100  0.54131406
   0.61145650  0.63449069  0.47980776
   0.53092708  0.54341453  0.45318555
   0.58657801  0.59198524  0.43022414
Direct configuration=     2
   0.99817011  0.99887591  0.50332735
   0.99744388  0.14126635  0.50543971
   0.99759101  0.28441079  0.50506806
   0.99807580  0.42755132  0.50445771
   0.99837899  0.57061039  0.50061168
   0.99945309  0.71389972  0.49879964
   0.99976445  0.85710985  0.50008613
   0.14151057  0.99959550  0.49295623
   0.14065380  0.14188659  0.49855723
   0.13995776  0.28438658  0.49783721
   0.14082498  0.42798499  0.49670569
   0.14124914  0.57057757  0.49653417
   0.14142406  0.71350007  0.49319652
   0.14167762  0.85661452  0.49179000
   0.28416423  0.99915423  0.49102616
   0.28389844  0.14158438  0.49211998
   0.28315669  0.28492397  0.49232020
   0.28157718  0.42672116  0.47822273
   0.28532954  0.57191984  0.48696912
   0.28388109  0.71426232  0.49297915
   0.28391478  0.85679207  0.49147458
   0.42713552  0.99908901  0.49485489
   0.42682183  0.14167289  0.49609592
   0.42205732  0.27719001  0.52030930
   0.42601189  0.85590072  0.49858551
   0.56926605  0.99783368  0.50426230
   0.56967324  0.14120232  0.50523779
   0.57027625  0.28460579  0.50568159
   0.56733523  0.85309467  0.51429744
   0.71138234  0.99653422  0.51246494
   0.71229288  0.14082728  0.50934203
   0.71270486  0.28453350  0.51154152
   0.71320192  0.42840066  0.51275709
   0.72157030  0.57654209  0.54282587
   0.71171595  0.85303086  0.52576961
   0.85464839  0.99776321  0.51230982
   0.85451256  0.14079052  0.50966797
   0.85506904  0.28424904  0.50992084
   0.85567971  0.42773267  0.51139520
   0.85644562  0.57173612  0.50891242
   0.85887441  0.71527162  0.51462188
   0.85681856  0.85605074  0.51597861
   0.04554364  0.09413056  0.50250604
   0.04473090  0.23646959  0.50308300
   0.04539084  0.37988537  0.50262150
   0.04600041  0.52286008  0.50072508
   0.04633306  0.66590350  0.49662346
   0.04674682  0.80903626  0.49600740
   0.04640760  0.95192725  0.49824834
   0.18859961  0.09440642  0.49291311
   0.18758516  0.23698672  0.49765418
   0.18706505  0.37943943  0.49259004
   0.18922725  0.52345129  0.49395631
   0.18870816  0.66595036  0.49348396
   0.18900156  0.80890454  0.49127850
   0.18911974  0.95176750  0.49096676
   0.33171554  0.09426801  0.49279652
   0.33114288  0.23646245  0.49964770
   0.32471950  0.37572920  0.47217426
   0.32690951  0.52131887  0.47413310
   0.33474636  0.66987889  0.49277084
   0.33127677  0.80908613  0.49375828
   0.33176963  0.95171048  0.49170446
   0.47480081  0.09416875  0.49738445
   0.47403361  0.23648463  0.50569460
   0.46998596  0.80468483  0.50487501
   0.47435956  0.95116332  0.49908418
   0.61699098  0.09318848  0.50642670
   0.61758586  0.23668908  0.50956809
   0.62149494  0.37807287  0.49542882
   0.61769650  0.81019805  0.52882408
   0.61592979  0.94888337  0.50971070
   0.75928965  0.09254767  0.51039321
   0.75997179  0.23633291  0.51037323
   0.76040739  0.37999255  0.51457186
   0.76115894  0.52542959  0.51992425
   0.76579056  0.67142142  0.53358682
   0.76166565  0.80467903  0.52901657
   0.75913274  0.94876638  0.51636734
   0.90201014  0.09297649  0.50908443
   0.90227586  0.23633779  0.50846535
   0.90279174  0.37985361  0.50905506
   0.90318273  0.52320982  0.50588394
   0.90472963  0.66660726  0.50671840
   0.90521614  0.80973772  0.50964255
   0.90309303  0.95089262  0.51036961
   0.45975655  0.35675820  0.56318167
   0.41002630  0.41654655  0.44241456
   0.41513332  0.56366247  0.45858156
   0.63928079  0.53562046  0.57944207
   0.58161363  0.42069900  0.45956193
   0.57227423  0.72268301  0.54784581
   0.42412192  0.71469883  0.49995011
   0.71976805  0.71588156  0.54132657
   0.61146259  0.63449550  0.47981156
   0.53093822  0.54341813  0.45318565
   0.58658593  0.59199364  0.43022414
Direct configuration=     3
   0.99816919  0.99887479  0.50333249
   0.99744290  0.14126609  0.50543975
   0.99759028  0.28441069  0.50506374
   0.99807559  0.42755137  0.50445746
   0.99837861  0.57061091  0.50061490
   0.99945388  0.71389951  0.49880297
   0.99976702  0.85711012  0.50009583
   0.14151288  0.99959008  0.49295728
   0.14065315  0.14188563  0.49855402
   0.13995667  0.28438682  0.49782859
   0.14082498  0.42798646  0.49670179
   0.14124899  0.57057828  0.49653460
   0.14142372  0.71350212  0.49319524
   0.14167871  0.85661448  0.49178871
   0.28416359  0.99915192  0.49102393
   0.28390083  0.14158582  0.49211567
   0.28315592  0.28492355  0.49231190
   0.28157876  0.42672238  0.47821345
   0.28532904  0.57191972  0.48696643
   0.28388134  0.71426295  0.49297996
   0.28391432  0.85679201  0.49147282
   0.42713463  0.99908794  0.49485603
   0.42682042  0.14167156  0.49609781
   0.42205564  0.27718817  0.52031255
   0.42601149  0.85590027  0.49859077
   0.56926675  0.99783336  0.50426794
   0.56967012  0.14119972  0.50524000
   0.57027526  0.28460496  0.50569022
   0.56733471  0.85309379  0.51431347
   0.71138174  0.99653254  0.51247599
   0.71229236  0.14082670  0.50934810
   0.71270357  0.28453252  0.51154783
   0.71320016  0.42839953  0.51276742
   0.72157253  0.57654482  0.54284456
   0.71171511  0.85302984  0.52578937
   0.85464781  0.99776249  0.51231945
   0.85451146  0.14078946  0.50967133
   0.85506839  0.28424844  0.50992352
   0.85567969  0.42773228  0.51140081
   0.85644428  0.57173592  0.50892434
   0.85887530  0.71527057  0.51463842
   0.85681753  0.85604585  0.51598621
   0.04554365  0.09413105  0.50250714
   0.04473029  0.23646939  0.50307755
   0.04539051  0.37988515  0.50261752
   0.04599976  0.52285911  0.50072618
   0.04633167  0.66590206  0.49662540
   0.04674509  0.80903404  0.49601136
   0.04640488  0.95192875  0.49825390
   0.18859814  0.09440757  0.49291096
   0.18758432  0.23698606  0.49764652
   0.18706519  0.37943913  0.49258135
   0.18922657  0.52345071  0.49395482
   0.18870875  0.66595088  0.49348439
   0.18900091  0.80890324  0.49127622
   0.18911774  0.95176844  0.49096594
   0.33171388  0.09427093  0.49279445
   0.33114060  0.23646241  0.49964365
   0.32471705  0.37572288  0.47216920
   0.32690926  0.52131937  0.47412387
   0.33474675  0.66987818  0.49277367
   0.33127800  0.80908441  0.49375885
   0.33176984  0.95171013  0.49170320
   0.47480103  0.09416914  0.49738627
   0.47403145  0.23648524  0.50570085
   0.46998535  0.80468308  0.50488684
   0.47436126  0.95116337  0.49908878
   0.61699137  0.09318827  0.50643146
   0.61758537  0.23668941  0.50957338
   0.62149388  0.37807298  0.49543835
   0.61769582  0.81019795  0.52884658
   0.61592989  0.94888227  0.50972249
   0.75928928  0.09254663  0.51039958
   0.75997162  0.23633272  0.51037865
   0.76040630  0.37999040  0.51457929
   0.76115764  0.52542955  0.51994087
   0.76579261  0.67142300  0.53360837
   0.76166573  0.80467896  0.52903799
   0.75913301  0.94876518  0.51638081
   0.90201004  0.09297603  0.50908881
   0.90227556  0.23633834  0.50846621
   0.90279175  0.37985327  0.50905765
   0.90318175  0.52320896  0.50589117
   0.90472827  0.66660633  0.50673019
   0.90521598  0.80973882  0.50965716
   0.90309339  0.95089266  0.51038088
   0.45974828  0.35675424  0.56318933
   0.41002799  0.41654490  0.44241328
   0.41513335  0.56366831  0.45857349
   0.63928070  0.53562670  0.57946090
   0.58161024  0.42069746  0.45957377
   0.57227100  0.72268432  0.54787944
   0.42412126  0.71469818  0.49995922
   0.71976986  0.71588222  0.54134961
   0.61147370  0.63450429  0.47981836
   0.53095902  0.54342504  0.45318564
   0.58660066  0.59200976  0.43022414
Direct configuration=     4
   0.99816791  0.99887624  0.50334118
   0.99744270  0.14126587  0.50543961
   0.99758953  0.28441062  0.50505725
   0.99807485  0.42755060  0.50445711
   0.99837686  0.57060910  0.50062014
   0.99945099  0.71389680  0.49880931
   0.99976655  0.85711040  0.50010815
   0.14150667  0.99959572  0.49295731
   0.14065173  0.14188535  0.49854905
   0.13995588  0.28438597  0.49781530
   0.14082360  0.42798231  0.49669398
   0.14124845  0.57057863  0.49653525
   0.14142277  0.71349586  0.49319419
   0.14167644  0.85661292  0.49178717
   0.28416310  0.99915416  0.49102056
   0.28389770  0.14158803  0.49210914
   0.28315184  0.28491811  0.49230066
   0.28157893  0.42672016  0.47819958
   0.28532787  0.57191900  0.48696235
   0.28388177  0.71426156  0.49298134
   0.28391504  0.85678993  0.49147011
   0.42713594  0.99908779  0.49485792
   0.42682181  0.14167319  0.49609854
   0.42204973  0.27718677  0.52031769
   0.42601297  0.85589928  0.49859923
   0.56926819  0.99783294  0.50427735
   0.56967019  0.14119982  0.50524441
   0.57027349  0.28460491  0.50570327
   0.56733373  0.85309245  0.51433839
   0.71138169  0.99653080  0.51249305
   0.71229234  0.14082643  0.50935744
   0.71270231  0.28453114  0.51155748
   0.71319844  0.42839876  0.51278388
   0.72157304  0.57654682  0.54287394
   0.71171468  0.85302893  0.52582004
   0.85464811  0.99776138  0.51233461
   0.85451105  0.14078913  0.50967665
   0.85506776  0.28424841  0.50992781
   0.85567867  0.42773091  0.51140976
   0.85644217  0.57173464  0.50894309
   0.85887637  0.71527169  0.51466446
   0.85681581  0.85605039  0.51600268
   0.04554202  0.09413046  0.50250874
   0.04472862  0.23646936  0.50306922
   0.04539016  0.37988557  0.50261153
   0.04599931  0.52285990  0.50072779
   0.04633172  0.66590279  0.49662798
   0.04674744  0.80903411  0.49601736
   0.04641057  0.95192551  0.49826389
   0.18859855  0.09440392  0.49290713
   0.18758208  0.23698552  0.49763466
   0.18706588  0.37944129  0.49256788
   0.18922640  0.52345195  0.49395231
   0.18870643  0.66594783  0.49348251
   0.18900129  0.80890474  0.49127254
   0.18911918  0.95176448  0.49096446
   0.33171397  0.09426524  0.49279177
   0.33114114  0.23646276  0.49963790
   0.32472163  0.37573090  0.47215591
   0.32690961  0.52132095  0.47411107
   0.33474620  0.66987753  0.49277793
   0.33127771  0.80908534  0.49375994
   0.33176874  0.95170891  0.49170124
   0.47479781  0.09416683  0.49738888
   0.47402996  0.23648324  0.50570982
   0.46998430  0.80468206  0.50490457
   0.47436092  0.95116301  0.49909553
   0.61698999  0.09318725  0.50643871
   0.61758233  0.23668703  0.50958180
   0.62149346  0.37807399  0.49544776
   0.61769382  0.81019519  0.52887925
   0.61592936  0.94887878  0.50973810
   0.75928798  0.09254494  0.51040973
   0.75997040  0.23633162  0.51038693
   0.76040490  0.37998936  0.51459094
   0.76115591  0.52542422  0.51996442
   0.76579671  0.67142548  0.53364037
   0.76166608  0.80467787  0.52906875
   0.75913199  0.94876340  0.51640174
   0.90200863  0.09297519  0.50909565
   0.90227393  0.23633476  0.50846482
   0.90279134  0.37985302  0.50906156
   0.90318059  0.52320896  0.50590224
   0.90472938  0.66660902  0.50674573
   0.90521857  0.80973678  0.50967823
   0.90309159  0.95088931  0.51039691
   0.45973747  0.35674682  0.56319349
   0.41002941  0.41654718  0.44240824
   0.41513367  0.56367650  0.45856103
   0.63928099  0.53563595  0.57948887
   0.58160524  0.42069569  0.45959243
   0.57226651  0.72268385  0.54792448
   0.42412050  0.71469664  0.49997327
   0.71977198  0.71588354  0.54138486
   0.61148959  0.63451691  0.47982682
   0.53098839  0.54343494  0.45318378
   0.58662456  0.59203603  0.43022414
Direct configuration=     5
   0.99816954  0.99886962  0.50335161
   0.99743964  0.14126612  0.50543928
   0.99758706  0.28440958  0.50504955
   0.99807527  0.42755220  0.50445665
   0.99837611  0.57061052  0.50062597
   0.99945389  0.71389983  0.49881660
   0.99977037  0.85710544  0.50012239
   0.14151903  0.99958188  0.49295919
   0.14065054  0.14188264  0.49854308
   0.13995677  0.28439006  0.49780231
   0.14082573  0.42799108  0.49668583
   0.14124665  0.57057560  0.49653556
   0.14142274  0.71350607  0.49319164
   0.14167979  0.85661278  0.49178555
   0.28416157  0.99914623  0.49101655
   0.28390298  0.14156853  0.49210461
   0.28315516  0.28492808  0.49228784
   0.28158016  0.42672913  0.47818915
   0.28532721  0.57191822  0.48695746
   0.28388047  0.71426196  0.49298256
   0.28391325  0.85679189  0.49146668
   0.42713173  0.99908467  0.49485972
   0.42681888  0.14166858  0.49609984
   0.42204760  0.27718031  0.52032109
   0.42601152  0.85589936  0.49860880
   0.56926690  0.99783010  0.50428815
   0.56966569  0.14119613  0.50524984
   0.57027209  0.28460478  0.50571694
   0.56733827  0.85309466  0.51436335
   0.71138072  0.99652854  0.51251237
   0.71229042  0.14082400  0.50936794
   0.71269926  0.28452933  0.51156850
   0.71319612  0.42839610  0.51280212
   0.72157691  0.57654681  0.54290765
   0.71171177  0.85302552  0.52585552
   0.85463999  0.99775849  0.51235005
   0.85450826  0.14078559  0.50968260
   0.85506697  0.28424599  0.50993231
   0.85567691  0.42773065  0.51142044
   0.85644031  0.57173505  0.50896160
   0.85888176  0.71527268  0.51468738
   0.85681712  0.85603645  0.51602318
   0.04554176  0.09412997  0.50251028
   0.04472893  0.23646905  0.50305946
   0.04539116  0.37988735  0.50260751
   0.04599732  0.52285769  0.50072972
   0.04632876  0.66589743  0.49663112
   0.04674137  0.80903039  0.49602439
   0.04639842  0.95193702  0.49827020
   0.18859522  0.09441199  0.49290252
   0.18758131  0.23698608  0.49762340
   0.18706689  0.37943603  0.49255518
   0.18922364  0.52344784  0.49394894
   0.18871129  0.66595239  0.49348341
   0.18899940  0.80889664  0.49126847
   0.18911273  0.95177092  0.49096239
   0.33171208  0.09427816  0.49278777
   0.33113437  0.23646107  0.49963024
   0.32471170  0.37571028  0.47214840
   0.32690816  0.52132156  0.47409645
   0.33474677  0.66987674  0.49278297
   0.33127995  0.80908139  0.49376165
   0.33177056  0.95170890  0.49169898
   0.47480099  0.09416880  0.49739181
   0.47402642  0.23648492  0.50572032
   0.46998422  0.80467978  0.50492537
   0.47436417  0.95116236  0.49910341
   0.61699132  0.09318733  0.50644731
   0.61758194  0.23668734  0.50959192
   0.62149157  0.37807110  0.49546285
   0.61769300  0.81019461  0.52891608
   0.61592964  0.94887784  0.50975692
   0.75928728  0.09254365  0.51042178
   0.75997048  0.23633164  0.51039629
   0.76040367  0.37998716  0.51460453
   0.76115286  0.52542691  0.51999380
   0.76579411  0.67142760  0.53367636
   0.76166433  0.80468035  0.52910186
   0.75912924  0.94876053  0.51642351
   0.90200908  0.09297351  0.50910355
   0.90227396  0.23633957  0.50846655
   0.90279066  0.37985160  0.50906604
   0.90317831  0.52320717  0.50591507
   0.90472534  0.66660446  0.50676505
   0.90521641  0.80974316  0.50970226
   0.90309396  0.95089421  0.51041390
   0.45972581  0.35674293  0.56320151
   0.41003935  0.41655052  0.44241174
   0.41513419  0.56368548  0.45854421
   0.63928062  0.53564377  0.57951612
   0.58159931  0.42069590  0.45961544
   0.57226161  0.72268365  0.54798154
   0.42411969  0.71469538  0.49998889
   0.71977444  0.71588314  0.54142446
   0.61151009  0.63453469  0.47984019
   0.53102700  0.54345005  0.45318017
   0.58664655  0.59205706  0.43022414
Direct configuration=     6
   0.99816203  0.99887845  0.50335766
   0.99744221  0.14126469  0.50543885
   0.99758897  0.28441127  0.50504556
   0.99807334  0.42754981  0.50445684
   0.99837482  0.57060749  0.50062790
   0.99944801  0.71389265  0.49882180
   0.99976709  0.85711618  0.50012922
   0.14150110  0.99960199  0.49296071
   0.14064995  0.14188688  0.49853978
   0.13995595  0.28438510  0.49779510
   0.14082390  0.42798012  0.49668224
   0.14124663  0.57057943  0.49653411
   0.14142094  0.71349263  0.49319116
   0.14167306  0.85660895  0.49178655
   0.28416336  0.99915565  0.49101435
   0.28389068  0.14159171  0.49209971
   0.28314690  0.28491085  0.49228595
   0.28158026  0.42671928  0.47818232
   0.28532613  0.57191867  0.48695487
   0.28388282  0.71425991  0.49298186
   0.28391598  0.85678661  0.49146493
   0.42713778  0.99908685  0.49486110
   0.42682158  0.14167492  0.49610139
   0.42203729  0.27718070  0.52032411
   0.42601434  0.85589739  0.49861485
   0.56926999  0.99783344  0.50429321
   0.56966962  0.14119864  0.50525381
   0.57026826  0.28460311  0.50572334
   0.56733561  0.85309233  0.51437641
   0.71137897  0.99652787  0.51252186
   0.71229152  0.14082521  0.50937410
   0.71269931  0.28452687  0.51157312
   0.71319532  0.42839680  0.51281307
   0.72157543  0.57654994  0.54292851
   0.71171007  0.85302333  0.52587457
   0.85464641  0.99775847  0.51236022
   0.85451034  0.14078820  0.50968628
   0.85506630  0.28424808  0.50993518
   0.85567688  0.42772877  0.51142678
   0.85644012  0.57173434  0.50897235
   0.85887280  0.71527115  0.51470253
   0.85681428  0.85605173  0.51603738
   0.04553990  0.09412905  0.50251121
   0.04472691  0.23647018  0.50305409
   0.04539182  0.37988887  0.50260443
   0.04599811  0.52286009  0.50073065
   0.04633042  0.66590293  0.49663266
   0.04674971  0.80903317  0.49602788
   0.04641265  0.95192087  0.49827608
   0.18859839  0.09439667  0.49289965
   0.18758019  0.23698557  0.49761791
   0.18706830  0.37944619  0.49254760
   0.18922639  0.52345264  0.49394665
   0.18870481  0.66594831  0.49348212
   0.18900146  0.80890626  0.49126590
   0.18912084  0.95175952  0.49096113
   0.33171499  0.09425638  0.49278578
   0.33114344  0.23645751  0.49963042
   0.32472355  0.37573553  0.47213607
   0.32691113  0.52132563  0.47408892
   0.33474554  0.66987549  0.49278573
   0.33127780  0.80908581  0.49376256
   0.33176682  0.95170703  0.49169754
   0.47479497  0.09416369  0.49739307
   0.47402749  0.23647911  0.50572475
   0.46998495  0.80468085  0.50493683
   0.47436051  0.95116193  0.49910759
   0.61698845  0.09318481  0.50645232
   0.61757860  0.23668453  0.50959777
   0.62149081  0.37807245  0.49547168
   0.61769093  0.81019150  0.52893571
   0.61592996  0.94887778  0.50976777
   0.75928658  0.09254112  0.51042714
   0.75996834  0.23632952  0.51040159
   0.76040231  0.37998711  0.51461251
   0.76115493  0.52542578  0.52000786
   0.76580193  0.67142931  0.53369492
   0.76166296  0.80467510  0.52911989
   0.75912547  0.94875772  0.51643679
   0.90200488  0.09297278  0.50910799
   0.90227214  0.23633295  0.50846558
   0.90279008  0.37985223  0.50906863
   0.90317759  0.52320844  0.50592230
   0.90472985  0.66660809  0.50677523
   0.90522333  0.80973479  0.50971436
   0.90308785  0.95088441  0.51042418
   0.45972035  0.35673459  0.56320454
   0.41003578  0.41654549  0.44241203
   0.41513328  0.56368938  0.45853405
   0.63927998  0.53564720  0.57953254
   0.58159737  0.42069522  0.45963037
   0.57226564  0.72269028  0.54801397
   0.42411997  0.71469495  0.49999783
   0.71977333  0.71588564  0.54144641
   0.61151930  0.63454067  0.47984250
   0.53104110  0.54345226  0.45318003
   0.58666608  0.59207648  0.43022414
Direct configuration=     7
   0.99816459  0.99887348  0.50336047
   0.99744019  0.14126528  0.50543875
   0.99758800  0.28441131  0.50504356
   0.99807399  0.42755096  0.50445685
   0.99837481  0.57060876  0.50062898
   0.99944994  0.71389568  0.49882419
   0.99976961  0.85711078  0.50013246
   0.14150777  0.99959170  0.49296061
   0.14064965  0.14188390  0.49853804
   0.13995584  0.28438815  0.49779118
   0.14082490  0.42798455  0.49668053
   0.14124658  0.57057815  0.49653428
   0.14142147  0.71349776  0.49319046
   0.14167592  0.85661037  0.49178592
   0.28416215  0.99915016  0.49101305
   0.28389558  0.14157928  0.49209829
   0.28315091  0.28491804  0.49228219
   0.28158181  0.42672495  0.47817830
   0.28532632  0.57191811  0.48695430
   0.28388181  0.71426070  0.49298248
   0.28391473  0.85678886  0.49146391
   0.42713457  0.99908519  0.49486149
   0.42682026  0.14167098  0.49610183
   0.42204136  0.27717875  0.52032529
   0.42601352  0.85589791  0.49861776
   0.56926865  0.99783241  0.50429592
   0.56966718  0.14119688  0.50525560
   0.57026938  0.28460415  0.50572618
   0.56733563  0.85309217  0.51438337
   0.71137864  0.99652715  0.51252686
   0.71229090  0.14082378  0.50937714
   0.71269802  0.28452646  0.51157577
   0.71319491  0.42839678  0.51281862
   0.72157711  0.57655025  0.54293793
   0.71171012  0.85302544  0.52588255
   0.85464221  0.99775715  0.51236495
   0.85450883  0.14078669  0.50968808
   0.85506607  0.28424690  0.50993655
   0.85567618  0.42772924  0.51143007
   0.85644144  0.57173596  0.50897716
   0.85887545  0.71527096  0.51470923
   0.85681377  0.85604322  0.51604342
   0.04554031  0.09412984  0.50251159
   0.04472765  0.23646950  0.50305130
   0.04539108  0.37988763  0.50260292
   0.04599721  0.52285908  0.50073108
   0.04632883  0.66589894  0.49663316
   0.04674510  0.80903177  0.49603016
   0.04640632  0.95192895  0.49827855
   0.18859576  0.09440458  0.49289854
   0.18758030  0.23698379  0.49761489
   0.18706694  0.37944108  0.49254494
   0.18922479  0.52345105  0.49394555
   0.18870702  0.66594908  0.49348206
   0.18900050  0.80890146  0.49126484
   0.18911623  0.95176445  0.49096074
   0.33171268  0.09426620  0.49278471
   0.33113674  0.23645828  0.49962760
   0.32471889  0.37572431  0.47213557
   0.32690985  0.52132462  0.47408532
   0.33474633  0.66987598  0.49278710
   0.33127931  0.80908327  0.49376318
   0.33176886  0.95170707  0.49169691
   0.47479754  0.09416576  0.49739407
   0.47402499  0.23648100  0.50572780
   0.46998472  0.80467976  0.50494166
   0.47436252  0.95116168  0.49910993
   0.61698966  0.09318585  0.50645499
   0.61757878  0.23668485  0.50960068
   0.62149015  0.37807176  0.49547689
   0.61769091  0.81019238  0.52894548
   0.61592923  0.94887729  0.50977312
   0.75928667  0.09254151  0.51043005
   0.75996868  0.23632961  0.51040424
   0.76040246  0.37998559  0.51461624
   0.76115380  0.52542680  0.52001516
   0.76579929  0.67142851  0.53370514
   0.76166280  0.80467651  0.52912907
   0.75912712  0.94875770  0.51644275
   0.90200646  0.09297238  0.50911021
   0.90227265  0.23633515  0.50846601
   0.90278993  0.37985170  0.50906998
   0.90317731  0.52320747  0.50592592
   0.90472713  0.66660678  0.50678090
   0.90521936  0.80973859  0.50972054
   0.90308926  0.95088797  0.51042908
   0.45971657  0.35673400  0.56320759
   0.41003876  0.41654835  0.44240934
   0.41513385  0.56369183  0.45852843
   0.63927930  0.53564905  0.57954130
   0.58159594  0.42069566  0.45963774
   0.57226737  0.72269019  0.54803127
   0.42411977  0.71469460  0.50000239
   0.71977425  0.71588437  0.54145735
   0.61152497  0.63454554  0.47984574
   0.53105205  0.54345684  0.45317823
   0.58667085  0.59208096  0.43022414
Direct configuration=     8
   0.99816545  0.99887243  0.50336717
   0.99743928  0.14126507  0.50543818
   0.99758721  0.28441069  0.50503889
   0.99807367  0.42755099  0.50445679
   0.99837379  0.57060801  0.50063148
   0.99944942  0.71389565  0.49882979
   0.99976870  0.85710943  0.50014036
   0.14151061  0.99958805  0.49296104
   0.14064866  0.14188285  0.49853411
   0.13995565  0.28438754  0.49778252
   0.14082488  0.42798655  0.49667647
   0.14124604  0.57057696  0.49653436
   0.14142093  0.71349938  0.49318890
   0.14167646  0.85661072  0.49178465
   0.28416122  0.99914848  0.49101012
   0.28389708  0.14158163  0.49209316
   0.28315122  0.28491924  0.49227573
   0.28158208  0.42672604  0.47816977
   0.28532589  0.57191754  0.48695283
   0.28388158  0.71425994  0.49298177
   0.28391459  0.85678823  0.49146162
   0.42713411  0.99908416  0.49486255
   0.42681897  0.14166987  0.49610301
   0.42203817  0.27717577  0.52032764
   0.42601363  0.85589720  0.49862422
   0.56926823  0.99783171  0.50430222
   0.56966611  0.14119593  0.50525988
   0.57026975  0.28460495  0.50573293
   0.56733481  0.85309097  0.51439899
   0.71137812  0.99652592  0.51253799
   0.71229044  0.14082267  0.50938384
   0.71269661  0.28452502  0.51158173
   0.71319416  0.42839635  0.51283101
   0.72157797  0.57655052  0.54295967
   0.71171076  0.85302842  0.52590078
   0.85463953  0.99775574  0.51237522
   0.85450821  0.14078548  0.50969194
   0.85506559  0.28424597  0.50993951
   0.85567535  0.42772861  0.51143728
   0.85644167  0.57173652  0.50898833
   0.85887561  0.71527111  0.51472536
   0.85681190  0.85603775  0.51605720
   0.04553925  0.09412893  0.50251230
   0.04472710  0.23646973  0.50304496
   0.04539087  0.37988773  0.50259922
   0.04599661  0.52285867  0.50073177
   0.04632833  0.66589928  0.49663499
   0.04674394  0.80903067  0.49603460
   0.04640323  0.95193095  0.49828299
   0.18859441  0.09440417  0.49289534
   0.18757980  0.23698350  0.49760778
   0.18706698  0.37944032  0.49253803
   0.18922394  0.52345020  0.49394295
   0.18870830  0.66595079  0.49348177
   0.18899982  0.80889980  0.49126215
   0.18911441  0.95176464  0.49095940
   0.33171144  0.09426779  0.49278199
   0.33113927  0.23645868  0.49962638
   0.32471717  0.37571938  0.47213005
   0.32690955  0.52132605  0.47407864
   0.33474659  0.66987563  0.49279004
   0.33127978  0.80908246  0.49376433
   0.33176878  0.95170637  0.49169516
   0.47479736  0.09416513  0.49739589
   0.47402398  0.23648013  0.50573324
   0.46998399  0.80467835  0.50495245
   0.47436273  0.95116123  0.49911476
   0.61699100  0.09318643  0.50645910
   0.61757744  0.23668425  0.50960698
   0.62148936  0.37807168  0.49548805
   0.61769100  0.81019550  0.52896692
   0.61592815  0.94887632  0.50978493
   0.75928593  0.09254038  0.51043664
   0.75996806  0.23632855  0.51040999
   0.76040168  0.37998381  0.51462458
   0.76115300  0.52542786  0.52003103
   0.76579896  0.67142805  0.53372678
   0.76166162  0.80467579  0.52914963
   0.75912690  0.94875727  0.51645608
   0.90200469  0.09297176  0.50911327
   0.90227232  0.23633633  0.50846675
   0.90278952  0.37985136  0.50907289
   0.90317674  0.52320719  0.50593381
   0.90472648  0.66660704  0.50679295
   0.90521762  0.80973851  0.50973350
   0.90308846  0.95088724  0.51044034
   0.45971054  0.35672749  0.56321266
   0.41004103  0.41654704  0.44240727
   0.41513381  0.56369638  0.45851562
   0.63927855  0.53565302  0.57956056
   0.58159299  0.42069619  0.45965469
   0.57226955  0.72269454  0.54806981
   0.42411957  0.71469373  0.50001249
   0.71977497  0.71588393  0.54148166
   0.61153629  0.63455438  0.47985060
   0.53107204  0.54346350  0.45317539
   0.58668650  0.59209615  0.43022414
Direct configuration=     9