  99  99   0   0
  0.3914025E+02  0.1727104E-08  0.1727104E-08  0.1500000E-08  0.0000000E+00
  1.000000000000000E-004
  CAR 
 unknown system                          
      4.55728883    -31.15683726  301     -2.39278242      1.00000000
    -31.157  0.0000E+00  0.0000E+00  0.0000E+00  0.0000E+00
    -31.038  0.0000E+00  0.0000E+00  0.0000E+00  0.0000E+00
    -30.919  0.0000E+00  0.0000E+00  0.0000E+00  0.0000E+00
    -30.800  0.0000E+00  0.0000E+00  0.0000E+00  0.0000E+00
    -30.681  0.0000E+00  0.0000E+00  0.0000E+00  0.0000E+00
    -30.562  0.0000E+00  0.0000E+00  0.0000E+00  0.0000E+00
    -30.443  0.0000E+00  0.0000E+00  0.0000E+00  0.0000E+00
    -30.324  0.0000E+00  0.0000E+00  0.0000E+00  0.0000E+00
    -30.204  0.0000E+00  0.0000E+00  0.0000E+00  0.0000E+00
    -30.085  0.0000E+00  0.0000E+00  0.0000E+00  0.0000E+00
    -29.966  0.0000E+00  0.0000E+00  0.0000E+00  0.0000E+00
    -29.847  0.0000E+00  0.0000E+00  0.0000E+00  0.0000E+00
    -29.728  0.1502E-09  0.1502E-09  0.1788E-10  0.1788E-10
    -29.609  0.1347E-03  0.1347E-03  0.1604E-04  0.1604E-04
    -29.490  0.8099E-02  0.8099E-02  0.9802E-03  0.9802E-03
    -29.371  0.8389E-02  0.8389E-02  0.1979E-02  0.1979E-02
    -29.252  0.1776E-03  0.1776E-03  0.2000E-02  0.2000E-02
    -29.133  0.2830E-09  0.2830E-09  0.2000E-02  0.2000E-02
    -29.014  0.0000E+00  0.0000E+00  0.2000E-02  0.2000E-02
    -28.895  0.0000E+00  0.0000E+00  0.2000E-02  0.2000E-02
    -28.776  0.0000E+00  0.0000E+00  0.2000E-02  0.2000E-02
    -28.657  0.0000E+00  0.0000E+00  0.2000E-02  0.2000E-02
    -28.538  0.0000E+00  0.0000E+00  0.2000E-02  0.2000E-02
    -28.419  0.0000E+00  0.0000E+00  0.2000E-02  0.2000E-02
    -28.300  0.0000E+00  0.0000E+00  0.2000E-02  0.2000E-02
    -28.181  0.0000E+00  0.0000E+00  0.2000E-02  0.2000E-02
    -28.062  0.0000E+00  0.0000E+00  0.2000E-02  0.2000E-02
    -27.943  0.0000E+00  0.0000E+00  0.2000E-02  0.2000E-02
    -27.824  0.0000E+00  0.0000E+00  0.2000E-02  0.2000E-02
    -27.704  0.0000E+00  0.0000E+00  0.2000E-02  0.2000E-02
    -27.585  0.0000E+00  0.0000E+00  0.2000E-02  0.2000E-02
    -27.466  0.0000E+00  0.0000E+00  0.2000E-02  0.2000E-02
    -27.347  0.0000E+00  0.0000E+00  0.2000E-02  0.2000E-02
    -27.228  0.0000E+00  0.0000E+00  0.2000E-02  0.2000E-02
    -27.109  0.0000E+00  0.0000E+00  0.2000E-02  0.2000E-02
    -26.990  0.0000E+00  0.0000E+00  0.2000E-02  0.2000E-02
    -26.871  0.0000E+00  0.0000E+00  0.2000E-02  0.2000E-02
    -26.752  0.0000E+00  0.0000E+00  0.2000E-02  0.2000E-02
    -26.633  0.0000E+00  0.0000E+00  0.2000E-02  0.2000E-02
    -26.514  0.0000E+00  0.0000E+00  0.2000E-02  0.2000E-02
    -26.395  0.0000E+00  0.0000E+00  0.2000E-02  0.2000E-02
    -26.276  0.0000E+00  0.0000E+00  0.2000E-02  0.2000E-02
    -26.157  0.0000E+00  0.0000E+00  0.2000E-02  0.2000E-02
    -26.038  0.0000E+00  0.0000E+00  0.2000E-02  0.2000E-02
    -25.919  0.0000E+00  0.0000E+00  0.2000E-02  0.2000E-02
    -25.800  0.0000E+00  0.0000E+00  0.2000E-02  0.2000E-02
    -25.681  0.0000E+00  0.0000E+00  0.2000E-02  0.2000E-02
    -25.562  0.0000E+00  0.0000E+00  0.2000E-02  0.2000E-02
    -25.443  0.0000E+00  0.0000E+00  0.2000E-02  0.2000E-02
    -25.324  0.0000E+00  0.0000E+00  0.2000E-02  0.2000E-02
    -25.204  0.0000E+00  0.0000E+00  0.2000E-02  0.2000E-02
    -25.085  0.0000E+00  0.0000E+00  0.2000E-02  0.2000E-02
    -24.966  0.0000E+00  0.0000E+00  0.2000E-02  0.2000E-02
    -24.847  0.0000E+00  0.0000E+00  0.2000E-02  0.2000E-02
    -24.728  0.0000E+00  0.0000E+00  0.2000E-02  0.2000E-02
    -24.609  0.0000E+00  0.0000E+00  0.2000E-02  0.2000E-02
    -24.490  0.0000E+00  0.0000E+00  0.2000E-02  0.2000E-02
    -24.371  0.0000E+00  0.0000E+00  0.2000E-02  0.2000E-02
    -24.252  0.0000E+00  0.0000E+00  0.2000E-02  0.2000E-02
    -24.133  0.0000E+00  0.0000E+00  0.2000E-02  0.2000E-02
    -24.014  0.8452E-16  0.8452E-16  0.2000E-02  0.2000E-02
    -23.895  0.7753E-07  0.7753E-07  0.2000E-02  0.2000E-02
    -23.776  0.1511E-02  0.1511E-02  0.2180E-02  0.2180E-02
    -23.657  0.6829E-02  0.6829E-02  0.2993E-02  0.2993E-02
    -23.538  0.5974E-04  0.5974E-04  0.3000E-02  0.3000E-02
    -23.419  0.2491E-10  0.2491E-10  0.3000E-02  0.3000E-02
    -23.300  0.0000E+00  0.0000E+00  0.3000E-02  0.3000E-02
    -23.181  0.0000E+00  0.0000E+00  0.3000E-02  0.3000E-02
    -23.062  0.0000E+00  0.0000E+00  0.3000E-02  0.3000E-02
    -22.943  0.0000E+00  0.0000E+00  0.3000E-02  0.3000E-02
    -22.824  0.0000E+00  0.0000E+00  0.3000E-02  0.3000E-02
    -22.704  0.0000E+00  0.0000E+00  0.3000E-02  0.3000E-02
    -22.585  0.0000E+00  0.0000E+00  0.3000E-02  0.3000E-02
    -22.466  0.0000E+00  0.0000E+00  0.3000E-02  0.3000E-02
    -22.347  0.0000E+00  0.0000E+00  0.3000E-02  0.3000E-02
    -22.228  0.0000E+00  0.0000E+00  0.3000E-02  0.3000E-02
    -22.109  0.0000E+00  0.0000E+00  0.3000E-02  0.3000E-02
    -21.990  0.8355E-10  0.8355E-10  0.3000E-02  0.3000E-02
    -21.871  0.4844E-04  0.4844E-04  0.3006E-02  0.3006E-02
    -21.752  0.3782E-02  0.3782E-02  0.3456E-02  0.3456E-02
    -21.633  0.8718E-02  0.8718E-02  0.4494E-02  0.4494E-02
    -21.514  0.2344E-02  0.2344E-02  0.4773E-02  0.4773E-02
    -21.395  0.8829E-02  0.8829E-02  0.5824E-02  0.5824E-02
    -21.276  0.8871E-02  0.8871E-02  0.6880E-02  0.6880E-02
    -21.157  0.3848E-02  0.3848E-02  0.7338E-02  0.7338E-02
    -21.038  0.2612E-02  0.2612E-02  0.7649E-02  0.7649E-02
    -20.919  0.1261E-01  0.1261E-01  0.9150E-02  0.9150E-02
    -20.800  0.9255E-02  0.9255E-02  0.1025E-01  0.1025E-01
    -20.681  0.4165E-02  0.4165E-02  0.1075E-01  0.1075E-01
    -20.562  0.1719E-02  0.1719E-02  0.1095E-01  0.1095E-01
    -20.443  0.6598E-02  0.6598E-02  0.1174E-01  0.1174E-01
    -20.324  0.1033E-01  0.1033E-01  0.1297E-01  0.1297E-01
    -20.205  0.1261E-01  0.1261E-01  0.1447E-01  0.1447E-01
    -20.085  0.5643E-02  0.5643E-02  0.1514E-01  0.1514E-01
    -19.966  0.1674E-02  0.1674E-02  0.1534E-01  0.1534E-01
    -19.847  0.7274E-02  0.7274E-02  0.1621E-01  0.1621E-01
    -19.728  0.5684E-02  0.5684E-02  0.1688E-01  0.1688E-01
    -19.609  0.3628E-02  0.3628E-02  0.1731E-01  0.1731E-01
    -19.490  0.1360E-01  0.1360E-01  0.1893E-01  0.1893E-01
    -19.371  0.1267E-01  0.1267E-01  0.2044E-01  0.2044E-01
    -19.252  0.2714E-02  0.2714E-02  0.2076E-01  0.2076E-01
    -19.133  0.6397E-02  0.6397E-02  0.2153E-01  0.2153E-01
    -19.014  0.6821E-02  0.6821E-02  0.2234E-01  0.2234E-01
    -18.895  0.4638E-02  0.4638E-02  0.2289E-01  0.2289E-01
    -18.776  0.3482E-02  0.3482E-02  0.2330E-01  0.2330E-01
    -18.657  0.6875E-02  0.6875E-02  0.2412E-01  0.2412E-01
    -18.538  0.1438E-01  0.1438E-01  0.2583E-01  0.2583E-01
    -18.419  0.1024E-01  0.1024E-01  0.2705E-01  0.2705E-01
    -18.300  0.4528E-02  0.4528E-02  0.2759E-01  0.2759E-01
    -18.181  0.8578E-02  0.8578E-02  0.2861E-01  0.2861E-01
    -18.062  0.6768E-02  0.6768E-02  0.2942E-01  0.2942E-01
    -17.943  0.7827E-02  0.7827E-02  0.3035E-01  0.3035E-01
    -17.824  0.3630E-02  0.3630E-02  0.3078E-01  0.3078E-01
    -17.705  0.4970E-02  0.4970E-02  0.3138E-01  0.3138E-01
    -17.585  0.3510E-02  0.3510E-02  0.3179E-01  0.3179E-01
    -17.466  0.1276E-01  0.1276E-01  0.3331E-01  0.3331E-01
    -17.347  0.1492E-01  0.1492E-01  0.3509E-01  0.3509E-01
    -17.228  0.9532E-02  0.9532E-02  0.3622E-01  0.3622E-01
    -17.109  0.8564E-02  0.8564E-02  0.3724E-01  0.3724E-01
    -16.990  0.4187E-02  0.4187E-02  0.3774E-01  0.3774E-01
    -16.871  0.8537E-02  0.8537E-02  0.3876E-01  0.3876E-01
    -16.752  0.8893E-02  0.8893E-02  0.3982E-01  0.3982E-01
    -16.633  0.4097E-02  0.4097E-02  0.4030E-01  0.4030E-01
    -16.514  0.5867E-02  0.5867E-02  0.4100E-01  0.4100E-01
    -16.395  0.7685E-02  0.7685E-02  0.4192E-01  0.4192E-01
    -16.276  0.1568E-01  0.1568E-01  0.4378E-01  0.4378E-01
    -16.157  0.8264E-02  0.8264E-02  0.4477E-01  0.4477E-01
    -16.038  0.2096E-02  0.2096E-02  0.4502E-01  0.4502E-01
    -15.919  0.5243E-02  0.5243E-02  0.4564E-01  0.4564E-01
    -15.800  0.9193E-03  0.9193E-03  0.4575E-01  0.4575E-01
    -15.681  0.2853E-02  0.2853E-02  0.4609E-01  0.4609E-01
    -15.562  0.1414E-02  0.1414E-02  0.4626E-01  0.4626E-01
    -15.443  0.6330E-02  0.6330E-02  0.4701E-01  0.4701E-01
    -15.324  0.6502E-02  0.6502E-02  0.4779E-01  0.4779E-01
    -15.205  0.1051E-01  0.1051E-01  0.4904E-01  0.4904E-01
    -15.085  0.5399E-02  0.5399E-02  0.4968E-01  0.4968E-01
    -14.966  0.1055E-01  0.1055E-01  0.5094E-01  0.5094E-01
    -14.847  0.1474E-01  0.1474E-01  0.5269E-01  0.5269E-01
    -14.728  0.2889E-02  0.2889E-02  0.5303E-01  0.5303E-01
    -14.609  0.5296E-02  0.5296E-02  0.5366E-01  0.5366E-01
    -14.490  0.1390E-01  0.1390E-01  0.5532E-01  0.5532E-01
    -14.371  0.8246E-02  0.8246E-02  0.5630E-01  0.5630E-01
    -14.252  0.9113E-02  0.9113E-02  0.5739E-01  0.5739E-01
    -14.133  0.1217E-01  0.1217E-01  0.5883E-01  0.5883E-01
    -14.014  0.7667E-02  0.7667E-02  0.5975E-01  0.5975E-01
    -13.895  0.5662E-02  0.5662E-02  0.6042E-01  0.6042E-01
    -13.776  0.4466E-02  0.4466E-02  0.6095E-01  0.6095E-01
    -13.657  0.5275E-02  0.5275E-02  0.6158E-01  0.6158E-01
    -13.538  0.1113E-01  0.1113E-01  0.6291E-01  0.6291E-01
    -13.419  0.6517E-02  0.6517E-02  0.6368E-01  0.6368E-01
    -13.300  0.6990E-02  0.6990E-02  0.6451E-01  0.6451E-01
    -13.181  0.7805E-02  0.7805E-02  0.6544E-01  0.6544E-01
    -13.062  0.6585E-02  0.6585E-02  0.6623E-01  0.6623E-01
    -12.943  0.5124E-02  0.5124E-02  0.6684E-01  0.6684E-01
    -12.824  0.5623E-02  0.5623E-02  0.6751E-01  0.6751E-01
    -12.705  0.8543E-02  0.8543E-02  0.6852E-01  0.6852E-01
    -12.585  0.5987E-02  0.5987E-02  0.6924E-01  0.6924E-01
    -12.466  0.1748E-01  0.1748E-01  0.7132E-01  0.7132E-01
    -12.347  0.1015E-01  0.1015E-01  0.7253E-01  0.7253E-01
    -12.228  0.1122E-01  0.1122E-01  0.7386E-01  0.7386E-01
    -12.109  0.4847E-02  0.4847E-02  0.7444E-01  0.7444E-01
    -11.990  0.5286E-02  0.5286E-02  0.7507E-01  0.7507E-01
    -11.871  0.9205E-02  0.9205E-02  0.7616E-01  0.7616E-01
    -11.752  0.6807E-02  0.6807E-02  0.7697E-01  0.7697E-01
    -11.633  0.9438E-02  0.9438E-02  0.7810E-01  0.7810E-01
    -11.514  0.1223E-01  0.1223E-01  0.7955E-01  0.7955E-01
    -11.395  0.1343E-01  0.1343E-01  0.8115E-01  0.8115E-01
    -11.276  0.1119E-01  0.1119E-01  0.8248E-01  0.8248E-01
    -11.157  0.1358E-01  0.1358E-01  0.8410E-01  0.8410E-01
    -11.038  0.1063E-01  0.1063E-01  0.8537E-01  0.8537E-01
    -10.919  0.1029E-01  0.1029E-01  0.8659E-01  0.8659E-01
    -10.800  0.1090E-01  0.1090E-01  0.8789E-01  0.8789E-01
    -10.681  0.6842E-02  0.6842E-02  0.8870E-01  0.8870E-01
    -10.562  0.6452E-02  0.6452E-02  0.8947E-01  0.8947E-01
    -10.443  0.7433E-02  0.7433E-02  0.9036E-01  0.9036E-01
    -10.324  0.6945E-02  0.6945E-02  0.9118E-01  0.9118E-01
    -10.205  0.1331E-01  0.1331E-01  0.9277E-01  0.9277E-01
    -10.086  0.2339E-01  0.2339E-01  0.9555E-01  0.9555E-01
     -9.966  0.1727E-01  0.1727E-01  0.9761E-01  0.9761E-01
     -9.847  0.1791E-01  0.1791E-01  0.9974E-01  0.9974E-01
     -9.728  0.1532E-01  0.1532E-01  0.1016E+00  0.1016E+00
     -9.609  0.2090E-01  0.2090E-01  0.1041E+00  0.1041E+00
     -9.490  0.7323E-02  0.7323E-02  0.1049E+00  0.1049E+00
     -9.371  0.2078E-01  0.2078E-01  0.1074E+00  0.1074E+00
     -9.252  0.1413E-01  0.1413E-01  0.1091E+00  0.1091E+00
     -9.133  0.2185E-01  0.2185E-01  0.1117E+00  0.1117E+00
     -9.014  0.2128E-01  0.2128E-01  0.1142E+00  0.1142E+00
     -8.895  0.1918E-01  0.1918E-01  0.1165E+00  0.1165E+00
     -8.776  0.2853E-01  0.2853E-01  0.1199E+00  0.1199E+00
     -8.657  0.3207E-01  0.3207E-01  0.1237E+00  0.1237E+00
     -8.538  0.1415E-01  0.1415E-01  0.1254E+00  0.1254E+00
     -8.419  0.1976E-01  0.1976E-01  0.1277E+00  0.1277E+00
     -8.300  0.1645E-01  0.1645E-01  0.1297E+00  0.1297E+00
     -8.181  0.1714E-01  0.1714E-01  0.1317E+00  0.1317E+00
     -8.062  0.2291E-01  0.2291E-01  0.1345E+00  0.1345E+00
     -7.943  0.2163E-01  0.2163E-01  0.1370E+00  0.1370E+00
     -7.824  0.2035E-01  0.2035E-01  0.1395E+00  0.1395E+00
     -7.705  0.1429E-01  0.1429E-01  0.1412E+00  0.1412E+00
     -7.586  0.1976E-01  0.1976E-01  0.1435E+00  0.1435E+00
     -7.466  0.1525E-01  0.1525E-01  0.1453E+00  0.1453E+00
     -7.347  0.5620E-02  0.5620E-02  0.1460E+00  0.1460E+00
     -7.228  0.1688E-01  0.1688E-01  0.1480E+00  0.1480E+00
     -7.109  0.2055E-01  0.2055E-01  0.1505E+00  0.1505E+00
     -6.990  0.2139E-01  0.2139E-01  0.1530E+00  0.1530E+00
     -6.871  0.1558E-01  0.1558E-01  0.1549E+00  0.1549E+00
     -6.752  0.1013E-01  0.1013E-01  0.1561E+00  0.1561E+00
     -6.633  0.1069E-01  0.1069E-01  0.1573E+00  0.1573E+00
     -6.514  0.1389E-01  0.1389E-01  0.1590E+00  0.1590E+00
     -6.395  0.9045E-02  0.9045E-02  0.1601E+00  0.1601E+00
     -6.276  0.1130E-01  0.1130E-01  0.1614E+00  0.1614E+00
     -6.157  0.1815E-01  0.1815E-01  0.1636E+00  0.1636E+00
     -6.038  0.1849E-01  0.1849E-01  0.1658E+00  0.1658E+00
     -5.919  0.9326E-02  0.9326E-02  0.1669E+00  0.1669E+00
     -5.800  0.1596E-01  0.1596E-01  0.1688E+00  0.1688E+00
     -5.681  0.1916E-01  0.1916E-01  0.1711E+00  0.1711E+00
     -5.562  0.1556E-01  0.1556E-01  0.1729E+00  0.1729E+00
     -5.443  0.8377E-02  0.8377E-02  0.1739E+00  0.1739E+00
     -5.324  0.5234E-02  0.5234E-02  0.1745E+00  0.1745E+00
     -5.205  0.2936E-02  0.2936E-02  0.1749E+00  0.1749E+00
     -5.086  0.3058E-02  0.3058E-02  0.1753E+00  0.1753E+00
     -4.966  0.1986E-01  0.1986E-01  0.1776E+00  0.1776E+00
     -4.847  0.1930E-01  0.1930E-01  0.1799E+00  0.1799E+00
     -4.728  0.1223E-01  0.1223E-01  0.1814E+00  0.1814E+00
     -4.609  0.4429E-02  0.4429E-02  0.1819E+00  0.1819E+00
     -4.490  0.9778E-02  0.9778E-02  0.1831E+00  0.1831E+00
     -4.371  0.1534E-02  0.1534E-02  0.1833E+00  0.1833E+00
     -4.252  0.3307E-02  0.3307E-02  0.1836E+00  0.1836E+00
     -4.133  0.8229E-02  0.8229E-02  0.1846E+00  0.1846E+00
     -4.014  0.7191E-02  0.7191E-02  0.1855E+00  0.1855E+00
     -3.895  0.6659E-02  0.6659E-02  0.1863E+00  0.1863E+00
     -3.776  0.7670E-02  0.7670E-02  0.1872E+00  0.1872E+00
     -3.657  0.6433E-02  0.6433E-02  0.1880E+00  0.1880E+00
     -3.538  0.3803E-03  0.3803E-03  0.1880E+00  0.1880E+00
     -3.419  0.9548E-05  0.9548E-05  0.1880E+00  0.1880E+00
     -3.300  0.1926E-02  0.1926E-02  0.1882E+00  0.1882E+00
     -3.181  0.6263E-02  0.6263E-02  0.1890E+00  0.1890E+00
     -3.062  0.2309E-02  0.2309E-02  0.1893E+00  0.1893E+00
     -2.943  0.1680E-02  0.1680E-02  0.1895E+00  0.1895E+00
     -2.824  0.4117E-03  0.4117E-03  0.1895E+00  0.1895E+00
     -2.705  0.3578E-05  0.3578E-05  0.1895E+00  0.1895E+00
     -2.586  0.2471E-02  0.2471E-02  0.1898E+00  0.1898E+00
     -2.466  0.1724E-02  0.1724E-02  0.1900E+00  0.1900E+00
     -2.347  0.7154E-06  0.7154E-06  0.1900E+00  0.1900E+00
     -2.228  0.6400E-03  0.6400E-03  0.1901E+00  0.1901E+00
     -2.109  0.3520E-02  0.3520E-02  0.1905E+00  0.1905E+00
     -1.990  0.4041E-04  0.4041E-04  0.1905E+00  0.1905E+00
     -1.871  0.1756E-05  0.1756E-05  0.1905E+00  0.1905E+00
     -1.752  0.1282E-02  0.1282E-02  0.1907E+00  0.1907E+00
     -1.633  0.2838E-02  0.2838E-02  0.1910E+00  0.1910E+00
     -1.514  0.6598E-02  0.6598E-02  0.1918E+00  0.1918E+00
     -1.395  0.1879E-02  0.1879E-02  0.1920E+00  0.1920E+00
     -1.276  0.2728E-04  0.2728E-04  0.1920E+00  0.1920E+00
     -1.157  0.4654E-02  0.4654E-02  0.1926E+00  0.1926E+00
     -1.038  0.6927E-02  0.6927E-02  0.1934E+00  0.1934E+00
     -0.919  0.3587E-02  0.3587E-02  0.1938E+00  0.1938E+00
     -0.800  0.1249E-01  0.1249E-01  0.1953E+00  0.1953E+00
     -0.681  0.1292E-01  0.1292E-01  0.1968E+00  0.1968E+00
     -0.562  0.4471E-02  0.4471E-02  0.1974E+00  0.1974E+00
     -0.443  0.1257E-01  0.1257E-01  0.1989E+00  0.1989E+00
     -0.324  0.6950E-02  0.6950E-02  0.1997E+00  0.1997E+00
     -0.205  0.5454E-02  0.5454E-02  0.2003E+00  0.2003E+00
     -0.086  0.6755E-02  0.6755E-02  0.2011E+00  0.2011E+00
      0.033  0.8931E-02  0.8931E-02  0.2022E+00  0.2022E+00
      0.153  0.9700E-02  0.9700E-02  0.2034E+00  0.2034E+00
      0.272  0.1244E-01  0.1244E-01  0.2048E+00  0.2048E+00
      0.391  0.7329E-02  0.7329E-02  0.2057E+00  0.2057E+00
      0.510  0.2346E-02  0.2346E-02  0.2060E+00  0.2060E+00
      0.629  0.2312E-02  0.2312E-02  0.2063E+00  0.2063E+00
      0.748  0.1151E-01  0.1151E-01  0.2076E+00  0.2076E+00
      0.867  0.1172E-01  0.1172E-01  0.2090E+00  0.2090E+00
      0.986  0.6256E-02  0.6256E-02  0.2098E+00  0.2098E+00
      1.105  0.9841E-02  0.9841E-02  0.2109E+00  0.2109E+00
      1.224  0.5747E-02  0.5747E-02  0.2116E+00  0.2116E+00
      1.343  0.1021E-01  0.1021E-01  0.2128E+00  0.2128E+00
      1.462  0.9475E-02  0.9475E-02  0.2140E+00  0.2140E+00
      1.581  0.1771E-01  0.1771E-01  0.2161E+00  0.2161E+00
      1.700  0.1422E-01  0.1422E-01  0.2178E+00  0.2178E+00
      1.819  0.1319E-01  0.1319E-01  0.2193E+00  0.2193E+00
      1.938  0.1113E-01  0.1113E-01  0.2207E+00  0.2207E+00
      2.057  0.1976E-01  0.1976E-01  0.2230E+00  0.2230E+00
      2.176  0.1358E-01  0.1358E-01  0.2246E+00  0.2246E+00
      2.295  0.1932E-01  0.1932E-01  0.2269E+00  0.2269E+00
      2.414  0.2264E-01  0.2264E-01  0.2296E+00  0.2296E+00
      2.533  0.1956E-01  0.1956E-01  0.2320E+00  0.2320E+00
      2.653  0.7078E-02  0.7078E-02  0.2328E+00  0.2328E+00
      2.772  0.1828E-01  0.1828E-01  0.2350E+00  0.2350E+00
      2.891  0.2676E-01  0.2676E-01  0.2382E+00  0.2382E+00
      3.010  0.1524E-01  0.1524E-01  0.2400E+00  0.2400E+00
      3.129  0.1200E-03  0.1200E-03  0.2400E+00  0.2400E+00
      3.248  0.1019E-09  0.1019E-09  0.2400E+00  0.2400E+00
      3.367  0.0000E+00  0.0000E+00  0.2400E+00  0.2400E+00
      3.486  0.0000E+00  0.0000E+00  0.2400E+00  0.2400E+00
      3.605  0.0000E+00  0.0000E+00  0.2400E+00  0.2400E+00
      3.724  0.0000E+00  0.0000E+00  0.2400E+00  0.2400E+00
      3.843  0.0000E+00  0.0000E+00  0.2400E+00  0.2400E+00
      3.962  0.0000E+00  0.0000E+00  0.2400E+00  0.2400E+00
      4.081  0.0000E+00  0.0000E+00  0.2400E+00  0.2400E+00
      4.200  0.0000E+00  0.0000E+00  0.2400E+00  0.2400E+00
      4.319  0.0000E+00  0.0000E+00  0.2400E+00  0.2400E+00
      4.438  0.0000E+00  0.0000E+00  0.2400E+00  0.2400E+00
      4.557  0.0000E+00  0.0000E+00  0.2400E+00  0.2400E+00
