       N       E                     dE             d eps       ncg     rms          rms(c)
DAV:   1     0.356444966639E+04    0.35644E+04   -0.14455E+05  4190   0.120E+03
DAV:   2    -0.201545136199E+03   -0.37660E+04   -0.35803E+04  5630   0.290E+02
DAV:   3    -0.887768835540E+03   -0.68622E+03   -0.68334E+03  4600   0.130E+02
DAV:   4    -0.913081382920E+03   -0.25313E+02   -0.25167E+02  4580   0.316E+01
DAV:   5    -0.913854106820E+03   -0.77272E+00   -0.77110E+00  5300   0.481E+00    0.439E+01
DAV:   6    -0.880581679886E+03    0.33272E+02   -0.21516E+01  4380   0.923E+00    0.335E+01
DAV:   7    -0.852180414562E+03    0.28401E+02   -0.10800E+02  4250   0.187E+01    0.133E+01
DAV:   8    -0.851902296974E+03    0.27812E+00   -0.65820E+00  4530   0.587E+00    0.660E+00
DAV:   9    -0.851967949389E+03   -0.65652E-01   -0.11589E+00  4310   0.258E+00    0.261E+00
DAV:  10    -0.851841947666E+03    0.12600E+00   -0.42707E-01  4430   0.150E+00    0.106E+00
DAV:  11    -0.851828366007E+03    0.13582E-01   -0.11426E-01  4390   0.789E-01    0.310E-01
DAV:  12    -0.851826989927E+03    0.13761E-02   -0.21820E-02  4450   0.391E-01    0.152E-01
DAV:  13    -0.851827059893E+03   -0.69967E-04   -0.30140E-03  4490   0.137E-01    0.115E-01
DAV:  14    -0.851827074586E+03   -0.14693E-04   -0.18415E-03  4450   0.101E-01    0.569E-02
DAV:  15    -0.851827073472E+03    0.11142E-05   -0.20228E-04  4630   0.436E-02    0.388E-02
DAV:  16    -0.851827108417E+03   -0.34945E-04   -0.23745E-04  4760   0.484E-02    0.276E-02
DAV:  17    -0.851827096390E+03    0.12027E-04   -0.10578E-04  4950   0.326E-02    0.941E-03
DAV:  18    -0.851827099102E+03   -0.27115E-05   -0.24355E-05  4360   0.102E-02    0.548E-03
DAV:  19    -0.851827098924E+03    0.17822E-06   -0.16651E-06  3310   0.461E-03
   1 F= -.85973639E+03 E0= -.85973639E+03  d E =-.859736E+03  mag=    -0.0000
       N       E                     dE             d eps       ncg     rms          rms(c)
DAV:   1    -0.851827184430E+03   -0.85328E-04   -0.68495E-03  4040   0.150E-01    0.149E-02
DAV:   2    -0.851827195351E+03   -0.10921E-04   -0.14458E-04  4120   0.197E-02    0.116E-02
DAV:   3    -0.851827194338E+03    0.10134E-05   -0.21781E-06  3500   0.309E-03    0.923E-03
DAV:   4    -0.851827194676E+03   -0.33787E-06   -0.56176E-06  3660   0.483E-03
   2 F= -.85973647E+03 E0= -.85973647E+03  d E =-.800588E-04  mag=    -0.0000
       N       E                     dE             d eps       ncg     rms          rms(c)
DAV:   1    -0.851827313507E+03   -0.11917E-03   -0.21926E-02  4080   0.271E-01    0.260E-02
DAV:   2    -0.851827345607E+03   -0.32101E-04   -0.42832E-04  4000   0.336E-02    0.188E-02
DAV:   3    -0.851827344008E+03    0.15996E-05   -0.58477E-06  4140   0.492E-03    0.149E-02
DAV:   4    -0.851827348637E+03   -0.46298E-05   -0.13189E-05  3740   0.765E-03    0.318E-03
DAV:   5    -0.851827349044E+03   -0.40679E-06   -0.27739E-06  3300   0.282E-03
   3 F= -.85973660E+03 E0= -.85973660E+03  d E =-.123333E-03  mag=    -0.0000
       N       E                     dE             d eps       ncg     rms          rms(c)
DAV:   1    -0.851827537058E+03   -0.18842E-03   -0.43423E-02  4080   0.382E-01    0.359E-02
DAV:   2    -0.851827600774E+03   -0.63716E-04   -0.83559E-04  4000   0.467E-02    0.248E-02
DAV:   3    -0.851827598370E+03    0.24039E-05   -0.11547E-05  4460   0.682E-03    0.194E-02
DAV:   4    -0.851827607041E+03   -0.86709E-05   -0.21079E-05  3820   0.976E-03    0.412E-03
DAV:   5    -0.851827607715E+03   -0.67396E-06   -0.44760E-06  3830   0.354E-03
   4 F= -.85973681E+03 E0= -.85973681E+03  d E =-.213581E-03  mag=     0.0000
       N       E                     dE             d eps       ncg     rms          rms(c)
DAV:   1    -0.851827820165E+03   -0.21312E-03   -0.73571E-02  4050   0.493E-01    0.469E-02
DAV:   2    -0.851827927314E+03   -0.10715E-03   -0.14110E-03  4000   0.600E-02    0.323E-02
DAV:   3    -0.851827923341E+03    0.39736E-05   -0.19963E-05  4580   0.886E-03    0.253E-02
DAV:   4    -0.851827937703E+03   -0.14362E-04   -0.34566E-05  3840   0.123E-02    0.555E-03
DAV:   5    -0.851827939013E+03   -0.13100E-05   -0.74757E-06  4150   0.452E-03    0.410E-03
DAV:   6    -0.851827939006E+03    0.71886E-08   -0.11170E-06  2700   0.256E-03
   5 F= -.85973708E+03 E0= -.85973708E+03  d E =-.271092E-03  mag=    -0.0000
       N       E                     dE             d eps       ncg     rms          rms(c)
DAV:   1    -0.851828191773E+03   -0.25276E-03   -0.11379E-01  4040   0.598E-01    0.571E-02
DAV:   2    -0.851828352968E+03   -0.16120E-03   -0.21419E-03  3960   0.723E-02    0.398E-02
DAV:   3    -0.851828345635E+03    0.73338E-05   -0.29120E-05  4640   0.104E-02    0.313E-02
DAV:   4    -0.851828368445E+03   -0.22811E-04   -0.61586E-05  3870   0.157E-02    0.635E-03
DAV:   5    -0.851828370132E+03   -0.16867E-05   -0.12413E-05  4320   0.573E-03    0.511E-03
DAV:   6    -0.851828370207E+03   -0.75124E-07   -0.12849E-06  2720   0.271E-03
   6 F= -.85973743E+03 E0= -.85973743E+03  d E =-.352822E-03  mag=    -0.0000
       N       E                     dE             d eps       ncg     rms          rms(c)
DAV:   1    -0.851828646891E+03   -0.27676E-03   -0.16453E-01  3960   0.702E-01    0.685E-02
DAV:   2    -0.851828878599E+03   -0.23171E-03   -0.30971E-03  3960   0.848E-02    0.482E-02
DAV:   3    -0.851828867789E+03    0.10810E-04   -0.40932E-05  4660   0.121E-02    0.382E-02
DAV:   4    -0.851828900878E+03   -0.33089E-04   -0.97574E-05  3900   0.193E-02    0.741E-03
DAV:   5    -0.851828903285E+03   -0.24065E-05   -0.19355E-05  4360   0.697E-03    0.631E-03
DAV:   6    -0.851828903400E+03   -0.11464E-06   -0.15978E-06  3020   0.297E-03
   7 F= -.85973787E+03 E0= -.85973787E+03  d E =-.435908E-03  mag=     0.0000
       N       E                     dE             d eps       ncg     rms          rms(c)
DAV:   1    -0.851829190791E+03   -0.28751E-03   -0.26217E-01  3960   0.874E-01    0.867E-02
DAV:   2    -0.851829560230E+03   -0.36944E-03   -0.48886E-03  3960   0.104E-01    0.602E-02
DAV:   3    -0.851829544384E+03    0.15847E-04   -0.64545E-05  4670   0.150E-02    0.476E-02
DAV:   4    -0.851829595256E+03   -0.50873E-04   -0.14532E-04  4040   0.237E-02    0.899E-03
DAV:   5    -0.851829598782E+03   -0.35253E-05   -0.29325E-05  4340   0.849E-03    0.785E-03
DAV:   6    -0.851829598827E+03   -0.45395E-07   -0.25254E-06  3260   0.356E-03
   8 F= -.85973844E+03 E0= -.85973844E+03  d E =-.567340E-03  mag=     0.0000
       N       E                     dE             d eps       ncg     rms          rms(c)
DAV:   1    -0.851829872534E+03   -0.27375E-03   -0.41142E-01  3960   0.108E+00    0.109E-01
DAV:   2    -0.851830455242E+03   -0.58271E-03   -0.76200E-03  3920   0.128E-01    0.755E-02
DAV:   3    -0.851830431345E+03    0.23897E-04   -0.10102E-04  4650   0.184E-02    0.596E-02
DAV:   4    -0.851830505830E+03   -0.74485E-04   -0.22176E-04  4400   0.287E-02    0.112E-02
DAV:   5    -0.851830511047E+03   -0.52178E-05   -0.43619E-05  4320   0.102E-02    0.965E-03
DAV:   6    -0.851830511183E+03   -0.13583E-06   -0.39816E-06  3500   0.425E-03
   9 F= -.85973919E+03 E0= -.85973919E+03  d E =-.751153E-03  mag=     0.0000
       N       E                     dE             d eps       ncg     rms          rms(c)
DAV:   1    -0.851830603041E+03   -0.91993E-04   -0.64776E-01  3940   0.134E+00    0.138E-01
DAV:   2    -0.851831547658E+03   -0.94462E-03   -0.12072E-02  3930   0.159E-01    0.957E-02
DAV:   3    -0.851831503644E+03    0.44013E-04   -0.15732E-04  4630   0.226E-02    0.757E-02
DAV:   4    -0.851831603448E+03   -0.99804E-04   -0.36897E-04  4450   0.357E-02    0.142E-02
DAV:   5    -0.851831612684E+03   -0.92360E-05   -0.71039E-05  4300   0.128E-02    0.123E-02
DAV:   6    -0.851831613022E+03   -0.33765E-06   -0.60784E-06  3660   0.523E-03
  10 F= -.85974009E+03 E0= -.85974009E+03  d E =-.898334E-03  mag=    -0.0000
       N       E                     dE             d eps       ncg     rms          rms(c)
DAV:   1    -0.851831386562E+03    0.22612E-03   -0.95751E-01  3900   0.162E+00    0.169E-01
DAV:   2    -0.851832810696E+03   -0.14241E-02   -0.17838E-02  3940   0.192E-01    0.118E-01
DAV:   3    -0.851832739412E+03    0.71284E-04   -0.23449E-04  4600   0.277E-02    0.931E-02
DAV:   4    -0.851832863937E+03   -0.12453E-03   -0.55927E-04  4580   0.446E-02    0.172E-02
DAV:   5    -0.851832876722E+03   -0.12784E-04   -0.10832E-04  4300   0.158E-02    0.154E-02
DAV:   6    -0.851832876549E+03    0.17282E-06   -0.93043E-06  3740   0.661E-03
  11 F= -.85974109E+03 E0= -.85974109E+03  d E =-.100180E-02  mag=    -0.0000
       N       E                     dE             d eps       ncg     rms          rms(c)
DAV:   1    -0.851832207551E+03    0.66917E-03   -0.13004E+00  3900   0.191E+00    0.200E-01
DAV:   2    -0.851834182567E+03   -0.19750E-02   -0.24374E-02  3940   0.229E-01    0.140E-01
DAV:   3    -0.851834087733E+03    0.94834E-04   -0.33476E-04  4620   0.337E-02    0.110E-01
DAV:   4    -0.851834222546E+03   -0.13481E-03   -0.73591E-04  4580   0.524E-02    0.209E-02
DAV:   5    -0.851834242676E+03   -0.20130E-04   -0.14503E-04  4300   0.189E-02    0.179E-02
DAV:   6    -0.851834243292E+03   -0.61614E-06   -0.14361E-05  3740   0.838E-03    0.893E-03
DAV:   7    -0.851834243474E+03   -0.18186E-06   -0.72284E-06  4340   0.509E-03
  12 F= -.85974215E+03 E0= -.85974215E+03  d E =-.106223E-02  mag=     0.0000
       N       E                     dE             d eps       ncg     rms          rms(c)
DAV:   1    -0.851832556001E+03    0.16873E-02   -0.18126E+00  3880   0.230E+00    0.237E-01
DAV:   2    -0.851835420794E+03   -0.28648E-02   -0.34792E-02  3980   0.282E-01    0.172E-01
DAV:   3    -0.851835249780E+03    0.17101E-03   -0.50381E-04  4660   0.424E-02    0.137E-01
DAV:   4    -0.851835329902E+03   -0.80122E-04   -0.11544E-03  4480   0.661E-02    0.281E-02
DAV:   5    -0.851835370853E+03   -0.40951E-04   -0.23423E-04  4280   0.246E-02    0.223E-02
DAV:   6    -0.851835375391E+03   -0.45377E-05   -0.22034E-05  3980   0.101E-02    0.109E-02
DAV:   7    -0.851835376577E+03   -0.11859E-05   -0.79300E-06  4360   0.529E-03    0.504E-03
DAV:   8    -0.851835376316E+03    0.26059E-06   -0.22006E-06  3310   0.356E-03
  13 F= -.85974294E+03 E0= -.85974294E+03  d E =-.784662E-03  mag=     0.0000
       N       E                     dE             d eps       ncg     rms          rms(c)
DAV:   1    -0.851835819581E+03   -0.44300E-03   -0.16525E-02  3900   0.295E-01    0.293E-02
DAV:   2    -0.851835851381E+03   -0.31800E-04   -0.44422E-04  4660   0.435E-02    0.266E-02
DAV:   3    -0.851835844047E+03    0.73338E-05   -0.19269E-05  5060   0.916E-03    0.209E-02
DAV:   4    -0.851835836552E+03    0.74952E-05   -0.17135E-05  4100   0.995E-03    0.893E-03
DAV:   5    -0.851835836376E+03    0.17536E-06   -0.55709E-06  3560   0.489E-03
  14 F= -.85974339E+03 E0= -.85974339E+03  d E =-.449557E-03  mag=     0.0000
       N       E                     dE             d eps       ncg     rms          rms(c)
DAV:   1    -0.851835608454E+03    0.22810E-03   -0.22250E-02  3900   0.345E-01    0.340E-02
DAV:   2    -0.851835652506E+03   -0.44052E-04   -0.59149E-04  4660   0.506E-02    0.300E-02
DAV:   3    -0.851835643719E+03    0.87873E-05   -0.24704E-05  4960   0.105E-02    0.235E-02
DAV:   4    -0.851835635867E+03    0.78520E-05   -0.22032E-05  4080   0.114E-02    0.976E-03
DAV:   5    -0.851835635956E+03   -0.89261E-07   -0.65042E-06  3720   0.529E-03
  15 F= -.85974317E+03 E0= -.85974317E+03  d E =0.219282E-03  mag=    -0.0000
       N       E                     dE             d eps       ncg     rms          rms(c)
DAV:   1    -0.851835746252E+03   -0.11039E-03   -0.77028E-04  3900   0.627E-02    0.629E-03
DAV:   2    -0.851835747537E+03   -0.12844E-05   -0.20913E-05  4660   0.932E-03    0.591E-03
DAV:   3    -0.851835747123E+03    0.41406E-06   -0.72143E-07  2200   0.199E-03
  16 F= -.85974328E+03 E0= -.85974328E+03  d E =-.111437E-03  mag=     0.0000
       N       E                     dE             d eps       ncg     rms          rms(c)
DAV:   1    -0.851835878045E+03   -0.13051E-03   -0.24446E-03  3900   0.111E-01    0.118E-02
DAV:   2    -0.851835882095E+03   -0.40498E-05   -0.58992E-05  4680   0.157E-02    0.107E-02
DAV:   3    -0.851835880994E+03    0.11010E-05   -0.22566E-06  3080   0.339E-03    0.835E-03
DAV:   4    -0.851835880071E+03    0.92293E-06   -0.50677E-06  3860   0.507E-03
  17 F= -.85974341E+03 E0= -.85974341E+03  d E =-.133067E-03  mag=     0.0000
       N       E                     dE             d eps       ncg     rms          rms(c)
DAV:   1    -0.851835929083E+03   -0.48089E-04   -0.39134E-03  3880   0.140E-01    0.145E-02
DAV:   2    -0.851835936359E+03   -0.72759E-05   -0.99757E-05  4660   0.203E-02    0.130E-02
DAV:   3    -0.851835934826E+03    0.15332E-05   -0.34970E-06  3460   0.413E-03    0.104E-02
DAV:   4    -0.851835933449E+03    0.13766E-05   -0.72179E-06  3960   0.604E-03    0.363E-03
DAV:   5    -0.851835933458E+03   -0.85129E-08   -0.11729E-06  2420   0.233E-03
  18 F= -.85974346E+03 E0= -.85974346E+03  d E =-.524745E-04  mag=    -0.0000
       N       E                     dE             d eps       ncg     rms          rms(c)
DAV:   1    -0.851835892867E+03    0.40582E-04   -0.35104E-03  3880   0.131E-01    0.125E-02
DAV:   2    -0.851835899355E+03   -0.64881E-05   -0.86455E-05  4500   0.187E-02    0.110E-02
DAV:   3    -0.851835898282E+03    0.10728E-05   -0.27807E-06  3360   0.368E-03    0.878E-03
DAV:   4    -0.851835897461E+03    0.82060E-06   -0.53179E-06  3840   0.507E-03
  19 F= -.85974342E+03 E0= -.85974342E+03  d E =0.394138E-04  mag=     0.0000
       N       E                     dE             d eps       ncg     rms          rms(c)
DAV:   1    -0.851835905857E+03   -0.75752E-05   -0.12031E-05  4000   0.799E-03    0.198E-03
DAV:   2    -0.851835905874E+03   -0.16240E-07   -0.35540E-07  2100   0.134E-03
  20 F= -.85974343E+03 E0= -.85974343E+03  d E =-.798047E-05  mag=     0.0000
       N       E                     dE             d eps       ncg     rms          rms(c)
DAV:   1    -0.851835920887E+03   -0.15030E-04   -0.42113E-05  3960   0.150E-02    0.169E-03
DAV:   2    -0.851835920960E+03   -0.72432E-07   -0.99514E-07  2260   0.219E-03
  21 F= -.85974345E+03 E0= -.85974345E+03  d E =-.142218E-04  mag=     0.0000
       N       E                     dE             d eps       ncg     rms          rms(c)
DAV:   1    -0.851835940228E+03   -0.19341E-04   -0.88737E-05  3920   0.218E-02    0.305E-03
DAV:   2    -0.851835940333E+03   -0.10472E-06   -0.22096E-06  3220   0.323E-03
  22 F= -.85974346E+03 E0= -.85974346E+03  d E =-.180897E-04  mag=     0.0000
       N       E                     dE             d eps       ncg     rms          rms(c)
DAV:   1    -0.851835960534E+03   -0.20305E-04   -0.14024E-04  3880   0.273E-02    0.418E-03
DAV:   2    -0.851835960671E+03   -0.13746E-06   -0.33741E-06  3780   0.393E-03
  23 F= -.85974348E+03 E0= -.85974348E+03  d E =-.186342E-04  mag=    -0.0000
       N       E                     dE             d eps       ncg     rms          rms(c)
DAV:   1    -0.851835978760E+03   -0.18226E-04   -0.19159E-04  3900   0.318E-02    0.501E-03
DAV:   2    -0.851835978948E+03   -0.18865E-06   -0.45595E-06  4220   0.447E-03
  24 F= -.85974350E+03 E0= -.85974350E+03  d E =-.161548E-04  mag=     0.0000
       N       E                     dE             d eps       ncg     rms          rms(c)
DAV:   1    -0.851835993208E+03   -0.14449E-04   -0.23553E-04  3880   0.350E-02    0.565E-03
DAV:   2    -0.851835993424E+03   -0.21616E-06   -0.54469E-06  4360   0.483E-03
  25 F= -.85974351E+03 E0= -.85974351E+03  d E =-.119383E-04  mag=    -0.0000
       N       E                     dE             d eps       ncg     rms          rms(c)
DAV:   1    -0.851836004627E+03   -0.11419E-04   -0.32836E-04  3920   0.408E-02    0.638E-03
DAV:   2    -0.851836004949E+03   -0.32200E-06   -0.73378E-06  4300   0.551E-03
  26 F= -.85974352E+03 E0= -.85974352E+03  d E =-.836153E-05  mag=     0.0000
       N       E                     dE             d eps       ncg     rms          rms(c)
DAV:   1    -0.851836014429E+03   -0.98021E-05   -0.44365E-04  3920   0.462E-02    0.719E-03
DAV:   2    -0.851836014864E+03   -0.43491E-06   -0.95507E-06  4130   0.611E-03
  27 F= -.85974352E+03 E0= -.85974352E+03  d E =-.609667E-05  mag=    -0.0000
       N       E                     dE             d eps       ncg     rms          rms(c)
DAV:   1    -0.851836026191E+03   -0.11762E-04   -0.61238E-04  3920   0.525E-02    0.808E-03
DAV:   2    -0.851836026776E+03   -0.58427E-06   -0.12640E-05  3980   0.678E-03    0.655E-03
DAV:   3    -0.851836026711E+03    0.64421E-07   -0.45430E-07  2480   0.173E-03
  28 F= -.85974353E+03 E0= -.85974353E+03  d E =-.740958E-05  mag=    -0.0000
       N       E                     dE             d eps       ncg     rms          rms(c)
DAV:   1    -0.851836045575E+03   -0.18800E-04   -0.89185E-04  3900   0.618E-02    0.616E-03
DAV:   2    -0.851836046959E+03   -0.13841E-05   -0.17880E-05  3880   0.772E-03    0.467E-03
DAV:   3    -0.851836046933E+03    0.26237E-07   -0.22962E-07  2190   0.119E-03
  29 F= -.85974355E+03 E0= -.85974355E+03  d E =-.151959E-04  mag=    -0.0000
       N       E                     dE             d eps       ncg     rms          rms(c)
DAV:   1    -0.851836076260E+03   -0.29301E-04   -0.14141E-03  3880   0.775E-02    0.743E-03
DAV:   2    -0.851836078509E+03   -0.22486E-05   -0.28774E-05  3880   0.978E-03    0.565E-03
DAV:   3    -0.851836078435E+03    0.73516E-07   -0.37781E-07  2530   0.152E-03
  30 F= -.85974357E+03 E0= -.85974357E+03  d E =-.258390E-04  mag=    -0.0000
       N       E                     dE             d eps       ncg     rms          rms(c)
DAV:   1    -0.851836116010E+03   -0.37501E-04   -0.23238E-03  3880   0.100E-01    0.951E-03
DAV:   2    -0.851836119732E+03   -0.37215E-05   -0.47942E-05  3880   0.128E-02    0.737E-03
DAV:   3    -0.851836119572E+03    0.15942E-06   -0.69424E-07  2910   0.201E-03
  31 F= -.85974361E+03 E0= -.85974361E+03  d E =-.346039E-04  mag=    -0.0000
       N       E                     dE             d eps       ncg     rms          rms(c)
DAV:   1    -0.851836156321E+03   -0.36590E-04   -0.37846E-03  3880   0.128E-01    0.122E-02
DAV:   2    -0.851836162353E+03   -0.60316E-05   -0.78720E-05  3860   0.164E-02    0.950E-03
DAV:   3    -0.851836162128E+03    0.22457E-06   -0.12467E-06  3280   0.261E-03
  32 F= -.85974364E+03 E0= -.85974364E+03  d E =-.345494E-04  mag=     0.0000
       N       E                     dE             d eps       ncg     rms          rms(c)
DAV:   1    -0.851836192085E+03   -0.29732E-04   -0.58046E-03  3880   0.158E-01    0.151E-02
DAV:   2    -0.851836201213E+03   -0.91284E-05   -0.12008E-04  3860   0.202E-02    0.117E-02
DAV:   3    -0.851836200914E+03    0.29897E-06   -0.18899E-06  3520   0.316E-03
  33 F= -.85974367E+03 E0= -.85974367E+03  d E =-.288380E-04  mag=     0.0000
       N       E                     dE             d eps       ncg     rms          rms(c)
DAV:   1    -0.851836232990E+03   -0.31777E-04   -0.85987E-03  3880   0.192E-01    0.183E-02
DAV:   2    -0.851836246509E+03   -0.13519E-04   -0.17770E-04  3840   0.243E-02    0.139E-02
DAV:   3    -0.851836246209E+03    0.29986E-06   -0.26837E-06  3740   0.373E-03
  34 F= -.85974370E+03 E0= -.85974370E+03  d E =-.330149E-04  mag=     0.0000
       N       E                     dE             d eps       ncg     rms          rms(c)
DAV:   1    -0.851836286673E+03   -0.40164E-04   -0.12663E-02  3880   0.235E-01    0.222E-02
DAV:   2    -0.851836306680E+03   -0.20007E-04   -0.26264E-04  3840   0.297E-02    0.167E-02
DAV:   3    -0.851836306250E+03    0.42984E-06   -0.41594E-06  4060   0.460E-03
  35 F= -.85974375E+03 E0= -.85974375E+03  d E =-.451188E-04  mag=     0.0000
       N       E                     dE             d eps       ncg     rms          rms(c)
DAV:   1    -0.851836341812E+03   -0.35133E-04   -0.19829E-02  3880   0.296E-01    0.278E-02
DAV:   2    -0.851836374112E+03   -0.32299E-04   -0.41751E-04  3840   0.375E-02    0.209E-02
DAV:   3    -0.851836373156E+03    0.95606E-06   -0.68968E-06  4420   0.586E-03
  36 F= -.85974380E+03 E0= -.85974380E+03  d E =-.488669E-04  mag=     0.0000
       N       E                     dE             d eps       ncg     rms          rms(c)
DAV:   1    -0.851836396969E+03   -0.22857E-04   -0.30637E-02  3880   0.366E-01    0.346E-02
DAV:   2    -0.851836447159E+03   -0.50190E-04   -0.64539E-04  3840   0.463E-02    0.259E-02
DAV:   3    -0.851836445721E+03    0.14387E-05   -0.10236E-05  4640   0.714E-03    0.200E-02
DAV:   4    -0.851836451853E+03   -0.61321E-05   -0.15298E-05  3680   0.922E-03    0.394E-03
DAV:   5    -0.851836452078E+03   -0.22528E-06   -0.34743E-06  3940   0.358E-03
  37 F= -.85974385E+03 E0= -.85974385E+03  d E =-.562072E-04  mag=     0.0000
       N       E                     dE             d eps       ncg     rms          rms(c)
DAV:   1    -0.851836473146E+03   -0.21294E-04   -0.46782E-02  3920   0.450E-01    0.407E-02
DAV:   2    -0.851836557273E+03   -0.84127E-04   -0.10469E-03  3840   0.589E-02    0.301E-02
DAV:   3    -0.851836553476E+03    0.37969E-05   -0.15629E-05  4580   0.887E-03    0.234E-02
DAV:   4    -0.851836559792E+03   -0.63159E-05   -0.28402E-05  3700   0.121E-02    0.492E-03
DAV:   5    -0.851836560082E+03   -0.28971E-06   -0.57063E-06  4220   0.463E-03
  38 F= -.85974393E+03 E0= -.85974393E+03  d E =-.797106E-04  mag=    -0.0000
       N       E                     dE             d eps       ncg     rms          rms(c)
DAV:   1    -0.851836598347E+03   -0.38555E-04   -0.68246E-02  3900   0.540E-01    0.493E-02
DAV:   2    -0.851836721666E+03   -0.12332E-03   -0.15345E-03  3840   0.709E-02    0.367E-02
DAV:   3    -0.851836716089E+03    0.55770E-05   -0.22463E-05  4580   0.106E-02    0.287E-02
DAV:   4    -0.851836725494E+03   -0.94052E-05   -0.43131E-05  3780   0.147E-02    0.603E-03
DAV:   5    -0.851836725991E+03   -0.49708E-06   -0.85046E-06  4290   0.563E-03
  39 F= -.85974406E+03 E0= -.85974406E+03  d E =-.129907E-03  mag=    -0.0000
       N       E                     dE             d eps       ncg     rms          rms(c)
DAV:   1    -0.851836807204E+03   -0.81710E-04   -0.94508E-02  3900   0.626E-01    0.587E-02
DAV:   2    -0.851836976558E+03   -0.16935E-03   -0.21116E-03  3840   0.819E-02    0.435E-02
DAV:   3    -0.851836969578E+03    0.69808E-05   -0.29088E-05  4520   0.120E-02    0.341E-02
DAV:   4    -0.851836984597E+03   -0.15019E-04   -0.62152E-05  3840   0.171E-02    0.677E-03
DAV:   5    -0.851836984989E+03   -0.39247E-06   -0.11602E-05  4300   0.656E-03    0.493E-03
DAV:   6    -0.851836984948E+03    0.41291E-07   -0.20844E-06  3360   0.320E-03
  40 F= -.85974427E+03 E0= -.85974427E+03  d E =-.210796E-03  mag=    -0.0000
       N       E                     dE             d eps       ncg     rms          rms(c)
DAV:   1    -0.851837138929E+03   -0.15394E-03   -0.12539E-01  3900   0.713E-01    0.682E-02
DAV:   2    -0.851837360505E+03   -0.22158E-03   -0.27697E-03  3840   0.926E-02    0.506E-02
DAV:   3    -0.851837351288E+03    0.92171E-05   -0.37961E-05  4540   0.135E-02    0.398E-02
DAV:   4    -0.851837372277E+03   -0.20989E-04   -0.82263E-05  3880   0.195E-02    0.777E-03
DAV:   5    -0.851837372946E+03   -0.66913E-06   -0.15289E-05  4280   0.750E-03    0.571E-03
DAV:   6    -0.851837372850E+03    0.96268E-07   -0.26083E-06  3380   0.352E-03
  41 F= -.85974460E+03 E0= -.85974460E+03  d E =-.321804E-03  mag=     0.0000
       N       E                     dE             d eps       ncg     rms          rms(c)
DAV:   1    -0.851837636387E+03   -0.26344E-03   -0.16552E-01  3880   0.793E-01    0.806E-02
DAV:   2    -0.851837912023E+03   -0.27564E-03   -0.35340E-03  3840   0.102E-01    0.602E-02
DAV:   3    -0.851837900600E+03    0.11423E-04   -0.47789E-05  4520   0.150E-02    0.473E-02
DAV:   4    -0.851837935065E+03   -0.34464E-04   -0.11629E-04  3900   0.223E-02    0.867E-03
DAV:   5    -0.851837935671E+03   -0.60678E-06   -0.20813E-05  4280   0.861E-03    0.667E-03
DAV:   6    -0.851837935486E+03    0.18560E-06   -0.31623E-06  3580   0.389E-03
  42 F= -.85974506E+03 E0= -.85974506E+03  d E =-.466684E-03  mag=    -0.0000
       N       E                     dE             d eps       ncg     rms          rms(c)
DAV:   1    -0.851838310103E+03   -0.37443E-03   -0.23759E-01  3880   0.907E-01    0.979E-02
DAV:   2    -0.851838696843E+03   -0.38674E-03   -0.49286E-03  3840   0.116E-01    0.741E-02
DAV:   3    -0.851838677412E+03    0.19430E-04   -0.65073E-05  4540   0.169E-02    0.583E-02
DAV:   4    -0.851838724346E+03   -0.46934E-04   -0.18525E-04  3900   0.264E-02    0.103E-02
DAV:   5    -0.851838725516E+03   -0.11705E-05   -0.31901E-05  4280   0.101E-02    0.831E-03
DAV:   6    -0.851838725280E+03    0.23630E-06   -0.41280E-06  3680   0.445E-03
  43 F= -.85974572E+03 E0= -.85974572E+03  d E =-.660296E-03  mag=     0.0000
       N       E                     dE             d eps       ncg     rms          rms(c)
DAV:   1    -0.851839218399E+03   -0.49288E-03   -0.33796E-01  3880   0.103E+00    0.118E-01
DAV:   2    -0.851839757189E+03   -0.53879E-03   -0.67818E-03  3860   0.131E-01    0.902E-02
DAV:   3    -0.851839729154E+03    0.28035E-04   -0.89144E-05  4520   0.191E-02    0.709E-02
DAV:   4    -0.851839789266E+03   -0.60113E-04   -0.27886E-04  4000   0.308E-02    0.124E-02
DAV:   5    -0.851839790706E+03   -0.14396E-05   -0.45744E-05  4260   0.118E-02    0.102E-02
DAV:   6    -0.851839790545E+03    0.16084E-06   -0.60147E-06  3740   0.545E-03
  44 F= -.85974662E+03 E0= -.85974662E+03  d E =-.895054E-03  mag=     0.0000
       N       E                     dE             d eps       ncg     rms          rms(c)
DAV:   1    -0.851840349775E+03   -0.55907E-03   -0.47699E-01  3880   0.119E+00    0.143E-01
DAV:   2    -0.851841097352E+03   -0.74758E-03   -0.93209E-03  3860   0.149E-01    0.109E-01
DAV:   3    -0.851841061470E+03    0.35882E-04   -0.12390E-04  4530   0.221E-02    0.853E-02
DAV:   4    -0.851841137948E+03   -0.76478E-04   -0.38977E-04  4240   0.358E-02    0.145E-02
DAV:   5    -0.851841139744E+03   -0.17964E-05   -0.63393E-05  4240   0.138E-02    0.120E-02
DAV:   6    -0.851841139510E+03    0.23373E-06   -0.78843E-06  3780   0.620E-03
  45 F= -.85974775E+03 E0= -.85974775E+03  d E =-.112841E-02  mag=     0.0000
       N       E                     dE             d eps       ncg     rms          rms(c)
DAV:   1    -0.851841524760E+03   -0.38502E-03   -0.74719E-01  3880   0.146E+00    0.177E-01
DAV:   2    -0.851842716164E+03   -0.11914E-02   -0.14601E-02  3860   0.182E-01    0.136E-01
DAV:   3    -0.851842651094E+03    0.65070E-04   -0.19266E-04  4540   0.272E-02    0.106E-01
DAV:   4    -0.851842739707E+03   -0.88613E-04   -0.65619E-04  4300   0.453E-02    0.183E-02
DAV:   5    -0.851842744215E+03   -0.45079E-05   -0.10607E-04  4280   0.172E-02    0.153E-02
DAV:   6    -0.851842744860E+03   -0.64523E-06   -0.11705E-05  3820   0.743E-03    0.752E-03
DAV:   7    -0.851842744832E+03    0.28012E-07   -0.56646E-06  3640   0.419E-03
  46 F= -.85974909E+03 E0= -.85974909E+03  d E =-.133899E-02  mag=     0.0000
       N       E                     dE             d eps       ncg     rms          rms(c)
DAV:   1    -0.851842724816E+03    0.20044E-04   -0.96210E-01  3880   0.175E+00    0.202E-01
DAV:   2    -0.851844258737E+03   -0.15339E-02   -0.18941E-02  3880   0.221E-01    0.155E-01
DAV:   3    -0.851844175077E+03    0.83660E-04   -0.29134E-04  4660   0.348E-02    0.121E-01
DAV:   4    -0.851844283419E+03   -0.10834E-03   -0.73886E-04  4180   0.530E-02    0.226E-02
DAV:   5    -0.851844292668E+03   -0.92490E-05   -0.13176E-04  4300   0.209E-02    0.174E-02
DAV:   6    -0.851844293231E+03   -0.56246E-06   -0.19276E-05  3840   0.916E-03    0.800E-03
DAV:   7    -0.851844293675E+03   -0.44487E-06   -0.42211E-06  3620   0.396E-03
  47 F= -.85975030E+03 E0= -.85975030E+03  d E =-.121733E-02  mag=    -0.0000
       N       E                     dE             d eps       ncg     rms          rms(c)
DAV:   1    -0.851841856013E+03    0.24372E-02   -0.16099E+00  3880   0.236E+00    0.253E-01
DAV:   2    -0.851844609598E+03   -0.27536E-02   -0.33819E-02  3960   0.311E-01    0.202E-01
DAV:   3    -0.851844386097E+03    0.22350E-03   -0.61527E-04  4660   0.515E-02    0.161E-01
DAV:   4    -0.851844388104E+03   -0.20069E-05   -0.14591E-03  4240   0.772E-02    0.383E-02
DAV:   5    -0.851844430515E+03   -0.42411E-04   -0.27367E-04  4340   0.299E-02    0.259E-02
DAV:   6    -0.851844436949E+03   -0.64340E-05   -0.37056E-05  4100   0.126E-02    0.113E-02
DAV:   7    -0.851844438305E+03   -0.13560E-05   -0.55131E-06  4320   0.500E-03    0.671E-03
DAV:   8    -0.851844437781E+03    0.52376E-06   -0.29221E-06  3300   0.379E-03
  48 F= -.85975013E+03 E0= -.85975013E+03  d E =0.174898E-03  mag=     0.0000
       N       E                     dE             d eps       ncg     rms          rms(c)
DAV:   1    -0.851846161295E+03   -0.17230E-02   -0.10895E-01  3860   0.759E-01    0.751E-02
DAV:   2    -0.851846364496E+03   -0.20320E-03   -0.28885E-03  4700   0.112E-01    0.683E-02
DAV:   3    -0.851846313193E+03    0.51303E-04   -0.13106E-04  4940   0.238E-02    0.534E-02
DAV:   4    -0.851846265751E+03    0.47442E-04   -0.12206E-04  4160   0.259E-02    0.239E-02
DAV:   5    -0.851846264301E+03    0.14498E-05   -0.34088E-05  4300   0.120E-02    0.103E-02
DAV:   6    -0.851846264637E+03   -0.33524E-06   -0.33128E-06  3230   0.418E-03
  49 F= -.85975193E+03 E0= -.85975193E+03  d E =-.179741E-02  mag=     0.0000
       N       E                     dE             d eps       ncg     rms          rms(c)
DAV:   1    -0.851846276949E+03   -0.12647E-04   -0.16916E-04  3960   0.293E-02    0.373E-03
DAV:   2    -0.851846277135E+03   -0.18614E-06   -0.41807E-06  3900   0.423E-03
  50 F= -.85975194E+03 E0= -.85975194E+03  d E =-.117003E-04  mag=     0.0000
       N       E                     dE             d eps       ncg     rms          rms(c)
DAV:   1    -0.851846291916E+03   -0.14967E-04   -0.59278E-04  3940   0.544E-02    0.618E-03
DAV:   2    -0.851846292696E+03   -0.78027E-06   -0.13981E-05  4520   0.756E-03    0.539E-03
DAV:   3    -0.851846292429E+03    0.26702E-06   -0.48047E-07  2220   0.171E-03
  51 F= -.85975195E+03 E0= -.85975195E+03  d E =-.134622E-04  mag=    -0.0000
       N       E                     dE             d eps       ncg     rms          rms(c)
DAV:   1    -0.851846300728E+03   -0.80321E-05   -0.10812E-03  3920   0.723E-02    0.688E-03
DAV:   2    -0.851846302541E+03   -0.18130E-05   -0.23866E-05  4320   0.952E-03    0.563E-03
DAV:   3    -0.851846302422E+03    0.11975E-06   -0.46249E-07  2400   0.169E-03
  52 F= -.85975196E+03 E0= -.85975196E+03  d E =-.669527E-05  mag=     0.0000
       N       E                     dE             d eps       ncg     rms          rms(c)
DAV:   1    -0.851846308605E+03   -0.60637E-05   -0.15343E-03  3920   0.842E-02    0.767E-03
DAV:   2    -0.851846311195E+03   -0.25902E-05   -0.33239E-05  4040   0.109E-02    0.592E-03
DAV:   3    -0.851846311128E+03    0.67550E-07   -0.51272E-07  2720   0.178E-03
  53 F= -.85975196E+03 E0= -.85975196E+03  d E =-.362968E-05  mag=    -0.0000
       N       E                     dE             d eps       ncg     rms          rms(c)
DAV:   1    -0.851846326807E+03   -0.15611E-04   -0.20192E-03  3880   0.952E-02    0.861E-03
DAV:   2    -0.851846330151E+03   -0.33442E-05   -0.43137E-05  3920   0.121E-02    0.641E-03
DAV:   3    -0.851846330115E+03    0.35856E-07   -0.56393E-07  2760   0.189E-03
  54 F= -.85975197E+03 E0= -.85975197E+03  d E =-.120155E-04  mag=     0.0000
       N       E                     dE             d eps       ncg     rms          rms(c)
DAV:   1    -0.851846359782E+03   -0.29631E-04   -0.26500E-03  3880   0.109E-01    0.984E-03
DAV:   2    -0.851846364158E+03   -0.43761E-05   -0.56668E-05  3920   0.139E-02    0.732E-03
DAV:   3    -0.851846364089E+03    0.68962E-07   -0.78276E-07  2880   0.219E-03
  55 F= -.85975200E+03 E0= -.85975200E+03  d E =-.251050E-04  mag=     0.0000
       N       E                     dE             d eps       ncg     rms          rms(c)
DAV:   1    -0.851846405268E+03   -0.41110E-04   -0.42759E-03  3880   0.139E-01    0.126E-02
DAV:   2    -0.851846412321E+03   -0.70535E-05   -0.91969E-05  3900   0.178E-02    0.952E-03
DAV:   3    -0.851846412138E+03    0.18298E-06   -0.15102E-06  3360   0.288E-03
  56 F= -.85975203E+03 E0= -.85975203E+03  d E =-.356207E-04  mag=    -0.0000
       N       E                     dE             d eps       ncg     rms          rms(c)
DAV:   1    -0.851846462608E+03   -0.50287E-04   -0.65964E-03  3880   0.171E-01    0.159E-02
DAV:   2    -0.851846472987E+03   -0.10380E-04   -0.13880E-04  3880   0.217E-02    0.120E-02
DAV:   3    -0.851846472788E+03    0.19916E-06   -0.22489E-06  3620   0.345E-03
  57 F= -.85975208E+03 E0= -.85975208E+03  d E =-.437222E-04  mag=    -0.0000
       N       E                     dE             d eps       ncg     rms          rms(c)
DAV:   1    -0.851846547376E+03   -0.74389E-04   -0.95708E-03  3880   0.202E-01    0.193E-02
DAV:   2    -0.851846561573E+03   -0.14197E-04   -0.19497E-04  3880   0.253E-02    0.144E-02
DAV:   3    -0.851846561480E+03    0.93205E-07   -0.30252E-06  3780   0.394E-03
  58 F= -.85975214E+03 E0= -.85975214E+03  d E =-.659555E-04  mag=     0.0000
       N       E                     dE             d eps       ncg     rms          rms(c)
DAV:   1    -0.851846673783E+03   -0.11221E-03   -0.14242E-02  3880   0.241E-01    0.237E-02
DAV:   2    -0.851846693902E+03   -0.20119E-04   -0.28450E-04  3880   0.303E-02    0.179E-02
DAV:   3    -0.851846693828E+03    0.73065E-07   -0.46092E-06  4100   0.476E-03
  59 F= -.85975225E+03 E0= -.85975225E+03  d E =-.102323E-03  mag=     0.0000
       N       E                     dE             d eps       ncg     rms          rms(c)
DAV:   1    -0.851846837687E+03   -0.14379E-03   -0.20857E-02  3880   0.283E-01    0.293E-02
DAV:   2    -0.851846865673E+03   -0.27986E-04   -0.40491E-04  3880   0.354E-02    0.224E-02
DAV:   3    -0.851846865380E+03    0.29279E-06   -0.66896E-06  4220   0.565E-03
  60 F= -.85975238E+03 E0= -.85975238E+03  d E =-.131962E-03  mag=    -0.0000
       N       E                     dE             d eps       ncg     rms          rms(c)
DAV:   1    -0.851847063009E+03   -0.19734E-03   -0.29106E-02  3880   0.324E-01    0.352E-02
DAV:   2    -0.851847100055E+03   -0.37046E-04   -0.54627E-04  3840   0.397E-02    0.267E-02
DAV:   3    -0.851847100418E+03   -0.36256E-06   -0.84904E-06  4180   0.631E-03
  61 F= -.85975256E+03 E0= -.85975256E+03  d E =-.184263E-03  mag=    -0.0000
       N       E                     dE             d eps       ncg     rms          rms(c)
DAV:   1    -0.851847361480E+03   -0.26143E-03   -0.40648E-02  3880   0.378E-01    0.423E-02
DAV:   2    -0.851847412133E+03   -0.50653E-04   -0.75215E-04  3840   0.462E-02    0.320E-02
DAV:   3    -0.851847412857E+03   -0.72432E-06   -0.12379E-05  4400   0.751E-03    0.244E-02
DAV:   4    -0.851847427656E+03   -0.14798E-04   -0.23548E-05  3720   0.103E-02    0.442E-03
DAV:   5    -0.851847428025E+03   -0.36881E-06   -0.47001E-06  3920   0.414E-03
  62 F= -.85975283E+03 E0= -.85975283E+03  d E =-.264539E-03  mag=    -0.0000
       N       E                     dE             d eps       ncg     rms          rms(c)
DAV:   1    -0.851847718512E+03   -0.29086E-03   -0.60797E-02  3880   0.452E-01    0.506E-02
DAV:   2    -0.851847805072E+03   -0.86559E-04   -0.12081E-03  3840   0.571E-02    0.376E-02
DAV:   3    -0.851847803698E+03    0.13733E-05   -0.18138E-05  4520   0.902E-03    0.290E-02
DAV:   4    -0.851847822053E+03   -0.18354E-04   -0.40912E-05  3720   0.132E-02    0.531E-03
DAV:   5    -0.851847822473E+03   -0.42027E-06   -0.76339E-06  4240   0.514E-03
  63 F= -.85975315E+03 E0= -.85975315E+03  d E =-.319211E-03  mag=    -0.0000
       N       E                     dE             d eps       ncg     rms          rms(c)
DAV:   1    -0.851848130953E+03   -0.30890E-03   -0.10047E-01  3880   0.571E-01    0.636E-02
DAV:   2    -0.851848284207E+03   -0.15325E-03   -0.20606E-03  3840   0.729E-02    0.474E-02
DAV:   3    -0.851848281563E+03    0.26433E-05   -0.28458E-05  4500   0.110E-02    0.370E-02
DAV:   4    -0.851848307839E+03   -0.26276E-04   -0.75278E-05  3820   0.169E-02    0.686E-03
DAV:   5    -0.851848308727E+03   -0.88805E-06   -0.13362E-05  4340   0.652E-03    0.553E-03
DAV:   6    -0.851848308787E+03   -0.59248E-07   -0.16631E-06  3080   0.308E-03
  64 F= -.85975354E+03 E0= -.85975354E+03  d E =-.394333E-03  mag=     0.0000
       N       E                     dE             d eps       ncg     rms          rms(c)
DAV:   1    -0.851848614611E+03   -0.30588E-03   -0.14650E-01  3880   0.706E-01    0.755E-02
DAV:   2    -0.851848848800E+03   -0.23419E-03   -0.30677E-03  3840   0.901E-02    0.553E-02
DAV:   3    -0.851848844317E+03    0.44836E-05   -0.40956E-05  4540   0.133E-02    0.433E-02
DAV:   4    -0.851848879600E+03   -0.35283E-04   -0.10055E-04  3820   0.201E-02    0.795E-03
DAV:   5    -0.851848880832E+03   -0.12321E-05   -0.18341E-05  4340   0.777E-03    0.634E-03
DAV:   6    -0.851848880916E+03   -0.84263E-07   -0.23139E-06  3300   0.364E-03
  65 F= -.85975400E+03 E0= -.85975400E+03  d E =-.456160E-03  mag=    -0.0000
       N       E                     dE             d eps       ncg     rms          rms(c)
DAV:   1    -0.851849084077E+03   -0.20324E-03   -0.21534E-01  3900   0.890E-01    0.896E-02
DAV:   2    -0.851849450514E+03   -0.36644E-03   -0.46838E-03  3840   0.114E-01    0.638E-02
DAV:   3    -0.851849444895E+03    0.56192E-05   -0.59924E-05  4620   0.164E-02    0.499E-02
DAV:   4    -0.851849497440E+03   -0.52546E-04   -0.11914E-04  3900   0.235E-02    0.922E-03
DAV:   5    -0.851849499276E+03   -0.18357E-05   -0.23572E-05  4340   0.918E-03    0.707E-03
DAV:   6    -0.851849499264E+03    0.11729E-07   -0.32444E-06  3460   0.421E-03
  66 F= -.85975448E+03 E0= -.85975448E+03  d E =-.482401E-03  mag=    -0.0000
       N       E                     dE             d eps       ncg     rms          rms(c)
DAV:   1    -0.851849450756E+03    0.48520E-04   -0.36109E-01  3920   0.116E+00    0.112E-01
DAV:   2    -0.851850099589E+03   -0.64883E-03   -0.81414E-03  3840   0.150E-01    0.802E-02
DAV:   3    -0.851850084859E+03    0.14730E-04   -0.98770E-05  4600   0.209E-02    0.633E-02
DAV:   4    -0.851850158766E+03   -0.73907E-04   -0.22532E-04  4340   0.310E-02    0.124E-02
DAV:   5    -0.851850162980E+03   -0.42139E-05   -0.42178E-05  4300   0.118E-02    0.942E-03
DAV:   6    -0.851850163268E+03   -0.28795E-06   -0.50706E-06  3740   0.526E-03
  67 F= -.85975499E+03 E0= -.85975499E+03  d E =-.508909E-03  mag=     0.0000
       N       E                     dE             d eps       ncg     rms          rms(c)
DAV:   1    -0.851849827563E+03    0.33542E-03   -0.48827E-01  3900   0.140E+00    0.131E-01
DAV:   2    -0.851850747519E+03   -0.91996E-03   -0.11298E-02  3880   0.181E-01    0.902E-02
DAV:   3    -0.851850728067E+03    0.19452E-04   -0.14684E-04  4760   0.259E-02    0.707E-02
DAV:   4    -0.851850825344E+03   -0.97277E-04   -0.21348E-04  4280   0.341E-02    0.153E-02
DAV:   5    -0.851850832958E+03   -0.76139E-05   -0.47328E-05  4320   0.131E-02    0.102E-02
DAV:   6    -0.851850832673E+03    0.28503E-06   -0.76253E-06  3720   0.614E-03
  68 F= -.85975547E+03 E0= -.85975547E+03  d E =-.479575E-03  mag=     0.0000
       N       E                     dE             d eps       ncg     rms          rms(c)
DAV:   1    -0.851849647000E+03    0.11860E-02   -0.78593E-01  3880   0.174E+00    0.166E-01
DAV:   2    -0.851851166494E+03   -0.15195E-02   -0.18454E-02  4020   0.232E-01    0.122E-01
DAV:   3    -0.851851101578E+03    0.64916E-04   -0.26068E-04  4720   0.341E-02    0.969E-02
DAV:   4    -0.851851175024E+03   -0.73446E-04   -0.51213E-04  4220   0.480E-02    0.235E-02
DAV:   5    -0.851851198860E+03   -0.23836E-04   -0.10920E-04  4240   0.186E-02    0.157E-02
DAV:   6    -0.851851200002E+03   -0.11421E-05   -0.13687E-05  4100   0.868E-03    0.728E-03
DAV:   7    -0.851851200812E+03   -0.81008E-06   -0.31410E-06  3720   0.361E-03
  69 F= -.85975563E+03 E0= -.85975563E+03  d E =-.163621E-03  mag=    -0.0000
       N       E                     dE             d eps       ncg     rms          rms(c)
DAV:   1    -0.851851748834E+03   -0.54883E-03   -0.26584E-02  3920   0.359E-01    0.361E-02
DAV:   2    -0.851851803329E+03   -0.54495E-04   -0.73330E-04  4600   0.525E-02    0.335E-02
DAV:   3    -0.851851793336E+03    0.99932E-05   -0.24950E-05  4920   0.103E-02    0.274E-02
DAV:   4    -0.851851780542E+03    0.12794E-04   -0.28249E-05  4240   0.122E-02    0.118E-02
DAV:   5    -0.851851780372E+03    0.16928E-06   -0.10498E-05  4040   0.628E-03    0.477E-03
DAV:   6    -0.851851780411E+03   -0.38126E-07   -0.93264E-07  2500   0.221E-03
  70 F= -.85975619E+03 E0= -.85975619E+03  d E =-.561900E-03  mag=    -0.0000
       N       E                     dE             d eps       ncg     rms          rms(c)
DAV:   1    -0.851851441402E+03    0.33897E-03   -0.22120E-02  3900   0.335E-01    0.338E-02
DAV:   2    -0.851851488667E+03   -0.47265E-04   -0.62419E-04  4600   0.493E-02    0.308E-02
DAV:   3    -0.851851480515E+03    0.81528E-05   -0.22858E-05  4860   0.989E-03    0.250E-02
DAV:   4    -0.851851471345E+03    0.91698E-05   -0.21745E-05  4120   0.110E-02    0.110E-02
DAV:   5    -0.851851471361E+03   -0.16429E-07   -0.82288E-06  4020   0.576E-03
  71 F= -.85975585E+03 E0= -.85975585E+03  d E =0.342112E-03  mag=    -0.0000
       N       E                     dE             d eps       ncg     rms          rms(c)
DAV:   1    -0.851851658571E+03   -0.18723E-03   -0.15326E-03  3900   0.833E-02    0.850E-03
DAV:   2    -0.851851661455E+03   -0.28836E-05   -0.42258E-05  4520   0.123E-02    0.809E-03
DAV:   3    -0.851851660820E+03    0.63479E-06   -0.11297E-06  2780   0.243E-03
  72 F= -.85975604E+03 E0= -.85975604E+03  d E =-.189673E-03  mag=     0.0000
       N       E                     dE             d eps       ncg     rms          rms(c)
DAV:   1    -0.851851864451E+03   -0.20300E-03   -0.46982E-03  3880   0.145E-01    0.161E-02
DAV:   2    -0.851851872596E+03   -0.81450E-05   -0.11528E-04  4620   0.203E-02    0.147E-02
DAV:   3    -0.851851870751E+03    0.18454E-05   -0.36613E-06  3560   0.413E-03    0.119E-02
DAV:   4    -0.851851868904E+03    0.18464E-05   -0.79803E-06  3980   0.621E-03    0.401E-03
DAV:   5    -0.851851868996E+03   -0.91633E-07   -0.15074E-06  2600   0.236E-03
  73 F= -.85975625E+03 E0= -.85975625E+03  d E =-.207869E-03  mag=    -0.0000
       N       E                     dE             d eps       ncg     rms          rms(c)
DAV:   1    -0.851851910814E+03   -0.41909E-04   -0.69365E-03  3880   0.175E-01    0.176E-02
DAV:   2    -0.851851924820E+03   -0.14006E-04   -0.18226E-04  4540   0.252E-02    0.160E-02
DAV:   3    -0.851851922663E+03    0.21572E-05   -0.52399E-06  3940   0.482E-03    0.131E-02
DAV:   4    -0.851851920206E+03    0.24570E-05   -0.87687E-06  3940   0.644E-03    0.515E-03
DAV:   5    -0.851851920332E+03   -0.12610E-06   -0.19583E-06  2860   0.270E-03
  74 F= -.85975630E+03 E0= -.85975630E+03  d E =-.487553E-04  mag=     0.0000
       N       E                     dE             d eps       ncg     rms          rms(c)
DAV:   1    -0.851851924694E+03   -0.44879E-05   -0.44806E-06  3560   0.484E-03    0.133E-03
DAV:   2    -0.851851924694E+03   -0.32742E-09   -0.21858E-07  2100   0.101E-03
  75 F= -.85975630E+03 E0= -.85975630E+03  d E =-.379178E-05  mag=     0.0000
       N       E                     dE             d eps       ncg     rms          rms(c)
DAV:   1    -0.851851932711E+03   -0.80176E-05   -0.13628E-05  3900   0.831E-03    0.136E-03
DAV:   2    -0.851851932731E+03   -0.19449E-07   -0.34151E-07  2180   0.125E-03
  76 F= -.85975631E+03 E0= -.85975631E+03  d E =-.681857E-05  mag=     0.0000
       N       E                     dE             d eps       ncg     rms          rms(c)
DAV:   1    -0.851851943673E+03   -0.10962E-04   -0.28677E-05  3900   0.120E-02    0.197E-03
DAV:   2    -0.851851943704E+03   -0.31185E-07   -0.68696E-07  2260   0.175E-03
  77 F= -.85975632E+03 E0= -.85975632E+03  d E =-.918382E-05  mag=    -0.0000
       N       E                     dE             d eps       ncg     rms          rms(c)
DAV:   1    -0.851851956547E+03   -0.12874E-04   -0.44948E-05  3940   0.149E-02    0.258E-03
DAV:   2    -0.851851956592E+03   -0.44696E-07   -0.10341E-06  2560   0.213E-03
  78 F= -.85975633E+03 E0= -.85975633E+03  d E =-.104776E-04  mag=     0.0000
       N       E                     dE             d eps       ncg     rms          rms(c)
DAV:   1    -0.851851970507E+03   -0.13960E-04   -0.60348E-05  3900   0.171E-02    0.303E-03
DAV:   2    -0.851851970564E+03   -0.57385E-07   -0.13315E-06  2810   0.240E-03
  79 F= -.85975634E+03 E0= -.85975634E+03  d E =-.109389E-04  mag=     0.0000
       N       E                     dE             d eps       ncg     rms          rms(c)
DAV:   1    -0.851851985139E+03   -0.14633E-04   -0.73148E-05  3880   0.184E-02    0.335E-03
DAV:   2    -0.851851985200E+03   -0.60303E-07   -0.15090E-06  2800   0.250E-03
  80 F= -.85975635E+03 E0= -.85975635E+03  d E =-.110419E-04  mag=    -0.0000
       N       E                     dE             d eps       ncg     rms          rms(c)
DAV:   1    -0.851852002360E+03   -0.17221E-04   -0.10470E-04  3880   0.211E-02    0.375E-03
DAV:   2    -0.851852002446E+03   -0.86453E-07   -0.20348E-06  3120   0.276E-03
  81 F= -.85975636E+03 E0= -.85975636E+03  d E =-.126631E-04  mag=     0.0000
       N       E                     dE             d eps       ncg     rms          rms(c)
DAV:   1    -0.851852023199E+03   -0.20839E-04   -0.15289E-04  3880   0.239E-02    0.436E-03
DAV:   2    -0.851852023301E+03   -0.10221E-06   -0.27591E-06  3020   0.301E-03
  82 F= -.85975638E+03 E0= -.85975638E+03  d E =-.151719E-04  mag=     0.0000
       N       E                     dE             d eps       ncg     rms          rms(c)
DAV:   1    -0.851852050141E+03   -0.26942E-04   -0.23818E-04  3880   0.279E-02    0.518E-03
DAV:   2    -0.851852050290E+03   -0.14870E-06   -0.41422E-06  3180   0.340E-03
  83 F= -.85975640E+03 E0= -.85975640E+03  d E =-.201166E-04  mag=    -0.0000
       N       E                     dE             d eps       ncg     rms          rms(c)
DAV:   1    -0.851852085335E+03   -0.35193E-04   -0.39837E-04  3880   0.346E-02    0.644E-03
DAV:   2    -0.851852085578E+03   -0.24321E-06   -0.68859E-06  3420   0.413E-03
  84 F= -.85975642E+03 E0= -.85975642E+03  d E =-.270362E-04  mag=     0.0000
       N       E                     dE             d eps       ncg     rms          rms(c)
DAV:   1    -0.851852129888E+03   -0.44554E-04   -0.67139E-04  3900   0.447E-02    0.823E-03
DAV:   2    -0.851852130317E+03   -0.42821E-06   -0.11917E-05  3860   0.539E-03    0.663E-03
DAV:   3    -0.851852130505E+03   -0.18819E-06   -0.37343E-07  2580   0.138E-03
  85 F= -.85975646E+03 E0= -.85975646E+03  d E =-.350783E-04  mag=    -0.0000
       N       E                     dE             d eps       ncg     rms          rms(c)
DAV:   1    -0.851852183756E+03   -0.53439E-04   -0.10888E-03  3880   0.570E-02    0.706E-03
DAV:   2    -0.851852185154E+03   -0.13984E-05   -0.19525E-05  4080   0.681E-03    0.554E-03
DAV:   3    -0.851852185149E+03    0.52314E-08   -0.30454E-07  2720   0.120E-03
  86 F= -.85975650E+03 E0= -.85975650E+03  d E =-.427101E-04  mag=     0.0000
       N       E                     dE             d eps       ncg     rms          rms(c)
DAV:   1    -0.851852247133E+03   -0.61979E-04   -0.16880E-03  3880   0.705E-02    0.872E-03
DAV:   2    -0.851852249295E+03   -0.21622E-05   -0.30506E-05  4140   0.843E-03    0.689E-03
DAV:   3    -0.851852249243E+03    0.51616E-07   -0.46372E-07  2820   0.146E-03
  87 F= -.85975655E+03 E0= -.85975655E+03  d E =-.495793E-04  mag=    -0.0000
       N       E                     dE             d eps       ncg     rms          rms(c)
DAV:   1    -0.851852323278E+03   -0.73983E-04   -0.23572E-03  3880   0.830E-02    0.104E-02
DAV:   2    -0.851852326098E+03   -0.28195E-05   -0.41103E-05  4040   0.974E-03    0.816E-03
DAV:   3    -0.851852326091E+03    0.68394E-08   -0.61569E-07  3030   0.167E-03
  88 F= -.85975661E+03 E0= -.85975661E+03  d E =-.593400E-04  mag=     0.0000
       N       E                     dE             d eps       ncg     rms          rms(c)
DAV:   1    -0.851852419382E+03   -0.93284E-04   -0.31984E-03  3880   0.975E-02    0.123E-02
DAV:   2    -0.851852423013E+03   -0.36313E-05   -0.54595E-05  3980   0.114E-02    0.951E-03
DAV:   3    -0.851852423089E+03   -0.76536E-07   -0.84934E-07  2990   0.197E-03
  89 F= -.85975669E+03 E0= -.85975669E+03  d E =-.753874E-04  mag=     0.0000
       N       E                     dE             d eps       ncg     rms          rms(c)
DAV:   1    -0.851852534916E+03   -0.11190E-03   -0.45218E-03  3880   0.118E-01    0.149E-02
DAV:   2    -0.851852539974E+03   -0.50579E-05   -0.77324E-05  3960   0.139E-02    0.114E-02
DAV:   3    -0.851852540108E+03   -0.13388E-06   -0.13054E-06  3190   0.245E-03
  90 F= -.85975678E+03 E0= -.85975678E+03  d E =-.909045E-04  mag=     0.0000
       N       E                     dE             d eps       ncg     rms          rms(c)
DAV:   1    -0.851852670897E+03   -0.13092E-03   -0.65256E-03  3880   0.143E-01    0.180E-02
DAV:   2    -0.851852678105E+03   -0.72082E-05   -0.11160E-04  4000   0.168E-02    0.139E-02
DAV:   3    -0.851852678285E+03   -0.18045E-06   -0.19194E-06  3260   0.296E-03
  91 F= -.85975688E+03 E0= -.85975688E+03  d E =-.106833E-03  mag=    -0.0000
       N       E                     dE             d eps       ncg     rms          rms(c)
DAV:   1    -0.851852830615E+03   -0.15251E-03   -0.10186E-02  3880   0.175E-01    0.222E-02
DAV:   2    -0.851852842087E+03   -0.11472E-04   -0.17545E-04  3940   0.205E-02    0.171E-02
DAV:   3    -0.851852842344E+03   -0.25788E-06   -0.28793E-06  3460   0.355E-03
  92 F= -.85975701E+03 E0= -.85975701E+03  d E =-.125963E-03  mag=    -0.0000
       N       E                     dE             d eps       ncg     rms          rms(c)
DAV:   1    -0.851853022994E+03   -0.18091E-03   -0.16091E-02  3880   0.217E-01    0.274E-02
DAV:   2    -0.851853042242E+03   -0.19248E-04   -0.28385E-04  3940   0.257E-02    0.211E-02
DAV:   3    -0.851853042342E+03   -0.10010E-06   -0.44491E-06  3660   0.433E-03
  93 F= -.85975716E+03 E0= -.85975716E+03  d E =-.153410E-03  mag=    -0.0000
       N       E                     dE             d eps       ncg     rms          rms(c)
DAV:   1    -0.851853251957E+03   -0.20971E-03   -0.24692E-02  3880   0.269E-01    0.338E-02
DAV:   2    -0.851853281895E+03   -0.29939E-04   -0.43990E-04  3860   0.321E-02    0.259E-02
DAV:   3    -0.851853282289E+03   -0.39344E-06   -0.67755E-06  3820   0.533E-03
  94 F= -.85975735E+03 E0= -.85975735E+03  d E =-.181895E-03  mag=    -0.0000
       N       E                     dE             d eps       ncg     rms          rms(c)
DAV:   1    -0.851853526997E+03   -0.24510E-03   -0.33515E-02  3880   0.319E-01    0.399E-02
DAV:   2    -0.851853566316E+03   -0.39320E-04   -0.59172E-04  3840   0.381E-02    0.303E-02
DAV:   3    -0.851853567868E+03   -0.15517E-05   -0.95316E-06  4160   0.641E-03    0.228E-02
DAV:   4    -0.851853579900E+03   -0.12032E-04   -0.20732E-05  3720   0.901E-03    0.388E-03
DAV:   5    -0.851853580022E+03   -0.12270E-06   -0.37472E-06  3600   0.349E-03
  95 F= -.85975757E+03 E0= -.85975757E+03  d E =-.227846E-03  mag=     0.0000
       N       E                     dE             d eps       ncg     rms          rms(c)
DAV:   1    -0.851853834731E+03   -0.25483E-03   -0.47309E-02  3900   0.389E-01    0.465E-02
DAV:   2    -0.851853899052E+03   -0.64321E-04   -0.91559E-04  3840   0.489E-02    0.347E-02
DAV:   3    -0.851853898638E+03    0.41345E-06   -0.14980E-05  4440   0.822E-03    0.264E-02
DAV:   4    -0.851853912594E+03   -0.13956E-04   -0.31339E-05  3720   0.117E-02    0.497E-03
DAV:   5    -0.851853912910E+03   -0.31518E-06   -0.59649E-06  4120   0.456E-03
  96 F= -.85975782E+03 E0= -.85975782E+03  d E =-.250930E-03  mag=    -0.0000
       N       E                     dE             d eps       ncg     rms          rms(c)
DAV:   1    -0.851854167274E+03   -0.25468E-03   -0.74081E-02  3900   0.481E-01    0.567E-02
DAV:   2    -0.851854274029E+03   -0.10675E-03   -0.14777E-03  3840   0.612E-02    0.423E-02
DAV:   3    -0.851854272239E+03    0.17897E-05   -0.21913E-05  4460   0.978E-03    0.326E-02
DAV:   4    -0.851854292833E+03   -0.20593E-04   -0.56035E-05  3760   0.149E-02    0.606E-03
DAV:   5    -0.851854293398E+03   -0.56510E-06   -0.99945E-06  4240   0.567E-03
  97 F= -.85975811E+03 E0= -.85975811E+03  d E =-.283731E-03  mag=    -0.0000
       N       E                     dE             d eps       ncg     rms          rms(c)
DAV:   1    -0.851854551684E+03   -0.25885E-03   -0.10545E-01  3880   0.583E-01    0.671E-02
DAV:   2    -0.851854710487E+03   -0.15880E-03   -0.21582E-03  3840   0.747E-02    0.495E-02
DAV:   3    -0.851854708202E+03    0.22849E-05   -0.30528E-05  4480   0.116E-02    0.383E-02
DAV:   4    -0.851854738460E+03   -0.30258E-04   -0.76364E-05  3780   0.176E-02    0.703E-03
DAV:   5    -0.851854739226E+03   -0.76639E-06   -0.13742E-05  4300   0.671E-03    0.568E-03
DAV:   6    -0.851854739073E+03    0.15358E-06   -0.20132E-06  3230   0.362E-03
  98 F= -.85975844E+03 E0= -.85975844E+03  d E =-.330350E-03  mag=     0.0000
       N       E                     dE             d eps       ncg     rms          rms(c)
DAV:   1    -0.851855005444E+03   -0.26622E-03   -0.14393E-01  3880   0.705E-01    0.782E-02
DAV:   2    -0.851855227810E+03   -0.22237E-03   -0.29876E-03  3860   0.905E-02    0.567E-02
DAV:   3    -0.851855224515E+03    0.32951E-05   -0.43297E-05  4580   0.140E-02    0.436E-02
DAV:   4    -0.851855264657E+03   -0.40142E-04   -0.89437E-05  3880   0.201E-02    0.809E-03
DAV:   5    -0.851855265902E+03   -0.12452E-05   -0.17096E-05  4320   0.776E-03    0.622E-03
DAV:   6    -0.851855265734E+03    0.16880E-06   -0.27334E-06  3320   0.416E-03
  99 F= -.85975883E+03 E0= -.85975883E+03  d E =-.393136E-03  mag=    -0.0000
       N       E                     dE             d eps       ncg     rms          rms(c)
DAV:   1    -0.851855456762E+03   -0.19086E-03   -0.23327E-01  3880   0.887E-01    0.970E-02
DAV:   2    -0.851855835887E+03   -0.37912E-03   -0.49689E-03  3860   0.114E-01    0.704E-02
DAV:   3    -0.851855828347E+03    0.75401E-05   -0.67080E-05  4520   0.170E-02    0.548E-02
DAV:   4    -0.851855885981E+03   -0.57635E-04   -0.16159E-04  4100   0.256E-02    0.103E-02
DAV:   5    -0.851855888568E+03   -0.25871E-05   -0.29427E-05  4320   0.980E-03    0.817E-03
DAV:   6    -0.851855888729E+03   -0.16035E-06   -0.42136E-06  3620   0.502E-03
 100 F= -.85975929E+03 E0= -.85975929E+03  d E =-.462881E-03  mag=     0.0000
       N       E                     dE             d eps       ncg     rms          rms(c)
DAV:   1    -0.851855992749E+03   -0.10418E-03   -0.29973E-01  3880   0.104E+00    0.111E-01
DAV:   2    -0.851856479907E+03   -0.48716E-03   -0.64152E-03  3880   0.133E-01    0.793E-02
DAV:   3    -0.851856474133E+03    0.57739E-05   -0.96152E-05  4700   0.206E-02    0.611E-02
DAV:   4    -0.851856553253E+03   -0.79120E-04   -0.16019E-04  4240   0.277E-02    0.124E-02
DAV:   5    -0.851856557587E+03   -0.43336E-05   -0.32871E-05  4300   0.109E-02    0.873E-03
DAV:   6    -0.851856557533E+03    0.53740E-07   -0.57210E-06  3680   0.534E-03
 101 F= -.85975978E+03 E0= -.85975978E+03  d E =-.484033E-03  mag=    -0.0000
       N       E                     dE             d eps       ncg     rms          rms(c)
DAV:   1    -0.851856079058E+03    0.47853E-03   -0.53520E-01  3880   0.137E+00    0.145E-01
DAV:   2    -0.851857020578E+03   -0.94152E-03   -0.11995E-02  4060   0.181E-01    0.108E-01
DAV:   3    -0.851856981258E+03    0.39320E-04   -0.18259E-04  4680   0.279E-02    0.847E-02
DAV:   4    -0.851857069182E+03   -0.87923E-04   -0.39844E-04  4120   0.410E-02    0.193E-02
DAV:   5    -0.851857082400E+03   -0.13218E-04   -0.79351E-05  4220   0.158E-02    0.135E-02
DAV:   6    -0.851857083312E+03   -0.91219E-06   -0.10334E-05  3960   0.702E-03    0.614E-03
DAV:   7    -0.851857083761E+03   -0.44907E-06   -0.18939E-06  3100   0.285E-03
 102 F= -.85976009E+03 E0= -.85976009E+03  d E =-.309796E-03  mag=     0.0000
       N       E                     dE             d eps       ncg     rms          rms(c)
DAV:   1    -0.851857497522E+03   -0.41421E-03   -0.23048E-02  3920   0.342E-01    0.337E-02
DAV:   2    -0.851857544408E+03   -0.46886E-04   -0.62889E-04  4640   0.502E-02    0.310E-02
DAV:   3    -0.851857535421E+03    0.89867E-05   -0.21896E-05  4940   0.978E-03    0.252E-02
DAV:   4    -0.851857524356E+03    0.11065E-04   -0.25214E-05  4200   0.118E-02    0.104E-02
DAV:   5    -0.851857524302E+03    0.54024E-07   -0.85020E-06  3980   0.574E-03
 103 F= -.85976053E+03 E0= -.85976053E+03  d E =-.441300E-03  mag=     0.0000
       N       E                     dE             d eps       ncg     rms          rms(c)
DAV:   1    -0.851857531725E+03   -0.73685E-05   -0.41935E-05  3880   0.136E-02    0.220E-03
DAV:   2    -0.851857531784E+03   -0.59241E-07   -0.10953E-06  2560   0.208E-03
 104 F= -.85976054E+03 E0= -.85976054E+03  d E =-.642704E-05  mag=     0.0000
       N       E                     dE             d eps       ncg     rms          rms(c)
DAV:   1    -0.851857545619E+03   -0.13894E-04   -0.15526E-04  3880   0.257E-02    0.305E-03
DAV:   2    -0.851857545832E+03   -0.21380E-06   -0.33954E-06  3260   0.341E-03
 105 F= -.85976055E+03 E0= -.85976055E+03  d E =-.118692E-04  mag=    -0.0000
       N       E                     dE             d eps       ncg     rms          rms(c)
DAV:   1    -0.851857565116E+03   -0.19497E-04   -0.32859E-04  3880   0.370E-02    0.477E-03
DAV:   2    -0.851857565525E+03   -0.40882E-06   -0.72181E-06  4060   0.482E-03
 106 F= -.85976056E+03 E0= -.85976056E+03  d E =-.162678E-04  mag=    -0.0000
       N       E                     dE             d eps       ncg     rms          rms(c)
DAV:   1    -0.851857590012E+03   -0.24896E-04   -0.54194E-04  3920   0.467E-02    0.650E-03
DAV:   2    -0.851857590634E+03   -0.62194E-06   -0.11616E-05  4000   0.591E-03    0.506E-03
DAV:   3    -0.851857590682E+03   -0.48516E-07   -0.23030E-07  2320   0.120E-03
 107 F= -.85976058E+03 E0= -.85976058E+03  d E =-.205576E-04  mag=    -0.0000
       N       E                     dE             d eps       ncg     rms          rms(c)
DAV:   1    -0.851857621351E+03   -0.30717E-04   -0.79223E-04  3900   0.557E-02    0.565E-03
DAV:   2    -0.851857622638E+03   -0.12873E-05   -0.16673E-05  3960   0.684E-03    0.381E-03
DAV:   3    -0.851857622666E+03   -0.27598E-07   -0.16118E-07  2280   0.968E-04
 108 F= -.85976061E+03 E0= -.85976061E+03  d E =-.258975E-04  mag=     0.0000
       N       E                     dE             d eps       ncg     rms          rms(c)
DAV:   1    -0.851857659536E+03   -0.36897E-04   -0.11325E-03  3920   0.661E-02    0.649E-03
DAV:   2    -0.851857661495E+03   -0.19597E-05   -0.24607E-05  3900   0.823E-03    0.430E-03
DAV:   3    -0.851857661501E+03   -0.56534E-08   -0.24635E-07  2400   0.114E-03
 109 F= -.85976064E+03 E0= -.85976064E+03  d E =-.312801E-04  mag=     0.0000
       N       E                     dE             d eps       ncg     rms          rms(c)
DAV:   1    -0.851857708349E+03   -0.46854E-04   -0.19306E-03  3900   0.860E-02    0.847E-03
DAV:   2    -0.851857711727E+03   -0.33776E-05   -0.42314E-05  3880   0.108E-02    0.561E-03
DAV:   3    -0.851857711744E+03   -0.16931E-07   -0.41530E-07  2800   0.147E-03
 110 F= -.85976068E+03 E0= -.85976068E+03  d E =-.399650E-04  mag=    -0.0000
       N       E                     dE             d eps       ncg     rms          rms(c)
DAV:   1    -0.851857769888E+03   -0.58161E-04   -0.31585E-03  3900   0.109E-01    0.108E-02
DAV:   2    -0.851857775460E+03   -0.55722E-05   -0.69381E-05  3880   0.137E-02    0.714E-03
DAV:   3    -0.851857775515E+03   -0.54861E-07   -0.69180E-07  3100   0.185E-03
 111 F= -.85976073E+03 E0= -.85976073E+03  d E =-.500686E-04  mag=    -0.0000
       N       E                     dE             d eps       ncg     rms          rms(c)
DAV:   1    -0.851857848369E+03   -0.72909E-04   -0.51671E-03  3900   0.139E-01    0.138E-02
DAV:   2    -0.851857857495E+03   -0.91254E-05   -0.11366E-04  3880   0.174E-02    0.908E-03
DAV:   3    -0.851857857595E+03   -0.10072E-06   -0.11042E-06  3200   0.231E-03
 112 F= -.85976080E+03 E0= -.85976080E+03  d E =-.645666E-04  mag=    -0.0000
       N       E                     dE             d eps       ncg     rms          rms(c)
DAV:   1    -0.851857944649E+03   -0.87154E-04   -0.83332E-03  3900   0.176E-01    0.175E-02
DAV:   2    -0.851857959287E+03   -0.14638E-04   -0.18346E-04  3880   0.222E-02    0.115E-02
DAV:   3    -0.851857959517E+03   -0.23041E-06   -0.18220E-06  3500   0.291E-03
 113 F= -.85976088E+03 E0= -.85976088E+03  d E =-.803721E-04  mag=     0.0000
       N       E                     dE             d eps       ncg     rms          rms(c)
DAV:   1    -0.851858064845E+03   -0.10556E-03   -0.13442E-02  3920   0.223E-01    0.222E-02
DAV:   2    -0.851858088378E+03   -0.23533E-04   -0.29712E-04  3880   0.281E-02    0.146E-02
DAV:   3    -0.851858088815E+03   -0.43695E-06   -0.30037E-06  3900   0.365E-03
 114 F= -.85976098E+03 E0= -.85976098E+03  d E =-.102853E-03  mag=     0.0000
       N       E                     dE             d eps       ncg     rms          rms(c)
DAV:   1    -0.851858210069E+03   -0.12169E-03   -0.21365E-02  3920   0.281E-01    0.278E-02
DAV:   2    -0.851858247499E+03   -0.37430E-04   -0.47304E-04  3880   0.353E-02    0.183E-02
DAV:   3    -0.851858248201E+03   -0.70260E-06   -0.48101E-06  4180   0.453E-03
 115 F= -.85976111E+03 E0= -.85976111E+03  d E =-.126143E-03  mag=    -0.0000
       N       E                     dE             d eps       ncg     rms          rms(c)
DAV:   1    -0.851858391910E+03   -0.14441E-03   -0.32916E-02  3920   0.348E-01    0.346E-02
DAV:   2    -0.851858449629E+03   -0.57719E-04   -0.72936E-04  3880   0.435E-02    0.228E-02
DAV:   3    -0.851858450815E+03   -0.11860E-05   -0.75463E-06  4520   0.561E-03    0.179E-02
DAV:   4    -0.851858460721E+03   -0.99063E-05   -0.10948E-05  3640   0.744E-03    0.296E-03
DAV:   5    -0.851858461047E+03   -0.32532E-06   -0.24607E-06  3400   0.286E-03
 116 F= -.85976128E+03 E0= -.85976128E+03  d E =-.169753E-03  mag=     0.0000
       N       E                     dE             d eps       ncg     rms          rms(c)
DAV:   1    -0.851858598503E+03   -0.13778E-03   -0.51774E-02  3920   0.437E-01    0.423E-02
DAV:   2    -0.851858697907E+03   -0.99405E-04   -0.12177E-03  3860   0.560E-02    0.275E-02
DAV:   3    -0.851858698065E+03   -0.15715E-06   -0.12302E-05  4660   0.725E-03    0.217E-02
DAV:   4    -0.851858711208E+03   -0.13143E-04   -0.19687E-05  3720   0.996E-03    0.393E-03
DAV:   5    -0.851858711844E+03   -0.63585E-06   -0.44339E-06  4180   0.378E-03
 117 F= -.85976147E+03 E0= -.85976147E+03  d E =-.198470E-03  mag=     0.0000
       N       E                     dE             d eps       ncg     rms          rms(c)
DAV:   1    -0.851858830810E+03   -0.11960E-03   -0.78672E-02  3920   0.538E-01    0.522E-02
DAV:   2    -0.851858982580E+03   -0.15177E-03   -0.18631E-03  3880   0.689E-02    0.340E-02
DAV:   3    -0.851858983401E+03   -0.82091E-06   -0.18458E-05  4640   0.883E-03    0.269E-02
DAV:   4    -0.851859004072E+03   -0.20671E-04   -0.31158E-05  3740   0.122E-02    0.480E-03
DAV:   5    -0.851859004922E+03   -0.84985E-06   -0.67175E-06  4300   0.462E-03
 118 F= -.85976171E+03 E0= -.85976171E+03  d E =-.234921E-03  mag=    -0.0000
       N       E                     dE             d eps       ncg     rms          rms(c)
DAV:   1    -0.851859091813E+03   -0.87741E-04   -0.11131E-01  3920   0.642E-01    0.625E-02
DAV:   2    -0.851859307982E+03   -0.21617E-03   -0.26404E-03  3860   0.827E-02    0.410E-02
DAV:   3    -0.851859309449E+03   -0.14666E-05   -0.26284E-05  4640   0.106E-02    0.324E-02
DAV:   4    -0.851859338182E+03   -0.28733E-04   -0.44127E-05  3720   0.144E-02    0.571E-03
DAV:   5    -0.851859339224E+03   -0.10428E-05   -0.93917E-06  4300   0.552E-03    0.474E-03
DAV:   6    -0.851859339023E+03    0.20119E-06   -0.11600E-06  2960   0.257E-03
 119 F= -.85976197E+03 E0= -.85976197E+03  d E =-.262787E-03  mag=    -0.0000
       N       E                     dE             d eps       ncg     rms          rms(c)
DAV:   1    -0.851859382100E+03   -0.42875E-04   -0.15456E-01  3920   0.759E-01    0.738E-02
DAV:   2    -0.851859685942E+03   -0.30384E-03   -0.36778E-03  3880   0.988E-02    0.492E-02
DAV:   3    -0.851859686432E+03   -0.49008E-06   -0.36954E-05  4640   0.128E-02    0.390E-02
DAV:   4    -0.851859721629E+03   -0.35197E-04   -0.67178E-05  3760   0.181E-02    0.686E-03
DAV:   5    -0.851859723192E+03   -0.15625E-05   -0.14473E-05  4280   0.693E-03    0.582E-03
DAV:   6    -0.851859722969E+03    0.22295E-06   -0.15969E-06  3300   0.310E-03
 120 F= -.85976227E+03 E0= -.85976227E+03  d E =-.295464E-03  mag=     0.0000
       N       E                     dE             d eps       ncg     rms          rms(c)
DAV:   1    -0.851859694487E+03    0.28704E-04   -0.20481E-01  3920   0.877E-01    0.864E-02
DAV:   2    -0.851860098461E+03   -0.40397E-03   -0.48671E-03  3860   0.115E-01    0.588E-02
DAV:   3    -0.851860097894E+03    0.56748E-06   -0.50865E-05  4640   0.152E-02    0.466E-02
DAV:   4    -0.851860140699E+03   -0.42805E-04   -0.95255E-05  3800   0.213E-02    0.848E-03
DAV:   5    -0.851860143082E+03   -0.23827E-05   -0.19926E-05  4300   0.814E-03    0.703E-03
DAV:   6    -0.851860142628E+03    0.45378E-06   -0.25391E-06  3420   0.388E-03
 121 F= -.85976260E+03 E0= -.85976260E+03  d E =-.330457E-03  mag=     0.0000
       N       E                     dE             d eps       ncg     rms          rms(c)
DAV:   1    -0.851860050459E+03    0.92623E-04   -0.25601E-01  3900   0.989E-01    0.986E-02
DAV:   2    -0.851860550094E+03   -0.49964E-03   -0.60295E-03  3860   0.130E-01    0.693E-02
DAV:   3    -0.851860545754E+03    0.43397E-05   -0.70302E-05  4580   0.180E-02    0.548E-02
DAV:   4    -0.851860594194E+03   -0.48440E-04   -0.13066E-04  3900   0.251E-02    0.105E-02
DAV:   5    -0.851860597527E+03   -0.33326E-05   -0.26615E-05  4280   0.967E-03    0.816E-03
DAV:   6    -0.851860597133E+03    0.39359E-06   -0.39740E-06  3740   0.458E-03
 122 F= -.85976295E+03 E0= -.85976295E+03  d E =-.347574E-03  mag=     0.0000
       N       E                     dE             d eps       ncg     rms          rms(c)
DAV:   1    -0.851860338024E+03    0.25950E-03   -0.32070E-01  3880   0.113E+00    0.113E-01
DAV:   2    -0.851860956371E+03   -0.61835E-03   -0.75154E-03  3860   0.151E-01    0.829E-02
DAV:   3    -0.851860941192E+03    0.15179E-04   -0.11139E-04  4780   0.229E-02    0.654E-02
DAV:   4    -0.851860985150E+03   -0.43958E-04   -0.18351E-04  4000   0.306E-02    0.154E-02
DAV:   5    -0.851860992273E+03   -0.71232E-05   -0.39434E-05  4280   0.121E-02    0.103E-02
DAV:   6    -0.851860992204E+03    0.69514E-07   -0.69356E-06  3920   0.583E-03
 123 F= -.85976323E+03 E0= -.85976323E+03  d E =-.280010E-03  mag=     0.0000
       N       E                     dE             d eps       ncg     rms          rms(c)
DAV:   1    -0.851861217566E+03   -0.22529E-03   -0.87026E-03  3880   0.215E-01    0.219E-02
DAV:   2    -0.851861232376E+03   -0.14810E-04   -0.22240E-04  4660   0.312E-02    0.198E-02
DAV:   3    -0.851861227704E+03    0.46720E-05   -0.11991E-05  4880   0.725E-03    0.150E-02
DAV:   4    -0.851861223898E+03    0.38059E-05   -0.94664E-06  3940   0.730E-03    0.663E-03
DAV:   5    -0.851861223742E+03    0.15626E-06   -0.26840E-06  2760   0.350E-03
 124 F= -.85976345E+03 E0= -.85976345E+03  d E =-.221548E-03  mag=    -0.0000
       N       E                     dE             d eps       ncg     rms          rms(c)
DAV:   1    -0.851861121144E+03    0.10275E-03   -0.10563E-02  3840   0.237E-01    0.237E-02
DAV:   2    -0.851861140080E+03   -0.18936E-04   -0.26564E-04  4660   0.344E-02    0.210E-02
DAV:   3    -0.851861135371E+03    0.47083E-05   -0.13336E-05  4880   0.773E-03    0.161E-02
DAV:   4    -0.851861131789E+03    0.35818E-05   -0.11149E-05  4100   0.791E-03    0.709E-03
DAV:   5    -0.851861131761E+03    0.28289E-07   -0.28425E-06  2900   0.363E-03
 125 F= -.85976334E+03 E0= -.85976334E+03  d E =0.109653E-03  mag=    -0.0000
       N       E                     dE             d eps       ncg     rms          rms(c)
DAV:   1    -0.851861198674E+03   -0.66885E-04   -0.41049E-04  3880   0.464E-02    0.497E-03
DAV:   2    -0.851861199284E+03   -0.60977E-06   -0.10986E-05  4680   0.686E-03    0.462E-03
DAV:   3    -0.851861198983E+03    0.30134E-06   -0.51668E-07  2160   0.169E-03
 126 F= -.85976340E+03 E0= -.85976340E+03  d E =-.674071E-04  mag=    -0.0000
       N       E                     dE             d eps       ncg     rms          rms(c)
DAV:   1    -0.851861278498E+03   -0.79214E-04   -0.12543E-03  3880   0.813E-02    0.906E-03
DAV:   2    -0.851861280429E+03   -0.19308E-05   -0.29766E-05  4780   0.114E-02    0.815E-03
DAV:   3    -0.851861279627E+03    0.80216E-06   -0.14027E-06  2700   0.280E-03
 127 F= -.85976349E+03 E0= -.85976349E+03  d E =-.805614E-04  mag=    -0.0000
       N       E                     dE             d eps       ncg     rms          rms(c)
DAV:   1    -0.851861311391E+03   -0.30962E-04   -0.18285E-03  3840   0.983E-02    0.111E-02
DAV:   2    -0.851861314250E+03   -0.28588E-05   -0.41321E-05  4680   0.135E-02    0.982E-03
DAV:   3    -0.851861313243E+03    0.10071E-05   -0.21454E-06  2980   0.339E-03    0.720E-03
DAV:   4    -0.851861312800E+03    0.44257E-06   -0.38897E-06  3640   0.444E-03
 128 F= -.85976352E+03 E0= -.85976352E+03  d E =-.319986E-04  mag=    -0.0000
       N       E                     dE             d eps       ncg     rms          rms(c)
DAV:   1    -0.851861315052E+03   -0.18090E-05   -0.21154E-06  2720   0.327E-03    0.183E-03
DAV:   2    -0.851861315067E+03   -0.15090E-07   -0.16762E-07  2100   0.946E-04
 129 F= -.85976352E+03 E0= -.85976352E+03  d E =-.187664E-05  mag=    -0.0000
       N       E                     dE             d eps       ncg     rms          rms(c)
DAV:   1    -0.851861319666E+03   -0.46145E-05   -0.68589E-06  3560   0.554E-03    0.125E-03
DAV:   2    -0.851861319677E+03   -0.11161E-07   -0.17143E-07  2100   0.911E-04
 130 F= -.85976352E+03 E0= -.85976352E+03  d E =-.382013E-05  mag=     0.0000
       N       E                     dE             d eps       ncg     rms          rms(c)
DAV:   1    -0.851861326339E+03   -0.66726E-05   -0.14525E-05  3640   0.791E-03    0.154E-03
DAV:   2    -0.851861326354E+03   -0.15854E-07   -0.31641E-07  2060   0.119E-03
 131 F= -.85976353E+03 E0= -.85976353E+03  d E =-.549203E-05  mag=     0.0000
       N       E                     dE             d eps       ncg     rms          rms(c)
DAV:   1    -0.851861334689E+03   -0.83501E-05   -0.23599E-05  3700   0.995E-03    0.193E-03
DAV:   2    -0.851861334709E+03   -0.20569E-07   -0.48887E-07  2140   0.144E-03
 132 F= -.85976354E+03 E0= -.85976354E+03  d E =-.681128E-05  mag=    -0.0000
       N       E                     dE             d eps       ncg     rms          rms(c)
DAV:   1    -0.851861344146E+03   -0.94574E-05   -0.32341E-05  3800   0.114E-02    0.227E-03
DAV:   2    -0.851861344172E+03   -0.25633E-07   -0.62565E-07  2220   0.159E-03
 133 F= -.85976354E+03 E0= -.85976354E+03  d E =-.762943E-05  mag=     0.0000
       N       E                     dE             d eps       ncg     rms          rms(c)
DAV:   1    -0.851861354555E+03   -0.10409E-04   -0.39755E-05  3800   0.123E-02    0.253E-03
DAV:   2    -0.851861354584E+03   -0.28820E-07   -0.73744E-07  2280   0.169E-03
 134 F= -.85976355E+03 E0= -.85976355E+03  d E =-.833517E-05  mag=    -0.0000
       N       E                     dE             d eps       ncg     rms          rms(c)
DAV:   1    -0.851861366760E+03   -0.12205E-04   -0.57572E-05  3800   0.145E-02    0.287E-03
DAV:   2    -0.851861366803E+03   -0.43066E-07   -0.10429E-06  2540   0.194E-03
 135 F= -.85976356E+03 E0= -.85976356E+03  d E =-.968584E-05  mag=     0.0000
       N       E                     dE             d eps       ncg     rms          rms(c)
DAV:   1    -0.851861381297E+03   -0.14537E-04   -0.82769E-05  3880   0.168E-02    0.338E-03
DAV:   2    -0.851861381352E+03   -0.54897E-07   -0.14412E-06  2740   0.216E-03
 136 F= -.85976357E+03 E0= -.85976357E+03  d E =-.115093E-04  mag=    -0.0000
       N       E                     dE             d eps       ncg     rms          rms(c)
DAV:   1    -0.851861398882E+03   -0.17584E-04   -0.12148E-04  3880   0.201E-02    0.400E-03
DAV:   2    -0.851861398961E+03   -0.79439E-07   -0.20572E-06  2960   0.253E-03
 137 F= -.85976359E+03 E0= -.85976359E+03  d E =-.140054E-04  mag=    -0.0000
       N       E                     dE             d eps       ncg     rms          rms(c)
DAV:   1    -0.851861420089E+03   -0.21207E-04   -0.18212E-04  3860   0.247E-02    0.480E-03
DAV:   2    -0.851861420209E+03   -0.12040E-06   -0.30774E-06  2940   0.311E-03
 138 F= -.85976360E+03 E0= -.85976360E+03  d E =-.170564E-04  mag=    -0.0000
       N       E                     dE             d eps       ncg     rms          rms(c)
DAV:   1    -0.851861445632E+03   -0.25543E-04   -0.27168E-04  3860   0.304E-02    0.584E-03
DAV:   2    -0.851861445811E+03   -0.17889E-06   -0.45756E-06  3140   0.383E-03
 139 F= -.85976362E+03 E0= -.85976362E+03  d E =-.205981E-04  mag=    -0.0000
       N       E                     dE             d eps       ncg     rms          rms(c)
DAV:   1    -0.851861476374E+03   -0.30742E-04   -0.40834E-04  3840   0.376E-02    0.714E-03
DAV:   2    -0.851861476661E+03   -0.28789E-06   -0.70593E-06  3800   0.476E-03
 140 F= -.85976365E+03 E0= -.85976365E+03  d E =-.248022E-04  mag=     0.0000
       N       E                     dE             d eps       ncg     rms          rms(c)
DAV:   1    -0.851861513312E+03   -0.36939E-04   -0.60896E-04  3880   0.460E-02    0.880E-03
DAV:   2    -0.851861513712E+03   -0.39967E-06   -0.10320E-05  3880   0.574E-03    0.729E-03
DAV:   3    -0.851861513891E+03   -0.17912E-06   -0.45196E-07  2620   0.158E-03
 141 F= -.85976368E+03 E0= -.85976368E+03  d E =-.296310E-04  mag=    -0.0000
       N       E                     dE             d eps       ncg     rms          rms(c)
DAV:   1    -0.851861557655E+03   -0.43943E-04   -0.88544E-04  3880   0.554E-02    0.707E-03
DAV:   2    -0.851861558741E+03   -0.10861E-05   -0.15161E-05  3940   0.682E-03    0.575E-03
DAV:   3    -0.851861558771E+03   -0.30064E-07   -0.23071E-07  2560   0.117E-03
 142 F= -.85976371E+03 E0= -.85976371E+03  d E =-.352821E-04  mag=    -0.0000
       N       E                     dE             d eps       ncg     rms          rms(c)
DAV:   1    -0.851861611064E+03   -0.52322E-04   -0.12955E-03  3880   0.667E-02    0.842E-03
DAV:   2    -0.851861612657E+03   -0.15933E-05   -0.22254E-05  3940   0.822E-03    0.687E-03
DAV:   3    -0.851861612648E+03    0.92550E-08   -0.35400E-07  2720   0.141E-03
 143 F= -.85976376E+03 E0= -.85976376E+03  d E =-.426481E-04  mag=    -0.0000
       N       E                     dE             d eps       ncg     rms          rms(c)
DAV:   1    -0.851861674206E+03   -0.61549E-04   -0.19622E-03  3880   0.818E-02    0.103E-02
DAV:   2    -0.851861676628E+03   -0.24227E-05   -0.33802E-05  3900   0.101E-02    0.843E-03
DAV:   3    -0.851861676616E+03    0.12624E-07   -0.53744E-07  2880   0.171E-03
 144 F= -.85976381E+03 E0= -.85976381E+03  d E =-.510152E-04  mag=     0.0000
       N       E                     dE             d eps       ncg     rms          rms(c)
DAV:   1    -0.851861749735E+03   -0.73107E-04   -0.29353E-03  3880   0.995E-02    0.126E-02
DAV:   2    -0.851861753375E+03   -0.36392E-05   -0.50750E-05  3900   0.122E-02    0.102E-02
DAV:   3    -0.851861753370E+03    0.45402E-08   -0.79907E-07  3100   0.205E-03
 145 F= -.85976387E+03 E0= -.85976387E+03  d E =-.621200E-04  mag=     0.0000
       N       E                     dE             d eps       ncg     rms          rms(c)
DAV:   1    -0.851861841985E+03   -0.88611E-04   -0.45116E-03  3880   0.122E-01    0.155E-02
DAV:   2    -0.851861847672E+03   -0.56865E-05   -0.78781E-05  3900   0.149E-02    0.125E-02
DAV:   3    -0.851861847658E+03    0.13730E-07   -0.11878E-06  3220   0.246E-03
 146 F= -.85976395E+03 E0= -.85976395E+03  d E =-.763249E-04  mag=    -0.0000
       N       E                     dE             d eps       ncg     rms          rms(c)
DAV:   1    -0.851861955620E+03   -0.10795E-03   -0.70273E-03  3880   0.152E-01    0.191E-02
DAV:   2    -0.851861964762E+03   -0.91412E-05   -0.12468E-04  3900   0.187E-02    0.154E-02
DAV:   3    -0.851861964702E+03    0.59772E-07   -0.18041E-06  3380   0.301E-03
 147 F= -.85976404E+03 E0= -.85976404E+03  d E =-.935167E-04  mag=    -0.0000
       N       E                     dE             d eps       ncg     rms          rms(c)
DAV:   1    -0.851862094288E+03   -0.12953E-03   -0.10562E-02  3880   0.188E-01    0.233E-02
DAV:   2    -0.851862108368E+03   -0.14080E-04   -0.19073E-04  3880   0.232E-02    0.187E-02
DAV:   3    -0.851862108338E+03    0.29882E-07   -0.27441E-06  3560   0.368E-03
 148 F= -.85976415E+03 E0= -.85976415E+03  d E =-.113191E-03  mag=    -0.0000
       N       E                     dE             d eps       ncg     rms          rms(c)
DAV:   1    -0.851862263159E+03   -0.15479E-03   -0.15880E-02  3880   0.232E-01    0.285E-02
DAV:   2    -0.851862285194E+03   -0.22035E-04   -0.29399E-04  3900   0.288E-02    0.226E-02
DAV:   3    -0.851862285154E+03    0.40411E-07   -0.40944E-06  3800   0.442E-03
 149 F= -.85976429E+03 E0= -.85976429E+03  d E =-.139352E-03  mag=    -0.0000
       N       E                     dE             d eps       ncg     rms          rms(c)
DAV:   1    -0.851862460019E+03   -0.17482E-03   -0.25261E-02  3880   0.294E-01    0.354E-02
DAV:   2    -0.851862496927E+03   -0.36909E-04   -0.48245E-04  3900   0.366E-02    0.278E-02
DAV:   3    -0.851862496757E+03    0.16976E-06   -0.64692E-06  4020   0.554E-03
 150 F= -.85976446E+03 E0= -.85976446E+03  d E =-.166144E-03  mag=     0.0000
       N       E                     dE             d eps       ncg     rms          rms(c)
DAV:   1    -0.851862687376E+03   -0.19045E-03   -0.40900E-02  3880   0.378E-01    0.440E-02
DAV:   2    -0.851862750191E+03   -0.62815E-04   -0.80525E-04  3860   0.472E-02    0.340E-02
DAV:   3    -0.851862750025E+03    0.16613E-06   -0.10485E-05  4380   0.698E-03    0.261E-02
DAV:   4    -0.851862761632E+03   -0.11607E-04   -0.27818E-05  3700   0.101E-02    0.433E-03
DAV:   5    -0.851862761576E+03    0.55974E-07   -0.45312E-06  3840   0.391E-03
 151 F= -.85976467E+03 E0= -.85976467E+03  d E =-.210971E-03  mag=    -0.0000
       N       E                     dE             d eps       ncg     rms          rms(c)
DAV:   1    -0.851862930440E+03   -0.16881E-03   -0.63952E-02  3900   0.485E-01    0.527E-02
DAV:   2    -0.851863044149E+03   -0.11371E-03   -0.13994E-03  3840   0.626E-02    0.394E-02
[...]
DAV:   1    -0.851881014449E+03   -0.78898E-04   -0.19218E-02  3880   0.293E-01    0.295E-02
DAV:   2    -0.851881039075E+03   -0.24626E-04   -0.35311E-04  3900   0.366E-02    0.226E-02
DAV:   3    -0.851881038735E+03    0.34013E-06   -0.88619E-06  4580   0.682E-03
 407 F= -.85977757E+03 E0= -.85977757E+03  d E =-.699331E-04  mag=    -0.0000
       N       E                     dE             d eps       ncg     rms          rms(c)
DAV:   1    -0.851881118802E+03   -0.79727E-04   -0.29422E-02  3880   0.363E-01    0.361E-02
DAV:   2    -0.851881158484E+03   -0.39682E-04   -0.55707E-04  3860   0.458E-02    0.277E-02
DAV:   3    -0.851881157796E+03    0.68803E-06   -0.12569E-05  4540   0.818E-03    0.201E-02
DAV:   4    -0.851881164689E+03   -0.68930E-05   -0.17282E-05  3700   0.991E-03    0.433E-03
DAV:   5    -0.851881164823E+03   -0.13453E-06   -0.46244E-06  3960   0.424E-03
 408 F= -.85977766E+03 E0= -.85977766E+03  d E =-.872055E-04  mag=     0.0000
       N       E                     dE             d eps       ncg     rms          rms(c)
DAV:   1    -0.851881235643E+03   -0.70954E-04   -0.44037E-02  3900   0.446E-01    0.418E-02
DAV:   2    -0.851881304120E+03   -0.68477E-04   -0.91687E-04  3860   0.589E-02    0.317E-02
DAV:   3    -0.851881300396E+03    0.37239E-05   -0.19704E-05  4720   0.102E-02    0.236E-02
DAV:   4    -0.851881307082E+03   -0.66864E-05   -0.29862E-05  3760   0.129E-02    0.563E-03
DAV:   5    -0.851881307468E+03   -0.38617E-06   -0.70514E-06  4260   0.523E-03
 409 F= -.85977776E+03 E0= -.85977776E+03  d E =-.100457E-03  mag=    -0.0000
       N       E                     dE             d eps       ncg     rms          rms(c)
DAV:   1    -0.851881366269E+03   -0.59187E-04   -0.67254E-02  3900   0.554E-01    0.513E-02
DAV:   2    -0.851881478175E+03   -0.11191E-03   -0.14606E-03  3840   0.736E-02    0.376E-02
DAV:   3    -0.851881473014E+03    0.51614E-05   -0.28412E-05  4740   0.122E-02    0.283E-02
DAV:   4    -0.851881483681E+03   -0.10667E-04   -0.39451E-05  3800   0.150E-02    0.682E-03
DAV:   5    -0.851881484710E+03   -0.10293E-05   -0.94168E-06  4280   0.597E-03    0.430E-03
DAV:   6    -0.851881484729E+03   -0.18998E-07   -0.14374E-06  2560   0.275E-03
 410 F= -.85977788E+03 E0= -.85977788E+03  d E =-.128665E-03  mag=     0.0000
       N       E                     dE             d eps       ncg     rms          rms(c)
DAV:   1    -0.851881459358E+03    0.25353E-04   -0.11294E-01  3880   0.721E-01    0.644E-02
DAV:   2    -0.851881665065E+03   -0.20571E-03   -0.25843E-03  3840   0.971E-02    0.467E-02
DAV:   3    -0.851881655850E+03    0.92155E-05   -0.46630E-05  4760   0.154E-02    0.359E-02
DAV:   4    -0.851881670296E+03   -0.14447E-04   -0.65190E-05  3860   0.195E-02    0.922E-03
DAV:   5    -0.851881672546E+03   -0.22497E-05   -0.15265E-05  4400   0.773E-03    0.582E-03
DAV:   6    -0.851881672581E+03   -0.35237E-07   -0.25017E-06  3100   0.370E-03
 411 F= -.85977802E+03 E0= -.85977802E+03  d E =-.130804E-03  mag=    -0.0000
       N       E                     dE             d eps       ncg     rms          rms(c)
DAV:   1    -0.851881379326E+03    0.29322E-03   -0.17510E-01  3880   0.919E-01    0.818E-02
DAV:   2    -0.851881706031E+03   -0.32671E-03   -0.41580E-03  3980   0.126E-01    0.618E-02
DAV:   3    -0.851881683895E+03    0.22136E-04   -0.96567E-05  4900   0.215E-02    0.475E-02
DAV:   4    -0.851881695377E+03   -0.11482E-04   -0.10516E-04  3920   0.252E-02    0.154E-02
DAV:   5    -0.851881701412E+03   -0.60348E-05   -0.27056E-05  4260   0.104E-02    0.857E-03
DAV:   6    -0.851881701782E+03   -0.37039E-06   -0.47242E-06  3720   0.468E-03
 412 F= -.85977798E+03 E0= -.85977798E+03  d E =0.372778E-04  mag=    -0.0000
       N       E                     dE             d eps       ncg     rms          rms(c)
DAV:   1    -0.851881981832E+03   -0.28042E-03   -0.16671E-02  3840   0.300E-01    0.300E-02
DAV:   2    -0.851882011574E+03   -0.29742E-04   -0.43951E-04  4700   0.443E-02    0.270E-02
DAV:   3    -0.851882002676E+03    0.88980E-05   -0.22847E-05  5000   0.101E-02    0.204E-02
DAV:   4    -0.851881995373E+03    0.73029E-05   -0.18192E-05  4140   0.102E-02    0.916E-03
DAV:   5    -0.851881995069E+03    0.30480E-06   -0.53148E-06  3220   0.491E-03
 413 F= -.85977826E+03 E0= -.85977826E+03  d E =-.284870E-03  mag=     0.0000
       N       E                     dE             d eps       ncg     rms          rms(c)
DAV:   1    -0.851882001300E+03   -0.59271E-05   -0.47725E-05  3960   0.157E-02    0.235E-03
DAV:   2    -0.851882001404E+03   -0.10338E-06   -0.14717E-06  2720   0.260E-03
 414 F= -.85977827E+03 E0= -.85977827E+03  d E =-.504024E-05  mag=     0.0000
       N       E                     dE             d eps       ncg     rms          rms(c)
DAV:   1    -0.851882011650E+03   -0.10350E-04   -0.15541E-04  3900   0.280E-02    0.315E-03
DAV:   2    -0.851882011962E+03   -0.31141E-06   -0.39938E-06  4240   0.399E-03
 415 F= -.85977828E+03 E0= -.85977828E+03  d E =-.796647E-05  mag=     0.0000
       N       E                     dE             d eps       ncg     rms          rms(c)
DAV:   1    -0.851882024042E+03   -0.12391E-04   -0.30419E-04  3900   0.385E-02    0.470E-03
DAV:   2    -0.851882024570E+03   -0.52825E-06   -0.75649E-06  4440   0.533E-03
 416 F= -.85977828E+03 E0= -.85977828E+03  d E =-.873820E-05  mag=     0.0000
       N       E                     dE             d eps       ncg     rms          rms(c)
DAV:   1    -0.851882039104E+03   -0.15062E-04   -0.47212E-04  3860   0.469E-02    0.606E-03
DAV:   2    -0.851882039856E+03   -0.75273E-06   -0.11344E-05  4380   0.629E-03    0.476E-03
DAV:   3    -0.851882039852E+03    0.43510E-08   -0.22994E-07  2220   0.127E-03
 417 F= -.85977829E+03 E0= -.85977829E+03  d E =-.101752E-04  mag=    -0.0000
       N       E                     dE             d eps       ncg     rms          rms(c)
DAV:   1    -0.851882058000E+03   -0.18144E-04   -0.66002E-04  3860   0.544E-02    0.502E-03
DAV:   2    -0.851882059296E+03   -0.12961E-05   -0.15219E-05  4220   0.701E-03    0.341E-03
DAV:   3    -0.851882059325E+03   -0.28158E-07   -0.16416E-07  2280   0.104E-03
 418 F= -.85977831E+03 E0= -.85977831E+03  d E =-.133992E-04  mag=     0.0000
       N       E                     dE             d eps       ncg     rms          rms(c)
DAV:   1    -0.851882081644E+03   -0.22347E-04   -0.93013E-04  3860   0.644E-02    0.580E-03
DAV:   2    -0.851882083505E+03   -0.18613E-05   -0.21866E-05  4020   0.840E-03    0.393E-03
DAV:   3    -0.851882083520E+03   -0.14748E-07   -0.24114E-07  2420   0.122E-03
 419 F= -.85977833E+03 E0= -.85977833E+03  d E =-.172299E-04  mag=     0.0000
       N       E                     dE             d eps       ncg     rms          rms(c)
DAV:   1    -0.851882110899E+03   -0.27394E-04   -0.15814E-03  3860   0.840E-02    0.755E-03
DAV:   2    -0.851882113993E+03   -0.30939E-05   -0.37082E-05  4100   0.110E-02    0.515E-03
DAV:   3    -0.851882113998E+03   -0.49404E-08   -0.44347E-07  2580   0.162E-03
 420 F= -.85977835E+03 E0= -.85977835E+03  d E =-.215236E-04  mag=     0.0000
       N       E                     dE             d eps       ncg     rms          rms(c)
DAV:   1    -0.851882145244E+03   -0.31251E-04   -0.26188E-03  3860   0.107E-01    0.971E-03
DAV:   2    -0.851882150244E+03   -0.50000E-05   -0.60931E-05  4000   0.139E-02    0.660E-03
DAV:   3    -0.851882150267E+03   -0.22425E-07   -0.68601E-07  2960   0.199E-03
 421 F= -.85977837E+03 E0= -.85977837E+03  d E =-.251997E-04  mag=     0.0000
       N       E                     dE             d eps       ncg     rms          rms(c)
DAV:   1    -0.851882184500E+03   -0.34256E-04   -0.40090E-03  3860   0.132E-01    0.120E-02
DAV:   2    -0.851882191991E+03   -0.74914E-05   -0.92147E-05  3940   0.171E-02    0.806E-03
DAV:   3    -0.851882192055E+03   -0.63526E-07   -0.10620E-06  3360   0.240E-03
 422 F= -.85977840E+03 E0= -.85977840E+03  d E =-.282600E-04  mag=     0.0000
       N       E                     dE             d eps       ncg     rms          rms(c)
DAV:   1    -0.851882231504E+03   -0.39513E-04   -0.58062E-03  3860   0.159E-01    0.146E-02
DAV:   2    -0.851882241997E+03   -0.10492E-04   -0.13201E-04  3920   0.208E-02    0.989E-03
DAV:   3    -0.851882242143E+03   -0.14618E-06   -0.15986E-06  3460   0.294E-03
 423 F= -.85977843E+03 E0= -.85977843E+03  d E =-.341854E-04  mag=     0.0000
       N       E                     dE             d eps       ncg     rms          rms(c)
DAV:   1    -0.851882287769E+03   -0.45772E-04   -0.87755E-03  3860   0.196E-01    0.180E-02
DAV:   2    -0.851882303374E+03   -0.15605E-04   -0.19946E-04  3920   0.256E-02    0.121E-02
DAV:   3    -0.851882303659E+03   -0.28573E-06   -0.24358E-06  3780   0.355E-03
 424 F= -.85977848E+03 E0= -.85977848E+03  d E =-.429060E-04  mag=    -0.0000
       N       E                     dE             d eps       ncg     rms          rms(c)
DAV:   1    -0.851882354648E+03   -0.51275E-04   -0.13410E-02  3860   0.242E-01    0.220E-02
DAV:   2    -0.851882378625E+03   -0.23977E-04   -0.30640E-04  3880   0.318E-02    0.146E-02
DAV:   3    -0.851882378986E+03   -0.36064E-06   -0.36919E-06  4180   0.427E-03
 425 F= -.85977853E+03 E0= -.85977853E+03  d E =-.540536E-04  mag=     0.0000
       N       E                     dE             d eps       ncg     rms          rms(c)
DAV:   1    -0.851882430367E+03   -0.51741E-04   -0.20591E-02  3860   0.300E-01    0.267E-02
DAV:   2    -0.851882468618E+03   -0.38251E-04   -0.48161E-04  3840   0.396E-02    0.175E-02
DAV:   3    -0.851882468917E+03   -0.29912E-06   -0.55688E-06  4380   0.517E-03
 426 F= -.85977860E+03 E0= -.85977860E+03  d E =-.663933E-04  mag=     0.0000
       N       E                     dE             d eps       ncg     rms          rms(c)
DAV:   1    -0.851882503662E+03   -0.35044E-04   -0.29388E-02  3860   0.359E-01    0.314E-02
DAV:   2    -0.851882559716E+03   -0.56054E-04   -0.69592E-04  3840   0.469E-02    0.204E-02
DAV:   3    -0.851882559934E+03   -0.21868E-06   -0.77372E-06  4620   0.604E-03
 427 F= -.85977867E+03 E0= -.85977867E+03  d E =-.674705E-04  mag=    -0.0000
       N       E                     dE             d eps       ncg     rms          rms(c)
DAV:   1    -0.851882576308E+03   -0.16592E-04   -0.38597E-02  3860   0.413E-01    0.360E-02
DAV:   2    -0.851882650648E+03   -0.74340E-04   -0.91984E-04  3840   0.538E-02    0.234E-02
DAV:   3    -0.851882650786E+03   -0.13790E-06   -0.10516E-05  4740   0.706E-03    0.184E-02
DAV:   4    -0.851882662843E+03   -0.12057E-04   -0.10988E-05  3680   0.851E-03    0.368E-03
DAV:   5    -0.851882663560E+03   -0.71694E-06   -0.29967E-06  3900   0.340E-03
 428 F= -.85977875E+03 E0= -.85977875E+03  d E =-.807205E-04  mag=     0.0000
       N       E                     dE             d eps       ncg     rms          rms(c)
DAV:   1    -0.851882653860E+03    0.89828E-05   -0.48776E-02  3920   0.465E-01    0.395E-02
DAV:   2    -0.851882752659E+03   -0.98799E-04   -0.12093E-03  3840   0.621E-02    0.254E-02
DAV:   3    -0.851882751554E+03    0.11053E-05   -0.14090E-05  4720   0.834E-03    0.199E-02
DAV:   4    -0.851882763483E+03   -0.11929E-04   -0.16714E-05  3680   0.103E-02    0.443E-03
DAV:   5    -0.851882764224E+03   -0.74048E-06   -0.43549E-06  4280   0.407E-03
 429 F= -.85977882E+03 E0= -.85977882E+03  d E =-.748276E-04  mag=     0.0000
       N       E                     dE             d eps       ncg     rms          rms(c)
DAV:   1    -0.851882739286E+03    0.24198E-04   -0.61605E-02  3920   0.524E-01    0.457E-02
DAV:   2    -0.851882861560E+03   -0.12227E-03   -0.15261E-03  3940   0.712E-02    0.302E-02
DAV:   3    -0.851882860702E+03    0.85833E-06   -0.19114E-05  4720   0.985E-03    0.235E-02
DAV:   4    -0.851882874480E+03   -0.13778E-04   -0.23720E-05  3720   0.124E-02    0.548E-03
DAV:   5    -0.851882875719E+03   -0.12393E-05   -0.63428E-06  4340   0.489E-03    0.371E-03
DAV:   6    -0.851882875711E+03    0.85784E-08   -0.84125E-07  2520   0.242E-03
 430 F= -.85977890E+03 E0= -.85977890E+03  d E =-.796645E-04  mag=    -0.0000
       N       E                     dE             d eps       ncg     rms          rms(c)
DAV:   1    -0.851882851370E+03    0.24349E-04   -0.78061E-02  3900   0.591E-01    0.516E-02
DAV:   2    -0.851883001007E+03   -0.14964E-03   -0.18817E-03  3840   0.793E-02    0.349E-02
DAV:   3    -0.851882998800E+03    0.22070E-05   -0.26098E-05  4760   0.115E-02    0.272E-02
DAV:   4    -0.851883013832E+03   -0.15032E-04   -0.32520E-05  3760   0.145E-02    0.678E-03
DAV:   5    -0.851883015419E+03   -0.15868E-05   -0.82727E-06  4340   0.559E-03    0.457E-03
DAV:   6    -0.851883015308E+03    0.11069E-06   -0.14335E-06  2740   0.334E-03
 431 F= -.85977901E+03 E0= -.85977901E+03  d E =-.114139E-03  mag=    -0.0000
       N       E                     dE             d eps       ncg     rms          rms(c)
DAV:   1    -0.851882939548E+03    0.75871E-04   -0.11561E-01  3880   0.717E-01    0.627E-02
DAV:   2    -0.851883163558E+03   -0.22401E-03   -0.27884E-03  3840   0.960E-02    0.430E-02
DAV:   3    -0.851883158607E+03    0.49509E-05   -0.39272E-05  4660   0.141E-02    0.336E-02
DAV:   4    -0.851883179276E+03   -0.20669E-04   -0.49991E-05  3800   0.176E-02    0.860E-03
DAV:   5    -0.851883182021E+03   -0.27452E-05   -0.12554E-05  4360   0.692E-03    0.566E-03
DAV:   6    -0.851883181888E+03    0.13328E-06   -0.23139E-06  3340   0.398E-03
 432 F= -.85977916E+03 E0= -.85977916E+03  d E =-.142575E-03  mag=    -0.0000
       N       E                     dE             d eps       ncg     rms          rms(c)
DAV:   1    -0.851882955264E+03    0.22676E-03   -0.17642E-01  3860   0.895E-01    0.778E-02
DAV:   2    -0.851883312305E+03   -0.35704E-03   -0.43617E-03  3900   0.121E-01    0.545E-02
DAV:   3    -0.851883301916E+03    0.10389E-04   -0.68976E-05  4840   0.184E-02    0.427E-02
DAV:   4    -0.851883327086E+03   -0.25170E-04   -0.76071E-05  3920   0.223E-02    0.121E-02
DAV:   5    -0.851883331888E+03   -0.48024E-05   -0.20974E-05  4360   0.909E-03    0.732E-03
DAV:   6    -0.851883331953E+03   -0.64196E-07   -0.35424E-06  3540   0.447E-03
 433 F= -.85977924E+03 E0= -.85977924E+03  d E =-.873764E-04  mag=     0.0000
       N       E                     dE             d eps       ncg     rms          rms(c)
DAV:   1    -0.851883467103E+03   -0.13522E-03   -0.70662E-03  3840   0.193E-01    0.191E-02
DAV:   2    -0.851883479874E+03   -0.12770E-04   -0.18280E-04  4660   0.281E-02    0.173E-02
DAV:   3    -0.851883476641E+03    0.32325E-05   -0.85827E-06  4940   0.610E-03    0.135E-02
DAV:   4    -0.851883473376E+03    0.32655E-05   -0.77026E-06  3940   0.664E-03    0.563E-03
DAV:   5    -0.851883473287E+03    0.88992E-07   -0.22596E-06  2840   0.313E-03
 434 F= -.85977939E+03 E0= -.85977939E+03  d E =-.145002E-03  mag=     0.0000
       N       E                     dE             d eps       ncg     rms          rms(c)
DAV:   1    -0.851883374388E+03    0.98987E-04   -0.69625E-03  3840   0.190E-01    0.186E-02
DAV:   2    -0.851883387478E+03   -0.13090E-04   -0.17635E-04  4640   0.275E-02    0.164E-02
DAV:   3    -0.851883384991E+03    0.24871E-05   -0.74115E-06  4680   0.580E-03    0.128E-02
DAV:   4    -0.851883382735E+03    0.22565E-05   -0.75194E-06  3960   0.645E-03    0.524E-03
DAV:   5    -0.851883382765E+03   -0.30035E-07   -0.18482E-06  2860   0.284E-03
 435 F= -.85977930E+03 E0= -.85977930E+03  d E =0.896007E-04  mag=    -0.0000
       N       E                     dE             d eps       ncg     rms          rms(c)
DAV:   1    -0.851883434356E+03   -0.51621E-04   -0.34186E-04  3880   0.427E-02    0.433E-03
DAV:   2    -0.851883434935E+03   -0.57918E-06   -0.93301E-06  4620   0.639E-03
 436 F= -.85977935E+03 E0= -.85977935E+03  d E =-.499240E-04  mag=    -0.0000
       N       E                     dE             d eps       ncg     rms          rms(c)
DAV:   1    -0.851883493539E+03   -0.59183E-04   -0.10468E-03  3840   0.748E-02    0.100E-02
DAV:   2    -0.851883494706E+03   -0.11669E-05   -0.26964E-05  4720   0.109E-02    0.888E-03
DAV:   3    -0.851883493468E+03    0.12378E-05   -0.23489E-06  2740   0.361E-03    0.574E-03
DAV:   4    -0.851883493094E+03    0.37422E-06   -0.21640E-06  2360   0.343E-03
 437 F= -.85977940E+03 E0= -.85977940E+03  d E =-.538970E-04  mag=     0.0000
       N       E                     dE             d eps       ncg     rms          rms(c)
DAV:   1    -0.851883506701E+03   -0.13233E-04   -0.14344E-03  3840   0.877E-02    0.902E-03
DAV:   2    -0.851883509446E+03   -0.27455E-05   -0.37658E-05  4660   0.129E-02    0.810E-03
DAV:   3    -0.851883508765E+03    0.68120E-06   -0.15640E-06  2620   0.294E-03
 438 F= -.85977941E+03 E0= -.85977941E+03  d E =-.990852E-05  mag=     0.0000
       N       E                     dE             d eps       ncg     rms          rms(c)
DAV:   1    -0.851883509512E+03   -0.65440E-07   -0.70174E-06  3840   0.597E-03    0.242E-03
DAV:   2    -0.851883509513E+03   -0.94587E-09   -0.67518E-07  2180   0.183E-03
 439 F= -.85977941E+03 E0= -.85977941E+03  d E =-.613705E-06  mag=     0.0000
       N       E                     dE             d eps       ncg     rms          rms(c)
DAV:   1    -0.851883511805E+03   -0.22933E-05   -0.65417E-06  3700   0.572E-03    0.105E-03
DAV:   2    -0.851883511821E+03   -0.15469E-07   -0.17920E-07  2100   0.924E-04
 440 F= -.85977942E+03 E0= -.85977942E+03  d E =-.204470E-05  mag=    -0.0000
       N       E                     dE             d eps       ncg     rms          rms(c)
DAV:   1    -0.851883514912E+03   -0.31070E-05   -0.13951E-05  3800   0.837E-03    0.114E-03
DAV:   2    -0.851883514933E+03   -0.21035E-07   -0.33407E-07  2120   0.125E-03
 441 F= -.85977942E+03 E0= -.85977942E+03  d E =-.273375E-05  mag=     0.0000
       N       E                     dE             d eps       ncg     rms          rms(c)
DAV:   1    -0.851883518287E+03   -0.33746E-05   -0.22010E-05  3820   0.104E-02    0.163E-03
DAV:   2    -0.851883518307E+03   -0.19929E-07   -0.49026E-07  2060   0.152E-03
 442 F= -.85977942E+03 E0= -.85977942E+03  d E =-.280168E-05  mag=    -0.0000
       N       E                     dE             d eps       ncg     rms          rms(c)
DAV:   1    -0.851883521716E+03   -0.34296E-05   -0.29141E-05  3880   0.118E-02    0.194E-03
DAV:   2    -0.851883521740E+03   -0.23596E-07   -0.59388E-07  2080   0.164E-03
 443 F= -.85977942E+03 E0= -.85977942E+03  d E =-.266613E-05  mag=     0.0000
       N       E                     dE             d eps       ncg     rms          rms(c)
DAV:   1    -0.851883525158E+03   -0.34419E-05   -0.34936E-05  3880   0.127E-02    0.212E-03
DAV:   2    -0.851883525189E+03   -0.31054E-07   -0.69465E-07  2180   0.174E-03
 444 F= -.85977943E+03 E0= -.85977943E+03  d E =-.246636E-05  mag=    -0.0000
       N       E                     dE             d eps       ncg     rms          rms(c)
DAV:   1    -0.851883529064E+03   -0.39059E-05   -0.48545E-05  3880   0.147E-02    0.240E-03
DAV:   2    -0.851883529112E+03   -0.47890E-07   -0.95632E-07  2660   0.197E-03
 445 F= -.85977943E+03 E0= -.85977943E+03  d E =-.262259E-05  mag=     0.0000
       N       E                     dE             d eps       ncg     rms          rms(c)
DAV:   1    -0.851883533876E+03   -0.48121E-05   -0.64578E-05  3880   0.164E-02    0.276E-03
DAV:   2    -0.851883533935E+03   -0.58870E-07   -0.12444E-06  2640   0.215E-03
 446 F= -.85977943E+03 E0= -.85977943E+03  d E =-.316353E-05  mag=     0.0000
       N       E                     dE             d eps       ncg     rms          rms(c)
DAV:   1    -0.851883540310E+03   -0.64341E-05   -0.89251E-05  3840   0.189E-02    0.320E-03
DAV:   2    -0.851883540389E+03   -0.78719E-07   -0.16782E-06  2760   0.243E-03
 447 F= -.85977944E+03 E0= -.85977944E+03  d E =-.437958E-05  mag=     0.0000
