unknown system                          
           1
    17.271038    0.000000    0.000000
    -8.635519   14.957158    0.000000
     0.000000    0.000000   15.000000
   C    H    F    O 
    88     8     2     1
Direct configuration=     1
   0.00042261  0.00101488  0.49846939
   0.00010199  0.14374844  0.50003436
   0.00022669  0.28681024  0.50097690
   0.00083794  0.42996163  0.50021786
   0.00166846  0.57300667  0.49890673
   0.00240378  0.71617763  0.49748120
   0.00179822  0.85911611  0.49734209
   0.14377232  0.00164297  0.50304952
   0.14289895  0.14382547  0.50656452
   0.14204605  0.28592691  0.51047405
   0.14268334  0.42952371  0.51008981
   0.14427802  0.57273432  0.50600423
   0.14449415  0.71585619  0.50286356
   0.14426069  0.85890926  0.50126141
   0.28645765  0.00148825  0.50440081
   0.28605772  0.14390031  0.51062531
   0.28517889  0.28704551  0.52215162
   0.28251914  0.42675939  0.52950689
   0.28720484  0.57250928  0.52001712
   0.28684896  0.71618545  0.50881424
   0.28660444  0.85903689  0.50376643
   0.42944507  0.00219723  0.50284945
   0.42913372  0.14447159  0.50621655
   0.42729322  0.28392558  0.51456532
   0.42845028  0.71899601  0.50788766
   0.42921190  0.85976430  0.50323972
   0.57213802  0.00261122  0.49935833
   0.57214808  0.14466620  0.50113589
   0.57299255  0.28790211  0.50262058
   0.57277647  0.86066287  0.49806681
   0.71503683  0.00189064  0.49600998
   0.71515782  0.14470048  0.49697643
   0.71514721  0.28728527  0.49786514
   0.71489193  0.42917857  0.49691628
   0.71932374  0.57444942  0.49539485
   0.72114208  0.71703921  0.49654295
   0.71363925  0.85868205  0.49521496
   0.85761743  0.00130595  0.49579583
   0.85763731  0.14428675  0.49643821
   0.85783288  0.28711113  0.49678211
   0.85843346  0.43003358  0.49667437
   0.85940262  0.57332320  0.49565995
   0.86087833  0.71673955  0.49471703
   0.85803366  0.85811363  0.49485550
   0.04788842  0.09624626  0.50132012
   0.04715240  0.23864828  0.50320645
   0.04768525  0.38201122  0.50321380
   0.04912293  0.52525301  0.50140519
   0.04943897  0.66833303  0.49961230
   0.04923011  0.81130547  0.49859470
   0.04863367  0.95393143  0.49944456
   0.19087193  0.09633543  0.50715531
   0.18993323  0.23869072  0.51261201
   0.18838418  0.38061614  0.51583746
   0.19126888  0.52473827  0.51156099
   0.19179225  0.66833041  0.50648867
   0.19175919  0.81129701  0.50275825
   0.19151481  0.95397559  0.50299913
   0.33399761  0.09682674  0.50714097
   0.33416980  0.23890296  0.51694722
   0.32863533  0.37902478  0.53494981
   0.32707952  0.52067419  0.53377612
   0.33560372  0.66956373  0.51328108
   0.33421131  0.81137003  0.50535607
   0.33405567  0.95413145  0.50350819
   0.47697302  0.09712060  0.50315568
   0.47613878  0.23958096  0.50778538
   0.47627603  0.81213916  0.50245076
   0.47701028  0.95494676  0.50156437
   0.61975404  0.09738264  0.49893139
   0.62001886  0.23982857  0.50060159
   0.62181843  0.38112210  0.49918573
   0.62070289  0.81555946  0.49558163
   0.61995484  0.95530717  0.49757592
   0.76271078  0.09715521  0.49603320
   0.76282181  0.23962270  0.49677991
   0.76312432  0.38231872  0.49700936
   0.76377789  0.52629718  0.49549958
   0.76596036  0.66817103  0.49520163
   0.76169033  0.80961296  0.49506737
   0.76249904  0.95411438  0.49545220
   0.90497746  0.09620371  0.49693345
   0.90517314  0.23939222  0.49746942
   0.90563072  0.38247952  0.49742348
   0.90655842  0.52551874  0.49678325
   0.90734659  0.66844803  0.49543710
   0.90665308  0.81150378  0.49519348
   0.90518433  0.95325683  0.49594965
   0.46318420  0.35646382  0.51576780
   0.40015459  0.41653239  0.54672472
   0.64701014  0.54007268  0.49458163
   0.58568777  0.41746326  0.49705943
   0.58351233  0.74373030  0.49463455
   0.46520354  0.68371299  0.50847639
   0.52441076  0.54908418  0.45086748
   0.45859216  0.46563631  0.39686037
   0.41714809  0.56018346  0.55096306
   0.62950835  0.66439816  0.50132372
   0.51419235  0.49131510  0.43016464
Direct configuration=     2
   0.00042311  0.00101489  0.49847165
   0.00010067  0.14374682  0.50003799
   0.00022984  0.28680797  0.50097974
   0.00083838  0.42996122  0.50022200
   0.00166805  0.57300675  0.49891255
   0.00240270  0.71617758  0.49748586
   0.00179645  0.85911385  0.49734576
   0.14377233  0.00164125  0.50305512
   0.14289790  0.14382338  0.50657087
   0.14204507  0.28592625  0.51047916
   0.14268198  0.42952359  0.51009420
   0.14427608  0.57273209  0.50600909
   0.14449315  0.71585651  0.50287100
   0.14425806  0.85890718  0.50126877
   0.28645504  0.00148812  0.50440816
   0.28605828  0.14390079  0.51063303
   0.28517846  0.28704388  0.52215735
   0.28251976  0.42676169  0.52951035
   0.28720590  0.57250788  0.52002352
   0.28684849  0.71618405  0.50882220
   0.28660409  0.85903788  0.50377476
   0.42944537  0.00219939  0.50285509
   0.42913564  0.14447188  0.50622058
   0.42729381  0.28392650  0.51456915
   0.42845115  0.71899360  0.50789139
   0.42921331  0.85976351  0.50324551
   0.57213823  0.00261199  0.49936167
   0.57214879  0.14466608  0.50113988
   0.57299328  0.28790200  0.50262013
   0.57277667  0.86066209  0.49806940
   0.71503646  0.00189136  0.49601136
   0.71515830  0.14470016  0.49697977
   0.71514676  0.28728436  0.49786740
   0.71489480  0.42917890  0.49690775
   0.71932368  0.57444649  0.49536316
   0.72114761  0.71704283  0.49651226
   0.71363993  0.85868272  0.49520671
   0.85761721  0.00130559  0.49579289
   0.85763898  0.14428839  0.49644058
   0.85783235  0.28711028  0.49678633
   0.85843333  0.43003383  0.49667702
   0.85940175  0.57332339  0.49565596
   0.86087797  0.71673951  0.49470862
   0.85803344  0.85811577  0.49485010
   0.04788839  0.09624580  0.50132642
   0.04714872  0.23864709  0.50321128
   0.04768615  0.38201168  0.50321844
   0.04912297  0.52525385  0.50141089
   0.04943801  0.66833336  0.49961878
   0.04923011  0.81130546  0.49860057
   0.04863434  0.95393258  0.49944996
   0.19087043  0.09633388  0.50716352
   0.18993285  0.23868942  0.51261806
   0.18838252  0.38061304  0.51584159
   0.19126980  0.52473888  0.51156761
   0.19178995  0.66832841  0.50649276
   0.19175866  0.81129629  0.50276713
   0.19151699  0.95397764  0.50300796
   0.33399854  0.09682991  0.50714867
   0.33416864  0.23890370  0.51695089
   0.32863716  0.37902574  0.53495598
   0.32707628  0.52067190  0.53378062
   0.33560520  0.66956362  0.51328647
   0.33421053  0.81137004  0.50536311
   0.33405955  0.95413151  0.50351435
   0.47697304  0.09711975  0.50316051
   0.47613943  0.23958219  0.50778736
   0.47627713  0.81214108  0.50245605
   0.47700981  0.95494581  0.50156975
   0.61975339  0.09738282  0.49893509
   0.62002090  0.23983128  0.50060291
   0.62181482  0.38112135  0.49917900
   0.62070181  0.81555760  0.49557940
   0.61995410  0.95530544  0.49757582
   0.76271061  0.09715543  0.49603667
   0.76282330  0.23962431  0.49678406
   0.76312404  0.38231879  0.49700636
   0.76377540  0.52629835  0.49548370
   0.76596201  0.66817401  0.49517649
   0.76169245  0.80961488  0.49505466
   0.76249927  0.95411523  0.49544834
   0.90497736  0.09620282  0.49693461
   0.90517201  0.23939060  0.49747454
   0.90563046  0.38247865  0.49742775
   0.90655875  0.52551966  0.49678542
   0.90734650  0.66844743  0.49543455
   0.90665250  0.81150153  0.49519148
   0.90518456  0.95325620  0.49594975
   0.46318365  0.35646437  0.51576891
   0.40015334  0.41653165  0.54673263
   0.64701367  0.54007368  0.49453451
   0.58568834  0.41746320  0.49705182
   0.58351358  0.74372997  0.49463330
   0.46520414  0.68371282  0.50847972
   0.52440015  0.54906528  0.45088967
   0.45858211  0.46564686  0.39685842
   0.41714578  0.56018338  0.55097193
   0.62951438  0.66440503  0.50127332
   0.51420637  0.49132781  0.43006239
Direct configuration=     3
   0.00042428  0.00101603  0.49847494
   0.00009883  0.14374455  0.50004365
   0.00022845  0.28680852  0.50098488
   0.00083839  0.42996091  0.50022841
   0.00166792  0.57300765  0.49892120
   0.00240065  0.71617816  0.49749157
   0.00179526  0.85911299  0.49735137
   0.14377260  0.00164062  0.50306409
   0.14289702  0.14382128  0.50658069
   0.14204260  0.28592352  0.51048681
   0.14268187  0.42952354  0.51010117
   0.14427487  0.57273059  0.50601655
   0.14449203  0.71585607  0.50288205
   0.14425741  0.85890664  0.50128011
   0.28645715  0.00148958  0.50441861
   0.28605780  0.14390212  0.51064451
   0.28517841  0.28704382  0.52216615
   0.28251958  0.42676076  0.52951570
   0.28720618  0.57250746  0.52003265
   0.28684744  0.71618288  0.50883362
   0.28660488  0.85903873  0.50378709
   0.42944583  0.00219869  0.50286237
   0.42913713  0.14447279  0.50622567
   0.42729366  0.28392738  0.51457474
   0.42845197  0.71899464  0.50789755
   0.42921344  0.85976319  0.50325433
   0.57213755  0.00261127  0.49936661
   0.57214965  0.14466732  0.50114585
   0.57299369  0.28790339  0.50261939
   0.57277654  0.86066097  0.49807305
   0.71503586  0.00189173  0.49601309
   0.71515902  0.14470089  0.49698497
   0.71514825  0.28728711  0.49787084
   0.71489343  0.42917830  0.49689488
   0.71932403  0.57444807  0.49531711
   0.72115229  0.71704601  0.49646848
   0.71363975  0.85868293  0.49519460
   0.85761719  0.00130526  0.49578882
   0.85763835  0.14428717  0.49644246
   0.85783276  0.28710986  0.49679282
   0.85843387  0.43003408  0.49668071
   0.85940185  0.57332257  0.49564974
   0.86087805  0.71673919  0.49469608
   0.85803515  0.85811610  0.49484287
   0.04788762  0.09624479  0.50133538
   0.04714920  0.23864545  0.50321824
   0.04768680  0.38201091  0.50322514
   0.04912186  0.52525324  0.50141930
   0.04943654  0.66833385  0.49962851
   0.04922896  0.81130479  0.49860927
   0.04863403  0.95393136  0.49945766
   0.19086941  0.09633168  0.50717561
   0.18993174  0.23868774  0.51262716
   0.18838220  0.38061125  0.51584690
   0.19127035  0.52473864  0.51157722
   0.19178772  0.66832629  0.50649950
   0.19175717  0.81129619  0.50278030
   0.19151675  0.95397657  0.50301950
   0.33400009  0.09683038  0.50715857
   0.33416871  0.23890507  0.51695632
   0.32863671  0.37902611  0.53496423
   0.32707395  0.52067039  0.53378796
   0.33560732  0.66956244  0.51329484
   0.33420967  0.81136914  0.50537388
   0.33405978  0.95413231  0.50352276
   0.47697467  0.09712072  0.50316766
   0.47614049  0.23958296  0.50779051
   0.47627820  0.81213980  0.50246394
   0.47701013  0.95494613  0.50157772
   0.61975392  0.09738359  0.49894061
   0.62002099  0.23983093  0.50060591
   0.62181553  0.38112112  0.49916912
   0.62070222  0.81555660  0.49557618
   0.61995395  0.95530496  0.49757617
   0.76271272  0.09715561  0.49604071
   0.76282375  0.23962413  0.49679023
   0.76312427  0.38231823  0.49700234
   0.76377374  0.52629703  0.49546130
   0.76596333  0.66817426  0.49513902
   0.76169596  0.80961952  0.49503580
   0.76249940  0.95411629  0.49544262
   0.90497707  0.09620146  0.49693566
   0.90517325  0.23939033  0.49748188
   0.90563047  0.38247824  0.49743419
   0.90655789  0.52552064  0.49678882
   0.90734573  0.66844610  0.49543196
   0.90665138  0.81150079  0.49518830
   0.90518512  0.95325675  0.49594952
   0.46318319  0.35646563  0.51577050
   0.40015329  0.41653141  0.54674468
   0.64701710  0.54007423  0.49446520
   0.58568794  0.41746407  0.49704044
   0.58351488  0.74372878  0.49463147
   0.46520606  0.68371170  0.50848467
   0.52438156  0.54902402  0.45091593
   0.45854150  0.46565059  0.39684042
   0.41714213  0.56018285  0.55098522
   0.62952005  0.66441388  0.50119945
   0.51425622  0.49137001  0.42993077
Direct configuration=     4
   0.00042531  0.00101709  0.49847969
   0.00009754  0.14374271  0.50005148
   0.00022614  0.28680888  0.50099203
   0.00083804  0.42996065  0.50023742
   0.00166763  0.57300912  0.49893268
   0.00239975  0.71617939  0.49749781
   0.00179541  0.85911512  0.49735799
   0.14377279  0.00164025  0.50307544
   0.14289649  0.14381977  0.50659434
   0.14204147  0.28592349  0.51049725
   0.14268374  0.42952313  0.51011100
   0.14427460  0.57272995  0.50602686
   0.14449111  0.71585657  0.50289575
   0.14426001  0.85890840  0.50129488
   0.28646248  0.00149190  0.50443218
   0.28605677  0.14390322  0.51065952
   0.28517843  0.28704549  0.52217796
   0.28251819  0.42675695  0.52952317
   0.28720550  0.57250811  0.52004450
   0.28684509  0.71618168  0.50884685
   0.28660555  0.85903884  0.50380322
   0.42944669  0.00219652  0.50287145
   0.42913813  0.14447432  0.50623222
   0.42729328  0.28392813  0.51458185
   0.42845346  0.71899713  0.50790660
   0.42921240  0.85976305  0.50326633
   0.57213807  0.00261004  0.49937185
   0.57215080  0.14466950  0.50115392
   0.57299375  0.28790523  0.50261852
   0.57277581  0.86065851  0.49807674
   0.71503567  0.00189180  0.49601484
   0.71516085  0.14470225  0.49699089
   0.71514948  0.28728779  0.49787467
   0.71488908  0.42917722  0.49687778
   0.71932448  0.57445296  0.49525955
   0.72115586  0.71704826  0.49641381
   0.71363981  0.85868389  0.49518054
   0.85761749  0.00130479  0.49578526
   0.85763689  0.14428390  0.49644426
   0.85783410  0.28710987  0.49680179
   0.85843488  0.43003446  0.49668527
   0.85940159  0.57332079  0.49564156
   0.86087883  0.71673847  0.49467965
   0.85803871  0.85811590  0.49483416
   0.04788654  0.09624367  0.50134658
   0.04715166  0.23864346  0.50322720
   0.04768667  0.38200977  0.50323387
   0.04911974  0.52525141  0.50143041
   0.04943490  0.66833468  0.49964143
   0.04922672  0.81130405  0.49862062
   0.04863289  0.95392847  0.49946736
   0.19086997  0.09633023  0.50719017
   0.18993030  0.23868572  0.51263955
   0.18838278  0.38061108  0.51585364
   0.19126992  0.52473768  0.51158959
   0.19178652  0.66832498  0.50650954
   0.19175421  0.81129441  0.50279665
   0.19151502  0.95397339  0.50303362
   0.33400175  0.09682924  0.50717075
   0.33416950  0.23890641  0.51696297
   0.32863476  0.37902590  0.53497414
   0.32707256  0.52066957  0.53379837
   0.33560937  0.66956117  0.51330519
   0.33420927  0.81136773  0.50538861
   0.33405709  0.95413369  0.50353367
   0.47697673  0.09712153  0.50317443
   0.47614164  0.23958405  0.50779516
   0.47627891  0.81213704  0.50247434
   0.47701083  0.95494693  0.50158819
   0.61975561  0.09738447  0.49894801
   0.62002030  0.23983009  0.50060873
   0.62181933  0.38112212  0.49915640
   0.62070361  0.81555658  0.49557220
   0.61995395  0.95530570  0.49757756
   0.76271539  0.09715585  0.49604523
   0.76282333  0.23962307  0.49679848
   0.76312447  0.38231823  0.49699927
   0.76377272  0.52629423  0.49543408
   0.76596438  0.66817258  0.49509005
   0.76170158  0.80962562  0.49501188
   0.76249893  0.95411702  0.49543523
   0.90497631  0.09620003  0.49693652
   0.90517550  0.23939113  0.49749098
   0.90563091  0.38247853  0.49744294
   0.90655666  0.52552091  0.49679363
   0.90734415  0.66844478  0.49542923
   0.90665054  0.81150158  0.49518392
   0.90518659  0.95325853  0.49594861
   0.46318304  0.35646773  0.51577271
   0.40015439  0.41653170  0.54676091
   0.64701902  0.54007397  0.49437618
   0.58568693  0.41746550  0.49702558
   0.58351619  0.74372713  0.49462917
   0.46520874  0.68371059  0.50849137
   0.52435578  0.54896807  0.45094453
   0.45847859  0.46564969  0.39681202
   0.41713804  0.56018190  0.55100298
   0.62952351  0.66442213  0.50110558
   0.51432673  0.49142607  0.42975883
Direct configuration=     5
   0.00042554  0.00101673  0.49848623
   0.00009770  0.14374180  0.50006141
   0.00022636  0.28680785  0.50100164
   0.00083761  0.42995997  0.50024930
   0.00166712  0.57300902  0.49894551
   0.00239928  0.71618028  0.49750517
   0.00179564  0.85911722  0.49736563
   0.14377242  0.00163842  0.50308948
   0.14289617  0.14381877  0.50661198
   0.14204300  0.28592652  0.51050943
   0.14268598  0.42952205  0.51012361
   0.14427415  0.57272917  0.50604021
   0.14448945  0.71585657  0.50291212
   0.14426161  0.85890946  0.50131288
   0.28646539  0.00149305  0.50444865
   0.28605676  0.14390266  0.51067748
   0.28517789  0.28704660  0.52219223
   0.28251659  0.42675423  0.52953309
   0.28720483  0.57250839  0.52005782
   0.28684316  0.71617967  0.50886183
   0.28660399  0.85903754  0.50382278
   0.42944761  0.00219600  0.50288092
   0.42913922  0.14447554  0.50624051
   0.42729369  0.28392915  0.51459018
   0.42845673  0.71899541  0.50791786
   0.42921169  0.85976227  0.50328165
   0.57214012  0.00261023  0.49937765
   0.57215226  0.14467078  0.50116385
   0.57299402  0.28790628  0.50261759
   0.57277948  0.86066153  0.49808008
   0.71503613  0.00189184  0.49601618
   0.71516320  0.14470277  0.49699788
   0.71514958  0.28728582  0.49787897
   0.71488701  0.42917683  0.49685695
   0.71932336  0.57445356  0.49519422
   0.72115819  0.71705067  0.49635288
   0.71364156  0.85868609  0.49516507
   0.85761756  0.00130392  0.49578217
   0.85763810  0.14428302  0.49644733
   0.85783509  0.28711039  0.49681208
   0.85843522  0.43003471  0.49669071
   0.85939787  0.57332064  0.49563248
   0.86087909  0.71673846  0.49466111
   0.85804317  0.85811769  0.49482424
   0.04788605  0.09624281  0.50135962
   0.04715271  0.23864212  0.50323808
   0.04768633  0.38200924  0.50324475
   0.04911599  0.52524808  0.50144347
   0.04943265  0.66833506  0.49965599
   0.04922563  0.81130508  0.49863418
   0.04863249  0.95392734  0.49947861
   0.19087141  0.09633007  0.50720726
   0.18992933  0.23868448  0.51265556
   0.18838369  0.38061166  0.51586223
   0.19126859  0.52473662  0.51160448
   0.19178612  0.66832490  0.50652334
   0.19175236  0.81129317  0.50281457
   0.19151557  0.95397214  0.50305027
   0.33400315  0.09682921  0.50718538
   0.33416961  0.23890666  0.51697085
   0.32863455  0.37902611  0.53498556
   0.32707050  0.52066787  0.53381175
   0.33560957  0.66956123  0.51331783
   0.33421165  0.81136993  0.50540301
   0.33405530  0.95413398  0.50354738
   0.47697779  0.09712114  0.50318101
   0.47614258  0.23958632  0.50780155
   0.47628003  0.81213692  0.50248563
   0.47701133  0.95494629  0.50160081
   0.61975793  0.09738494  0.49895717
   0.62001987  0.23983094  0.50061174
   0.62181969  0.38112288  0.49914270
   0.62070442  0.81555611  0.49556769
   0.61995359  0.95530551  0.49758034
   0.76271641  0.09715559  0.49604999
   0.76282369  0.23962268  0.49680870
   0.76312438  0.38231895  0.49699747
   0.76377360  0.52629384  0.49540406
   0.76596572  0.66817240  0.49503131
   0.76170722  0.80962953  0.49498336
   0.76249804  0.95411707  0.49542663
   0.90497532  0.09619858  0.49693725
   0.90517594  0.23939082  0.49750120
   0.90563104  0.38247902  0.49745127
   0.90655651  0.52552019  0.49679993
   0.90734265  0.66844390  0.49542589
   0.90665136  0.81150245  0.49517825
   0.90518921  0.95326039  0.49594686
   0.46318319  0.35647025  0.51577566
   0.40015524  0.41653176  0.54678096
   0.64701864  0.54007297  0.49427171
   0.58568644  0.41746629  0.49700774
   0.58351781  0.74372605  0.49462656
   0.46521118  0.68371068  0.50849998
   0.52432461  0.54891024  0.45097348
   0.45841462  0.46565090  0.39678652
   0.41713474  0.56018047  0.55102513
   0.62952682  0.66442841  0.50099668
   0.51439206  0.49147552  0.42952482
Direct configuration=     6
   0.00042584  0.00101586  0.49849501
   0.00009905  0.14374170  0.50007338
   0.00022906  0.28680692  0.50101279
   0.00083672  0.42995837  0.50026419
   0.00166543  0.57300710  0.49895999
   0.00239836  0.71618068  0.49751458
   0.00179555  0.85911754  0.49737460
   0.14377236  0.00163624  0.50310684
   0.14289700  0.14381788  0.50663233
   0.14204270  0.28592241  0.51052190
   0.14268603  0.42952038  0.51013746
   0.14427197  0.57272767  0.50605709
   0.14448839  0.71585678  0.50293022
   0.14425993  0.85890854  0.50133403
   0.28646409  0.00149286  0.50446652
   0.28606048  0.14390428  0.51069582
   0.28517749  0.28704489  0.52220705
   0.28251694  0.42675570  0.52954612
   0.28720284  0.57250696  0.52007218
   0.28684363  0.71618014  0.50887712
   0.28660181  0.85903624  0.50384373
   0.42944767  0.00219702  0.50289134
   0.42914075  0.14447645  0.50625100
   0.42729418  0.28393128  0.51459829
   0.42845973  0.71899146  0.50793182
   0.42921309  0.85976157  0.50330016
   0.57214221  0.00261204  0.49938487
   0.57215380  0.14467038  0.50117537
   0.57299455  0.28790705  0.50261701
   0.57278088  0.86066171  0.49808404
   0.71503696  0.00189232  0.49601706
   0.71516541  0.14470214  0.49700664
   0.71514879  0.28728364  0.49788427
   0.71488910  0.42917769  0.49683380
   0.71932148  0.57444824  0.49512311
   0.72116345  0.71705135  0.49628982
   0.71364451  0.85868800  0.49514872
   0.85761734  0.00130307  0.49577941
   0.85763652  0.14428161  0.49645012
   0.85783545  0.28711127  0.49682402
   0.85843437  0.43003494  0.49669730
   0.85939566  0.57331896  0.49562310
   0.86087941  0.71673967  0.49464068
   0.85804754  0.85812193  0.49481337
   0.04788673  0.09624244  0.50137459
   0.04715236  0.23864267  0.50325125
   0.04768665  0.38200787  0.50325631
   0.04911373  0.52524620  0.50145900
   0.04943099  0.66833501  0.49967219
   0.04922709  0.81131004  0.49864859
   0.04863377  0.95392852  0.49948860
   0.19087222  0.09633021  0.50722737
   0.18992931  0.23868553  0.51267566
   0.18838492  0.38061248  0.51587346
   0.19126666  0.52473745  0.51162120
   0.19178546  0.66832546  0.50654137
   0.19175242  0.81129290  0.50283307
   0.19151914  0.95397378  0.50306822
   0.33400677  0.09683296  0.50719997
   0.33416907  0.23890656  0.51698179
   0.32863749  0.37902777  0.53499841
   0.32706677  0.52066511  0.53382833
   0.33560904  0.66956274  0.51333333
   0.33421351  0.81137284  0.50541825
   0.33405653  0.95413257  0.50356446
   0.47697847  0.09712035  0.50318654
   0.47614338  0.23958924  0.50781006
   0.47628208  0.81213908  0.50249819
   0.47701227  0.95494500  0.50161536
   0.61976045  0.09738545  0.49896809
   0.62002035  0.23983317  0.50061568
   0.62181543  0.38112318  0.49912837
   0.62070532  0.81555616  0.49556314
   0.61995491  0.95530586  0.49758473
   0.76271619  0.09715506  0.49605507
   0.76282562  0.23962334  0.49682082
   0.76312333  0.38231901  0.49699704
   0.76377322  0.52629601  0.49537146
   0.76596643  0.66817232  0.49496652
   0.76171184  0.80963169  0.49495250
   0.76249800  0.95411716  0.49541768
   0.90497547  0.09619772  0.49693856
   0.90517477  0.23938942  0.49751085
   0.90563108  0.38248149  0.49745897
   0.90655658  0.52551987  0.49680783
   0.90734184  0.66844445  0.49542176
   0.90665413  0.81150301  0.49517159
   0.90519212  0.95326162  0.49594463
   0.46318363  0.35647288  0.51577958
   0.40015519  0.41653129  0.54680469
   0.64701579  0.54007146  0.49415608
   0.58568646  0.41746632  0.49698760
   0.58351972  0.74372636  0.49462403
   0.46521405  0.68371137  0.50851086
   0.52428691  0.54884606  0.45099533
   0.45834910  0.46565144  0.39676453
   0.41713540  0.56018165  0.55104913
   0.62952880  0.66443181  0.50087412
   0.51445007  0.49152296  0.42922802
Direct configuration=     7
   0.00042828  0.00101662  0.49850722
   0.00010045  0.14374204  0.50008880
   0.00023105  0.28680610  0.50102697
   0.00083580  0.42995616  0.50028363
   0.00166328  0.57300475  0.49897835
   0.00239772  0.71618228  0.49752815
   0.00179660  0.85911784  0.49738587
   0.14377449  0.00163647  0.50312821
   0.14289940  0.14381774  0.50665867
   0.14204322  0.28592422  0.51053673
   0.14268381  0.42951965  0.51015443
   0.14426824  0.57272719  0.50608053
   0.14448801  0.71585673  0.50295283
   0.14425787  0.85890784  0.50136071
   0.28646318  0.00149330  0.50448817
   0.28606601  0.14390752  0.51071647
   0.28517963  0.28704354  0.52222492
   0.28252054  0.42675995  0.52956475
   0.28719985  0.57250525  0.52009038
   0.28684745  0.71618485  0.50889311
   0.28660187  0.85903655  0.50386816
   0.42944764  0.00219729  0.50290462
   0.42914247  0.14447932  0.50626136
   0.42729456  0.28393465  0.51460738
   0.42846033  0.71899049  0.50795066
   0.42921694  0.85976234  0.50332390
   0.57214434  0.00261373  0.49939358
   0.57215556  0.14466934  0.50118925
   0.57299474  0.28790927  0.50261699
   0.57278241  0.86066153  0.49808796
   0.71503773  0.00189261  0.49601731
   0.71516743  0.14470172  0.49701912
   0.71514997  0.28728858  0.49789282
   0.71489049  0.42917843  0.49680670
   0.71931842  0.57444095  0.49503717
   0.72116925  0.71704781  0.49621829
   0.71364727  0.85868745  0.49512929
   0.85761818  0.00130321  0.49577607
   0.85763369  0.14428046  0.49645345
   0.85783391  0.28710909  0.49683579
   0.85843193  0.43003448  0.49670390
   0.85939642  0.57332224  0.49561559
   0.86088012  0.71674167  0.49461499
   0.85805143  0.85812645  0.49479981
   0.04788923  0.09624265  0.50139369
   0.04715198  0.23864314  0.50326862
   0.04768773  0.38200544  0.50327089
   0.04911380  0.52524606  0.50147977
   0.04943002  0.66833410  0.49969210
   0.04922971  0.81131478  0.49866573
   0.04863380  0.95392838  0.49949792
   0.19087329  0.09632978  0.50725373
   0.18993115  0.23868521  0.51270064
   0.18838590  0.38060829  0.51588653
   0.19126379  0.52473716  0.51163998
   0.19178435  0.66832593  0.50656643
   0.19175237  0.81129314  0.50285533
   0.19152264  0.95397610  0.50309050
   0.33400923  0.09683876  0.50721512
   0.33416968  0.23890744  0.51699877
   0.32863958  0.37902804  0.53501122
   0.32706240  0.52066259  0.53384823
   0.33561035  0.66956427  0.51335415
   0.33421249  0.81137225  0.50543588
   0.33405911  0.95413082  0.50358770
   0.47697995  0.09712088  0.50319273
   0.47614414  0.23959174  0.50782187
   0.47628421  0.81213831  0.50251441
   0.47701464  0.95494546  0.50163344
   0.61976338  0.09738685  0.49898213
   0.62002161  0.23983421  0.50062177
   0.62181267  0.38112344  0.49911112
   0.62070791  0.81555754  0.49555810
   0.61995849  0.95530725  0.49759130
   0.76271522  0.09715390  0.49606087
   0.76282674  0.23962166  0.49683438
   0.76312143  0.38231723  0.49699744
   0.76377086  0.52629637  0.49533311
   0.76596382  0.66817426  0.49489412
   0.76171599  0.80963250  0.49491561
   0.76250018  0.95411790  0.49540770
   0.90497745  0.09619786  0.49694133
   0.90517379  0.23938793  0.49752104
   0.90563074  0.38248408  0.49746845
   0.90655512  0.52551994  0.49681819
   0.90734207  0.66844558  0.49541568
   0.90665776  0.81150406  0.49516299
   0.90519458  0.95326281  0.49594206
   0.46318474  0.35647600  0.51578463
   0.40015562  0.41653076  0.54683528
   0.64701094  0.54006928  0.49401723
   0.58568542  0.41746670  0.49696258
   0.58352223  0.74372843  0.49462133
   0.46521904  0.68371116  0.50852569
   0.52423389  0.54874912  0.45099934
   0.45824543  0.46563620  0.39672779
   0.41713990  0.56018464  0.55107813
   0.62952756  0.66442410  0.50072330
   0.51453548  0.49160508  0.42885341
Direct configuration=     8
   0.00043262  0.00101967  0.49852275
   0.00010313  0.14374344  0.50010618
   0.00022809  0.28680384  0.50104493
   0.00083577  0.42995477  0.50030781
   0.00166169  0.57300400  0.49900225
   0.00239874  0.71618704  0.49754469
   0.00179975  0.85912009  0.49739898
   0.14377927  0.00164083  0.50315240
   0.14290306  0.14381938  0.50669099
   0.14204544  0.28592832  0.51055637
   0.14268077  0.42952024  0.51017317
   0.14426658  0.57273014  0.50611293
   0.14448797  0.71585627  0.50298205
   0.14426074  0.85891072  0.50139348
   0.28646896  0.00149699  0.50451505
   0.28606746  0.14391068  0.51074084
   0.28518518  0.28704643  0.52224535
   0.28252083  0.42675490  0.52958450
   0.28719560  0.57250351  0.52011286
   0.28684945  0.71618803  0.50891236
   0.28660437  0.85903768  0.50389692
   0.42945005  0.00219645  0.50292264
   0.42914518  0.14448423  0.50627209
   0.42729518  0.28393795  0.51461878
   0.42846054  0.71899224  0.50797608
   0.42922037  0.85976368  0.50335320
   0.57214725  0.00261423  0.49940598
   0.57215898  0.14467109  0.50120284
   0.57299419  0.28791162  0.50261807
   0.57278565  0.86066218  0.49809319
   0.71503949  0.00189164  0.49601702
   0.71516789  0.14470215  0.49703666
   0.71514955  0.28728704  0.49790435
   0.71488546  0.42917662  0.49677623
   0.71931427  0.57444087  0.49493289
   0.72116715  0.71705292  0.49613639
   0.71365151  0.85868449  0.49510753
   0.85762147  0.00130716  0.49577316
   0.85763932  0.14428244  0.49646004
   0.85783286  0.28710673  0.49684752
   0.85842775  0.43003705  0.49670724
   0.85940178  0.57332450  0.49560950
   0.86088012  0.71674195  0.49458460
   0.85805360  0.85812693  0.49478242
   0.04789335  0.09624404  0.50141864
   0.04715310  0.23864247  0.50329114
   0.04768812  0.38200668  0.50328865
   0.04911286  0.52524503  0.50150803
   0.04942866  0.66833268  0.49971723
   0.04923558  0.81131598  0.49868544
   0.04863517  0.95392771  0.49950913
   0.19087934  0.09633075  0.50728629
   0.18993425  0.23868497  0.51272885
   0.18838758  0.38061014  0.51590459
   0.19125968  0.52473460  0.51166225
   0.19178709  0.66832609  0.50659745
   0.19175091  0.81129396  0.50288402
   0.19152224  0.95397592  0.50311960
   0.33401005  0.09684087  0.50723199
   0.33417449  0.23891102  0.51702371
   0.32864164  0.37902904  0.53502420
   0.32706492  0.52066800  0.53387131
   0.33561245  0.66956403  0.51338147
   0.33421346  0.81137165  0.50545836
   0.33405692  0.95413099  0.50361747
   0.47698155  0.09712349  0.50320158
   0.47614512  0.23959475  0.50783684
   0.47628573  0.81213194  0.50253405
   0.47701832  0.95494852  0.50165569
   0.61976232  0.09738469  0.49899864
   0.62002282  0.23983427  0.50063147
   0.62181716  0.38112533  0.49908925
   0.62071227  0.81555996  0.49555228
   0.61996116  0.95530819  0.49759973
   0.76271439  0.09715225  0.49606754
   0.76282499  0.23962030  0.49684995
   0.76312045  0.38231794  0.49699756
   0.76377351  0.52629629  0.49528667
   0.76596295  0.66816892  0.49481289
   0.76171913  0.80963035  0.49487132
   0.76250411  0.95411760  0.49539876
   0.90497970  0.09619971  0.49694669
   0.90517430  0.23938726  0.49753235
   0.90562869  0.38248252  0.49748205