  99  99   0   0
  0.3914025E+02  0.1727104E-08  0.1727104E-08  0.1500000E-08  0.0000000E+00
  1.000000000000000E-004
  CAR 
 unknown system                          
      6.11465313    -31.36519842  301     -2.41106756      1.00000000
    -31.365  0.0000E+00  0.0000E+00  0.0000E+00  0.0000E+00
    -31.240  0.0000E+00  0.0000E+00  0.0000E+00  0.0000E+00
    -31.115  0.0000E+00  0.0000E+00  0.0000E+00  0.0000E+00
    -30.990  0.0000E+00  0.0000E+00  0.0000E+00  0.0000E+00
    -30.865  0.0000E+00  0.0000E+00  0.0000E+00  0.0000E+00
    -30.741  0.0000E+00  0.0000E+00  0.0000E+00  0.0000E+00
    -30.616  0.0000E+00  0.0000E+00  0.0000E+00  0.0000E+00
    -30.491  0.0000E+00  0.0000E+00  0.0000E+00  0.0000E+00
    -30.366  0.0000E+00  0.0000E+00  0.0000E+00  0.0000E+00
    -30.241  0.0000E+00  0.0000E+00  0.0000E+00  0.0000E+00
    -30.116  0.0000E+00  0.0000E+00  0.0000E+00  0.0000E+00
    -29.991  0.0000E+00  0.0000E+00  0.0000E+00  0.0000E+00
    -29.866  0.2934E-10  0.2934E-10  0.3666E-11  0.3666E-11
    -29.741  0.9797E-04  0.9797E-04  0.1224E-04  0.1224E-04
    -29.616  0.7391E-02  0.7391E-02  0.9357E-03  0.9357E-03
    -29.491  0.8200E-02  0.8200E-02  0.1960E-02  0.1960E-02
    -29.366  0.6484E-02  0.6484E-02  0.2770E-02  0.2770E-02
    -29.241  0.8782E-02  0.8782E-02  0.3867E-02  0.3867E-02
    -29.116  0.1063E-02  0.1063E-02  0.4000E-02  0.4000E-02
    -28.991  0.1347E-07  0.1347E-07  0.4000E-02  0.4000E-02
    -28.867  0.0000E+00  0.0000E+00  0.4000E-02  0.4000E-02
    -28.742  0.0000E+00  0.0000E+00  0.4000E-02  0.4000E-02
    -28.617  0.0000E+00  0.0000E+00  0.4000E-02  0.4000E-02
    -28.492  0.0000E+00  0.0000E+00  0.4000E-02  0.4000E-02
    -28.367  0.0000E+00  0.0000E+00  0.4000E-02  0.4000E-02
    -28.242  0.0000E+00  0.0000E+00  0.4000E-02  0.4000E-02
    -28.117  0.0000E+00  0.0000E+00  0.4000E-02  0.4000E-02
    -27.992  0.0000E+00  0.0000E+00  0.4000E-02  0.4000E-02
    -27.867  0.0000E+00  0.0000E+00  0.4000E-02  0.4000E-02
    -27.742  0.0000E+00  0.0000E+00  0.4000E-02  0.4000E-02
    -27.617  0.0000E+00  0.0000E+00  0.4000E-02  0.4000E-02
    -27.492  0.0000E+00  0.0000E+00  0.4000E-02  0.4000E-02
    -27.367  0.0000E+00  0.0000E+00  0.4000E-02  0.4000E-02
    -27.242  0.0000E+00  0.0000E+00  0.4000E-02  0.4000E-02
    -27.117  0.0000E+00  0.0000E+00  0.4000E-02  0.4000E-02
    -26.993  0.0000E+00  0.0000E+00  0.4000E-02  0.4000E-02
    -26.868  0.0000E+00  0.0000E+00  0.4000E-02  0.4000E-02
    -26.743  0.0000E+00  0.0000E+00  0.4000E-02  0.4000E-02
    -26.618  0.0000E+00  0.0000E+00  0.4000E-02  0.4000E-02
    -26.493  0.0000E+00  0.0000E+00  0.4000E-02  0.4000E-02
    -26.368  0.0000E+00  0.0000E+00  0.4000E-02  0.4000E-02
    -26.243  0.0000E+00  0.0000E+00  0.4000E-02  0.4000E-02
    -26.118  0.0000E+00  0.0000E+00  0.4000E-02  0.4000E-02
    -25.993  0.0000E+00  0.0000E+00  0.4000E-02  0.4000E-02
    -25.868  0.0000E+00  0.0000E+00  0.4000E-02  0.4000E-02
    -25.743  0.0000E+00  0.0000E+00  0.4000E-02  0.4000E-02
    -25.618  0.0000E+00  0.0000E+00  0.4000E-02  0.4000E-02
    -25.493  0.0000E+00  0.0000E+00  0.4000E-02  0.4000E-02
    -25.368  0.0000E+00  0.0000E+00  0.4000E-02  0.4000E-02
    -25.243  0.0000E+00  0.0000E+00  0.4000E-02  0.4000E-02
    -25.119  0.0000E+00  0.0000E+00  0.4000E-02  0.4000E-02
    -24.994  0.0000E+00  0.0000E+00  0.4000E-02  0.4000E-02
    -24.869  0.0000E+00  0.0000E+00  0.4000E-02  0.4000E-02
    -24.744  0.0000E+00  0.0000E+00  0.4000E-02  0.4000E-02
    -24.619  0.0000E+00  0.0000E+00  0.4000E-02  0.4000E-02
    -24.494  0.0000E+00  0.0000E+00  0.4000E-02  0.4000E-02
    -24.369  0.0000E+00  0.0000E+00  0.4000E-02  0.4000E-02
    -24.244  0.0000E+00  0.0000E+00  0.4000E-02  0.4000E-02
    -24.119  0.0000E+00  0.0000E+00  0.4000E-02  0.4000E-02
    -23.994  0.0000E+00  0.0000E+00  0.4000E-02  0.4000E-02
    -23.869  0.0000E+00  0.0000E+00  0.4000E-02  0.4000E-02
    -23.744  0.0000E+00  0.0000E+00  0.4000E-02  0.4000E-02
    -23.619  0.0000E+00  0.0000E+00  0.4000E-02  0.4000E-02
    -23.494  0.0000E+00  0.0000E+00  0.4000E-02  0.4000E-02
    -23.369  0.7119E-10  0.7119E-10  0.4000E-02  0.4000E-02
    -23.245  0.1435E-03  0.1435E-03  0.4018E-02  0.4018E-02
    -23.120  0.7255E-02  0.7255E-02  0.4924E-02  0.4924E-02
    -22.995  0.6055E-03  0.6055E-03  0.5000E-02  0.5000E-02
    -22.870  0.2698E-08  0.2698E-08  0.5000E-02  0.5000E-02
    -22.745  0.0000E+00  0.0000E+00  0.5000E-02  0.5000E-02
    -22.620  0.0000E+00  0.0000E+00  0.5000E-02  0.5000E-02
    -22.495  0.0000E+00  0.0000E+00  0.5000E-02  0.5000E-02
    -22.370  0.0000E+00  0.0000E+00  0.5000E-02  0.5000E-02
    -22.245  0.0000E+00  0.0000E+00  0.5000E-02  0.5000E-02
    -22.120  0.0000E+00  0.0000E+00  0.5000E-02  0.5000E-02
    -21.995  0.5979E-09  0.5979E-09  0.5000E-02  0.5000E-02
    -21.870  0.1562E-03  0.1562E-03  0.5020E-02  0.5020E-02
    -21.745  0.5390E-02  0.5390E-02  0.5693E-02  0.5693E-02
    -21.620  0.7043E-02  0.7043E-02  0.6573E-02  0.6573E-02
    -21.496  0.2645E-02  0.2645E-02  0.6903E-02  0.6903E-02
    -21.371  0.1203E-01  0.1203E-01  0.8406E-02  0.8406E-02
    -21.246  0.6118E-02  0.6118E-02  0.9170E-02  0.9170E-02
    -21.121  0.2047E-02  0.2047E-02  0.9426E-02  0.9426E-02
    -20.996  0.8834E-02  0.8834E-02  0.1053E-01  0.1053E-01
    -20.871  0.8900E-02  0.8900E-02  0.1164E-01  0.1164E-01
    -20.746  0.8467E-02  0.8467E-02  0.1270E-01  0.1270E-01
    -20.621  0.9387E-03  0.9387E-03  0.1282E-01  0.1282E-01
    -20.496  0.6550E-02  0.6550E-02  0.1363E-01  0.1363E-01
    -20.371  0.8777E-02  0.8777E-02  0.1473E-01  0.1473E-01
    -20.246  0.9646E-02  0.9646E-02  0.1594E-01  0.1594E-01
    -20.121  0.8901E-02  0.8901E-02  0.1705E-01  0.1705E-01
    -19.996  0.2558E-02  0.2558E-02  0.1737E-01  0.1737E-01
    -19.871  0.7719E-02  0.7719E-02  0.1833E-01  0.1833E-01
    -19.746  0.4025E-02  0.4025E-02  0.1883E-01  0.1883E-01
    -19.622  0.5914E-02  0.5914E-02  0.1957E-01  0.1957E-01
    -19.497  0.1114E-01  0.1114E-01  0.2097E-01  0.2097E-01
    -19.372  0.1215E-01  0.1215E-01  0.2248E-01  0.2248E-01
    -19.247  0.3640E-02  0.3640E-02  0.2294E-01  0.2294E-01
    -19.122  0.8214E-02  0.8214E-02  0.2396E-01  0.2396E-01
    -18.997  0.3629E-02  0.3629E-02  0.2442E-01  0.2442E-01
    -18.872  0.4639E-02  0.4639E-02  0.2500E-01  0.2500E-01
    -18.747  0.4647E-02  0.4647E-02  0.2558E-01  0.2558E-01
    -18.622  0.1061E-01  0.1061E-01  0.2690E-01  0.2690E-01
    -18.497  0.1453E-01  0.1453E-01  0.2872E-01  0.2872E-01
    -18.372  0.4986E-02  0.4986E-02  0.2934E-01  0.2934E-01
    -18.247  0.8940E-02  0.8940E-02  0.3046E-01  0.3046E-01
    -18.122  0.5221E-02  0.5221E-02  0.3111E-01  0.3111E-01
    -17.997  0.7876E-02  0.7876E-02  0.3210E-01  0.3210E-01
    -17.872  0.3760E-02  0.3760E-02  0.3257E-01  0.3257E-01
    -17.748  0.6063E-02  0.6063E-02  0.3332E-01  0.3332E-01
    -17.623  0.3412E-02  0.3412E-02  0.3375E-01  0.3375E-01
    -17.498  0.1213E-01  0.1213E-01  0.3526E-01  0.3526E-01
    -17.373  0.1521E-01  0.1521E-01  0.3716E-01  0.3716E-01
    -17.248  0.1139E-01  0.1139E-01  0.3859E-01  0.3859E-01
    -17.123  0.5327E-02  0.5327E-02  0.3925E-01  0.3925E-01
    -16.998  0.5191E-02  0.5191E-02  0.3990E-01  0.3990E-01
    -16.873  0.9481E-02  0.9481E-02  0.4109E-01  0.4109E-01
    -16.748  0.7204E-02  0.7204E-02  0.4199E-01  0.4199E-01
    -16.623  0.7655E-02  0.7655E-02  0.4294E-01  0.4294E-01
    -16.498  0.2066E-02  0.2066E-02  0.4320E-01  0.4320E-01
    -16.373  0.1413E-01  0.1413E-01  0.4497E-01  0.4497E-01
    -16.248  0.1301E-01  0.1301E-01  0.4659E-01  0.4659E-01
    -16.123  0.3681E-02  0.3681E-02  0.4705E-01  0.4705E-01
    -15.998  0.4125E-02  0.4125E-02  0.4757E-01  0.4757E-01
    -15.874  0.1474E-02  0.1474E-02  0.4775E-01  0.4775E-01
    -15.749  0.1734E-02  0.1734E-02  0.4797E-01  0.4797E-01
    -15.624  0.2304E-02  0.2304E-02  0.4825E-01  0.4825E-01
    -15.499  0.5401E-02  0.5401E-02  0.4893E-01  0.4893E-01
    -15.374  0.6973E-02  0.6973E-02  0.4980E-01  0.4980E-01
    -15.249  0.8925E-02  0.8925E-02  0.5092E-01  0.5092E-01
    -15.124  0.6866E-02  0.6866E-02  0.5177E-01  0.5177E-01
    -14.999  0.1231E-01  0.1231E-01  0.5331E-01  0.5331E-01
    -14.874  0.9716E-02  0.9716E-02  0.5452E-01  0.5452E-01
    -14.749  0.4952E-02  0.4952E-02  0.5514E-01  0.5514E-01
    -14.624  0.8138E-02  0.8138E-02  0.5616E-01  0.5616E-01
    -14.499  0.1028E-01  0.1028E-01  0.5744E-01  0.5744E-01
    -14.374  0.1097E-01  0.1097E-01  0.5881E-01  0.5881E-01
    -14.249  0.1289E-01  0.1289E-01  0.6043E-01  0.6043E-01
    -14.124  0.8745E-02  0.8745E-02  0.6152E-01  0.6152E-01
    -14.000  0.3964E-02  0.3964E-02  0.6201E-01  0.6201E-01
    -13.875  0.6140E-02  0.6140E-02  0.6278E-01  0.6278E-01
    -13.750  0.6756E-02  0.6756E-02  0.6362E-01  0.6362E-01
    -13.625  0.8471E-02  0.8471E-02  0.6468E-01  0.6468E-01
    -13.500  0.7462E-02  0.7462E-02  0.6561E-01  0.6561E-01
    -13.375  0.8633E-02  0.8633E-02  0.6669E-01  0.6669E-01
    -13.250  0.7188E-02  0.7188E-02  0.6759E-01  0.6759E-01
    -13.125  0.6658E-02  0.6658E-02  0.6842E-01  0.6842E-01
    -13.000  0.4059E-02  0.4059E-02  0.6893E-01  0.6893E-01
    -12.875  0.1136E-01  0.1136E-01  0.7035E-01  0.7035E-01
    -12.750  0.3638E-02  0.3638E-02  0.7080E-01  0.7080E-01
    -12.625  0.1249E-01  0.1249E-01  0.7236E-01  0.7236E-01
    -12.500  0.1020E-01  0.1020E-01  0.7364E-01  0.7364E-01
    -12.375  0.1056E-01  0.1056E-01  0.7496E-01  0.7496E-01
    -12.250  0.1377E-01  0.1377E-01  0.7668E-01  0.7668E-01
    -12.126  0.5931E-02  0.5931E-02  0.7742E-01  0.7742E-01
    -12.001  0.8754E-02  0.8754E-02  0.7851E-01  0.7851E-01
    -11.876  0.7668E-02  0.7668E-02  0.7947E-01  0.7947E-01
    -11.751  0.8551E-02  0.8551E-02  0.8054E-01  0.8054E-01
    -11.626  0.5357E-02  0.5357E-02  0.8121E-01  0.8121E-01
    -11.501  0.1451E-01  0.1451E-01  0.8302E-01  0.8302E-01
    -11.376  0.1304E-01  0.1304E-01  0.8465E-01  0.8465E-01
    -11.251  0.9827E-02  0.9827E-02  0.8588E-01  0.8588E-01
    -11.126  0.1421E-01  0.1421E-01  0.8765E-01  0.8765E-01
    -11.001  0.1551E-01  0.1551E-01  0.8959E-01  0.8959E-01
    -10.876  0.1014E-01  0.1014E-01  0.9086E-01  0.9086E-01
    -10.751  0.8238E-02  0.8238E-02  0.9189E-01  0.9189E-01
    -10.626  0.1028E-01  0.1028E-01  0.9317E-01  0.9317E-01
    -10.501  0.8242E-02  0.8242E-02  0.9420E-01  0.9420E-01
    -10.376  0.1754E-01  0.1754E-01  0.9639E-01  0.9639E-01
    -10.252  0.6755E-02  0.6755E-02  0.9724E-01  0.9724E-01
    -10.127  0.1204E-01  0.1204E-01  0.9874E-01  0.9874E-01
    -10.002  0.2111E-01  0.2111E-01  0.1014E+00  0.1014E+00
     -9.877  0.1957E-01  0.1957E-01  0.1038E+00  0.1038E+00
     -9.752  0.1931E-01  0.1931E-01  0.1062E+00  0.1062E+00
     -9.627  0.2058E-01  0.2058E-01  0.1088E+00  0.1088E+00
     -9.502  0.1878E-01  0.1878E-01  0.1112E+00  0.1112E+00
     -9.377  0.1793E-01  0.1793E-01  0.1134E+00  0.1134E+00
     -9.252  0.1824E-01  0.1824E-01  0.1157E+00  0.1157E+00
     -9.127  0.1813E-01  0.1813E-01  0.1179E+00  0.1179E+00
     -9.002  0.2012E-01  0.2012E-01  0.1204E+00  0.1204E+00
     -8.877  0.2221E-01  0.2221E-01  0.1232E+00  0.1232E+00
     -8.752  0.2916E-01  0.2916E-01  0.1269E+00  0.1269E+00
     -8.627  0.2287E-01  0.2287E-01  0.1297E+00  0.1297E+00
     -8.502  0.1964E-01  0.1964E-01  0.1322E+00  0.1322E+00
     -8.378  0.1910E-01  0.1910E-01  0.1346E+00  0.1346E+00
     -8.253  0.1436E-01  0.1436E-01  0.1364E+00  0.1364E+00
     -8.128  0.2249E-01  0.2249E-01  0.1392E+00  0.1392E+00
     -8.003  0.2228E-01  0.2228E-01  0.1419E+00  0.1419E+00
     -7.878  0.1608E-01  0.1608E-01  0.1440E+00  0.1440E+00
     -7.753  0.1822E-01  0.1822E-01  0.1462E+00  0.1462E+00
     -7.628  0.2054E-01  0.2054E-01  0.1488E+00  0.1488E+00
     -7.503  0.8398E-02  0.8398E-02  0.1498E+00  0.1498E+00
     -7.378  0.1012E-01  0.1012E-01  0.1511E+00  0.1511E+00
     -7.253  0.1614E-01  0.1614E-01  0.1531E+00  0.1531E+00
     -7.128  0.1999E-01  0.1999E-01  0.1556E+00  0.1556E+00
     -7.003  0.2770E-01  0.2770E-01  0.1591E+00  0.1591E+00
     -6.878  0.1676E-01  0.1676E-01  0.1612E+00  0.1612E+00
     -6.753  0.8555E-02  0.8555E-02  0.1623E+00  0.1623E+00
     -6.628  0.1445E-01  0.1445E-01  0.1641E+00  0.1641E+00
     -6.504  0.8212E-02  0.8212E-02  0.1651E+00  0.1651E+00
     -6.379  0.1082E-01  0.1082E-01  0.1664E+00  0.1664E+00
     -6.254  0.1368E-01  0.1368E-01  0.1681E+00  0.1681E+00
     -6.129  0.1514E-01  0.1514E-01  0.1700E+00  0.1700E+00
     -6.004  0.2066E-01  0.2066E-01  0.1726E+00  0.1726E+00
     -5.879  0.8214E-02  0.8214E-02  0.1736E+00  0.1736E+00
     -5.754  0.1667E-01  0.1667E-01  0.1757E+00  0.1757E+00
     -5.629  0.1077E-01  0.1077E-01  0.1771E+00  0.1771E+00
     -5.504  0.1089E-01  0.1089E-01  0.1784E+00  0.1784E+00
     -5.379  0.6687E-02  0.6687E-02  0.1793E+00  0.1793E+00
     -5.254  0.4304E-02  0.4304E-02  0.1798E+00  0.1798E+00
     -5.129  0.5797E-02  0.5797E-02  0.1805E+00  0.1805E+00
     -5.004  0.1957E-01  0.1957E-01  0.1830E+00  0.1830E+00
     -4.879  0.2040E-01  0.2040E-01  0.1855E+00  0.1855E+00
     -4.755  0.1414E-01  0.1414E-01  0.1873E+00  0.1873E+00
     -4.630  0.3524E-02  0.3524E-02  0.1877E+00  0.1877E+00
     -4.505  0.9816E-02  0.9816E-02  0.1890E+00  0.1890E+00
     -4.380  0.2686E-02  0.2686E-02  0.1893E+00  0.1893E+00
     -4.255  0.4128E-02  0.4128E-02  0.1898E+00  0.1898E+00
     -4.130  0.7216E-02  0.7216E-02  0.1907E+00  0.1907E+00
     -4.005  0.8944E-02  0.8944E-02  0.1918E+00  0.1918E+00
     -3.880  0.4369E-02  0.4369E-02  0.1924E+00  0.1924E+00
     -3.755  0.8609E-02  0.8609E-02  0.1934E+00  0.1934E+00
     -3.630  0.4419E-02  0.4419E-02  0.1940E+00  0.1940E+00
     -3.505  0.2199E-04  0.2199E-04  0.1940E+00  0.1940E+00
     -3.380  0.2692E-03  0.2692E-03  0.1940E+00  0.1940E+00
     -3.255  0.3921E-02  0.3921E-02  0.1945E+00  0.1945E+00
     -3.130  0.5345E-02  0.5345E-02  0.1952E+00  0.1952E+00
     -3.005  0.1490E-02  0.1490E-02  0.1954E+00  0.1954E+00
     -2.881  0.9809E-03  0.9809E-03  0.1955E+00  0.1955E+00
     -2.756  0.5120E-06  0.5120E-06  0.1955E+00  0.1955E+00
     -2.631  0.1311E-02  0.1311E-02  0.1957E+00  0.1957E+00
     -2.506  0.2687E-02  0.2687E-02  0.1960E+00  0.1960E+00
     -2.381  0.4053E-05  0.4053E-05  0.1960E+00  0.1960E+00
     -2.256  0.3376E-03  0.3376E-03  0.1960E+00  0.1960E+00
     -2.131  0.3602E-02  0.3602E-02  0.1965E+00  0.1965E+00
     -2.006  0.6237E-04  0.6237E-04  0.1965E+00  0.1965E+00
     -1.881  0.7155E-04  0.7155E-04  0.1965E+00  0.1965E+00
     -1.756  0.1890E-02  0.1890E-02  0.1967E+00  0.1967E+00
     -1.631  0.2995E-02  0.2995E-02  0.1971E+00  0.1971E+00
     -1.506  0.6224E-02  0.6224E-02  0.1979E+00  0.1979E+00
     -1.381  0.8263E-03  0.8263E-03  0.1980E+00  0.1980E+00
     -1.256  0.1009E-02  0.1009E-02  0.1981E+00  0.1981E+00
     -1.131  0.5304E-02  0.5304E-02  0.1988E+00  0.1988E+00
     -1.007  0.6999E-02  0.6999E-02  0.1997E+00  0.1997E+00
     -0.882  0.9480E-02  0.9480E-02  0.2008E+00  0.2008E+00
     -0.757  0.1487E-01  0.1487E-01  0.2027E+00  0.2027E+00
     -0.632  0.3303E-02  0.3303E-02  0.2031E+00  0.2031E+00
     -0.507  0.1106E-01  0.1106E-01  0.2045E+00  0.2045E+00
     -0.382  0.1070E-01  0.1070E-01  0.2058E+00  0.2058E+00
     -0.257  0.5505E-02  0.5505E-02  0.2065E+00  0.2065E+00
     -0.132  0.4751E-02  0.4751E-02  0.2071E+00  0.2071E+00
     -0.007  0.9060E-02  0.9060E-02  0.2082E+00  0.2082E+00
      0.118  0.8819E-02  0.8819E-02  0.2094E+00  0.2094E+00
      0.243  0.1451E-01  0.1451E-01  0.2112E+00  0.2112E+00
      0.368  0.6454E-02  0.6454E-02  0.2120E+00  0.2120E+00
      0.493  0.2821E-03  0.2821E-03  0.2120E+00  0.2120E+00
      0.618  0.6631E-02  0.6631E-02  0.2128E+00  0.2128E+00
      0.743  0.6674E-02  0.6674E-02  0.2137E+00  0.2137E+00
      0.867  0.9915E-02  0.9915E-02  0.2149E+00  0.2149E+00
      0.992  0.1012E-01  0.1012E-01  0.2162E+00  0.2162E+00
      1.117  0.7808E-02  0.7808E-02  0.2171E+00  0.2171E+00
      1.242  0.6344E-02  0.6344E-02  0.2179E+00  0.2179E+00
      1.367  0.8691E-02  0.8691E-02  0.2190E+00  0.2190E+00
      1.492  0.1644E-01  0.1644E-01  0.2211E+00  0.2211E+00
      1.617  0.1660E-01  0.1660E-01  0.2232E+00  0.2232E+00
      1.742  0.9527E-02  0.9527E-02  0.2243E+00  0.2243E+00
      1.867  0.1402E-01  0.1402E-01  0.2261E+00  0.2261E+00
      1.992  0.1469E-01  0.1469E-01  0.2279E+00  0.2279E+00
      2.117  0.1795E-01  0.1795E-01  0.2302E+00  0.2302E+00
      2.242  0.1808E-01  0.1808E-01  0.2324E+00  0.2324E+00
      2.367  0.1787E-01  0.1787E-01  0.2347E+00  0.2347E+00
      2.492  0.2151E-01  0.2151E-01  0.2373E+00  0.2373E+00
      2.617  0.1221E-01  0.1221E-01  0.2389E+00  0.2389E+00
      2.741  0.1648E-01  0.1648E-01  0.2409E+00  0.2409E+00
      2.866  0.2387E-01  0.2387E-01  0.2439E+00  0.2439E+00
      2.991  0.3547E-01  0.3547E-01  0.2483E+00  0.2483E+00
      3.116  0.3003E-01  0.3003E-01  0.2521E+00  0.2521E+00
      3.241  0.2169E-01  0.2169E-01  0.2548E+00  0.2548E+00
      3.366  0.1635E-01  0.1635E-01  0.2569E+00  0.2569E+00
      3.491  0.2113E-01  0.2113E-01  0.2595E+00  0.2595E+00
      3.616  0.2133E-01  0.2133E-01  0.2622E+00  0.2622E+00
      3.741  0.1277E-01  0.1277E-01  0.2638E+00  0.2638E+00
      3.866  0.2422E-01  0.2422E-01  0.2668E+00  0.2668E+00
      3.991  0.2724E-01  0.2724E-01  0.2702E+00  0.2702E+00
      4.116  0.2422E-01  0.2422E-01  0.2732E+00  0.2732E+00
      4.241  0.1635E-01  0.1635E-01  0.2753E+00  0.2753E+00
      4.366  0.2280E-01  0.2280E-01  0.2781E+00  0.2781E+00
      4.491  0.1515E-01  0.1516E-01  0.2800E+00  0.2800E+00
      4.615  0.6246E-04  0.6250E-04  0.2800E+00  0.2800E+00
      4.740  0.1034E-10  0.1035E-10  0.2800E+00  0.2800E+00
      4.865  0.0000E+00  0.0000E+00  0.2800E+00  0.2800E+00
      4.990  0.0000E+00  0.0000E+00  0.2800E+00  0.2800E+00
      5.115  0.0000E+00  0.0000E+00  0.2800E+00  0.2800E+00
      5.240  0.0000E+00  0.0000E+00  0.2800E+00  0.2800E+00
      5.365  0.0000E+00  0.0000E+00  0.2800E+00  0.2800E+00
      5.490  0.0000E+00  0.0000E+00  0.2800E+00  0.2800E+00
      5.615  0.0000E+00  0.0000E+00  0.2800E+00  0.2800E+00
      5.740  0.0000E+00  0.0000E+00  0.2800E+00  0.2800E+00
      5.865  0.0000E+00  0.0000E+00  0.2800E+00  0.2800E+00
      5.990  0.0000E+00  0.0000E+00  0.2800E+00  0.2800E+00
      6.115  0.0000E+00  0.0000E+00  0.2800E+00  0.2800E+00
