 vasp.6.4.2 20Jul23 (build Aug 26 2025 15:10:52) complex                        
  
 POSCAR found type information on POSCAR C H F O 
 04/POSCAR found :  4 types and      99 ions
 Reading from existing POTCAR
 scaLAPACK will be used
 -----------------------------------------------------------------------------
|                                                                             |
|           W    W    AA    RRRRR   N    N  II  N    N   GGGG   !!!           |
|           W    W   A  A   R    R  NN   N  II  NN   N  G    G  !!!           |
|           W    W  A    A  R    R  N N  N  II  N N  N  G       !!!           |
|           W WW W  AAAAAA  RRRRR   N  N N  II  N  N N  G  GGG   !            |
|           WW  WW  A    A  R   R   N   NN  II  N   NN  G    G                |
|           W    W  A    A  R    R  N    N  II  N    N   GGGG   !!!           |
|                                                                             |
|     For optimal performance we recommend to set                             |
|       NCORE = 2 up to number-of-cores-per-socket                            |
|     NCORE specifies how many cores store one orbital (NPAR=cpu/NCORE).      |
|     This setting can greatly improve the performance of VASP for DFT.       |
|     The default, NCORE=1 might be grossly inefficient on modern             |
|     multi-core architectures or massively parallel machines. Do your        |
|     own testing! More info at https://www.vasp.at/wiki/index.php/NCORE      |
|     Unfortunately you need to use the default for GW and RPA                |
|     calculations (for HF NCORE is supported but not extensively tested      |
|     yet).                                                                   |
|                                                                             |
 -----------------------------------------------------------------------------

 Reading from existing POTCAR
 LDA part: xc-table for Pade appr. of Perdew
 POSCAR found type information on POSCAR C H F O 
 00/POSCAR found :  4 types and      99 ions
 POSCAR found type information on POSCAR C H F O 
 06/POSCAR found :  4 types and      99 ions
 Jacobian:    33.7825262909836     
 POSCAR found type information on POSCAR C H F O 
 00/POSCAR found :  4 types and      99 ions
 POSCAR found type information on POSCAR C H F O 
 06/POSCAR found :  4 types and      99 ions
 POSCAR, INCAR and KPOINTS ok, starting setup
 FFT: planning ... GRIDC
 FFT: planning ... GRID_SOFT
 FFT: planning ... GRID
 WAVECAR not read
 entering main loop
       N       E                     dE             d eps       ncg     rms          rms(c)
DAV:   1     0.354935410725E+04    0.35494E+04   -0.14948E+05  4830   0.107E+03
DAV:   2    -0.224804558563E+03   -0.37742E+04   -0.35612E+04  6730   0.265E+02
DAV:   3    -0.873737821720E+03   -0.64893E+03   -0.64596E+03  5590   0.114E+02
DAV:   4    -0.895585824439E+03   -0.21848E+02   -0.21758E+02  5640   0.260E+01
DAV:   5    -0.896243543268E+03   -0.65772E+00   -0.65675E+00  6380   0.392E+00    0.524E+01
DAV:   6    -0.878036322574E+03    0.18207E+02   -0.23147E+01  5520   0.974E+00    0.339E+01
DAV:   7    -0.856550358674E+03    0.21486E+02   -0.36253E+01  5380   0.997E+00    0.207E+01
DAV:   8    -0.851586982077E+03    0.49634E+01   -0.21580E+01  5500   0.706E+00    0.865E+00
DAV:   9    -0.851726063583E+03   -0.13908E+00   -0.10718E+00  5440   0.197E+00    0.393E+00
DAV:  10    -0.851540440301E+03    0.18562E+00   -0.59752E-01  5270   0.142E+00    0.111E+00
DAV:  11    -0.851526370860E+03    0.14069E-01   -0.10879E-01  5220   0.652E-01    0.303E-01
DAV:  12    -0.851526083541E+03    0.28732E-03   -0.16424E-02  5450   0.306E-01    0.143E-01
DAV:  13    -0.851526243401E+03   -0.15986E-03   -0.24184E-03  5450   0.981E-02    0.113E-01
DAV:  14    -0.851526220461E+03    0.22940E-04   -0.51549E-04  5330   0.501E-02    0.624E-02
DAV:  15    -0.851526294930E+03   -0.74469E-04   -0.20101E-04  5240   0.313E-02    0.348E-02
DAV:  16    -0.851526298930E+03   -0.39995E-05   -0.97111E-05  5140   0.291E-02    0.138E-02
DAV:  17    -0.851526299689E+03   -0.75955E-06   -0.21596E-05  5490   0.100E-02    0.117E-02
DAV:  18    -0.851526298054E+03    0.16347E-05   -0.11240E-05  5070   0.105E-02    0.388E-03
DAV:  19    -0.851526298285E+03   -0.23009E-06   -0.24144E-06  4110   0.339E-03
   1 F= -.85943435E+03 E0= -.85943435E+03  d E =-.859434E+03  mag=    -0.0001
quench:  g(F)=  0.000E+00 g(S)=  0.000E+00 dE (1.order)= 0.000E+00
 bond charge predicted
       N       E                     dE             d eps       ncg     rms          rms(c)
DAV:   1    -0.851526647105E+03   -0.34905E-03   -0.29156E-02  4720   0.209E-01    0.315E-02
DAV:   2    -0.851526684710E+03   -0.37605E-04   -0.61098E-04  4840   0.275E-02    0.279E-02
DAV:   3    -0.851526674017E+03    0.10693E-04   -0.55688E-06  4480   0.374E-03    0.234E-02
DAV:   4    -0.851526684428E+03   -0.10410E-04   -0.43261E-05  4400   0.813E-03    0.474E-03
DAV:   5    -0.851526685622E+03   -0.11942E-05   -0.67424E-06  4120   0.289E-03    0.346E-03
DAV:   6    -0.851526686434E+03   -0.81235E-06   -0.39473E-07  3200   0.128E-03
   2 F= -.85943470E+03 E0= -.85943470E+03  d E =-.353687E-03  mag=     0.0000
quench:  g(F)=  0.000E+00 g(S)=  0.000E+00 dE (1.order)= 0.000E+00
 bond charge predicted
       N       E                     dE             d eps       ncg     rms          rms(c)
DAV:   1    -0.851527057006E+03   -0.37138E-03   -0.63488E-02  4720   0.328E-01    0.469E-02
DAV:   2    -0.851527135489E+03   -0.78483E-04   -0.11954E-03  4800   0.418E-02    0.387E-02
DAV:   3    -0.851527119097E+03    0.16393E-04   -0.12793E-05  5140   0.582E-03    0.314E-02
DAV:   4    -0.851527140049E+03   -0.20952E-04   -0.73248E-05  4590   0.113E-02    0.579E-03
DAV:   5    -0.851527141301E+03   -0.12520E-05   -0.11109E-05  4380   0.412E-03    0.466E-03
DAV:   6    -0.851527142445E+03   -0.11443E-05   -0.88195E-07  3300   0.205E-03    0.225E-03
DAV:   7    -0.851527142606E+03   -0.16124E-06   -0.50096E-07  3470   0.112E-03
   3 F= -.85943510E+03 E0= -.85943510E+03  d E =-.403592E-03  mag=    -0.0000
quench:  g(F)=  0.000E+00 g(S)=  0.000E+00 dE (1.order)= 0.000E+00
 bond charge predicted
       N       E                     dE             d eps       ncg     rms          rms(c)
DAV:   1    -0.851527888128E+03   -0.74568E-03   -0.81704E-02  4720   0.400E-01    0.568E-02
DAV:   2    -0.851527987712E+03   -0.99584E-04   -0.14103E-03  4680   0.484E-02    0.435E-02
DAV:   3    -0.851527973486E+03    0.14227E-04   -0.18415E-05  5440   0.729E-03    0.340E-02
DAV:   4    -0.851527997289E+03   -0.23803E-04   -0.54255E-05  4580   0.117E-02    0.552E-03
DAV:   5    -0.851527997739E+03   -0.44966E-06   -0.10041E-05  5030   0.446E-03    0.465E-03
DAV:   6    -0.851527997930E+03   -0.19138E-06   -0.10868E-06  3300   0.207E-03
   4 F= -.85943590E+03 E0= -.85943590E+03  d E =-.799443E-03  mag=     0.0000
quench:  g(F)=  0.000E+00 g(S)=  0.000E+00 dE (1.order)= 0.000E+00
 bond charge predicted
       N       E                     dE             d eps       ncg     rms          rms(c)
DAV:   1    -0.851528780897E+03   -0.78316E-03   -0.12831E-01  4720   0.510E-01    0.728E-02
DAV:   2    -0.851528946724E+03   -0.16583E-03   -0.22485E-03  4720   0.619E-02    0.560E-02
DAV:   3    -0.851528927429E+03    0.19295E-04   -0.30845E-05  5590   0.978E-03    0.436E-02
DAV:   4    -0.851528956372E+03   -0.28943E-04   -0.75015E-05  4680   0.147E-02    0.750E-03
DAV:   5    -0.851528957161E+03   -0.78924E-06   -0.15308E-05  5080   0.566E-03    0.589E-03
DAV:   6    -0.851528957239E+03   -0.78478E-07   -0.26249E-06  3780   0.304E-03
   5 F= -.85943679E+03 E0= -.85943679E+03  d E =-.892961E-03  mag=    -0.0000
quench:  g(F)=  0.000E+00 g(S)=  0.000E+00 dE (1.order)= 0.000E+00
 bond charge predicted
       N       E                     dE             d eps       ncg     rms          rms(c)
DAV:   1    -0.851529832784E+03   -0.87562E-03   -0.23095E-01  4660   0.661E-01    0.932E-02
DAV:   2    -0.851530134316E+03   -0.30153E-03   -0.40144E-03  4730   0.810E-02    0.725E-02
DAV:   3    -0.851530095826E+03    0.38490E-04   -0.49931E-05  5570   0.120E-02    0.572E-02
DAV:   4    -0.851530141860E+03   -0.46034E-04   -0.19060E-04  4780   0.207E-02    0.103E-02
DAV:   5    -0.851530142891E+03   -0.10308E-05   -0.31410E-05  5060   0.780E-03    0.870E-03
DAV:   6    -0.851530144385E+03   -0.14938E-05   -0.53895E-06  4060   0.425E-03    0.372E-03
DAV:   7    -0.851530144547E+03   -0.16167E-06   -0.91032E-07  3760   0.155E-03
   6 F= -.85943788E+03 E0= -.85943788E+03  d E =-.108864E-02  mag=    -0.0000
quench:  g(F)=  0.000E+00 g(S)=  0.000E+00 dE (1.order)= 0.000E+00
 bond charge predicted
       N       E                     dE             d eps       ncg     rms          rms(c)
DAV:   1    -0.851531026916E+03   -0.88253E-03   -0.37798E-01  4580   0.821E-01    0.116E-01
DAV:   2    -0.851531553516E+03   -0.52660E-03   -0.68247E-03  4800   0.103E-01    0.929E-02
DAV:   3    -0.851531484616E+03    0.68900E-04   -0.76861E-05  5570   0.145E-02    0.746E-02
DAV:   4    -0.851531528930E+03   -0.44313E-04   -0.39904E-04  4940   0.275E-02    0.132E-02
DAV:   5    -0.851531531061E+03   -0.21316E-05   -0.60818E-05  5030   0.101E-02    0.114E-02
DAV:   6    -0.851531535602E+03   -0.45410E-05   -0.66036E-06  4220   0.487E-03    0.523E-03
DAV:   7    -0.851531535997E+03   -0.39492E-06   -0.26533E-06  3960   0.249E-03
   7 F= -.85943915E+03 E0= -.85943915E+03  d E =-.126148E-02  mag=     0.0000
quench:  g(F)=  0.000E+00 g(S)=  0.000E+00 dE (1.order)= 0.000E+00
 bond charge predicted
       N       E                     dE             d eps       ncg     rms          rms(c)
DAV:   1    -0.851532469557E+03   -0.93395E-03   -0.52699E-01  4560   0.982E-01    0.141E-01
DAV:   2    -0.851533204204E+03   -0.73465E-03   -0.93135E-03  4740   0.121E-01    0.109E-01
DAV:   3    -0.851533121446E+03    0.82758E-04   -0.11398E-04  5580   0.176E-02    0.858E-02
DAV:   4    -0.851533175178E+03   -0.53732E-04   -0.43151E-04  5120   0.300E-02    0.145E-02
DAV:   5    -0.851533179481E+03   -0.43037E-05   -0.70593E-05  5060   0.112E-02    0.124E-02
DAV:   6    -0.851533183268E+03   -0.37868E-05   -0.73945E-06  4280   0.513E-03    0.591E-03
DAV:   7    -0.851533183659E+03   -0.39121E-06   -0.39108E-06  4040   0.293E-03
   8 F= -.85944064E+03 E0= -.85944064E+03  d E =-.149894E-02  mag=    -0.0000
quench:  g(F)=  0.000E+00 g(S)=  0.000E+00 dE (1.order)= 0.000E+00
 bond charge predicted
       N       E                     dE             d eps       ncg     rms          rms(c)
DAV:   1    -0.851534182779E+03   -0.99951E-03   -0.72397E-01  4540   0.117E+00    0.168E-01
DAV:   2    -0.851535203129E+03   -0.10204E-02   -0.12646E-02  4750   0.142E-01    0.128E-01
DAV:   3    -0.851535105255E+03    0.97874E-04   -0.16214E-04  5580   0.212E-02    0.100E-01
DAV:   4    -0.851535170809E+03   -0.65554E-04   -0.49614E-04  5140   0.346E-02    0.165E-02
DAV:   5    -0.851535174054E+03   -0.32450E-05   -0.88114E-05  5100   0.130E-02    0.143E-02
DAV:   6    -0.851535175733E+03   -0.16789E-05   -0.12219E-05  4300   0.661E-03    0.669E-03
DAV:   7    -0.851535175951E+03   -0.21795E-06   -0.35479E-06  4120   0.293E-03
   9 F= -.85944247E+03 E0= -.85944247E+03  d E =-.182605E-02  mag=     0.0000
quench:  g(F)=  0.000E+00 g(S)=  0.000E+00 dE (1.order)= 0.000E+00
 bond charge predicted
       N       E                     dE             d eps       ncg     rms          rms(c)
DAV:   1    -0.851535857694E+03   -0.68196E-03   -0.13033E+00  4540   0.153E+00    0.217E-01
DAV:   2    -0.851537796029E+03   -0.19383E-02   -0.23446E-02  4740   0.190E-01    0.169E-01
DAV:   3    -0.851537573685E+03    0.22234E-03   -0.27252E-04  5600   0.270E-02    0.135E-01
DAV:   4    -0.851537653665E+03   -0.79980E-04   -0.12312E-03  5240   0.501E-02    0.255E-02
DAV:   5    -0.851537656555E+03   -0.28902E-05   -0.19335E-04  5040   0.183E-02    0.224E-02
DAV:   6    -0.851537666102E+03   -0.95464E-05   -0.36343E-05  4420   0.106E-02    0.935E-03
DAV:   7    -0.851537667755E+03   -0.16539E-05   -0.61549E-06  4700   0.381E-03    0.657E-03
DAV:   8    -0.851537667738E+03    0.17251E-07   -0.41712E-06  3820   0.343E-03
  10 F= -.85944472E+03 E0= -.85944472E+03  d E =-.225246E-02  mag=     0.0000
quench:  g(F)=  0.000E+00 g(S)=  0.000E+00 dE (1.order)= 0.000E+00
 bond charge predicted
       N       E                     dE             d eps       ncg     rms          rms(c)
DAV:   1    -0.851537699120E+03   -0.31365E-04   -0.18734E+00  4540   0.185E+00    0.264E-01
DAV:   2    -0.851540548934E+03   -0.28498E-02   -0.34118E-02  4700   0.231E-01    0.200E-01
DAV:   3    -0.851540258723E+03    0.29021E-03   -0.40463E-04  5660   0.321E-02    0.158E-01
DAV:   4    -0.851540363983E+03   -0.10526E-03   -0.15508E-03  5360   0.570E-02    0.280E-02
DAV:   5    -0.851540370804E+03   -0.68207E-05   -0.25117E-04  5040   0.209E-02    0.252E-02
DAV:   6    -0.851540378548E+03   -0.77442E-05   -0.36327E-05  4520   0.112E-02    0.118E-02
DAV:   7    -0.851540379999E+03   -0.14504E-05   -0.12781E-05  4980   0.542E-03    0.680E-03
DAV:   8    -0.851540380612E+03   -0.61339E-06   -0.56738E-06  3920   0.464E-03
  11 F= -.85944716E+03 E0= -.85944716E+03  d E =-.243447E-02  mag=     0.0000
quench:  g(F)=  0.000E+00 g(S)=  0.000E+00 dE (1.order)= 0.000E+00
 bond charge predicted
       N       E                     dE             d eps       ncg     rms          rms(c)
DAV:   1    -0.851539640756E+03    0.73924E-03   -0.25101E+00  4540   0.218E+00    0.310E-01
DAV:   2    -0.851543518997E+03   -0.38782E-02   -0.45894E-02  4720   0.272E-01    0.231E-01
DAV:   3    -0.851543165514E+03    0.35348E-03   -0.56512E-04  5660   0.389E-02    0.182E-01
DAV:   4    -0.851543306680E+03   -0.14117E-03   -0.18325E-03  5360   0.654E-02    0.332E-02
DAV:   5    -0.851543314995E+03   -0.83151E-05   -0.31236E-04  5100   0.240E-02    0.299E-02
DAV:   6    -0.851543316617E+03   -0.16220E-05   -0.67704E-05  4580   0.144E-02    0.128E-02
DAV:   7    -0.851543318817E+03   -0.21996E-05   -0.12633E-05  5220   0.538E-03    0.882E-03
DAV:   8    -0.851543319256E+03   -0.43884E-06   -0.74146E-06  3980   0.458E-03
  12 F= -.85944979E+03 E0= -.85944979E+03  d E =-.262894E-02  mag=     0.0000
quench:  g(F)=  0.000E+00 g(S)=  0.000E+00 dE (1.order)= 0.000E+00
 bond charge predicted
       N       E                     dE             d eps       ncg     rms          rms(c)
DAV:   1    -0.851539272129E+03    0.40467E-02   -0.43969E+00  4540   0.280E+00    0.399E-01
DAV:   2    -0.851546502698E+03   -0.72306E-02   -0.85664E-02  4820   0.359E-01    0.308E-01
DAV:   3    -0.851545778544E+03    0.72415E-03   -0.98562E-04  5700   0.498E-02    0.248E-01
DAV:   4    -0.851545819450E+03   -0.40906E-04   -0.46149E-03  5300   0.951E-02    0.513E-02
DAV:   5    -0.851545851416E+03   -0.31966E-04   -0.72607E-04  5140   0.344E-02    0.463E-02
DAV:   6    -0.851545842137E+03    0.92785E-05   -0.16626E-04  4740   0.217E-02    0.194E-02
DAV:   7    -0.851545847558E+03   -0.54206E-05   -0.31074E-05  5220   0.839E-03    0.143E-02
DAV:   8    -0.851545852508E+03   -0.49499E-05   -0.19679E-05  4160   0.762E-03    0.409E-03
DAV:   9    -0.851545853515E+03   -0.10077E-05   -0.28012E-06  4100   0.241E-03    0.313E-03
DAV:  10    -0.851545853340E+03    0.17499E-06   -0.98199E-07  3680   0.211E-03
  13 F= -.85945187E+03 E0= -.85945187E+03  d E =-.208741E-02  mag=    -0.0000
quench:  g(F)=  0.000E+00 g(S)=  0.000E+00 dE (1.order)= 0.000E+00
 bond charge predicted
       N       E                     dE             d eps       ncg     rms          rms(c)
DAV:   1    -0.851547012459E+03   -0.11589E-02   -0.53980E-02  4820   0.345E-01    0.487E-02
DAV:   2    -0.851547132631E+03   -0.12017E-03   -0.16092E-03  4900   0.518E-02    0.462E-02
DAV:   3    -0.851547114051E+03    0.18580E-04   -0.22135E-05  5720   0.809E-03    0.399E-02
DAV:   4    -0.851547097839E+03    0.16212E-04   -0.69722E-05  4660   0.135E-02    0.143E-02
DAV:   5    -0.851547103723E+03   -0.58847E-05   -0.24479E-05  4840   0.639E-03    0.624E-03
DAV:   6    -0.851547104858E+03   -0.11350E-05   -0.24351E-06  3620   0.287E-03    0.264E-03
DAV:   7    -0.851547105154E+03   -0.29551E-06   -0.26681E-07  3300   0.108E-03
  14 F= -.85945316E+03 E0= -.85945316E+03  d E =-.128691E-02  mag=     0.0000
quench:  g(F)=  0.000E+00 g(S)=  0.000E+00 dE (1.order)= 0.000E+00
 bond charge predicted
       N       E                     dE             d eps       ncg     rms          rms(c)
DAV:   1    -0.851546461922E+03    0.64294E-03   -0.70394E-02  4720   0.420E-01    0.564E-02
DAV:   2    -0.851546627907E+03   -0.16599E-03   -0.20899E-03  5000   0.632E-02    0.510E-02
DAV:   3    -0.851546606122E+03    0.21786E-04   -0.32450E-05  5620   0.100E-02    0.432E-02
DAV:   4    -0.851546587821E+03    0.18300E-04   -0.77649E-05  4780   0.152E-02    0.154E-02
DAV:   5    -0.851546592830E+03   -0.50089E-05   -0.27948E-05  5000   0.718E-03    0.700E-03
DAV:   6    -0.851546593168E+03   -0.33736E-06   -0.33643E-06  3760   0.342E-03
  15 F= -.85945268E+03 E0= -.85945268E+03  d E =0.478179E-03  mag=    -0.0000
quench:  g(F)=  0.000E+00 g(S)=  0.000E+00 dE (1.order)= 0.000E+00
 bond charge predicted
       N       E                     dE             d eps       ncg     rms          rms(c)
DAV:   1    -0.851546923832E+03   -0.33100E-03   -0.31010E-03  4680   0.787E-02    0.111E-02
DAV:   2    -0.851546928269E+03   -0.44368E-05   -0.81361E-05  4960   0.114E-02    0.107E-02
DAV:   3    -0.851546926336E+03    0.19329E-05   -0.89599E-07  3820   0.170E-03    0.936E-03
DAV:   4    -0.851546927373E+03   -0.10372E-05   -0.62451E-06  3980   0.378E-03    0.259E-03
DAV:   5    -0.851546927689E+03   -0.31551E-06   -0.12904E-06  3640   0.144E-03
  16 F= -.85945301E+03 E0= -.85945301E+03  d E =-.325228E-03  mag=    -0.0000
quench:  g(F)=  0.000E+00 g(S)=  0.000E+00 dE (1.order)= 0.000E+00
 bond charge predicted
       N       E                     dE             d eps       ncg     rms          rms(c)
DAV:   1    -0.851547335742E+03   -0.40837E-03   -0.10339E-02  4630   0.144E-01    0.200E-02
DAV:   2    -0.851547351645E+03   -0.15903E-04   -0.27103E-04  4920   0.209E-02    0.184E-02
DAV:   3    -0.851547347147E+03    0.44983E-05   -0.30586E-06  4180   0.309E-03    0.158E-02
DAV:   4    -0.851547351039E+03   -0.38920E-05   -0.16258E-05  4280   0.621E-03    0.438E-03
DAV:   5    -0.851547352207E+03   -0.11677E-05   -0.33886E-06  4000   0.234E-03    0.264E-03
DAV:   6    -0.851547352759E+03   -0.55203E-06   -0.29442E-07  3020   0.106E-03
  17 F= -.85945342E+03 E0= -.85945342E+03  d E =-.408164E-03  mag=    -0.0000
quench:  g(F)=  0.000E+00 g(S)=  0.000E+00 dE (1.order)= 0.000E+00
 bond charge predicted
       N       E                     dE             d eps       ncg     rms          rms(c)
DAV:   1    -0.851547558595E+03   -0.20639E-03   -0.17014E-02  4640   0.187E-01    0.252E-02
DAV:   2    -0.851547586106E+03   -0.27511E-04   -0.43593E-04  4860   0.270E-02    0.228E-02
DAV:   3    -0.851547579528E+03    0.65784E-05   -0.51304E-06  4580   0.397E-03    0.194E-02
DAV:   4    -0.851547583757E+03   -0.42289E-05   -0.24182E-05  4400   0.755E-03    0.541E-03
DAV:   5    -0.851547585706E+03   -0.19488E-05   -0.51816E-06  4100   0.289E-03    0.321E-03
DAV:   6    -0.851547586559E+03   -0.85328E-06   -0.48705E-07  3210   0.130E-03
  18 F= -.85945363E+03 E0= -.85945363E+03  d E =-.212419E-03  mag=    -0.0000
quench:  g(F)=  0.000E+00 g(S)=  0.000E+00 dE (1.order)= 0.000E+00
 bond charge predicted
       N       E                     dE             d eps       ncg     rms          rms(c)
DAV:   1    -0.851547553497E+03    0.32209E-04   -0.18191E-02  4590   0.199E-01    0.255E-02
DAV:   2    -0.851547581979E+03   -0.28482E-04   -0.43944E-04  4820   0.282E-02    0.220E-02
DAV:   3    -0.851547575819E+03    0.61603E-05   -0.53020E-06  4800   0.405E-03    0.183E-02
DAV:   4    -0.851547581614E+03   -0.57951E-05   -0.22273E-05  4380   0.735E-03    0.480E-03
DAV:   5    -0.851547583307E+03   -0.16927E-05   -0.45566E-06  4000   0.281E-03    0.312E-03
DAV:   6    -0.851547584073E+03   -0.76685E-06   -0.52214E-07  3220   0.136E-03
  19 F= -.85945360E+03 E0= -.85945360E+03  d E =0.231326E-04  mag=     0.0000
quench:  g(F)=  0.000E+00 g(S)=  0.000E+00 dE (1.order)= 0.000E+00
 bond charge predicted
       N       E                     dE             d eps       ncg     rms          rms(c)
DAV:   1    -0.851547608266E+03   -0.24959E-04   -0.39541E-05  4580   0.101E-02    0.174E-03
DAV:   2    -0.851547608356E+03   -0.90731E-07   -0.10640E-06  3020   0.154E-03
  20 F= -.85945363E+03 E0= -.85945363E+03  d E =-.248020E-04  mag=    -0.0000
quench:  g(F)=  0.000E+00 g(S)=  0.000E+00 dE (1.order)= 0.000E+00
 bond charge predicted
       N       E                     dE             d eps       ncg     rms          rms(c)
DAV:   1    -0.851547652858E+03   -0.44592E-04   -0.15440E-04  4760   0.200E-02    0.345E-03
DAV:   2    -0.851547653126E+03   -0.26820E-06   -0.41290E-06  3750   0.296E-03
  21 F= -.85945368E+03 E0= -.85945368E+03  d E =-.457510E-04  mag=    -0.0000
quench:  g(F)=  0.000E+00 g(S)=  0.000E+00 dE (1.order)= 0.000E+00
 bond charge predicted
       N       E                     dE             d eps       ncg     rms          rms(c)
DAV:   1    -0.851547711543E+03   -0.58685E-04   -0.33052E-04  4720   0.293E-02    0.576E-03
DAV:   2    -0.851547711975E+03   -0.43203E-06   -0.86051E-06  4500   0.429E-03
  22 F= -.85945374E+03 E0= -.85945374E+03  d E =-.601931E-04  mag=     0.0000
quench:  g(F)=  0.000E+00 g(S)=  0.000E+00 dE (1.order)= 0.000E+00
 bond charge predicted
       N       E                     dE             d eps       ncg     rms          rms(c)
DAV:   1    -0.851547776115E+03   -0.64572E-04   -0.54762E-04  4720   0.379E-02    0.806E-03
DAV:   2    -0.851547776745E+03   -0.62990E-06   -0.13900E-05  5060   0.550E-03    0.707E-03
DAV:   3    -0.851547776413E+03    0.33191E-06   -0.45317E-07  3120   0.127E-03
  23 F= -.85945380E+03 E0= -.85945380E+03  d E =-.659747E-04  mag=    -0.0000
quench:  g(F)=  0.000E+00 g(S)=  0.000E+00 dE (1.order)= 0.000E+00
 bond charge predicted
       N       E                     dE             d eps       ncg     rms          rms(c)
DAV:   1    -0.851547838460E+03   -0.61715E-04   -0.76704E-04  4680   0.451E-02    0.641E-03
DAV:   2    -0.851547839837E+03   -0.13764E-05   -0.17445E-05  5020   0.617E-03    0.525E-03
DAV:   3    -0.851547839701E+03    0.13575E-06   -0.25133E-07  2880   0.962E-04
  24 F= -.85945387E+03 E0= -.85945387E+03  d E =-.647918E-04  mag=    -0.0000
quench:  g(F)=  0.000E+00 g(S)=  0.000E+00 dE (1.order)= 0.000E+00
 bond charge predicted
       N       E                     dE             d eps       ncg     rms          rms(c)
DAV:   1    -0.851547895361E+03   -0.55525E-04   -0.10293E-03  4590   0.526E-02    0.705E-03
DAV:   2    -0.851547897272E+03   -0.19105E-05   -0.23517E-05  5040   0.725E-03    0.557E-03
DAV:   3    -0.851547897106E+03    0.16608E-06   -0.33799E-07  3200   0.112E-03
  25 F= -.85945392E+03 E0= -.85945392E+03  d E =-.586370E-04  mag=    -0.0000
quench:  g(F)=  0.000E+00 g(S)=  0.000E+00 dE (1.order)= 0.000E+00
 bond charge predicted
       N       E                     dE             d eps       ncg     rms          rms(c)
DAV:   1    -0.851547952320E+03   -0.55049E-04   -0.16204E-03  4560   0.664E-02    0.871E-03
DAV:   2    -0.851547955136E+03   -0.28159E-05   -0.34849E-05  5000   0.896E-03    0.660E-03
DAV:   3    -0.851547954921E+03    0.21563E-06   -0.49770E-07  3680   0.137E-03
  26 F= -.85945398E+03 E0= -.85945398E+03  d E =-.584281E-04  mag=    -0.0000
quench:  g(F)=  0.000E+00 g(S)=  0.000E+00 dE (1.order)= 0.000E+00
 bond charge predicted
       N       E                     dE             d eps       ncg     rms          rms(c)
DAV:   1    -0.851548013657E+03   -0.58521E-04   -0.25512E-03  4540   0.834E-02    0.107E-02
DAV:   2    -0.851548017670E+03   -0.40123E-05   -0.50806E-05  4820   0.109E-02    0.769E-03
DAV:   3    -0.851548017395E+03    0.27478E-06   -0.68480E-07  3850   0.163E-03
  27 F= -.85945405E+03 E0= -.85945405E+03  d E =-.618728E-04  mag=    -0.0000
quench:  g(F)=  0.000E+00 g(S)=  0.000E+00 dE (1.order)= 0.000E+00
 bond charge predicted
       N       E                     dE             d eps       ncg     rms          rms(c)
DAV:   1    -0.851548094502E+03   -0.76832E-04   -0.40883E-03  4540   0.105E-01    0.131E-02
DAV:   2    -0.851548100331E+03   -0.58292E-05   -0.77237E-05  4650   0.135E-02    0.913E-03
DAV:   3    -0.851548099888E+03    0.44319E-06   -0.96163E-07  3840   0.196E-03
  28 F= -.85945413E+03 E0= -.85945413E+03  d E =-.798770E-04  mag=     0.0000
quench:  g(F)=  0.000E+00 g(S)=  0.000E+00 dE (1.order)= 0.000E+00
 bond charge predicted
       N       E                     dE             d eps       ncg     rms          rms(c)
DAV:   1    -0.851548212051E+03   -0.11172E-03   -0.67795E-03  4540   0.135E-01    0.165E-02
DAV:   2    -0.851548220970E+03   -0.89186E-05   -0.12620E-04  4500   0.172E-02    0.114E-02
DAV:   3    -0.851548220007E+03    0.96308E-06   -0.15258E-06  3820   0.244E-03
  29 F= -.85945424E+03 E0= -.85945424E+03  d E =-.114590E-03  mag=    -0.0000
quench:  g(F)=  0.000E+00 g(S)=  0.000E+00 dE (1.order)= 0.000E+00
 bond charge predicted
       N       E                     dE             d eps       ncg     rms          rms(c)
DAV:   1    -0.851548384088E+03   -0.16312E-03   -0.11530E-02  4540   0.175E-01    0.212E-02
DAV:   2    -0.851548398677E+03   -0.14588E-04   -0.21668E-04  4500   0.225E-02    0.149E-02
DAV:   3    -0.851548396876E+03    0.18005E-05   -0.27075E-06  4140   0.316E-03    0.114E-02
DAV:   4    -0.851548402169E+03   -0.52926E-05   -0.57242E-06  4100   0.444E-03    0.235E-03
DAV:   5    -0.851548402372E+03   -0.20388E-06   -0.12971E-06  3720   0.178E-03
  30 F= -.85945441E+03 E0= -.85945441E+03  d E =-.173193E-03  mag=    -0.0000
quench:  g(F)=  0.000E+00 g(S)=  0.000E+00 dE (1.order)= 0.000E+00
 bond charge predicted
       N       E                     dE             d eps       ncg     rms          rms(c)
DAV:   1    -0.851548604583E+03   -0.20241E-03   -0.20149E-02  4560   0.231E-01    0.270E-02
DAV:   2    -0.851548634051E+03   -0.29468E-04   -0.40983E-04  4480   0.308E-02    0.191E-02
DAV:   3    -0.851548630029E+03    0.40222E-05   -0.53218E-06  4760   0.436E-03    0.149E-02
DAV:   4    -0.851548636979E+03   -0.69501E-05   -0.11721E-05  4240   0.623E-03    0.337E-03
DAV:   5    -0.851548637507E+03   -0.52750E-06   -0.25641E-06  3960   0.245E-03
  31 F= -.85945463E+03 E0= -.85945463E+03  d E =-.221803E-03  mag=     0.0000
quench:  g(F)=  0.000E+00 g(S)=  0.000E+00 dE (1.order)= 0.000E+00
 bond charge predicted
       N       E                     dE             d eps       ncg     rms          rms(c)
DAV:   1    -0.851548863297E+03   -0.22632E-03   -0.33619E-02  4560   0.299E-01    0.349E-02
DAV:   2    -0.851548913417E+03   -0.50121E-04   -0.68558E-04  4600   0.400E-02    0.249E-02
DAV:   3    -0.851548907113E+03    0.63039E-05   -0.90849E-06  5240   0.570E-03    0.194E-02
DAV:   4    -0.851548916917E+03   -0.98040E-05   -0.19763E-05  4420   0.812E-03    0.442E-03
DAV:   5    -0.851548917944E+03   -0.10266E-05   -0.44966E-06  4560   0.320E-03    0.317E-03
DAV:   6    -0.851548918311E+03   -0.36728E-06   -0.73126E-07  3240   0.155E-03
  32 F= -.85945490E+03 E0= -.85945490E+03  d E =-.263309E-03  mag=    -0.0000
quench:  g(F)=  0.000E+00 g(S)=  0.000E+00 dE (1.order)= 0.000E+00
 bond charge predicted
       N       E                     dE             d eps       ncg     rms          rms(c)
DAV:   1    -0.851549149892E+03   -0.23195E-03   -0.54187E-02  4560   0.384E-01    0.440E-02
DAV:   2    -0.851549231681E+03   -0.81789E-04   -0.10888E-03  4580   0.510E-02    0.314E-02
DAV:   3    -0.851549222292E+03    0.93896E-05   -0.14889E-05  5480   0.737E-03    0.243E-02
DAV:   4    -0.851549234051E+03   -0.11759E-04   -0.30441E-05  4520   0.103E-02    0.559E-03
DAV:   5    -0.851549235740E+03   -0.16890E-05   -0.72262E-06  5020   0.410E-03    0.387E-03
DAV:   6    -0.851549236230E+03   -0.48968E-06   -0.98047E-07  3300   0.182E-03
  33 F= -.85945520E+03 E0= -.85945520E+03  d E =-.297255E-03  mag=    -0.0000
quench:  g(F)=  0.000E+00 g(S)=  0.000E+00 dE (1.order)= 0.000E+00
 bond charge predicted
       N       E                     dE             d eps       ncg     rms          rms(c)
DAV:   1    -0.851549467838E+03   -0.23210E-03   -0.85445E-02  4560   0.490E-01    0.553E-02
DAV:   2    -0.851549597423E+03   -0.12958E-03   -0.16870E-03  4520   0.647E-02    0.390E-02
DAV:   3    -0.851549584199E+03    0.13223E-04   -0.23875E-05  5440   0.951E-03    0.300E-02
DAV:   4    -0.851549598788E+03   -0.14588E-04   -0.43546E-05  4560   0.128E-02    0.698E-03
DAV:   5    -0.851549600990E+03   -0.22015E-05   -0.10994E-05  5100   0.519E-03    0.462E-03
DAV:   6    -0.851549601617E+03   -0.62774E-06   -0.14803E-06  3500   0.226E-03
  34 F= -.85945554E+03 E0= -.85945554E+03  d E =-.343252E-03  mag=    -0.0000
quench:  g(F)=  0.000E+00 g(S)=  0.000E+00 dE (1.order)= 0.000E+00
 bond charge predicted
       N       E                     dE             d eps       ncg     rms          rms(c)
DAV:   1    -0.851549872089E+03   -0.27110E-03   -0.13499E-01  4560   0.626E-01    0.697E-02
DAV:   2    -0.851550077355E+03   -0.20527E-03   -0.26329E-03  4520   0.821E-02    0.490E-02
DAV:   3    -0.851550058744E+03    0.18611E-04   -0.38743E-05  5480   0.124E-02    0.373E-02
DAV:   4    -0.851550076400E+03   -0.17656E-04   -0.63806E-05  4820   0.160E-02    0.887E-03
DAV:   5    -0.851550079144E+03   -0.27432E-05   -0.16943E-05  5120   0.660E-03    0.554E-03
DAV:   6    -0.851550079892E+03   -0.74834E-06   -0.22820E-06  3780   0.281E-03
  35 F= -.85945600E+03 E0= -.85945600E+03  d E =-.456566E-03  mag=     0.0000
quench:  g(F)=  0.000E+00 g(S)=  0.000E+00 dE (1.order)= 0.000E+00
 bond charge predicted
       N       E                     dE             d eps       ncg     rms          rms(c)
DAV:   1    -0.851550334880E+03   -0.25574E-03   -0.21825E-01  4560   0.807E-01    0.886E-02
DAV:   2    -0.851550669812E+03   -0.33493E-03   -0.42543E-03  4560   0.106E-01    0.625E-02
DAV:   3    -0.851550641528E+03    0.28284E-04   -0.64290E-05  5500   0.161E-02    0.474E-02
DAV:   4    -0.851550663967E+03   -0.22439E-04   -0.10120E-04  5040   0.204E-02    0.115E-02
DAV:   5    -0.851550667694E+03   -0.37272E-05   -0.27388E-05  5130   0.855E-03    0.688E-03
DAV:   6    -0.851550668712E+03   -0.10181E-05   -0.36415E-06  4180   0.356E-03    0.344E-03
DAV:   7    -0.851550668868E+03   -0.15565E-06   -0.44375E-07  3520   0.131E-03
  36 F= -.85945656E+03 E0= -.85945656E+03  d E =-.567592E-03  mag=    -0.0000
quench:  g(F)=  0.000E+00 g(S)=  0.000E+00 dE (1.order)= 0.000E+00
 bond charge predicted
       N       E                     dE             d eps       ncg     rms          rms(c)
DAV:   1    -0.851550826555E+03   -0.15784E-03   -0.34220E-01  4560   0.101E+00    0.110E-01
DAV:   2    -0.851551354094E+03   -0.52754E-03   -0.66629E-03  4580   0.133E-01    0.783E-02
DAV:   3    -0.851551308874E+03    0.45221E-04   -0.10157E-04  5480   0.203E-02    0.595E-02
DAV:   4    -0.851551335926E+03   -0.27052E-04   -0.16284E-04  5040   0.258E-02    0.145E-02
DAV:   5    -0.851551341556E+03   -0.56299E-05   -0.43654E-05  5100   0.107E-02    0.868E-03
DAV:   6    -0.851551343107E+03   -0.15510E-05   -0.58106E-06  4300   0.444E-03    0.430E-03
DAV:   7    -0.851551343357E+03   -0.25069E-06   -0.72688E-07  3780   0.164E-03
  37 F= -.85945721E+03 E0= -.85945721E+03  d E =-.647435E-03  mag=    -0.0000
quench:  g(F)=  0.000E+00 g(S)=  0.000E+00 dE (1.order)= 0.000E+00
 bond charge predicted
       N       E                     dE             d eps       ncg     rms          rms(c)
DAV:   1    -0.851551455383E+03   -0.11228E-03   -0.51406E-01  4560   0.124E+00    0.135E-01
DAV:   2    -0.851552256899E+03   -0.80152E-03   -0.10051E-02  4600   0.163E-01    0.961E-02
DAV:   3    -0.851552187059E+03    0.69841E-04   -0.15166E-04  5500   0.246E-02    0.733E-02
DAV:   4    -0.851552223207E+03   -0.36149E-04   -0.25957E-04  5080   0.320E-02    0.177E-02
DAV:   5    -0.851552231588E+03   -0.83805E-05   -0.65362E-05  5180   0.131E-02    0.110E-02
DAV:   6    -0.851552234446E+03   -0.28587E-05   -0.93704E-06  4240   0.556E-03    0.529E-03
DAV:   7    -0.851552234812E+03   -0.36518E-06   -0.11717E-06  3880   0.204E-03
  38 F= -.85945806E+03 E0= -.85945806E+03  d E =-.847914E-03  mag=     0.0000
quench:  g(F)=  0.000E+00 g(S)=  0.000E+00 dE (1.order)= 0.000E+00
 bond charge predicted
       N       E                     dE             d eps       ncg     rms          rms(c)
DAV:   1    -0.851552208764E+03    0.25682E-04   -0.73302E-01  4560   0.146E+00    0.161E-01
DAV:   2    -0.851553382843E+03   -0.11741E-02   -0.14538E-02  4700   0.193E-01    0.115E-01
DAV:   3    -0.851553282805E+03    0.10004E-03   -0.21268E-04  5540   0.287E-02    0.884E-02
DAV:   4    -0.851553325204E+03   -0.42399E-04   -0.39424E-04  5140   0.385E-02    0.209E-02
DAV:   5    -0.851553336975E+03   -0.11771E-04   -0.93878E-05  5200   0.155E-02    0.137E-02
DAV:   6    -0.851553341606E+03   -0.46307E-05   -0.14414E-05  4220   0.677E-03    0.643E-03
DAV:   7    -0.851553342188E+03   -0.58259E-06   -0.18188E-06  4080   0.248E-03
  39 F= -.85945910E+03 E0= -.85945910E+03  d E =-.104199E-02  mag=    -0.0000
quench:  g(F)=  0.000E+00 g(S)=  0.000E+00 dE (1.order)= 0.000E+00
 bond charge predicted
       N       E                     dE             d eps       ncg     rms          rms(c)
DAV:   1    -0.851553270848E+03    0.70757E-04   -0.90808E-01  4560   0.160E+00    0.181E-01
DAV:   2    -0.851554738415E+03   -0.14676E-02   -0.17946E-02  4680   0.210E-01    0.127E-01
DAV:   3    -0.851554623930E+03    0.11449E-03   -0.25638E-04  5540   0.312E-02    0.973E-02
DAV:   4    -0.851554674198E+03   -0.50268E-04   -0.46221E-04  5300   0.415E-02    0.226E-02
DAV:   5    -0.851554686732E+03   -0.12534E-04   -0.10921E-04  5200   0.167E-02    0.151E-02
DAV:   6    -0.851554691053E+03   -0.43217E-05   -0.17805E-05  4280   0.750E-03    0.710E-03
DAV:   7    -0.851554691595E+03   -0.54178E-06   -0.22769E-06  4260   0.275E-03
  40 F= -.85946037E+03 E0= -.85946037E+03  d E =-.126846E-02  mag=    -0.0000
quench:  g(F)=  0.000E+00 g(S)=  0.000E+00 dE (1.order)= 0.000E+00
 bond charge predicted
       N       E                     dE             d eps       ncg     rms          rms(c)
DAV:   1    -0.851554617067E+03    0.73986E-04   -0.99852E-01  4560   0.163E+00    0.193E-01
DAV:   2    -0.851556280137E+03   -0.16631E-02   -0.19932E-02  4720   0.213E-01    0.132E-01
DAV:   3    -0.851556166663E+03    0.11347E-03   -0.26484E-04  5620   0.310E-02    0.101E-01
DAV:   4    -0.851556225453E+03   -0.58790E-04   -0.48912E-04  5280   0.418E-02    0.225E-02
DAV:   5    -0.851556237592E+03   -0.12140E-04   -0.11254E-04  5200   0.165E-02    0.162E-02
DAV:   6    -0.851556240474E+03   -0.28818E-05   -0.21152E-05  4240   0.804E-03    0.742E-03
DAV:   7    -0.851556240878E+03   -0.40344E-06   -0.26560E-06  4460   0.285E-03
  41 F= -.85946183E+03 E0= -.85946183E+03  d E =-.145762E-02  mag=     0.0000
quench:  g(F)=  0.000E+00 g(S)=  0.000E+00 dE (1.order)= 0.000E+00
 bond charge predicted
       N       E                     dE             d eps       ncg     rms          rms(c)
DAV:   1    -0.851556271036E+03   -0.30561E-04   -0.70148E-04  4700   0.501E-02    0.524E-03
DAV:   2    -0.851556272377E+03   -0.13420E-05   -0.17503E-05  4820   0.725E-03    0.424E-03
DAV:   3    -0.851556272201E+03    0.17609E-06   -0.20548E-07  3140   0.110E-03
  42 F= -.85946185E+03 E0= -.85946185E+03  d E =-.276590E-04  mag=    -0.0000
quench:  g(F)=  0.000E+00 g(S)=  0.000E+00 dE (1.order)= 0.000E+00
 bond charge predicted
       N       E                     dE             d eps       ncg     rms          rms(c)
DAV:   1    -0.851556319803E+03   -0.47425E-04   -0.23307E-03  4540   0.915E-02    0.921E-03
DAV:   2    -0.851556323480E+03   -0.36769E-05   -0.51270E-05  4880   0.126E-02    0.738E-03
DAV:   3    -0.851556323052E+03    0.42730E-06   -0.62637E-07  3860   0.178E-03
  43 F= -.85946190E+03 E0= -.85946190E+03  d E =-.439826E-04  mag=    -0.0000
quench:  g(F)=  0.000E+00 g(S)=  0.000E+00 dE (1.order)= 0.000E+00
 bond charge predicted
       N       E                     dE             d eps       ncg     rms          rms(c)
DAV:   1    -0.851556376069E+03   -0.52589E-04   -0.42384E-03  4540   0.123E-01    0.125E-02
DAV:   2    -0.851556382505E+03   -0.64361E-05   -0.91065E-05  4840   0.168E-02    0.973E-03
DAV:   3    -0.851556381883E+03    0.62244E-06   -0.10412E-06  4060   0.231E-03
  44 F= -.85946195E+03 E0= -.85946195E+03  d E =-.494770E-04  mag=     0.0000
quench:  g(F)=  0.000E+00 g(S)=  0.000E+00 dE (1.order)= 0.000E+00
 bond charge predicted
       N       E                     dE             d eps       ncg     rms          rms(c)
DAV:   1    -0.851556446437E+03   -0.63932E-04   -0.57437E-03  4540   0.143E-01    0.144E-02
DAV:   2    -0.851556455022E+03   -0.85853E-05   -0.12008E-04  4700   0.191E-02    0.108E-02
DAV:   3    -0.851556454384E+03    0.63800E-06   -0.13596E-06  4280   0.257E-03
  45 F= -.85946201E+03 E0= -.85946201E+03  d E =-.618086E-04  mag=     0.0000
quench:  g(F)=  0.000E+00 g(S)=  0.000E+00 dE (1.order)= 0.000E+00
 bond charge predicted
       N       E                     dE             d eps       ncg     rms          rms(c)
DAV:   1    -0.851556546603E+03   -0.91580E-04   -0.68769E-03  4540   0.154E-01    0.160E-02
DAV:   2    -0.851556556938E+03   -0.10336E-04   -0.14150E-04  4560   0.203E-02    0.115E-02
DAV:   3    -0.851556556351E+03    0.58737E-06   -0.15957E-06  4340   0.270E-03
  46 F= -.85946210E+03 E0= -.85946210E+03  d E =-.900934E-04  mag=     0.0000
quench:  g(F)=  0.000E+00 g(S)=  0.000E+00 dE (1.order)= 0.000E+00
 bond charge predicted
       N       E                     dE             d eps       ncg     rms          rms(c)
DAV:   1    -0.851556682983E+03   -0.12605E-03   -0.82144E-03  4540   0.163E-01    0.180E-02
DAV:   2    -0.851556695613E+03   -0.12630E-04   -0.16843E-04  4520   0.214E-02    0.125E-02
DAV:   3    -0.851556695014E+03    0.59908E-06   -0.18821E-06  4360   0.284E-03
  47 F= -.85946222E+03 E0= -.85946222E+03  d E =-.125545E-03  mag=     0.0000
quench:  g(F)=  0.000E+00 g(S)=  0.000E+00 dE (1.order)= 0.000E+00
 bond charge predicted
       N       E                     dE             d eps       ncg     rms          rms(c)
DAV:   1    -0.851556860773E+03   -0.16516E-03   -0.12710E-02  4540   0.196E-01    0.227E-02
DAV:   2    -0.851556880866E+03   -0.20093E-04   -0.26150E-04  4480   0.257E-02    0.156E-02
DAV:   3    -0.851556879854E+03    0.10119E-05   -0.29118E-06  4700   0.336E-03    0.121E-02
DAV:   4    -0.851556884014E+03   -0.41599E-05   -0.44555E-06  4060   0.432E-03    0.230E-03
DAV:   5    -0.851556884193E+03   -0.17856E-06   -0.10772E-06  3540   0.173E-03
  48 F= -.85946240E+03 E0= -.85946240E+03  d E =-.172025E-03  mag=    -0.0000
quench:  g(F)=  0.000E+00 g(S)=  0.000E+00 dE (1.order)= 0.000E+00
 bond charge predicted
       N       E                     dE             d eps       ncg     rms          rms(c)
DAV:   1    -0.851557082093E+03   -0.19808E-03   -0.21111E-02  4540   0.243E-01    0.285E-02
DAV:   2    -0.851557118823E+03   -0.36730E-04   -0.45435E-04  4520   0.327E-02    0.189E-02
DAV:   3    -0.851557116199E+03    0.26241E-05   -0.48376E-06  5120   0.417E-03    0.148E-02
DAV:   4    -0.851557122032E+03   -0.58326E-05   -0.84480E-06  4200   0.570E-03    0.287E-03
DAV:   5    -0.851557122308E+03   -0.27617E-06   -0.18868E-06  3860   0.221E-03
  49 F= -.85946261E+03 E0= -.85946261E+03  d E =-.214112E-03  mag=    -0.0000
quench:  g(F)=  0.000E+00 g(S)=  0.000E+00 dE (1.order)= 0.000E+00
 bond charge predicted
       N       E                     dE             d eps       ncg     rms          rms(c)
DAV:   1    -0.851557361059E+03   -0.23903E-03   -0.34830E-02  4560   0.299E-01    0.364E-02
DAV:   2    -0.851557419917E+03   -0.58857E-04   -0.73768E-04  4500   0.399E-02    0.243E-02
DAV:   3    -0.851557415066E+03    0.48505E-05   -0.74078E-06  5300   0.497E-03    0.190E-02
DAV:   4    -0.851557425958E+03   -0.10892E-04   -0.16518E-05  4320   0.731E-03    0.356E-03
DAV:   5    -0.851557426352E+03   -0.39353E-06   -0.33288E-06  4200   0.278E-03
  50 F= -.85946288E+03 E0= -.85946288E+03  d E =-.270968E-03  mag=    -0.0000
quench:  g(F)=  0.000E+00 g(S)=  0.000E+00 dE (1.order)= 0.000E+00
 bond charge predicted
       N       E                     dE             d eps       ncg     rms          rms(c)
DAV:   1    -0.851557717754E+03   -0.29180E-03   -0.56079E-02  4560   0.365E-01    0.459E-02
DAV:   2    -0.851557810510E+03   -0.92756E-04   -0.11709E-03  4540   0.481E-02    0.312E-02
DAV:   3    -0.851557802482E+03    0.80279E-05   -0.11677E-05  5260   0.604E-03    0.245E-02
DAV:   4    -0.851557819680E+03   -0.17198E-04   -0.32703E-05  4460   0.948E-03    0.476E-03
DAV:   5    -0.851557820222E+03   -0.54201E-06   -0.60213E-06  4580   0.355E-03
  51 F= -.85946323E+03 E0= -.85946323E+03  d E =-.350721E-03  mag=     0.0000
quench:  g(F)=  0.000E+00 g(S)=  0.000E+00 dE (1.order)= 0.000E+00
 bond charge predicted
       N       E                     dE             d eps       ncg     rms          rms(c)
DAV:   1    -0.851558131885E+03   -0.31220E-03   -0.85333E-02  4560   0.439E-01    0.570E-02
DAV:   2    -0.851558272789E+03   -0.14090E-03   -0.17621E-03  4580   0.574E-02    0.389E-02
DAV:   3    -0.851558260762E+03    0.12027E-04   -0.17908E-05  5320   0.732E-03    0.306E-02
DAV:   4    -0.851558285060E+03   -0.24297E-04   -0.52275E-05  4620   0.117E-02    0.608E-03
DAV:   5    -0.851558285707E+03   -0.64726E-06   -0.93567E-06  4940   0.437E-03
  52 F= -.85946365E+03 E0= -.85946365E+03  d E =-.414560E-03  mag=     0.0000
quench:  g(F)=  0.000E+00 g(S)=  0.000E+00 dE (1.order)= 0.000E+00
 bond charge predicted
       N       E                     dE             d eps       ncg     rms          rms(c)
DAV:   1    -0.851558654780E+03   -0.36972E-03   -0.12369E-01  4560   0.528E-01    0.696E-02
DAV:   2    -0.851558860956E+03   -0.20618E-03   -0.25352E-03  4620   0.687E-02    0.467E-02
DAV:   3    -0.851558846118E+03    0.14838E-04   -0.26031E-05  5400   0.873E-03    0.366E-02
DAV:   4    -0.851558877404E+03   -0.31286E-04   -0.67293E-05  4640   0.135E-02    0.703E-03
DAV:   5    -0.851558878236E+03   -0.83250E-06   -0.12337E-05  5100   0.504E-03    0.643E-03
DAV:   6    -0.851558878214E+03    0.22155E-07   -0.30636E-06  3740   0.342E-03
  53 F= -.85946418E+03 E0= -.85946418E+03  d E =-.532608E-03  mag=    -0.0000
quench:  g(F)=  0.000E+00 g(S)=  0.000E+00 dE (1.order)= 0.000E+00
 bond charge predicted
       N       E                     dE             d eps       ncg     rms          rms(c)
DAV:   1    -0.851559263490E+03   -0.38525E-03   -0.18710E-01  4560   0.654E-01    0.852E-02
DAV:   2    -0.851559579616E+03   -0.31613E-03   -0.38243E-03  4680   0.849E-02    0.568E-02
DAV:   3    -0.851559559235E+03    0.20381E-04   -0.39383E-05  5400   0.107E-02    0.444E-02
DAV:   4    -0.851559598487E+03   -0.39252E-04   -0.93193E-05  4640   0.161E-02    0.813E-03
DAV:   5    -0.851559599985E+03   -0.14983E-05   -0.17806E-05  5160   0.602E-03    0.735E-03
DAV:   6    -0.851559599876E+03    0.10920E-06   -0.37397E-06  4000   0.387E-03
  54 F= -.85946482E+03 E0= -.85946482E+03  d E =-.644864E-03  mag=    -0.0000
quench:  g(F)=  0.000E+00 g(S)=  0.000E+00 dE (1.order)= 0.000E+00
 bond charge predicted
       N       E                     dE             d eps       ncg     rms          rms(c)
DAV:   1    -0.851559916715E+03   -0.31673E-03   -0.29117E-01  4560   0.821E-01    0.105E-01
DAV:   2    -0.851560418257E+03   -0.50154E-03   -0.60143E-03  4680   0.107E-01    0.709E-02
DAV:   3    -0.851560386982E+03    0.31275E-04   -0.60732E-05  5440   0.133E-02    0.555E-02
DAV:   4    -0.851560440479E+03   -0.53497E-04   -0.15931E-04  4720   0.209E-02    0.103E-02
DAV:   5    -0.851560442881E+03   -0.24017E-05   -0.29839E-05  5110   0.783E-03    0.935E-03
DAV:   6    -0.851560442862E+03    0.18816E-07   -0.57289E-06  4180   0.506E-03
  55 F= -.85946556E+03 E0= -.85946556E+03  d E =-.735529E-03  mag=    -0.0000
quench:  g(F)=  0.000E+00 g(S)=  0.000E+00 dE (1.order)= 0.000E+00
 bond charge predicted
       N       E                     dE             d eps       ncg     rms          rms(c)
DAV:   1    -0.851560651094E+03   -0.20821E-03   -0.42404E-01  4560   0.998E-01    0.127E-01
DAV:   2    -0.851561390365E+03   -0.73927E-03   -0.87847E-03  4700   0.131E-01    0.868E-02
DAV:   3    -0.851561342707E+03    0.47658E-04   -0.88876E-05  5480   0.164E-02    0.681E-02
DAV:   4    -0.851561411927E+03   -0.69221E-04   -0.25979E-04  4920   0.268E-02    0.132E-02
DAV:   5    -0.851561414301E+03   -0.23738E-05   -0.47131E-05  5100   0.101E-02    0.119E-02
DAV:   6    -0.851561414789E+03   -0.48815E-06   -0.10180E-05  4300   0.677E-03    0.526E-03
DAV:   7    -0.851561415047E+03   -0.25797E-06   -0.22989E-06  4260   0.262E-03
  56 F= -.85946639E+03 E0= -.85946639E+03  d E =-.832878E-03  mag=    -0.0000
quench:  g(F)=  0.000E+00 g(S)=  0.000E+00 dE (1.order)= 0.000E+00
 bond charge predicted
       N       E                     dE             d eps       ncg     rms          rms(c)
DAV:   1    -0.851561568075E+03   -0.15329E-03   -0.56707E-01  4560   0.119E+00    0.147E-01
DAV:   2    -0.851562554716E+03   -0.98664E-03   -0.11672E-02  4700   0.156E-01    0.100E-01
DAV:   3    -0.851562495912E+03    0.58804E-04   -0.12523E-04  5440   0.199E-02    0.784E-02
DAV:   4    -0.851562573397E+03   -0.77485E-04   -0.30704E-04  5160   0.307E-02    0.151E-02
DAV:   5    -0.851562577584E+03   -0.41875E-05   -0.57988E-05  5180   0.116E-02    0.129E-02
DAV:   6    -0.851562577982E+03   -0.39765E-06   -0.12782E-05  4360   0.747E-03    0.576E-03
DAV:   7    -0.851562578178E+03   -0.19625E-06   -0.24468E-06  4220   0.271E-03
  57 F= -.85946740E+03 E0= -.85946740E+03  d E =-.101166E-02  mag=    -0.0000
quench:  g(F)=  0.000E+00 g(S)=  0.000E+00 dE (1.order)= 0.000E+00
 bond charge predicted
       N       E                     dE             d eps       ncg     rms          rms(c)
DAV:   1    -0.851562413969E+03    0.16401E-03   -0.85531E-01  4540   0.148E+00    0.180E-01
DAV:   2    -0.851563923175E+03   -0.15092E-02   -0.17829E-02  4720   0.197E-01    0.125E-01
DAV:   3    -0.851563826811E+03    0.96364E-04   -0.19816E-04  5480   0.254E-02    0.974E-02
DAV:   4    -0.851563918357E+03   -0.91546E-04   -0.50241E-04  5300   0.391E-02    0.190E-02
DAV:   5    -0.851563928327E+03   -0.99699E-05   -0.94464E-05  5180   0.149E-02    0.156E-02
DAV:   6    -0.851563930655E+03   -0.23283E-05   -0.16284E-05  4320   0.902E-03    0.745E-03
DAV:   7    -0.851563931095E+03   -0.44030E-06   -0.43037E-06  4740   0.365E-03
  58 F= -.85946857E+03 E0= -.85946857E+03  d E =-.116396E-02  mag=    -0.0000
quench:  g(F)=  0.000E+00 g(S)=  0.000E+00 dE (1.order)= 0.000E+00
 bond charge predicted
       N       E                     dE             d eps       ncg     rms          rms(c)
DAV:   1    -0.851563401152E+03    0.52950E-03   -0.11913E+00  4540   0.182E+00    0.213E-01
DAV:   2    -0.851565518642E+03   -0.21175E-02   -0.24957E-02  4720   0.242E-01    0.148E-01
DAV:   3    -0.851565391859E+03    0.12678E-03   -0.29181E-04  5500   0.319E-02    0.115E-01
DAV:   4    -0.851565507043E+03   -0.11518E-03   -0.62892E-04  5300   0.462E-02    0.230E-02
DAV:   5    -0.851565521630E+03   -0.14587E-04   -0.12653E-04  5180   0.180E-02    0.178E-02
DAV:   6    -0.851565523903E+03   -0.22736E-05   -0.23079E-05  4450   0.105E-02    0.848E-03
DAV:   7    -0.851565524487E+03   -0.58326E-06   -0.51889E-06  5200   0.399E-03
  59 F= -.85946992E+03 E0= -.85946992E+03  d E =-.135162E-02  mag=    -0.0000
quench:  g(F)=  0.000E+00 g(S)=  0.000E+00 dE (1.order)= 0.000E+00
 bond charge predicted
       N       E                     dE             d eps       ncg     rms          rms(c)
DAV:   1    -0.851564177117E+03    0.13468E-02   -0.17099E+00  4540   0.220E+00    0.253E-01
DAV:   2    -0.851567218685E+03   -0.30416E-02   -0.35897E-02  4760   0.295E-01    0.182E-01
DAV:   3    -0.851567009577E+03    0.20911E-03   -0.44108E-04  5540   0.400E-02    0.142E-01
DAV:   4    -0.851567148128E+03   -0.13855E-03   -0.10621E-03  5320   0.600E-02    0.308E-02
DAV:   5    -0.851567170885E+03   -0.22757E-04   -0.20732E-04  5160   0.231E-02    0.239E-02
DAV:   6    -0.851567177158E+03   -0.62729E-05   -0.44607E-05  4540   0.140E-02    0.106E-02
DAV:   7    -0.851567178375E+03   -0.12173E-05   -0.82229E-06  5250   0.503E-03    0.761E-03
DAV:   8    -0.851567178211E+03    0.16464E-06   -0.37263E-06  4030   0.454E-03
  60 F= -.85947129E+03 E0= -.85947129E+03  d E =-.137305E-02  mag=    -0.0000
quench:  g(F)=  0.000E+00 g(S)=  0.000E+00 dE (1.order)= 0.000E+00
 bond charge predicted
       N       E                     dE             d eps       ncg     rms          rms(c)
DAV:   1    -0.851564417245E+03    0.27611E-02   -0.21772E+00  4540   0.254E+00    0.295E-01
DAV:   2    -0.851568309682E+03   -0.38924E-02   -0.46328E-02  4760   0.343E-01    0.210E-01
DAV:   3    -0.851568045761E+03    0.26392E-03   -0.68372E-04  5580   0.499E-02    0.162E-01
DAV:   4    -0.851568146336E+03   -0.10057E-03   -0.10909E-03  4920   0.661E-02    0.392E-02
DAV:   5    -0.851568191961E+03   -0.45625E-04   -0.26860E-04  5180   0.270E-02    0.255E-02
DAV:   6    -0.851568195354E+03   -0.33922E-05   -0.49567E-05  4800   0.146E-02    0.120E-02
DAV:   7    -0.851568196865E+03   -0.15117E-05   -0.84622E-06  5200   0.519E-03    0.790E-03
DAV:   8    -0.851568196653E+03    0.21220E-06   -0.43741E-06  4040   0.510E-03
  61 F= -.85947202E+03 E0= -.85947202E+03  d E =-.730425E-03  mag=    -0.0000
quench:  g(F)=  0.000E+00 g(S)=  0.000E+00 dE (1.order)= 0.000E+00
 bond charge predicted
       N       E                     dE             d eps       ncg     rms          rms(c)
DAV:   1    -0.851569235151E+03   -0.10383E-02   -0.59418E-02  4580   0.472E-01    0.554E-02
DAV:   2    -0.851569342691E+03   -0.10754E-03   -0.15734E-03  5280   0.694E-02    0.500E-02
DAV:   3    -0.851569313612E+03    0.29079E-04   -0.57143E-05  5880   0.139E-02    0.391E-02
DAV:   4    -0.851569292788E+03    0.20824E-04   -0.64401E-05  4740   0.166E-02    0.162E-02
DAV:   5    -0.851569294140E+03   -0.13524E-05   -0.19459E-05  4880   0.761E-03    0.665E-03
DAV:   6    -0.851569294792E+03   -0.65186E-06   -0.15655E-06  3480   0.257E-03
  62 F= -.85947309E+03 E0= -.85947309E+03  d E =-.107043E-02  mag=    -0.0000
quench:  g(F)=  0.000E+00 g(S)=  0.000E+00 dE (1.order)= 0.000E+00
 bond charge predicted
       N       E                     dE             d eps       ncg     rms          rms(c)
DAV:   1    -0.851568622394E+03    0.67175E-03   -0.56079E-02  4500   0.454E-01    0.528E-02
DAV:   2    -0.851568723727E+03   -0.10133E-03   -0.14406E-03  5320   0.664E-02    0.466E-02
DAV:   3    -0.851568698816E+03    0.24910E-04   -0.49956E-05  5780   0.132E-02    0.365E-02
DAV:   4    -0.851568685836E+03    0.12981E-04   -0.60277E-05  4720   0.160E-02    0.148E-02
DAV:   5    -0.851568688085E+03   -0.22495E-05   -0.16177E-05  4900   0.698E-03    0.689E-03
DAV:   6    -0.851568688881E+03   -0.79608E-06   -0.16839E-06  3440   0.261E-03
  63 F= -.85947245E+03 E0= -.85947245E+03  d E =0.644173E-03  mag=    -0.0000
quench:  g(F)=  0.000E+00 g(S)=  0.000E+00 dE (1.order)= 0.000E+00
 bond charge predicted
       N       E                     dE             d eps       ncg     rms          rms(c)
DAV:   1    -0.851569050110E+03   -0.36202E-03   -0.27041E-03  4720   0.103E-01    0.123E-02
DAV:   2    -0.851569054892E+03   -0.47827E-05   -0.73644E-05  5240   0.152E-02    0.112E-02
DAV:   3    -0.851569053337E+03    0.15554E-05   -0.28335E-06  4410   0.318E-03    0.873E-03
DAV:   4    -0.851569051946E+03    0.13912E-05   -0.41071E-06  4380   0.408E-03    0.354E-03
DAV:   5    -0.851569051925E+03    0.20809E-07   -0.87086E-07  2900   0.170E-03
  64 F= -.85947282E+03 E0= -.85947282E+03  d E =-.365594E-03  mag=    -0.0000
quench:  g(F)=  0.000E+00 g(S)=  0.000E+00 dE (1.order)= 0.000E+00
 bond charge predicted
       N       E                     dE             d eps       ncg     rms          rms(c)
DAV:   1    -0.851569439116E+03   -0.38717E-03   -0.83848E-03  4660   0.181E-01    0.217E-02
DAV:   2    -0.851569455700E+03   -0.16584E-04   -0.23035E-04  5300   0.269E-02    0.190E-02
DAV:   3    -0.851569451671E+03    0.40283E-05   -0.90171E-06  5760   0.552E-03    0.146E-02
DAV:   4    -0.851569448682E+03    0.29897E-05   -0.79953E-06  4660   0.596E-03    0.636E-03
DAV:   5    -0.851569448724E+03   -0.42302E-07   -0.25670E-06  3840   0.288E-03
  65 F= -.85947322E+03 E0= -.85947322E+03  d E =-.400242E-03  mag=    -0.0000
quench:  g(F)=  0.000E+00 g(S)=  0.000E+00 dE (1.order)= 0.000E+00
 bond charge predicted
       N       E                     dE             d eps       ncg     rms          rms(c)
DAV:   1    -0.851569534369E+03   -0.85688E-04   -0.11981E-02  4620   0.216E-01    0.259E-02
DAV:   2    -0.851569558924E+03   -0.24555E-04   -0.32963E-04  5320   0.322E-02    0.222E-02
DAV:   3    -0.851569553772E+03    0.51520E-05   -0.12445E-05  5720   0.651E-03    0.170E-02
DAV:   4    -0.851569549966E+03    0.38057E-05   -0.10569E-05  4660   0.691E-03    0.738E-03
DAV:   5    -0.851569550061E+03   -0.94027E-07   -0.34488E-06  4100   0.335E-03
  66 F= -.85947332E+03 E0= -.85947332E+03  d E =-.102749E-03  mag=     0.0000
quench:  g(F)=  0.000E+00 g(S)=  0.000E+00 dE (1.order)= 0.000E+00
 bond charge predicted
       N       E                     dE             d eps       ncg     rms          rms(c)
DAV:   1    -0.851569560771E+03   -0.10805E-04   -0.34029E-05  4540   0.103E-02    0.203E-03
DAV:   2    -0.851569560797E+03   -0.25255E-07   -0.85833E-07  2920   0.162E-03
  67 F= -.85947333E+03 E0= -.85947333E+03  d E =-.995457E-05  mag=     0.0000
quench:  g(F)=  0.000E+00 g(S)=  0.000E+00 dE (1.order)= 0.000E+00
 bond charge predicted
       N       E                     dE             d eps       ncg     rms          rms(c)
DAV:   1    -0.851569581371E+03   -0.20599E-04   -0.14536E-04  4560   0.213E-02    0.306E-03
DAV:   2    -0.851569581537E+03   -0.16622E-06   -0.31441E-06  3860   0.296E-03
  68 F= -.85947335E+03 E0= -.85947335E+03  d E =-.191903E-04  mag=     0.0000
quench:  g(F)=  0.000E+00 g(S)=  0.000E+00 dE (1.order)= 0.000E+00
 bond charge predicted
       N       E                     dE             d eps       ncg     rms          rms(c)
DAV:   1    -0.851569610322E+03   -0.28951E-04   -0.35072E-04  4520   0.330E-02    0.514E-03
DAV:   2    -0.851569610689E+03   -0.36709E-06   -0.75956E-06  4820   0.455E-03
  69 F= -.85947337E+03 E0= -.85947337E+03  d E =-.268521E-04  mag=    -0.0000
quench:  g(F)=  0.000E+00 g(S)=  0.000E+00 dE (1.order)= 0.000E+00
 bond charge predicted
       N       E                     dE             d eps       ncg     rms          rms(c)
DAV:   1    -0.851569645631E+03   -0.35310E-04   -0.63099E-04  4520   0.442E-02    0.740E-03
DAV:   2    -0.851569646159E+03   -0.52743E-06   -0.13122E-05  4880   0.601E-03    0.602E-03
DAV:   3    -0.851569646043E+03    0.11603E-06   -0.37735E-07  3020   0.132E-03
  70 F= -.85947341E+03 E0= -.85947341E+03  d E =-.323140E-04  mag=    -0.0000
quench:  g(F)=  0.000E+00 g(S)=  0.000E+00 dE (1.order)= 0.000E+00
 bond charge predicted
       N       E                     dE             d eps       ncg     rms          rms(c)
DAV:   1    -0.851569684806E+03   -0.38647E-04   -0.95232E-04  4480   0.541E-02    0.659E-03
DAV:   2    -0.851569686149E+03   -0.13431E-05   -0.18996E-05  4760   0.713E-03    0.495E-03
DAV:   3    -0.851569686040E+03    0.10888E-06   -0.27754E-07  3120   0.110E-03
  71 F= -.85947344E+03 E0= -.85947344E+03  d E =-.362507E-04  mag=     0.0000
quench:  g(F)=  0.000E+00 g(S)=  0.000E+00 dE (1.order)= 0.000E+00
 bond charge predicted
       N       E                     dE             d eps       ncg     rms          rms(c)
DAV:   1    -0.851569727793E+03   -0.41644E-04   -0.13492E-03  4520   0.641E-02    0.761E-03
DAV:   2    -0.851569729767E+03   -0.19737E-05   -0.27105E-05  4640   0.847E-03    0.563E-03
DAV:   3    -0.851569729582E+03    0.18527E-06   -0.39818E-07  3480   0.130E-03
  72 F= -.85947348E+03 E0= -.85947348E+03  d E =-.391997E-04  mag=     0.0000
quench:  g(F)=  0.000E+00 g(S)=  0.000E+00 dE (1.order)= 0.000E+00
 bond charge predicted
       N       E                     dE             d eps       ncg     rms          rms(c)
DAV:   1    -0.851569779445E+03   -0.49678E-04   -0.22106E-03  4540   0.818E-02    0.975E-03
DAV:   2    -0.851569782629E+03   -0.31839E-05   -0.43655E-05  4560   0.107E-02    0.711E-03
DAV:   3    -0.851569782348E+03    0.28085E-06   -0.61093E-07  3780   0.161E-03
  73 F= -.85947353E+03 E0= -.85947353E+03  d E =-.473754E-04  mag=    -0.0000
quench:  g(F)=  0.000E+00 g(S)=  0.000E+00 dE (1.order)= 0.000E+00
 bond charge predicted
       N       E                     dE             d eps       ncg     rms          rms(c)
DAV:   1    -0.851569844164E+03   -0.61535E-04   -0.35068E-03  4560   0.103E-01    0.123E-02
DAV:   2    -0.851569849137E+03   -0.49732E-05   -0.67958E-05  4520   0.133E-02    0.881E-03
DAV:   3    -0.851569848756E+03    0.38113E-06   -0.90957E-07  3820   0.198E-03
  74 F= -.85947359E+03 E0= -.85947359E+03  d E =-.598079E-04  mag=    -0.0000
quench:  g(F)=  0.000E+00 g(S)=  0.000E+00 dE (1.order)= 0.000E+00
 bond charge predicted
       N       E                     dE             d eps       ncg     rms          rms(c)
DAV:   1    -0.851569928376E+03   -0.79239E-04   -0.54417E-03  4560   0.128E-01    0.152E-02
DAV:   2    -0.851569936115E+03   -0.77395E-05   -0.10451E-04  4480   0.165E-02    0.108E-02
DAV:   3    -0.851569935582E+03    0.53298E-06   -0.13569E-06  3880   0.243E-03
  75 F= -.85947367E+03 E0= -.85947367E+03  d E =-.788949E-04  mag=     0.0000
quench:  g(F)=  0.000E+00 g(S)=  0.000E+00 dE (1.order)= 0.000E+00
 bond charge predicted
       N       E                     dE             d eps       ncg     rms          rms(c)
DAV:   1    -0.851570039865E+03   -0.10375E-03   -0.83025E-03  4560   0.158E-01    0.188E-02
DAV:   2    -0.851570051715E+03   -0.11850E-04   -0.15883E-04  4480   0.204E-02    0.133E-02
DAV:   3    -0.851570050947E+03    0.76812E-06   -0.21056E-06  4100   0.299E-03
  76 F= -.85947377E+03 E0= -.85947377E+03  d E =-.105782E-03  mag=     0.0000
quench:  g(F)=  0.000E+00 g(S)=  0.000E+00 dE (1.order)= 0.000E+00
 bond charge predicted
       N       E                     dE             d eps       ncg     rms          rms(c)
DAV:   1    -0.851570182168E+03   -0.13045E-03   -0.12536E-02  4560   0.195E-01    0.232E-02
DAV:   2    -0.851570200177E+03   -0.18009E-04   -0.24043E-04  4480   0.251E-02    0.164E-02
DAV:   3    -0.851570199085E+03    0.10917E-05   -0.33162E-06  4600   0.369E-03    0.124E-02
DAV:   4    -0.851570202556E+03   -0.34713E-05   -0.53145E-06  4120   0.472E-03    0.267E-03
DAV:   5    -0.851570202726E+03   -0.16925E-06   -0.14027E-06  3600   0.196E-03
  77 F= -.85947391E+03 E0= -.85947391E+03  d E =-.140184E-03  mag=     0.0000
quench:  g(F)=  0.000E+00 g(S)=  0.000E+00 dE (1.order)= 0.000E+00
 bond charge predicted
       N       E                     dE             d eps       ncg     rms          rms(c)
DAV:   1    -0.851570349309E+03   -0.14675E-03   -0.18987E-02  4560   0.239E-01    0.273E-02
DAV:   2    -0.851570379671E+03   -0.30362E-04   -0.38845E-04  4480   0.319E-02    0.190E-02
DAV:   3    -0.851570377188E+03    0.24829E-05   -0.55267E-06  4980   0.474E-03    0.145E-02
DAV:   4    -0.851570380861E+03   -0.36728E-05   -0.90712E-06  4200   0.611E-03    0.358E-03
DAV:   5    -0.851570381135E+03   -0.27366E-06   -0.23452E-06  4060   0.253E-03
  78 F= -.85947408E+03 E0= -.85947408E+03  d E =-.163736E-03  mag=    -0.0000
quench:  g(F)=  0.000E+00 g(S)=  0.000E+00 dE (1.order)= 0.000E+00
 bond charge predicted
       N       E                     dE             d eps       ncg     rms          rms(c)
DAV:   1    -0.851570548122E+03   -0.16726E-03   -0.27557E-02  4560   0.286E-01    0.330E-02
DAV:   2    -0.851570592250E+03   -0.44128E-04   -0.56304E-04  4480   0.381E-02    0.229E-02
DAV:   3    -0.851570588658E+03    0.35917E-05   -0.78670E-06  5180   0.563E-03    0.175E-02
DAV:   4    -0.851570594095E+03   -0.54363E-05   -0.13368E-05  4420   0.736E-03    0.426E-03
DAV:   5    -0.851570594451E+03   -0.35632E-06   -0.33872E-06  4360   0.303E-03
  79 F= -.85947427E+03 E0= -.85947427E+03  d E =-.194849E-03  mag=    -0.0000
quench:  g(F)=  0.000E+00 g(S)=  0.000E+00 dE (1.order)= 0.000E+00
 bond charge predicted
       N       E                     dE             d eps       ncg     rms          rms(c)
DAV:   1    -0.851570784110E+03   -0.19002E-03   -0.39261E-02  4560   0.338E-01    0.394E-02
DAV:   2    -0.851570847606E+03   -0.63496E-04   -0.80546E-04  4520   0.450E-02    0.272E-02
DAV:   3    -0.851570842458E+03    0.51482E-05   -0.10713E-05  5340   0.652E-03    0.208E-02
DAV:   4    -0.851570850730E+03   -0.82726E-05   -0.19427E-05  4440   0.871E-03    0.493E-03
DAV:   5    -0.851570851171E+03   -0.44124E-06   -0.46968E-06  4700   0.355E-03
  80 F= -.85947451E+03 E0= -.85947451E+03  d E =-.232829E-03  mag=     0.0000
quench:  g(F)=  0.000E+00 g(S)=  0.000E+00 dE (1.order)= 0.000E+00
 bond charge predicted
       N       E                     dE             d eps       ncg     rms          rms(c)
DAV:   1    -0.851571064801E+03   -0.21407E-03   -0.54046E-02  4560   0.391E-01    0.463E-02
DAV:   2    -0.851571153455E+03   -0.88654E-04   -0.11171E-03  4540   0.520E-02    0.318E-02
DAV:   3    -0.851571146022E+03    0.74331E-05   -0.14233E-05  5420   0.741E-03    0.244E-02
DAV:   4    -0.851571158228E+03   -0.12206E-04   -0.27707E-05  4580   0.101E-02    0.560E-03
DAV:   5    -0.851571158793E+03   -0.56501E-06   -0.63764E-06  5060   0.410E-03
  81 F= -.85947478E+03 E0= -.85947478E+03  d E =-.277376E-03  mag=     0.0000
quench:  g(F)=  0.000E+00 g(S)=  0.000E+00 dE (1.order)= 0.000E+00
 bond charge predicted
       N       E                     dE             d eps       ncg     rms          rms(c)
DAV:   1    -0.851571387200E+03   -0.22897E-03   -0.71095E-02  4560   0.438E-01    0.536E-02
DAV:   2    -0.851571505687E+03   -0.11849E-03   -0.14839E-03  4620   0.585E-02    0.366E-02
DAV:   3    -0.851571495847E+03    0.98395E-05   -0.18318E-05  5480   0.825E-03    0.282E-02
DAV:   4    -0.851571512521E+03   -0.16674E-04   -0.37664E-05  4620   0.115E-02    0.628E-03
DAV:   5    -0.851571513247E+03   -0.72538E-06   -0.83659E-06  5140   0.463E-03
  82 F= -.85947510E+03 E0= -.85947510E+03  d E =-.316715E-03  mag=     0.0000
quench:  g(F)=  0.000E+00 g(S)=  0.000E+00 dE (1.order)= 0.000E+00
 bond charge predicted
       N       E                     dE             d eps       ncg     rms          rms(c)
DAV:   1    -0.851571757817E+03   -0.24530E-03   -0.86341E-02  4560   0.465E-01    0.604E-02
DAV:   2    -0.851571902730E+03   -0.14491E-03   -0.18077E-03  4600   0.618E-02    0.405E-02
DAV:   3    -0.851571891022E+03    0.11708E-04   -0.21128E-05  5460   0.860E-03    0.312E-02
DAV:   4    -0.851571913120E+03   -0.22099E-04   -0.45878E-05  4620   0.121E-02    0.658E-03
DAV:   5    -0.851571913826E+03   -0.70597E-06   -0.95475E-06  5140   0.480E-03
  83 F= -.85947546E+03 E0= -.85947546E+03  d E =-.356316E-03  mag=    -0.0000
quench:  g(F)=  0.000E+00 g(S)=  0.000E+00 dE (1.order)= 0.000E+00
 bond charge predicted
       N       E                     dE             d eps       ncg     rms          rms(c)
DAV:   1    -0.851572188382E+03   -0.27526E-03   -0.93197E-02  4560   0.464E-01    0.642E-02
DAV:   2    -0.851572345659E+03   -0.15728E-03   -0.19481E-03  4620   0.612E-02    0.427E-02
DAV:   3    -0.851572333719E+03    0.11939E-04   -0.21728E-05  5480   0.841E-03    0.329E-02
DAV:   4    -0.851572359346E+03   -0.25627E-04   -0.50511E-05  4620   0.121E-02    0.674E-03
DAV:   5    -0.851572359786E+03   -0.43979E-06   -0.96615E-06  5120   0.471E-03
  84 F= -.85947585E+03 E0= -.85947585E+03  d E =-.396952E-03  mag=     0.0000
quench:  g(F)=  0.000E+00 g(S)=  0.000E+00 dE (1.order)= 0.000E+00
 bond charge predicted
       N       E                     dE             d eps       ncg     rms          rms(c)
DAV:   1    -0.851572662667E+03   -0.30332E-03   -0.96434E-02  4560   0.453E-01    0.666E-02
DAV:   2    -0.851572826235E+03   -0.16357E-03   -0.20184E-03  4620   0.593E-02    0.444E-02
DAV:   3    -0.851572814100E+03    0.12135E-04   -0.21761E-05  5340   0.810E-03    0.343E-02
DAV:   4    -0.851572842635E+03   -0.28535E-04   -0.56525E-05  4640   0.123E-02    0.710E-03
DAV:   5    -0.851572842778E+03   -0.14293E-06   -0.99102E-06  4980   0.466E-03
  85 F= -.85947628E+03 E0= -.85947628E+03  d E =-.427504E-03  mag=    -0.0000
quench:  g(F)=  0.000E+00 g(S)=  0.000E+00 dE (1.order)= 0.000E+00
 bond charge predicted
       N       E                     dE             d eps       ncg     rms          rms(c)
DAV:   1    -0.851573176361E+03   -0.33373E-03   -0.10582E-01  4540   0.466E-01    0.701E-02
DAV:   2    -0.851573355238E+03   -0.17888E-03   -0.22232E-03  4620   0.611E-02    0.473E-02
DAV:   3    -0.851573341508E+03    0.13731E-04   -0.23951E-05  5380   0.841E-03    0.367E-02
DAV:   4    -0.851573374057E+03   -0.32550E-04   -0.68097E-05  4600   0.135E-02    0.763E-03
DAV:   5    -0.851573374128E+03   -0.71246E-07   -0.11689E-05  4980   0.506E-03    0.693E-03
DAV:   6    -0.851573373977E+03    0.15182E-06   -0.47071E-06  4080   0.406E-03
  86 F= -.85947675E+03 E0= -.85947675E+03  d E =-.464571E-03  mag=     0.0000
quench:  g(F)=  0.000E+00 g(S)=  0.000E+00 dE (1.order)= 0.000E+00
 bond charge predicted
       N       E                     dE             d eps       ncg     rms          rms(c)
DAV:   1    -0.851573708311E+03   -0.33418E-03   -0.13056E-01  4540   0.550E-01    0.765E-02
DAV:   2    -0.851573922209E+03   -0.21390E-03   -0.27047E-03  4600   0.724E-02    0.532E-02
DAV:   3    -0.851573903901E+03    0.18309E-04   -0.32694E-05  5380   0.104E-02    0.411E-02
DAV:   4    -0.851573939142E+03   -0.35241E-04   -0.83026E-05  4620   0.161E-02    0.834E-03
DAV:   5    -0.851573940105E+03   -0.96266E-06   -0.15723E-05  5140   0.625E-03    0.699E-03
DAV:   6    -0.851573940331E+03   -0.22587E-06   -0.43220E-06  4120   0.433E-03
  87 F= -.85947723E+03 E0= -.85947723E+03  d E =-.485464E-03  mag=     0.0000
quench:  g(F)=  0.000E+00 g(S)=  0.000E+00 dE (1.order)= 0.000E+00
 bond charge predicted
       N       E                     dE             d eps       ncg     rms          rms(c)
DAV:   1    -0.851574224115E+03   -0.28401E-03   -0.17715E-01  4540   0.702E-01    0.867E-02
DAV:   2    -0.851574502419E+03   -0.27830E-03   -0.35954E-03  4560   0.932E-02    0.620E-02
DAV:   3    -0.851574478033E+03    0.24386E-04   -0.51312E-05  5380   0.140E-02    0.475E-02
DAV:   4    -0.851574515804E+03   -0.37771E-04   -0.10279E-04  4960   0.196E-02    0.102E-02
DAV:   5    -0.851574518065E+03   -0.22609E-05   -0.22071E-05  5160   0.795E-03    0.726E-03
DAV:   6    -0.851574518802E+03   -0.73758E-06   -0.45490E-06  4260   0.449E-03
  88 F= -.85947772E+03 E0= -.85947772E+03  d E =-.485176E-03  mag=    -0.0000
quench:  g(F)=  0.000E+00 g(S)=  0.000E+00 dE (1.order)= 0.000E+00
 bond charge predicted
       N       E                     dE             d eps       ncg     rms          rms(c)
DAV:   1    -0.851574712407E+03   -0.19434E-03   -0.25662E-01  4540   0.905E-01    0.101E-01
DAV:   2    -0.851575092281E+03   -0.37987E-03   -0.50325E-03  4560   0.120E-01    0.747E-02
DAV:   3    -0.851575055768E+03    0.36513E-04   -0.86418E-05  5420   0.190E-02    0.565E-02
DAV:   4    -0.851575095118E+03   -0.39350E-04   -0.13891E-04  5080   0.241E-02    0.134E-02
DAV:   5    -0.851575099127E+03   -0.40088E-05   -0.35149E-05  5100   0.103E-02    0.798E-03
DAV:   6    -0.851575100345E+03   -0.12188E-05   -0.54091E-06  4340   0.458E-03    0.397E-03
DAV:   7    -0.851575100564E+03   -0.21852E-06   -0.68917E-07  3680   0.161E-03
  89 F= -.85947819E+03 E0= -.85947819E+03  d E =-.477188E-03  mag=    -0.0000
quench:  g(F)=  0.000E+00 g(S)=  0.000E+00 dE (1.order)= 0.000E+00
 bond charge predicted
       N       E                     dE             d eps       ncg     rms          rms(c)
DAV:   1    -0.851575108695E+03   -0.83498E-05   -0.41629E-01  4540   0.118E+00    0.123E-01
DAV:   2    -0.851575709093E+03   -0.60040E-03   -0.80456E-03  4560   0.157E-01    0.943E-02
DAV:   3    -0.851575643389E+03    0.65704E-04   -0.14701E-04  5480   0.252E-02    0.714E-02
DAV:   4    -0.851575687836E+03   -0.44447E-04   -0.23976E-04  5220   0.318E-02    0.174E-02
DAV:   5    -0.851575694974E+03   -0.71373E-05   -0.61500E-05  5060   0.136E-02    0.965E-03
DAV:   6    -0.851575697597E+03   -0.26233E-05   -0.71183E-06  4360   0.528E-03    0.495E-03
DAV:   7    -0.851575698013E+03   -0.41590E-06   -0.10396E-06  3860   0.200E-03
  90 F= -.85947866E+03 E0= -.85947866E+03  d E =-.463852E-03  mag=    -0.0000
quench:  g(F)=  0.000E+00 g(S)=  0.000E+00 dE (1.order)= 0.000E+00
 bond charge predicted
       N       E                     dE             d eps       ncg     rms          rms(c)
DAV:   1    -0.851575482888E+03    0.21471E-03   -0.61189E-01  4560   0.145E+00    0.148E-01
DAV:   2    -0.851576340340E+03   -0.85745E-03   -0.11597E-02  4580   0.192E-01    0.115E-01
DAV:   3    -0.851576244135E+03    0.96205E-04   -0.22048E-04  5460   0.311E-02    0.861E-02
DAV:   4    -0.851576295409E+03   -0.51275E-04   -0.34482E-04  5300   0.387E-02    0.213E-02
DAV:   5    -0.851576305505E+03   -0.10095E-04   -0.95598E-05  4960   0.170E-02    0.110E-02
DAV:   6    -0.851576309310E+03   -0.38058E-05   -0.89133E-06  4520   0.582E-03    0.584E-03
DAV:   7    -0.851576309904E+03   -0.59407E-06   -0.12611E-06  3940   0.225E-03
  91 F= -.85947911E+03 E0= -.85947911E+03  d E =-.449916E-03  mag=    -0.0000
quench:  g(F)=  0.000E+00 g(S)=  0.000E+00 dE (1.order)= 0.000E+00
 bond charge predicted
       N       E                     dE             d eps       ncg     rms          rms(c)
DAV:   1    -0.851575853126E+03    0.45618E-03   -0.85927E-01  4560   0.172E+00    0.176E-01
DAV:   2    -0.851577103288E+03   -0.12502E-02   -0.16556E-02  4640   0.228E-01    0.135E-01
DAV:   3    -0.851576974594E+03    0.12869E-03   -0.30756E-04  5480   0.365E-02    0.101E-01
DAV:   4    -0.851577032280E+03   -0.57686E-04   -0.46522E-04  5300   0.450E-02    0.251E-02
DAV:   5    -0.851577047818E+03   -0.15537E-04   -0.13035E-04  4940   0.196E-02    0.131E-02
DAV:   6    -0.851577052776E+03   -0.49583E-05   -0.13050E-05  4780   0.702E-03    0.704E-03
DAV:   7    -0.851577053603E+03   -0.82656E-06   -0.19378E-06  3960   0.267E-03
  92 F= -.85947968E+03 E0= -.85947968E+03  d E =-.570781E-03  mag=     0.0000
quench:  g(F)=  0.000E+00 g(S)=  0.000E+00 dE (1.order)= 0.000E+00
 bond charge predicted
       N       E                     dE             d eps       ncg     rms          rms(c)
DAV:   1    -0.851576181366E+03    0.87141E-03   -0.11563E+00  4540   0.194E+00    0.207E-01
DAV:   2    -0.851578042508E+03   -0.18611E-02   -0.23451E-02  4660   0.261E-01    0.156E-01
DAV:   3    -0.851577867099E+03    0.17541E-03   -0.39669E-04  5600   0.401E-02    0.120E-01
DAV:   4    -0.851577929455E+03   -0.62356E-04   -0.70513E-04  5280   0.535E-02    0.291E-02
DAV:   5    -0.851577948150E+03   -0.18695E-04   -0.17098E-04  5060   0.223E-02    0.176E-02
DAV:   6    -0.851577957530E+03   -0.93795E-05   -0.23641E-05  4800   0.934E-03    0.870E-03
DAV:   7    -0.851577958640E+03   -0.11104E-05   -0.32379E-06  4560   0.327E-03    0.570E-03
DAV:   8    -0.851577958931E+03   -0.29094E-06   -0.19547E-06  3520   0.323E-03
  93 F= -.85948035E+03 E0= -.85948035E+03  d E =-.675191E-03  mag=     0.0000
quench:  g(F)=  0.000E+00 g(S)=  0.000E+00 dE (1.order)= 0.000E+00
 bond charge predicted
       N       E                     dE             d eps       ncg     rms          rms(c)
DAV:   1    -0.851575772150E+03    0.21865E-02   -0.14690E+00  4540   0.216E+00    0.246E-01
DAV:   2    -0.851578323959E+03   -0.25518E-02   -0.31375E-02  4760   0.294E-01    0.181E-01
DAV:   3    -0.851578104478E+03    0.21948E-03   -0.57950E-04  5660   0.469E-02    0.138E-01
DAV:   4    -0.851578132244E+03   -0.27766E-04   -0.77921E-04  5000   0.583E-02    0.374E-02
DAV:   5    -0.851578165827E+03   -0.33583E-04   -0.21538E-04  5060   0.244E-02    0.214E-02
DAV:   6    -0.851578171267E+03   -0.54402E-05   -0.33993E-05  4900   0.109E-02    0.103E-02
DAV:   7    -0.851578172094E+03   -0.82701E-06   -0.47813E-06  5180   0.402E-03
  94 F= -.85948035E+03 E0= -.85948035E+03  d E =0.711930E-05  mag=    -0.0000
quench:  g(F)=  0.000E+00 g(S)=  0.000E+00 dE (1.order)= 0.000E+00
 bond charge predicted
       N       E                     dE             d eps       ncg     rms          rms(c)
DAV:   1    -0.851579591425E+03   -0.14202E-02   -0.86225E-02  4480   0.586E-01    0.658E-02
DAV:   2    -0.851579743149E+03   -0.15172E-03   -0.22224E-03  5300   0.852E-02    0.595E-02
DAV:   3    -0.851579702428E+03    0.40720E-04   -0.89620E-05  6060   0.174E-02    0.462E-02
DAV:   4    -0.851579671008E+03    0.31420E-04   -0.87349E-05  4660   0.197E-02    0.187E-02
DAV:   5    -0.851579672853E+03   -0.18450E-05   -0.26293E-05  4940   0.903E-03    0.754E-03
DAV:   6    -0.851579673909E+03   -0.10560E-05   -0.21302E-06  3340   0.298E-03    0.333E-03
DAV:   7    -0.851579673843E+03    0.66255E-07   -0.53649E-07  3140   0.161E-03
  95 F= -.85948182E+03 E0= -.85948182E+03  d E =-.147689E-02  mag=    -0.0000
quench:  g(F)=  0.000E+00 g(S)=  0.000E+00 dE (1.order)= 0.000E+00
 bond charge predicted
       N       E                     dE             d eps       ncg     rms          rms(c)
DAV:   1    -0.851579701935E+03   -0.28026E-04   -0.25994E-04  4600   0.290E-02    0.343E-03
DAV:   2    -0.851579702368E+03   -0.43293E-06   -0.56944E-06  4280   0.400E-03
  96 F= -.85948185E+03 E0= -.85948185E+03  d E =-.274404E-04  mag=     0.0000
quench:  g(F)=  0.000E+00 g(S)=  0.000E+00 dE (1.order)= 0.000E+00
 bond charge predicted
       N       E                     dE             d eps       ncg     rms          rms(c)
DAV:   1    -0.851579755444E+03   -0.53509E-04   -0.11766E-03  4520   0.612E-02    0.818E-03
DAV:   2    -0.851579756930E+03   -0.14862E-05   -0.24600E-05  4740   0.824E-03    0.629E-03
DAV:   3    -0.851579756702E+03    0.22814E-06   -0.45894E-07  3180   0.149E-03
  97 F= -.85948190E+03 E0= -.85948190E+03  d E =-.519028E-04  mag=     0.0000
quench:  g(F)=  0.000E+00 g(S)=  0.000E+00 dE (1.order)= 0.000E+00
 bond charge predicted
       N       E                     dE             d eps       ncg     rms          rms(c)
DAV:   1    -0.851579830215E+03   -0.73285E-04   -0.29050E-03  4540   0.950E-02    0.111E-02
DAV:   2    -0.851579834370E+03   -0.41543E-05   -0.57640E-05  4620   0.124E-02    0.793E-03
DAV:   3    -0.851579834026E+03    0.34386E-06   -0.75817E-07  3840   0.184E-03
  98 F= -.85948198E+03 E0= -.85948198E+03  d E =-.732347E-04  mag=     0.0000
quench:  g(F)=  0.000E+00 g(S)=  0.000E+00 dE (1.order)= 0.000E+00
 bond charge predicted
       N       E                     dE             d eps       ncg     rms          rms(c)
DAV:   1    -0.851579928576E+03   -0.94207E-04   -0.56148E-03  4540   0.131E-01    0.151E-02
DAV:   2    -0.851579936591E+03   -0.80149E-05   -0.11071E-04  4520   0.170E-02    0.106E-02
DAV:   3    -0.851579935917E+03    0.67394E-06   -0.13799E-06  4040   0.248E-03
  99 F= -.85948207E+03 E0= -.85948207E+03  d E =-.956434E-04  mag=     0.0000
quench:  g(F)=  0.000E+00 g(S)=  0.000E+00 dE (1.order)= 0.000E+00
 bond charge predicted
       N       E                     dE             d eps       ncg     rms          rms(c)
DAV:   1    -0.851580053600E+03   -0.11701E-03   -0.92969E-03  4560   0.167E-01    0.195E-02
DAV:   2    -0.851580066480E+03   -0.12880E-04   -0.18125E-04  4480   0.217E-02    0.137E-02
DAV:   3    -0.851580065374E+03    0.11057E-05   -0.22217E-06  4180   0.310E-03    0.104E-02
DAV:   4    -0.851580069211E+03   -0.38368E-05   -0.43222E-06  4120   0.418E-03    0.224E-03
DAV:   5    -0.851580069325E+03   -0.11474E-06   -0.10571E-06  3560   0.174E-03
 100 F= -.85948220E+03 E0= -.85948220E+03  d E =-.124463E-03  mag=    -0.0000
quench:  g(F)=  0.000E+00 g(S)=  0.000E+00 dE (1.order)= 0.000E+00
 bond charge predicted
       N       E                     dE             d eps       ncg     rms          rms(c)
DAV:   1    -0.851580205856E+03   -0.13665E-03   -0.14114E-02  4560   0.205E-01    0.232E-02
DAV:   2    -0.851580227801E+03   -0.21945E-04   -0.29286E-04  4480   0.275E-02    0.160E-02
DAV:   3    -0.851580225470E+03    0.23305E-05   -0.37890E-06  4560   0.397E-03    0.123E-02
DAV:   4    -0.851580230086E+03   -0.46161E-05   -0.70972E-06  4200   0.528E-03    0.293E-03
DAV:   5    -0.851580230304E+03   -0.21813E-06   -0.16850E-06  3660   0.218E-03
 101 F= -.85948234E+03 E0= -.85948234E+03  d E =-.149164E-03  mag=    -0.0000
quench:  g(F)=  0.000E+00 g(S)=  0.000E+00 dE (1.order)= 0.000E+00
 bond charge predicted
       N       E                     dE             d eps       ncg     rms          rms(c)
DAV:   1    -0.851580401239E+03   -0.17115E-03   -0.23684E-02  4560   0.264E-01    0.301E-02
DAV:   2    -0.851580438117E+03   -0.36878E-04   -0.49161E-04  4480   0.355E-02    0.207E-02
DAV:   3    -0.851580434596E+03    0.35212E-05   -0.64394E-06  4910   0.510E-03    0.160E-02
DAV:   4    -0.851580441748E+03   -0.71513E-05   -0.11664E-05  4300   0.675E-03    0.376E-03
DAV:   5    -0.851580442207E+03   -0.45956E-06   -0.28814E-06  4280   0.277E-03
 102 F= -.85948254E+03 E0= -.85948254E+03  d E =-.195771E-03  mag=    -0.0000
quench:  g(F)=  0.000E+00 g(S)=  0.000E+00 dE (1.order)= 0.000E+00
 bond charge predicted
       N       E                     dE             d eps       ncg     rms          rms(c)
DAV:   1    -0.851580641831E+03   -0.20008E-03   -0.37294E-02  4560   0.330E-01    0.379E-02
DAV:   2    -0.851580701016E+03   -0.59185E-04   -0.77726E-04  4500   0.444E-02    0.260E-02
DAV:   3    -0.851580695781E+03    0.52350E-05   -0.99775E-06  5220   0.630E-03    0.201E-02
DAV:   4    -0.851580706386E+03   -0.10605E-04   -0.18377E-05  4460   0.839E-03    0.464E-03
DAV:   5    -0.851580707059E+03   -0.67295E-06   -0.44516E-06  4520   0.343E-03
 103 F= -.85948278E+03 E0= -.85948278E+03  d E =-.244085E-03  mag=    -0.0000
quench:  g(F)=  0.000E+00 g(S)=  0.000E+00 dE (1.order)= 0.000E+00
 bond charge predicted
       N       E                     dE             d eps       ncg     rms          rms(c)
DAV:   1    -0.851580944676E+03   -0.23829E-03   -0.55767E-02  4560   0.401E-01    0.466E-02
DAV:   2    -0.851581035133E+03   -0.90458E-04   -0.11694E-03  4580   0.539E-02    0.318E-02
DAV:   3    -0.851581028149E+03    0.69848E-05   -0.14385E-05  5400   0.751E-03    0.245E-02
DAV:   4    -0.851581043213E+03   -0.15065E-04   -0.27300E-05  4540   0.101E-02    0.552E-03
DAV:   5    -0.851581044090E+03   -0.87618E-06   -0.64056E-06  5060   0.409E-03
 104 F= -.85948310E+03 E0= -.85948310E+03  d E =-.312210E-03  mag=     0.0000
quench:  g(F)=  0.000E+00 g(S)=  0.000E+00 dE (1.order)= 0.000E+00
 bond charge predicted
       N       E                     dE             d eps       ncg     rms          rms(c)
DAV:   1    -0.851581302380E+03   -0.25917E-03   -0.79127E-02  4560   0.474E-01    0.559E-02
DAV:   2    -0.851581434628E+03   -0.13225E-03   -0.16771E-03  4620   0.638E-02    0.377E-02
[...]
DAV:   4    -0.851595597788E+03   -0.11676E-04   -0.20305E-05  4400   0.768E-03    0.433E-03
DAV:   5    -0.851595597936E+03   -0.14720E-06   -0.36318E-06  4120   0.289E-03
 172 F= -.85949560E+03 E0= -.85949560E+03  d E =-.246772E-03  mag=     0.0000
quench:  g(F)=  0.000E+00 g(S)=  0.000E+00 dE (1.order)= 0.000E+00
 bond charge predicted
       N       E                     dE             d eps       ncg     rms          rms(c)
DAV:   1    -0.851595794418E+03   -0.19663E-03   -0.54027E-02  4560   0.366E-01    0.478E-02
DAV:   2    -0.851595895538E+03   -0.10112E-03   -0.11932E-03  4660   0.490E-02    0.305E-02
DAV:   3    -0.851595890090E+03    0.54484E-05   -0.10583E-05  5140   0.564E-03    0.239E-02
DAV:   4    -0.851595904845E+03   -0.14755E-04   -0.25600E-05  4480   0.837E-03    0.483E-03
DAV:   5    -0.851595904974E+03   -0.12898E-06   -0.44791E-06  4220   0.313E-03
 173 F= -.85949588E+03 E0= -.85949588E+03  d E =-.278880E-03  mag=     0.0000
quench:  g(F)=  0.000E+00 g(S)=  0.000E+00 dE (1.order)= 0.000E+00
 bond charge predicted
       N       E                     dE             d eps       ncg     rms          rms(c)
DAV:   1    -0.851596105396E+03   -0.20055E-03   -0.65552E-02  4560   0.401E-01    0.524E-02
DAV:   2    -0.851596228509E+03   -0.12311E-03   -0.14491E-03  4660   0.534E-02    0.336E-02
DAV:   3    -0.851596222048E+03    0.64610E-05   -0.12547E-05  5120   0.607E-03    0.263E-02
DAV:   4    -0.851596240546E+03   -0.18498E-04   -0.31883E-05  4520   0.912E-03    0.535E-03
DAV:   5    -0.851596240653E+03   -0.10699E-06   -0.54708E-06  4400   0.339E-03
 174 F= -.85949618E+03 E0= -.85949618E+03  d E =-.299853E-03  mag=     0.0000
quench:  g(F)=  0.000E+00 g(S)=  0.000E+00 dE (1.order)= 0.000E+00
 bond charge predicted
       N       E                     dE             d eps       ncg     rms          rms(c)
DAV:   1    -0.851596422725E+03   -0.18218E-03   -0.81788E-02  4560   0.461E-01    0.580E-02
DAV:   2    -0.851596576934E+03   -0.15421E-03   -0.18266E-03  4660   0.623E-02    0.375E-02
DAV:   3    -0.851596568820E+03    0.81146E-05   -0.16803E-05  5320   0.737E-03    0.293E-02
DAV:   4    -0.851596591283E+03   -0.22463E-04   -0.38035E-05  4580   0.108E-02    0.587E-03
DAV:   5    -0.851596591680E+03   -0.39725E-06   -0.72528E-06  5000   0.416E-03
 175 F= -.85949649E+03 E0= -.85949649E+03  d E =-.309767E-03  mag=    -0.0000
quench:  g(F)=  0.000E+00 g(S)=  0.000E+00 dE (1.order)= 0.000E+00
 bond charge predicted
       N       E                     dE             d eps       ncg     rms          rms(c)
DAV:   1    -0.851596731637E+03   -0.14035E-03   -0.10063E-01  4560   0.543E-01    0.636E-02
DAV:   2    -0.851596916983E+03   -0.18535E-03   -0.22313E-03  4620   0.743E-02    0.422E-02
DAV:   3    -0.851596907431E+03    0.95521E-05   -0.23706E-05  5360   0.948E-03    0.328E-02
DAV:   4    -0.851596931848E+03   -0.24417E-04   -0.44360E-05  4580   0.131E-02    0.690E-03
DAV:   5    -0.851596932736E+03   -0.88723E-06   -0.99538E-06  5140   0.527E-03
 176 F= -.85949679E+03 E0= -.85949679E+03  d E =-.295151E-03  mag=    -0.0000
quench:  g(F)=  0.000E+00 g(S)=  0.000E+00 dE (1.order)= 0.000E+00
 bond charge predicted
       N       E                     dE             d eps       ncg     rms          rms(c)
DAV:   1    -0.851596995528E+03   -0.63679E-04   -0.13846E-01  4540   0.677E-01    0.723E-02
DAV:   2    -0.851597238757E+03   -0.24323E-03   -0.30050E-03  4540   0.930E-02    0.501E-02
DAV:   3    -0.851597225268E+03    0.13489E-04   -0.39036E-05  5420   0.128E-02    0.386E-02
DAV:   4    -0.851597252684E+03   -0.27416E-04   -0.59441E-05  4820   0.162E-02    0.917E-03
DAV:   5    -0.851597254582E+03   -0.18984E-05   -0.15194E-05  5100   0.675E-03    0.571E-03
DAV:   6    -0.851597254800E+03   -0.21835E-06   -0.28057E-06  4020   0.355E-03
 177 F= -.85949706E+03 E0= -.85949706E+03  d E =-.269915E-03  mag=     0.0000
quench:  g(F)=  0.000E+00 g(S)=  0.000E+00 dE (1.order)= 0.000E+00
 bond charge predicted
       N       E                     dE             d eps       ncg     rms          rms(c)
DAV:   1    -0.851597182953E+03    0.71629E-04   -0.20876E-01  4540   0.861E-01    0.852E-02
DAV:   2    -0.851597524533E+03   -0.34158E-03   -0.43615E-03  4520   0.118E-01    0.624E-02
DAV:   3    -0.851597499772E+03    0.24761E-04   -0.66884E-05  5480   0.171E-02    0.477E-02
DAV:   4    -0.851597531816E+03   -0.32044E-04   -0.95669E-05  4980   0.209E-02    0.122E-02
DAV:   5    -0.851597535240E+03   -0.34235E-05   -0.26919E-05  5000   0.910E-03    0.653E-03
DAV:   6    -0.851597535964E+03   -0.72411E-06   -0.34299E-06  4300   0.378E-03
 178 F= -.85949728E+03 E0= -.85949728E+03  d E =-.222497E-03  mag=     0.0000
quench:  g(F)=  0.000E+00 g(S)=  0.000E+00 dE (1.order)= 0.000E+00
 bond charge predicted
       N       E                     dE             d eps       ncg     rms          rms(c)
DAV:   1    -0.851597282287E+03    0.25295E-03   -0.32042E-01  4540   0.109E+00    0.103E-01
DAV:   2    -0.851597780295E+03   -0.49801E-03   -0.64957E-03  4500   0.147E-01    0.784E-02
DAV:   3    -0.851597738221E+03    0.42074E-04   -0.11214E-04  5520   0.225E-02    0.596E-02
DAV:   4    -0.851597775929E+03   -0.37708E-04   -0.15156E-04  4940   0.267E-02    0.157E-02
DAV:   5    -0.851597781135E+03   -0.52060E-05   -0.47389E-05  4960   0.120E-02    0.762E-03
DAV:   6    -0.851597782398E+03   -0.12636E-05   -0.44266E-06  4440   0.413E-03    0.419E-03
DAV:   7    -0.851597782649E+03   -0.25101E-06   -0.55073E-07  3360   0.153E-03
 179 F= -.85949747E+03 E0= -.85949747E+03  d E =-.188282E-03  mag=    -0.0000
quench:  g(F)=  0.000E+00 g(S)=  0.000E+00 dE (1.order)= 0.000E+00
 bond charge predicted
       N       E                     dE             d eps       ncg     rms          rms(c)
DAV:   1    -0.851597359733E+03    0.42267E-03   -0.47128E-01  4560   0.132E+00    0.124E-01
DAV:   2    -0.851598051870E+03   -0.69214E-03   -0.92428E-03  4540   0.177E-01    0.970E-02
DAV:   3    -0.851597981988E+03    0.69882E-04   -0.17113E-04  5480   0.280E-02    0.732E-02
DAV:   4    -0.851598022962E+03   -0.40973E-04   -0.22786E-04  5120   0.328E-02    0.197E-02
DAV:   5    -0.851598031163E+03   -0.82010E-05   -0.73097E-05  4940   0.147E-02    0.927E-03
DAV:   6    -0.851598033018E+03   -0.18557E-05   -0.62450E-06  4540   0.487E-03    0.509E-03
DAV:   7    -0.851598033469E+03   -0.45089E-06   -0.92240E-07  3300   0.200E-03
 180 F= -.85949766E+03 E0= -.85949766E+03  d E =-.193956E-03  mag=    -0.0000
quench:  g(F)=  0.000E+00 g(S)=  0.000E+00 dE (1.order)= 0.000E+00
 bond charge predicted
       N       E                     dE             d eps       ncg     rms          rms(c)
DAV:   1    -0.851597351507E+03    0.68151E-03   -0.65528E-01  4560   0.154E+00    0.148E-01
DAV:   2    -0.851598309808E+03   -0.95830E-03   -0.12850E-02  4580   0.207E-01    0.117E-01
DAV:   3    -0.851598205748E+03    0.10406E-03   -0.24279E-04  5580   0.330E-02    0.884E-02
DAV:   4    -0.851598255360E+03   -0.49612E-04   -0.34323E-04  5200   0.397E-02    0.239E-02
DAV:   5    -0.851598268300E+03   -0.12940E-04   -0.10461E-04  4980   0.175E-02    0.119E-02
DAV:   6    -0.851598271409E+03   -0.31097E-05   -0.10202E-05  4700   0.629E-03    0.635E-03
DAV:   7    -0.851598272052E+03   -0.64226E-06   -0.14555E-06  3640   0.239E-03
 181 F= -.85949782E+03 E0= -.85949782E+03  d E =-.156546E-03  mag=    -0.0000
quench:  g(F)=  0.000E+00 g(S)=  0.000E+00 dE (1.order)= 0.000E+00
 bond charge predicted
       N       E                     dE             d eps       ncg     rms          rms(c)
DAV:   1    -0.851597123887E+03    0.11475E-02   -0.81962E-01  4560   0.172E+00    0.172E-01
DAV:   2    -0.851598351257E+03   -0.12274E-02   -0.16302E-02  4600   0.230E-01    0.136E-01
DAV:   3    -0.851598214579E+03    0.13668E-03   -0.34148E-04  5720   0.381E-02    0.103E-01
DAV:   4    -0.851598248170E+03   -0.33591E-04   -0.43380E-04  5180   0.455E-02    0.290E-02
DAV:   5    -0.851598264195E+03   -0.16025E-04   -0.14247E-04  4980   0.201E-02    0.146E-02
DAV:   6    -0.851598267132E+03   -0.29370E-05   -0.14909E-05  4960   0.740E-03    0.767E-03
DAV:   7    -0.851598267642E+03   -0.50922E-06   -0.21888E-06  3980   0.283E-03
 182 F= -.85949775E+03 E0= -.85949775E+03  d E =0.743983E-04  mag=    -0.0000
quench:  g(F)=  0.000E+00 g(S)=  0.000E+00 dE (1.order)= 0.000E+00
 bond charge predicted
       N       E                     dE             d eps       ncg     rms          rms(c)
DAV:   1    -0.851598852089E+03   -0.58496E-03   -0.31631E-02  4500   0.355E-01    0.395E-02
DAV:   2    -0.851598908790E+03   -0.56700E-04   -0.80423E-04  5480   0.515E-02    0.358E-02
DAV:   3    -0.851598894907E+03    0.13883E-04   -0.29803E-05  6000   0.102E-02    0.281E-02
DAV:   4    -0.851598882700E+03    0.12207E-04   -0.33279E-05  4640   0.123E-02    0.107E-02
DAV:   5    -0.851598883188E+03   -0.48750E-06   -0.98291E-06  4680   0.557E-03
 183 F= -.85949834E+03 E0= -.85949834E+03  d E =-.596625E-03  mag=    -0.0000
quench:  g(F)=  0.000E+00 g(S)=  0.000E+00 dE (1.order)= 0.000E+00
 bond charge predicted
       N       E                     dE             d eps       ncg     rms          rms(c)
DAV:   1    -0.851598552286E+03    0.33041E-03   -0.33425E-02  4480   0.358E-01    0.403E-02
DAV:   2    -0.851598614385E+03   -0.62099E-04   -0.84070E-04  5440   0.522E-02    0.344E-02
DAV:   3    -0.851598602379E+03    0.12007E-04   -0.26962E-05  5780   0.993E-03    0.270E-02
DAV:   4    -0.851598596129E+03    0.62498E-05   -0.31689E-05  4640   0.121E-02    0.101E-02
DAV:   5    -0.851598597382E+03   -0.12534E-05   -0.87908E-06  4720   0.536E-03    0.499E-03
DAV:   6    -0.851598597671E+03   -0.28918E-06   -0.99791E-07  2960   0.213E-03
 184 F= -.85949803E+03 E0= -.85949803E+03  d E =0.311937E-03  mag=    -0.0000
quench:  g(F)=  0.000E+00 g(S)=  0.000E+00 dE (1.order)= 0.000E+00
 bond charge predicted
       N       E                     dE             d eps       ncg     rms          rms(c)
DAV:   1    -0.851598806191E+03   -0.20881E-03   -0.15088E-03  4540   0.788E-02    0.887E-03
DAV:   2    -0.851598808845E+03   -0.26538E-05   -0.39289E-05  5460   0.115E-02    0.821E-03
DAV:   3    -0.851598808086E+03    0.75854E-06   -0.14001E-06  3380   0.237E-03
 185 F= -.85949824E+03 E0= -.85949824E+03  d E =-.211558E-03  mag=     0.0000
quench:  g(F)=  0.000E+00 g(S)=  0.000E+00 dE (1.order)= 0.000E+00
 bond charge predicted
       N       E                     dE             d eps       ncg     rms          rms(c)
DAV:   1    -0.851599033396E+03   -0.22455E-03   -0.46331E-03  4540   0.138E-01    0.168E-02
DAV:   2    -0.851599041136E+03   -0.77405E-05   -0.11234E-04  5480   0.195E-02    0.150E-02
DAV:   3    -0.851599038840E+03    0.22961E-05   -0.48044E-06  5200   0.424E-03    0.113E-02
DAV:   4    -0.851599036995E+03    0.18451E-05   -0.55416E-06  4480   0.508E-03    0.399E-03
DAV:   5    -0.851599037025E+03   -0.29810E-07   -0.13235E-06  3140   0.209E-03
 186 F= -.85949847E+03 E0= -.85949847E+03  d E =-.230260E-03  mag=     0.0000
quench:  g(F)=  0.000E+00 g(S)=  0.000E+00 dE (1.order)= 0.000E+00
 bond charge predicted
       N       E                     dE             d eps       ncg     rms          rms(c)
DAV:   1    -0.851599091612E+03   -0.54617E-04   -0.66444E-03  4500   0.165E-01    0.184E-02
DAV:   2    -0.851599104550E+03   -0.12937E-04   -0.17222E-04  5480   0.241E-02    0.161E-02
DAV:   3    -0.851599102076E+03    0.24735E-05   -0.65364E-06  5740   0.479E-03    0.125E-02
DAV:   4    -0.851599099811E+03    0.22653E-05   -0.58477E-06  4500   0.521E-03    0.506E-03
DAV:   5    -0.851599099819E+03   -0.80836E-08   -0.16924E-06  3340   0.240E-03
 187 F= -.85949853E+03 E0= -.85949853E+03  d E =-.619895E-04  mag=    -0.0000
quench:  g(F)=  0.000E+00 g(S)=  0.000E+00 dE (1.order)= 0.000E+00
 bond charge predicted
       N       E                     dE             d eps       ncg     rms          rms(c)
DAV:   1    -0.851599107249E+03   -0.74382E-05   -0.14760E-05  4400   0.696E-03    0.164E-03
DAV:   2    -0.851599107266E+03   -0.16720E-07   -0.39707E-07  2640   0.115E-03
 188 F= -.85949854E+03 E0= -.85949854E+03  d E =-.683065E-05  mag=    -0.0000
quench:  g(F)=  0.000E+00 g(S)=  0.000E+00 dE (1.order)= 0.000E+00
 bond charge predicted
       N       E                     dE             d eps       ncg     rms          rms(c)
DAV:   1    -0.851599121037E+03   -0.13788E-04   -0.54661E-05  4520   0.133E-02    0.217E-03
DAV:   2    -0.851599121105E+03   -0.67332E-07   -0.12008E-06  3160   0.189E-03
 189 F= -.85949855E+03 E0= -.85949855E+03  d E =-.126164E-04  mag=    -0.0000
quench:  g(F)=  0.000E+00 g(S)=  0.000E+00 dE (1.order)= 0.000E+00
 bond charge predicted
       N       E                     dE             d eps       ncg     rms          rms(c)
DAV:   1    -0.851599140034E+03   -0.18996E-04   -0.11810E-04  4520   0.194E-02    0.330E-03
DAV:   2    -0.851599140159E+03   -0.12540E-06   -0.25808E-06  3740   0.275E-03
 190 F= -.85949857E+03 E0= -.85949857E+03  d E =-.172365E-04  mag=    -0.0000
quench:  g(F)=  0.000E+00 g(S)=  0.000E+00 dE (1.order)= 0.000E+00
 bond charge predicted
       N       E                     dE             d eps       ncg     rms          rms(c)
DAV:   1    -0.851599162679E+03   -0.22645E-04   -0.19684E-04  4520   0.247E-02    0.448E-03
DAV:   2    -0.851599162868E+03   -0.18988E-06   -0.43484E-06  4280   0.349E-03
 191 F= -.85949859E+03 E0= -.85949859E+03  d E =-.203270E-04  mag=     0.0000
quench:  g(F)=  0.000E+00 g(S)=  0.000E+00 dE (1.order)= 0.000E+00
 bond charge predicted
       N       E                     dE             d eps       ncg     rms          rms(c)
DAV:   1    -0.851599187565E+03   -0.24886E-04   -0.28485E-04  4520   0.293E-02    0.558E-03
DAV:   2    -0.851599187808E+03   -0.24306E-06   -0.60707E-06  4560   0.403E-03
 192 F= -.85949861E+03 E0= -.85949861E+03  d E =-.220233E-04  mag=    -0.0000
quench:  g(F)=  0.000E+00 g(S)=  0.000E+00 dE (1.order)= 0.000E+00
 bond charge predicted
       N       E                     dE             d eps       ncg     rms          rms(c)
DAV:   1    -0.851599214567E+03   -0.27003E-04   -0.37551E-04  4480   0.329E-02    0.652E-03
DAV:   2    -0.851599214852E+03   -0.28477E-06   -0.78196E-06  4780   0.446E-03
 193 F= -.85949864E+03 E0= -.85949864E+03  d E =-.236387E-04  mag=     0.0000
quench:  g(F)=  0.000E+00 g(S)=  0.000E+00 dE (1.order)= 0.000E+00
 bond charge predicted
       N       E                     dE             d eps       ncg     rms          rms(c)
DAV:   1    -0.851599246080E+03   -0.31512E-04   -0.57591E-04  4520   0.397E-02    0.775E-03
DAV:   2    -0.851599246537E+03   -0.45713E-06   -0.11860E-05  4700   0.533E-03    0.615E-03
DAV:   3    -0.851599246624E+03   -0.86839E-07   -0.29218E-07  3100   0.115E-03
 194 F= -.85949866E+03 E0= -.85949866E+03  d E =-.275104E-04  mag=    -0.0000
quench:  g(F)=  0.000E+00 g(S)=  0.000E+00 dE (1.order)= 0.000E+00
 bond charge predicted
       N       E                     dE             d eps       ncg     rms          rms(c)
DAV:   1    -0.851599284587E+03   -0.38050E-04   -0.82786E-04  4500   0.464E-02    0.627E-03
DAV:   2    -0.851599285804E+03   -0.12171E-05   -0.16550E-05  4580   0.604E-03    0.431E-03
DAV:   3    -0.851599285782E+03    0.22381E-07   -0.17740E-07  2920   0.837E-04
 195 F= -.85949870E+03 E0= -.85949870E+03  d E =-.339552E-04  mag=     0.0000
quench:  g(F)=  0.000E+00 g(S)=  0.000E+00 dE (1.order)= 0.000E+00
 bond charge predicted
       N       E                     dE             d eps       ncg     rms          rms(c)
DAV:   1    -0.851599333034E+03   -0.47230E-04   -0.12034E-03  4540   0.549E-02    0.737E-03
DAV:   2    -0.851599334898E+03   -0.18635E-05   -0.24450E-05  4480   0.718E-03    0.498E-03
DAV:   3    -0.851599334820E+03    0.78224E-07   -0.24489E-07  3100   0.953E-04
 196 F= -.85949874E+03 E0= -.85949874E+03  d E =-.427644E-04  mag=    -0.0000
quench:  g(F)=  0.000E+00 g(S)=  0.000E+00 dE (1.order)= 0.000E+00
 bond charge predicted
       N       E                     dE             d eps       ncg     rms          rms(c)
DAV:   1    -0.851599395371E+03   -0.60473E-04   -0.17278E-03  4540   0.657E-02    0.888E-03
DAV:   2    -0.851599398028E+03   -0.26566E-05   -0.34738E-05  4480   0.853E-03    0.593E-03
DAV:   3    -0.851599397919E+03    0.10862E-06   -0.34445E-07  3340   0.112E-03
 197 F= -.85949880E+03 E0= -.85949880E+03  d E =-.556664E-04  mag=    -0.0000
quench:  g(F)=  0.000E+00 g(S)=  0.000E+00 dE (1.order)= 0.000E+00
 bond charge predicted
       N       E                     dE             d eps       ncg     rms          rms(c)
DAV:   1    -0.851599472223E+03   -0.74196E-04   -0.25011E-03  4540   0.793E-02    0.107E-02
DAV:   2    -0.851599476103E+03   -0.38802E-05   -0.50320E-05  4480   0.103E-02    0.717E-03
DAV:   3    -0.851599475956E+03    0.14699E-06   -0.52580E-07  3580   0.138E-03
 198 F= -.85949887E+03 E0= -.85949887E+03  d E =-.692090E-04  mag=    -0.0000
quench:  g(F)=  0.000E+00 g(S)=  0.000E+00 dE (1.order)= 0.000E+00
 bond charge predicted
       N       E                     dE             d eps       ncg     rms          rms(c)
DAV:   1    -0.851599561565E+03   -0.85462E-04   -0.36440E-03  4540   0.959E-02    0.130E-02
DAV:   2    -0.851599567261E+03   -0.56952E-05   -0.73376E-05  4480   0.125E-02    0.870E-03
DAV:   3    -0.851599567032E+03    0.22894E-06   -0.79072E-07  3720   0.170E-03
 199 F= -.85949895E+03 E0= -.85949895E+03  d E =-.807092E-04  mag=     0.0000
quench:  g(F)=  0.000E+00 g(S)=  0.000E+00 dE (1.order)= 0.000E+00
 bond charge predicted
       N       E                     dE             d eps       ncg     rms          rms(c)
DAV:   1    -0.851599662195E+03   -0.94934E-04   -0.52874E-03  4540   0.114E-01    0.157E-02
DAV:   2    -0.851599670454E+03   -0.82589E-05   -0.10610E-04  4520   0.148E-02    0.104E-02
DAV:   3    -0.851599670134E+03    0.31946E-06   -0.11067E-06  3740   0.198E-03
 200 F= -.85949904E+03 E0= -.85949904E+03  d E =-.908098E-04  mag=    -0.0000
quench:  g(F)=  0.000E+00 g(S)=  0.000E+00 dE (1.order)= 0.000E+00
 bond charge predicted
       N       E                     dE             d eps       ncg     rms          rms(c)
DAV:   1    -0.851599781730E+03   -0.11128E-03   -0.75126E-03  4540   0.133E-01    0.186E-02
DAV:   2    -0.851599793302E+03   -0.11572E-04   -0.14961E-04  4500   0.172E-02    0.122E-02
DAV:   3    -0.851599792841E+03    0.46061E-06   -0.14867E-06  3840   0.220E-03
 201 F= -.85949914E+03 E0= -.85949914E+03  d E =-.107710E-03  mag=     0.0000
quench:  g(F)=  0.000E+00 g(S)=  0.000E+00 dE (1.order)= 0.000E+00
 bond charge predicted
       N       E                     dE             d eps       ncg     rms          rms(c)
DAV:   1    -0.851599925014E+03   -0.13171E-03   -0.10725E-02  4540   0.157E-01    0.221E-02
DAV:   2    -0.851599941510E+03   -0.16497E-04   -0.21399E-04  4480   0.203E-02    0.146E-02
DAV:   3    -0.851599940694E+03    0.81622E-06   -0.21745E-06  4060   0.261E-03
 202 F= -.85949927E+03 E0= -.85949927E+03  d E =-.129542E-03  mag=    -0.0000
quench:  g(F)=  0.000E+00 g(S)=  0.000E+00 dE (1.order)= 0.000E+00
 bond charge predicted
       N       E                     dE             d eps       ncg     rms          rms(c)
DAV:   1    -0.851600088254E+03   -0.14674E-03   -0.15004E-02  4540   0.183E-01    0.263E-02
DAV:   2    -0.851600110964E+03   -0.22710E-04   -0.29895E-04  4500   0.239E-02    0.176E-02
DAV:   3    -0.851600109575E+03    0.13890E-05   -0.32606E-06  4360   0.317E-03    0.135E-02
DAV:   4    -0.851600115487E+03   -0.59116E-05   -0.68479E-06  4020   0.451E-03    0.258E-03
DAV:   5    -0.851600115662E+03   -0.17492E-06   -0.12935E-06  3820   0.176E-03
 203 F= -.85949943E+03 E0= -.85949943E+03  d E =-.152394E-03  mag=     0.0000
quench:  g(F)=  0.000E+00 g(S)=  0.000E+00 dE (1.order)= 0.000E+00
 reached required accuracy - stopping structural energy minimisation
