<?xml version="1.0" encoding="ISO-8859-1"?>
<modeling>
 <generator>
  <i name="program" type="string">vasp </i>
  <i name="version" type="string">6.4.2  </i>
  <i name="subversion" type="string">20Jul23 (build Aug 26 2025 15:10:52) complex                          parallel </i>
  <i name="platform" type="string">LinuxIFC </i>
  <i name="date" type="string">2025 12 07 </i>
  <i name="time" type="string">12:31:29 </i>
 </generator>
 <incar>
  <i type="int" name="ISTART">     0</i>
  <i type="string" name="ALGO">Normal</i>
  <i type="logical" name="ADDGRID"> T  </i>
  <i type="int" name="ISPIN">     2</i>
  <i type="int" name="IMIX">     4</i>
  <i name="AMIX">      0.20000000</i>
  <i name="BMIX">      0.00010000</i>
  <i name="AMIX_MAG">      0.80000000</i>
  <i name="BMIX_MAG">      0.00010000</i>
  <i type="int" name="ICHARG">     2</i>
  <i type="int" name="NELM">   200</i>
  <i type="int" name="IBRION">     3</i>
  <i name="EDIFF">      0.00000100</i>
  <i name="EDIFFG">     -0.03000000</i>
  <i type="int" name="NSW">  1000</i>
  <i type="int" name="ISIF">     2</i>
  <i type="int" name="ISYM">     0</i>
  <i name="ENCUT">    520.00000000</i>
  <i name="POTIM">      0.00000000</i>
  <v name="MAGMOM">      0.60000000      0.60000000      0.60000000      0.60000000      0.60000000      0.60000000      0.60000000      0.60000000      0.60000000      0.60000000      0.60000000      0.60000000      0.60000000      0.60000000      0.60000000      0.60000000      0.60000000      0.60000000      0.60000000      0.60000000
      0.60000000      0.60000000      0.60000000      0.60000000      0.60000000      0.60000000      0.60000000      0.60000000      0.60000000      0.60000000      0.60000000      0.60000000      0.60000000      0.60000000      0.60000000      0.60000000      0.60000000      0.60000000      0.60000000      0.60000000
      0.60000000      0.60000000      0.60000000      0.60000000      0.60000000      0.60000000      0.60000000      0.60000000      0.60000000      0.60000000      0.60000000      0.60000000      0.60000000      0.60000000      0.60000000      0.60000000      0.60000000      0.60000000      0.60000000      0.60000000
      0.60000000      0.60000000      0.60000000      0.60000000      0.60000000      0.60000000      0.60000000      0.60000000      0.60000000      0.60000000      0.60000000      0.60000000      0.60000000      0.60000000      0.60000000      0.60000000      0.60000000      0.60000000      0.60000000      0.60000000
      0.60000000      0.60000000      0.60000000      0.60000000      0.60000000      0.60000000      0.60000000      0.60000000      0.60000000      0.60000000      0.60000000      0.60000000      0.60000000      0.60000000      0.60000000      0.60000000      0.60000000      0.60000000      0.60000000</v>
  <i type="string" name="LREAL">Auto</i>
  <i type="int" name="ISMEAR">     0</i>
  <i name="SIGMA">      0.05000000</i>
  <i type="logical" name="LWAVE"> F  </i>
  <i type="logical" name="LCHARG"> F  </i>
  <i type="logical" name="LASPH"> T  </i>
  <i type="int" name="IVDW">    12</i>
  <i name="SPRING">     -5.00000000</i>
 </incar>
 <primitive_cell>
  <structure name="primitive_cell" >
   <crystal>
    <varray name="basis" >
     <v>      17.27103806       0.00000000       0.00000000 </v>
     <v>      -8.63551903      14.95715771       0.00000000 </v>
     <v>       0.00000000       0.00000000      15.00000000 </v>
    </varray>
    <i name="volume">   3874.88459904 </i>
    <varray name="rec_basis" >
     <v>       0.05790040       0.03342881       0.00000000 </v>
     <v>       0.00000000       0.06685762       0.00000000 </v>
     <v>       0.00000000       0.00000000       0.06666667 </v>
    </varray>
   </crystal>
   <varray name="positions" >
    <v>       0.99875386       0.99970706       0.51072731 </v>
    <v>       0.99825260       0.14235417       0.50751505 </v>
    <v>       0.99804583       0.28524847       0.50518955 </v>
    <v>       0.99854417       0.42840969       0.50684012 </v>
    <v>       0.99914976       0.57153084       0.50994608 </v>
    <v>       0.00020590       0.71474526       0.51425302 </v>
    <v>       0.99998580       0.85765707       0.51436583 </v>
    <v>       0.14186293       0.00013203       0.50019746 </v>
    <v>       0.14098183       0.14235809       0.49613863 </v>
    <v>       0.13965675       0.28432108       0.48911770 </v>
    <v>       0.14000518       0.42777742       0.48892517 </v>
    <v>       0.14141379       0.57108568       0.49488631 </v>
    <v>       0.14208538       0.71425981       0.49951761 </v>
    <v>       0.14227487       0.85738377       0.50220987 </v>
    <v>       0.28482160       0.00011392       0.49786754 </v>
    <v>       0.28436681       0.14257673       0.49005972 </v>
    <v>       0.28223432       0.28406081       0.47109861 </v>
    <v>       0.27830091       0.42499036       0.45661075 </v>
    <v>       0.28338106       0.57052848       0.47297807 </v>
    <v>       0.28459248       0.71437670       0.49014581 </v>
    <v>       0.28483826       0.85739983       0.49757844 </v>
    <v>       0.42781878       0.00047659       0.50265365 </v>
    <v>       0.42768871       0.14335663       0.50081698 </v>
    <v>       0.42595410       0.28305031       0.49069047 </v>
    <v>       0.42615417       0.71629763       0.49229424 </v>
    <v>       0.42763857       0.85753169       0.50057846 </v>
    <v>       0.57031694       0.00033401       0.51051131 </v>
    <v>       0.57032513       0.14316045       0.51091016 </v>
    <v>       0.57119368       0.28714677       0.51535312 </v>
    <v>       0.57108214       0.85742503       0.51416331 </v>
    <v>       0.71307432       0.99979573       0.51972467 </v>
    <v>       0.71314702       0.14296039       0.51595409 </v>
    <v>       0.71314029       0.28601717       0.52059561 </v>
    <v>       0.71302261       0.42787968       0.53706929 </v>
    <v>       0.72627731       0.57608533       0.57651343 </v>
    <v>       0.72455884       0.72066795       0.57076247 </v>
    <v>       0.71253493       0.85716280       0.53408458 </v>
    <v>       0.85612132       0.00000269       0.52137176 </v>
    <v>       0.85566956       0.14265992       0.51563532 </v>
    <v>       0.85575890       0.28559226       0.51568790 </v>
    <v>       0.85645220       0.42864773       0.52175519 </v>
    <v>       0.85790637       0.57233906       0.53061524 </v>
    <v>       0.85993602       0.71598958       0.53826825 </v>
    <v>       0.85740745       0.85751109       0.53024689 </v>
    <v>       0.04610808       0.09490524       0.50492606 </v>
    <v>       0.04511679       0.23719008       0.50115486 </v>
    <v>       0.04536856       0.38040378       0.50085132 </v>
    <v>       0.04650488       0.52370886       0.50383154 </v>
    <v>       0.04707474       0.66683467       0.50731737 </v>
    <v>       0.04731980       0.80985948       0.50982673 </v>
    <v>       0.04679277       0.95245501       0.50792277 </v>
    <v>       0.18903418       0.09486401       0.49432370 </v>
    <v>       0.18753411       0.23701204       0.48680159 </v>
    <v>       0.18558762       0.37883368       0.47976891 </v>
    <v>       0.18809772       0.52298067       0.48600364 </v>
    <v>       0.18929569       0.66669292       0.49364198 </v>
    <v>       0.18977711       0.80973657       0.49905545 </v>
    <v>       0.18971547       0.95254291       0.49936978 </v>
    <v>       0.33248451       0.09564033       0.49594491 </v>
    <v>       0.33277400       0.23773065       0.48177507 </v>
    <v>       0.32021358       0.37325735       0.44600826 </v>
    <v>       0.32221745       0.51909991       0.45133526 </v>
    <v>       0.33315236       0.66755336       0.48339332 </v>
    <v>       0.33248357       0.80956001       0.49573024 </v>
    <v>       0.33241388       0.95259524       0.49921115 </v>
    <v>       0.47526630       0.09561344       0.50518481 </v>
    <v>       0.47460101       0.23872219       0.50265508 </v>
    <v>       0.47456128       0.80930236       0.50268314 </v>
    <v>       0.47527022       0.95284878       0.50485405 </v>
    <v>       0.61776725       0.09543681       0.51278408 </v>
    <v>       0.61795560       0.23854155       0.51610706 </v>
    <v>       0.61986074       0.38018189       0.52806933 </v>
    <v>       0.61950674       0.81279674       0.52551669 </v>
    <v>       0.61796530       0.95259884       0.51520472 </v>
    <v>       0.76067230       0.09527065       0.51734150 </v>
    <v>       0.76072047       0.23811593       0.51760263 </v>
    <v>       0.76121733       0.38105185       0.52722027 </v>
    <v>       0.76358314       0.52486321       0.54848336 </v>
    <v>       0.76797221       0.66986745       0.56453084 </v>
    <v>       0.76249927       0.81006411       0.54550820 </v>
    <v>       0.76090598       0.95245398       0.52575000 </v>
    <v>       0.90325244       0.09477988       0.51511681 </v>
    <v>       0.90311338       0.23781153       0.51256905 </v>
    <v>       0.90352529       0.38102960       0.51495743 </v>
    <v>       0.90436406       0.52419970       0.51985472 </v>
    <v>       0.90584041       0.66745740       0.52781022 </v>
    <v>       0.90546769       0.81040989       0.52751653 </v>
    <v>       0.90391984       0.95219818       0.52004512 </v>
    <v>       0.46236816       0.35551508       0.48882230 </v>
    <v>       0.58476250       0.41761921       0.52852770 </v>
    <v>       0.58319463       0.74048976       0.52685882 </v>
    <v>       0.46273707       0.68063760       0.49149721 </v>
    <v>       0.52305344       0.53055805       0.42658765 </v>
    <v>       0.56255568       0.56826389       0.51904646 </v>
    <v>       0.40360563       0.41381598       0.40908476 </v>
    <v>       0.41026281       0.56168899       0.42643878 </v>
    <v>       0.63821798       0.67746978       0.60131250 </v>
    <v>       0.64528408       0.53408179       0.61771805 </v>
    <v>       0.57346700       0.54407671       0.46511209 </v>
   </varray>
  </structure>
  <varray name="primitive_index" >
   <v type="int" >        1 </v>
   <v type="int" >        2 </v>
   <v type="int" >        3 </v>
   <v type="int" >        4 </v>
   <v type="int" >        5 </v>
   <v type="int" >        6 </v>
   <v type="int" >        7 </v>
   <v type="int" >        8 </v>
   <v type="int" >        9 </v>
   <v type="int" >       10 </v>
   <v type="int" >       11 </v>
   <v type="int" >       12 </v>
   <v type="int" >       13 </v>
   <v type="int" >       14 </v>
   <v type="int" >       15 </v>
   <v type="int" >       16 </v>
   <v type="int" >       17 </v>
   <v type="int" >       18 </v>
   <v type="int" >       19 </v>
   <v type="int" >       20 </v>
   <v type="int" >       21 </v>
   <v type="int" >       22 </v>
   <v type="int" >       23 </v>
   <v type="int" >       24 </v>
   <v type="int" >       25 </v>
   <v type="int" >       26 </v>
   <v type="int" >       27 </v>
   <v type="int" >       28 </v>
   <v type="int" >       29 </v>
   <v type="int" >       30 </v>
   <v type="int" >       31 </v>
   <v type="int" >       32 </v>
   <v type="int" >       33 </v>
   <v type="int" >       34 </v>
   <v type="int" >       35 </v>
   <v type="int" >       36 </v>
   <v type="int" >       37 </v>
   <v type="int" >       38 </v>
   <v type="int" >       39 </v>
   <v type="int" >       40 </v>
   <v type="int" >       41 </v>
   <v type="int" >       42 </v>
   <v type="int" >       43 </v>
   <v type="int" >       44 </v>
   <v type="int" >       45 </v>
   <v type="int" >       46 </v>
   <v type="int" >       47 </v>
   <v type="int" >       48 </v>
   <v type="int" >       49 </v>
   <v type="int" >       50 </v>
   <v type="int" >       51 </v>
   <v type="int" >       52 </v>
   <v type="int" >       53 </v>
   <v type="int" >       54 </v>
   <v type="int" >       55 </v>
   <v type="int" >       56 </v>
   <v type="int" >       57 </v>
   <v type="int" >       58 </v>
   <v type="int" >       59 </v>
   <v type="int" >       60 </v>
   <v type="int" >       61 </v>
   <v type="int" >       62 </v>
   <v type="int" >       63 </v>
   <v type="int" >       64 </v>
   <v type="int" >       65 </v>
   <v type="int" >       66 </v>
   <v type="int" >       67 </v>
   <v type="int" >       68 </v>
   <v type="int" >       69 </v>
   <v type="int" >       70 </v>
   <v type="int" >       71 </v>
   <v type="int" >       72 </v>
   <v type="int" >       73 </v>
   <v type="int" >       74 </v>
   <v type="int" >       75 </v>
   <v type="int" >       76 </v>
   <v type="int" >       77 </v>
   <v type="int" >       78 </v>
   <v type="int" >       79 </v>
   <v type="int" >       80 </v>
   <v type="int" >       81 </v>
   <v type="int" >       82 </v>
   <v type="int" >       83 </v>
   <v type="int" >       84 </v>
   <v type="int" >       85 </v>
   <v type="int" >       86 </v>
   <v type="int" >       87 </v>
   <v type="int" >       88 </v>
   <v type="int" >       89 </v>
   <v type="int" >       90 </v>
   <v type="int" >       91 </v>
   <v type="int" >       92 </v>
   <v type="int" >       93 </v>
   <v type="int" >       94 </v>
   <v type="int" >       95 </v>
   <v type="int" >       96 </v>
   <v type="int" >       97 </v>
   <v type="int" >       98 </v>
   <v type="int" >       99 </v>
  </varray>
 </primitive_cell>
 <kpoints>
  <generation param="Gamma">
   <v type="int" name="divisions">       2        2        1 </v>
   <v name="usershift">      0.00000000       0.00000000       0.00000000 </v>
   <v name="genvec1">      0.50000000       0.00000000       0.00000000 </v>
   <v name="genvec2">      0.00000000       0.50000000       0.00000000 </v>
   <v name="genvec3">      0.00000000       0.00000000       1.00000000 </v>
   <v name="shift">      0.00000000       0.00000000       0.00000000 </v>
  </generation>
  <varray name="kpointlist" >
   <v>       0.00000000       0.00000000       0.00000000 </v>
   <v>       0.50000000       0.00000000       0.00000000 </v>
   <v>       0.00000000       0.50000000       0.00000000 </v>
   <v>       0.50000000       0.50000000       0.00000000 </v>
  </varray>
  <varray name="weights" >
   <v>       0.25000000 </v>
   <v>       0.25000000 </v>
   <v>       0.25000000 </v>
   <v>       0.25000000 </v>
  </varray>
 </kpoints>
 <parameters>
  <separator name="general" >
   <i type="string" name="SYSTEM">unknown system</i>
   <i type="logical" name="LCOMPAT"> F  </i>
  </separator>
  <separator name="electronic" >
   <i type="string" name="PREC">normal</i>
   <i name="ENMAX">    520.00000000</i>
   <i name="ENAUG">    644.87300000</i>
   <i name="EDIFF">      0.00000100</i>
   <i type="int" name="IALGO">    38</i>
   <i type="int" name="IWAVPR">    11</i>
   <i type="int" name="NBANDS">   280</i>
   <i type="int" name="NBANDSLOW">    -1</i>
   <i type="int" name="NBANDSHIGH">    -1</i>
   <i name="NELECT">    392.00000000</i>
   <i type="int" name="TURBO">     0</i>
   <i type="int" name="IRESTART">     0</i>
   <i type="int" name="NREBOOT">     0</i>
   <i type="int" name="NMIN">     0</i>
   <i name="EREF">      0.00000000</i>
   <separator name="electronic smearing" >
    <i type="int" name="ISMEAR">     0</i>
    <i name="SIGMA">      0.05000000</i>
    <i name="KSPACING">      0.50000000</i>
    <i type="logical" name="KGAMMA"> T  </i>
    <i type="logical" name="KBLOWUP"> T  </i>
   </separator>
   <separator name="electronic projectors" >
    <i type="logical" name="LREAL"> T  </i>
    <v name="ROPT">     -0.00050000     -0.00050000     -0.00050000     -0.00050000</v>
    <i type="int" name="LMAXPAW">  -100</i>
    <i type="int" name="LMAXMIX">     2</i>
    <i type="logical" name="NLSPLINE"> F  </i>
   </separator>
   <separator name="electronic startup" >
    <i type="int" name="ISTART">     0</i>
    <i type="int" name="ICHARG">     2</i>
    <i type="int" name="INIWAV">     1</i>
   </separator>
   <separator name="electronic spin" >
    <i type="int" name="ISPIN">     2</i>
    <i type="logical" name="LNONCOLLINEAR"> F  </i>
    <v name="MAGMOM">      0.60000000      0.60000000      0.60000000      0.60000000      0.60000000      0.60000000      0.60000000      0.60000000      0.60000000      0.60000000      0.60000000      0.60000000      0.60000000      0.60000000      0.60000000      0.60000000      0.60000000      0.60000000      0.60000000      0.60000000
      0.60000000      0.60000000      0.60000000      0.60000000      0.60000000      0.60000000      0.60000000      0.60000000      0.60000000      0.60000000      0.60000000      0.60000000      0.60000000      0.60000000      0.60000000      0.60000000      0.60000000      0.60000000      0.60000000      0.60000000
      0.60000000      0.60000000      0.60000000      0.60000000      0.60000000      0.60000000      0.60000000      0.60000000      0.60000000      0.60000000      0.60000000      0.60000000      0.60000000      0.60000000      0.60000000      0.60000000      0.60000000      0.60000000      0.60000000      0.60000000
      0.60000000      0.60000000      0.60000000      0.60000000      0.60000000      0.60000000      0.60000000      0.60000000      0.60000000      0.60000000      0.60000000      0.60000000      0.60000000      0.60000000      0.60000000      0.60000000      0.60000000      0.60000000      0.60000000      0.60000000
      0.60000000      0.60000000      0.60000000      0.60000000      0.60000000      0.60000000      0.60000000      0.60000000      0.60000000      0.60000000      0.60000000      0.60000000      0.60000000      0.60000000      0.60000000      0.60000000      0.60000000      0.60000000      0.60000000</v>
    <i name="NUPDOWN">     -1.00000000</i>
    <i type="logical" name="LSORBIT"> F  </i>
    <v name="SAXIS">      0.00000000      0.00000000      1.00000000</v>
    <i type="logical" name="LSPIRAL"> F  </i>
    <v name="QSPIRAL">      0.00000000      0.00000000      0.00000000</v>
    <i type="logical" name="LZEROZ"> F  </i>
   </separator>
   <separator name="electronic exchange-correlation" >
    <i type="logical" name="LASPH"> T  </i>
    <i type="logical" name="LMETAGGA"> F  </i>
   </separator>
   <separator name="electronic convergence" >
    <i type="int" name="NELM">   200</i>
    <i type="int" name="NELMDL">    -5</i>
    <i type="int" name="NELMIN">     2</i>
    <i name="ENINI">    520.00000000</i>
    <separator name="electronic convergence detail" >
     <i type="logical" name="LDIAG"> T  </i>
     <i type="logical" name="LSUBROT"> F  </i>
     <i name="WEIMIN">      0.00100000</i>
     <i name="EBREAK">      0.00000000</i>
     <i name="DEPER">      0.30000000</i>
     <i type="int" name="NRMM">     4</i>
     <i name="TIME">      0.40000000</i>
    </separator>
   </separator>
   <separator name="electronic mixer" >
    <i name="AMIX">      0.20000000</i>
    <i name="BMIX">      0.00010000</i>
    <i name="AMIN">      0.10000000</i>
    <i name="AMIX_MAG">      0.80000000</i>
    <i name="BMIX_MAG">      0.00010000</i>
    <separator name="electronic mixer details" >
     <i type="int" name="IMIX">     4</i>
     <i type="logical" name="MIXFIRST"> F  </i>
     <i type="int" name="MAXMIX">   -45</i>
     <i name="WC">    100.00000000</i>
     <i type="int" name="INIMIX">     1</i>
     <i type="int" name="MIXPRE">     1</i>
     <i type="int" name="MREMOVE">     5</i>
    </separator>
   </separator>
   <separator name="electronic dipolcorrection" >
    <i type="logical" name="LDIPOL"> F  </i>
    <i type="logical" name="LMONO"> F  </i>
    <i type="int" name="IDIPOL">     0</i>
    <i name="EPSILON">      1.00000000</i>
    <v name="DIPOL">   -100.00000000   -100.00000000   -100.00000000</v>
    <i name="EFIELD">      0.00000000</i>
   </separator>
  </separator>
  <separator name="grids" >
   <i type="int" name="NGX">    96</i>
   <i type="int" name="NGY">    96</i>
   <i type="int" name="NGZ">    84</i>
   <i type="int" name="NGXF">   192</i>
   <i type="int" name="NGYF">   192</i>
   <i type="int" name="NGZF">   168</i>
   <i type="logical" name="ADDGRID"> T  </i>
  </separator>
  <separator name="ionic" >
   <i type="int" name="NSW">  1000</i>
   <i type="int" name="IBRION">     3</i>
   <i type="int" name="MDALGO">     0</i>
   <i type="int" name="ISIF">     2</i>
   <i name="PSTRESS">      0.00000000</i>
   <i name="EDIFFG">     -0.03000000</i>
   <i type="int" name="NFREE">     0</i>
   <i name="POTIM">      0.00000000</i>
   <i name="SMASS">     -3.00000000</i>
   <i name="SCALEE">      1.00000000</i>
  </separator>
  <separator name="ionic md" >
   <i name="TEBEG">      0.00010000</i>
   <i name="TEEND">      0.00010000</i>
   <i type="int" name="NBLOCK">     1</i>
   <i type="int" name="KBLOCK">  1000</i>
   <i type="int" name="NPACO">   256</i>
   <i name="APACO">     10.00000000</i>
  </separator>
  <separator name="symmetry" >
   <i type="int" name="ISYM">     0</i>
   <i name="SYMPREC">      0.00001000</i>
  </separator>
  <separator name="dos" >
   <i type="int" name="LORBIT">     0</i>
   <v name="RWIGS">     -1.00000000     -1.00000000     -1.00000000     -1.00000000</v>
   <i type="int" name="NEDOS">   301</i>
   <i name="EMIN">     10.00000000</i>
   <i name="EMAX">    -10.00000000</i>
   <i name="EFERMI">      0.00000000</i>
  </separator>
  <separator name="writing" >
   <i type="int" name="NWRITE">     2</i>
   <i type="logical" name="LWAVE"> F  </i>
   <i type="logical" name="LDOWNSAMPLE"> F  </i>
   <i type="logical" name="LCHARG"> F  </i>
   <i type="logical" name="LPARD"> F  </i>
   <i type="logical" name="LVTOT"> F  </i>
   <i type="logical" name="LVHAR"> F  </i>
   <i type="logical" name="LELF"> F  </i>
   <i type="logical" name="LOPTICS"> F  </i>
   <v name="STM">      0.00000000      0.00000000      0.00000000      0.00000000      0.00000000      0.00000000      0.00000000</v>
  </separator>
  <separator name="performance" >
   <i type="int" name="NPAR">     5</i>
   <i type="int" name="NSIM">     4</i>
   <i type="int" name="NBLK">    -1</i>
   <i type="logical" name="LPLANE"> T  </i>
   <i type="logical" name="LSCALAPACK"> T  </i>
   <i type="logical" name="LSCAAWARE"> F  </i>
   <i type="logical" name="LSCALU"> F  </i>
   <i type="logical" name="LASYNC"> F  </i>
   <i type="logical" name="LORBITALREAL"> F  </i>
  </separator>
  <separator name="miscellaneous" >
   <i type="int" name="IDIOT">     3</i>
   <i type="int" name="PHON_NSTRUCT">    -1</i>
   <i type="logical" name="LMUSIC"> F  </i>
   <v name="POMASS">     12.01100000      1.00000000     18.99800000     16.00000000</v>
   <v name="DARWINR">      0.00000000      0.00000000      0.00000000      0.00000000</v>
   <v name="DARWINV">      1.00000000      1.00000000      1.00000000      1.00000000</v>
   <i type="logical" name="LCORR"> T  </i>
  </separator>
  <i type="logical" name="GGA_COMPAT"> T  </i>
  <i type="logical" name="LBERRY"> F  </i>
  <i type="int" name="ICORELEVEL">     0</i>
  <i type="logical" name="LDAU"> F  </i>
  <i type="int" name="I_CONSTRAINED_M">     0</i>
  <separator name="electronic exchange-correlation" >
   <i type="string" name="GGA">--</i>
   <i type="int" name="VOSKOWN">     0</i>
   <i type="logical" name="LHFCALC"> F  </i>
   <i type="string" name="PRECFOCK"></i>
   <i type="logical" name="LSYMGRAD"> F  </i>
   <i type="logical" name="LHFONE"> F  </i>
   <i type="logical" name="LRHFCALC"> F  </i>
   <i type="logical" name="LTHOMAS"> F  </i>
   <i type="logical" name="LMODELHF"> F  </i>
   <i type="logical" name="LFOCKACE"> F  </i>
   <i name="ENCUT4O">     -1.00000000</i>
   <i type="int" name="EXXOEP">     0</i>
   <i type="int" name="FOURORBIT">     0</i>
   <i name="AEXX">      0.00000000</i>
   <i name="HFALPHA">      0.00000000</i>
   <i name="MCALPHA">      0.00000000</i>
   <i name="ALDAX">      1.00000000</i>
   <i name="AGGAX">      1.00000000</i>
   <i name="ALDAC">      1.00000000</i>
   <i name="AGGAC">      1.00000000</i>
   <i type="int" name="NKREDX">     1</i>
   <i type="int" name="NKREDY">     1</i>
   <i type="int" name="NKREDZ">     1</i>
   <i type="logical" name="SHIFTRED"> F  </i>
   <i type="logical" name="ODDONLY"> F  </i>
   <i type="logical" name="EVENONLY"> F  </i>
   <i type="int" name="LMAXFOCK">     0</i>
   <i type="int" name="NMAXFOCKAE">     0</i>
   <i type="logical" name="LFOCKAEDFT"> F  </i>
   <i name="HFSCREEN">      0.00000000</i>
   <i name="HFSCREENC">      0.00000000</i>
   <i type="int" name="NBANDSGWLOW">     0</i>
  </separator>
  <separator name="vdW DFT" >
   <i type="logical" name="LUSE_VDW"> F  </i>
   <i type="int" name="IVDW_NL">     1</i>
   <i type="logical" name="LSPIN_VDW"> F  </i>
   <i name="Zab_VDW">     -0.84910000</i>
   <i name="PARAM1">      0.12340000</i>
   <i name="PARAM2">      1.00000000</i>
   <i name="PARAM3">      0.00000000</i>
  </separator>
  <separator name="model GW" >
   <i type="int" name="MODEL_GW">     0</i>
   <i name="MODEL_EPS0">     23.48414909</i>
   <i name="MODEL_ALPHA">      1.00000000</i>
  </separator>
  <separator name="linear response parameters" >
   <i type="logical" name="LEPSILON"> F  </i>
   <i type="logical" name="LRPA"> F  </i>
   <i type="logical" name="LNABLA"> F  </i>
   <i type="logical" name="LVEL"> F  </i>
   <i name="CSHIFT">      0.10000000</i>
   <i name="OMEGAMAX">     -1.00000000</i>
   <i name="DEG_THRESHOLD">      0.00200000</i>
   <i name="RTIME">     -0.10000000</i>
   <i name="WPLASMAI">      0.00000000</i>
   <v name="DFIELD">      0.00000000      0.00000000      0.00000000</v>
   <v name="WPLASMA">      0.00000000      0.00000000      0.00000000      0.00000000      0.00000000      0.00000000      0.00000000      0.00000000      0.00000000</v>
  </separator>
  <separator name="orbital magnetization" >
   <i type="logical" name="NUCIND"> F  </i>
   <v name="MAGPOS">      0.00000000      0.00000000      0.00000000</v>
   <i type="logical" name="LNICSALL"> T  </i>
   <i type="logical" name="ORBITALMAG"> F  </i>
   <i type="logical" name="LMAGBLOCH"> F  </i>
   <i type="logical" name="LCHIMAG"> F  </i>
   <i type="logical" name="LGAUGE"> T  </i>
   <i type="int" name="MAGATOM">     0</i>
   <v name="MAGDIPOL">      0.00000000      0.00000000      0.00000000</v>
   <v name="AVECCONST">      0.00000000      0.00000000      0.00000000</v>
  </separator>
  <separator name="response functions" >
   <i type="logical" name="LALL_IN_ONE"> F  </i>
   <i type="int" name="IALL_IN_ONE">    -1</i>
   <i type="int" name="NBANDS_WAVE">    -1</i>
   <i type="logical" name="LFINITE_TEMPERATURE"> F  </i>
   <i type="logical" name="LADDER"> F  </i>
   <i type="logical" name="LRPAFORCE"> F  </i>
   <i type="logical" name="LFXC"> F  </i>
   <i type="logical" name="LHARTREE"> T  </i>
   <i type="int" name="IBSE">     0</i>
   <v type="int" name="KPOINT">    -1     0     0     0</v>
   <i type="logical" name="LTCTC"> F  </i>
   <i type="logical" name="LTCTE"> F  </i>
   <i type="logical" name="LTETE"> F  </i>
   <i type="logical" name="LTRIPLET"> F  </i>
   <i type="logical" name="LFXCEPS"> F  </i>
   <i type="logical" name="LFXHEG"> F  </i>
   <i type="int" name="NATURALO">     2</i>
   <i type="logical" name="LHOLEGF"> F  </i>
   <i type="logical" name="L2ORDER"> F  </i>
   <i type="logical" name="LDMP1"> F  </i>
   <i type="logical" name="LMP2LT"> F  </i>
   <i type="logical" name="LSMP2LT"> F  </i>
   <i type="logical" name="LGWLF"> F  </i>
   <i name="ENCUTGW">     -1.60000002</i>
   <i name="ENCUTGWSOFT">     -1.60000002</i>
   <i name="ENCUTLF">     -1.00000000</i>
   <i type="logical" name="LESF_SPLINES"> F  </i>
   <i type="int" name="LMAXMP2">    -1</i>
   <i name="SCISSOR">      0.00000000</i>
   <i type="int" name="NOMEGA">     0</i>
   <i type="int" name="NOMEGAR">     0</i>
   <i type="int" name="NBANDSGW">    -1</i>
   <i type="int" name="NBANDSO">    -1</i>
   <i type="int" name="NBANDSV">    -1</i>
   <i type="int" name="NELMGW">     1</i>
   <i type="int" name="NELMHF">     1</i>
   <i type="int" name="DIM">     3</i>
   <i type="int" name="IESPILON">     4</i>
   <i type="int" name="ANTIRES">     0</i>
   <i name="OMEGAMAX">    -30.00000000</i>
   <i name="OMEGAMIN">    -30.00000000</i>
   <i name="OMEGATL">   -200.00000000</i>
   <i type="int" name="OMEGAGRID">     0</i>
   <i name="CSHIFT">     -0.10000000</i>
   <i type="logical" name="LSELFENERGY"> F  </i>
   <i type="logical" name="LSPECTRAL"> F  </i>
   <i type="logical" name="LSPECTRALGW"> F  </i>
   <i type="logical" name="LSINGLES"> F  </i>
   <i type="logical" name="LFERMIGW"> F  </i>
   <i type="logical" name="ODDONLYGW"> F  </i>
   <i type="logical" name="EVENONLYGW"> F  </i>
   <i type="int" name="NKREDLFX">     1</i>
   <i type="int" name="NKREDLFY">     1</i>
   <i type="int" name="NKREDLFZ">     1</i>
   <i type="int" name="MAXMEM">  2800</i>
   <i type="int" name="TELESCOPE">     0</i>
   <i type="int" name="NTAUPAR">    -1</i>
   <i type="int" name="NOMEGAPAR">    -1</i>
   <i name="DAMP_NEWTON">      0.80000001</i>
   <i name="LAMBDA">      1.00000000</i>
  </separator>
  <separator name="External order field" >
   <i name="OFIELD_KAPPA">      0.00000000</i>
   <v name="OFIELD_K">      0.00000000      0.00000000      0.00000000</v>
   <i name="OFIELD_Q6_NEAR">      0.00000000</i>
   <i name="OFIELD_Q6_FAR">      0.00000000</i>
   <i name="OFIELD_A">      0.00000000</i>
  </separator>
  <separator name="optional k-points parameters" >
   <i type="int" name="KPOINTS_OPT_MODE">     1</i>
   <i type="logical" name="LKPOINTS_OPT"> F  </i>
  </separator>
 </parameters>
 <atominfo>
  <atoms>      99 </atoms>
  <types>       4 </types>
  <array name="atoms" >
   <dimension dim="1">ion</dimension>
   <field type="string">element</field>
   <field type="int">atomtype</field>
   <set>
    <rc><c>C </c><c>   1</c></rc>
    <rc><c>C </c><c>   1</c></rc>
    <rc><c>C </c><c>   1</c></rc>
    <rc><c>C </c><c>   1</c></rc>
    <rc><c>C </c><c>   1</c></rc>
    <rc><c>C </c><c>   1</c></rc>
    <rc><c>C </c><c>   1</c></rc>
    <rc><c>C </c><c>   1</c></rc>
    <rc><c>C </c><c>   1</c></rc>
    <rc><c>C </c><c>   1</c></rc>
    <rc><c>C </c><c>   1</c></rc>
    <rc><c>C </c><c>   1</c></rc>
    <rc><c>C </c><c>   1</c></rc>
    <rc><c>C </c><c>   1</c></rc>
    <rc><c>C </c><c>   1</c></rc>
    <rc><c>C </c><c>   1</c></rc>
    <rc><c>C </c><c>   1</c></rc>
    <rc><c>C </c><c>   1</c></rc>
    <rc><c>C </c><c>   1</c></rc>
    <rc><c>C </c><c>   1</c></rc>
    <rc><c>C </c><c>   1</c></rc>
    <rc><c>C </c><c>   1</c></rc>
    <rc><c>C </c><c>   1</c></rc>
    <rc><c>C </c><c>   1</c></rc>
    <rc><c>C </c><c>   1</c></rc>
    <rc><c>C </c><c>   1</c></rc>
    <rc><c>C </c><c>   1</c></rc>
    <rc><c>C </c><c>   1</c></rc>
    <rc><c>C </c><c>   1</c></rc>
    <rc><c>C </c><c>   1</c></rc>
    <rc><c>C </c><c>   1</c></rc>
    <rc><c>C </c><c>   1</c></rc>
    <rc><c>C </c><c>   1</c></rc>
    <rc><c>C </c><c>   1</c></rc>
    <rc><c>C </c><c>   1</c></rc>
    <rc><c>C </c><c>   1</c></rc>
    <rc><c>C </c><c>   1</c></rc>
    <rc><c>C </c><c>   1</c></rc>
    <rc><c>C </c><c>   1</c></rc>
    <rc><c>C </c><c>   1</c></rc>
    <rc><c>C </c><c>   1</c></rc>
    <rc><c>C </c><c>   1</c></rc>
    <rc><c>C </c><c>   1</c></rc>
    <rc><c>C </c><c>   1</c></rc>
    <rc><c>C </c><c>   1</c></rc>
    <rc><c>C </c><c>   1</c></rc>
    <rc><c>C </c><c>   1</c></rc>
    <rc><c>C </c><c>   1</c></rc>
    <rc><c>C </c><c>   1</c></rc>
    <rc><c>C </c><c>   1</c></rc>
    <rc><c>C </c><c>   1</c></rc>
    <rc><c>C </c><c>   1</c></rc>
    <rc><c>C </c><c>   1</c></rc>
    <rc><c>C </c><c>   1</c></rc>
    <rc><c>C </c><c>   1</c></rc>
    <rc><c>C </c><c>   1</c></rc>
    <rc><c>C </c><c>   1</c></rc>
    <rc><c>C </c><c>   1</c></rc>
    <rc><c>C </c><c>   1</c></rc>
    <rc><c>C </c><c>   1</c></rc>
    <rc><c>C </c><c>   1</c></rc>
    <rc><c>C </c><c>   1</c></rc>
    <rc><c>C </c><c>   1</c></rc>
    <rc><c>C </c><c>   1</c></rc>
    <rc><c>C </c><c>   1</c></rc>
    <rc><c>C </c><c>   1</c></rc>
    <rc><c>C </c><c>   1</c></rc>
    <rc><c>C </c><c>   1</c></rc>
    <rc><c>C </c><c>   1</c></rc>
    <rc><c>C </c><c>   1</c></rc>
    <rc><c>C </c><c>   1</c></rc>
    <rc><c>C </c><c>   1</c></rc>
    <rc><c>C </c><c>   1</c></rc>
    <rc><c>C </c><c>   1</c></rc>
    <rc><c>C </c><c>   1</c></rc>
    <rc><c>C </c><c>   1</c></rc>
    <rc><c>C </c><c>   1</c></rc>
    <rc><c>C </c><c>   1</c></rc>
    <rc><c>C </c><c>   1</c></rc>
    <rc><c>C </c><c>   1</c></rc>
    <rc><c>C </c><c>   1</c></rc>
    <rc><c>C </c><c>   1</c></rc>
    <rc><c>C </c><c>   1</c></rc>
    <rc><c>C </c><c>   1</c></rc>
    <rc><c>C </c><c>   1</c></rc>
    <rc><c>C </c><c>   1</c></rc>
    <rc><c>C </c><c>   1</c></rc>
    <rc><c>C </c><c>   1</c></rc>
    <rc><c>H </c><c>   2</c></rc>
    <rc><c>H </c><c>   2</c></rc>
    <rc><c>H </c><c>   2</c></rc>
    <rc><c>H </c><c>   2</c></rc>
    <rc><c>H </c><c>   2</c></rc>
    <rc><c>H </c><c>   2</c></rc>
    <rc><c>F </c><c>   3</c></rc>
    <rc><c>F </c><c>   3</c></rc>
    <rc><c>F </c><c>   3</c></rc>
    <rc><c>F </c><c>   3</c></rc>
    <rc><c>O </c><c>   4</c></rc>
   </set>
  </array>
  <array name="atomtypes" >
   <dimension dim="1">type</dimension>
   <field type="int">atomspertype</field>
   <field type="string">element</field>
   <field>mass</field>
   <field>valence</field>
   <field type="string">pseudopotential</field>
   <set>
    <rc><c>  88</c><c>C </c><c>     12.01100000</c><c>      4.00000000</c><c>  PAW_PBE C 08Apr2002                   </c></rc>
    <rc><c>   6</c><c>H </c><c>      1.00000000</c><c>      1.00000000</c><c>  PAW_PBE H 15Jun2001                   </c></rc>
    <rc><c>   4</c><c>F </c><c>     18.99800000</c><c>      7.00000000</c><c>  PAW_PBE F 08Apr2002                   </c></rc>
    <rc><c>   1</c><c>O </c><c>     16.00000000</c><c>      6.00000000</c><c>  PAW_PBE O 08Apr2002                   </c></rc>
   </set>
  </array>
 </atominfo>
 <structure name="initialpos" >
  <crystal>
   <varray name="basis" >
    <v>      17.27103806       0.00000000       0.00000000 </v>
    <v>      -8.63551903      14.95715771       0.00000000 </v>
    <v>       0.00000000       0.00000000      15.00000000 </v>
   </varray>
   <i name="volume">   3874.88459904 </i>
   <varray name="rec_basis" >
    <v>       0.05790040       0.03342881       0.00000000 </v>
    <v>       0.00000000       0.06685762       0.00000000 </v>
    <v>       0.00000000       0.00000000       0.06666667 </v>
   </varray>
  </crystal>
  <varray name="positions" >
   <v>       0.99875386       0.99970706       0.51072731 </v>
   <v>       0.99825260       0.14235417       0.50751505 </v>
   <v>       0.99804583       0.28524847       0.50518955 </v>
   <v>       0.99854417       0.42840969       0.50684012 </v>
   <v>       0.99914976       0.57153084       0.50994608 </v>
   <v>       0.00020590       0.71474526       0.51425302 </v>
   <v>       0.99998580       0.85765707       0.51436583 </v>
   <v>       0.14186293       0.00013203       0.50019746 </v>
   <v>       0.14098183       0.14235809       0.49613863 </v>
   <v>       0.13965675       0.28432108       0.48911770 </v>
   <v>       0.14000518       0.42777742       0.48892517 </v>
   <v>       0.14141379       0.57108568       0.49488631 </v>
   <v>       0.14208538       0.71425981       0.49951761 </v>
   <v>       0.14227487       0.85738377       0.50220987 </v>
   <v>       0.28482160       0.00011392       0.49786754 </v>
   <v>       0.28436681       0.14257673       0.49005972 </v>
   <v>       0.28223432       0.28406081       0.47109861 </v>
   <v>       0.27830091       0.42499036       0.45661075 </v>
   <v>       0.28338106       0.57052848       0.47297807 </v>
   <v>       0.28459248       0.71437670       0.49014581 </v>
   <v>       0.28483826       0.85739983       0.49757844 </v>
   <v>       0.42781878       0.00047659       0.50265365 </v>
   <v>       0.42768871       0.14335663       0.50081698 </v>
   <v>       0.42595410       0.28305031       0.49069047 </v>
   <v>       0.42615417       0.71629763       0.49229424 </v>
   <v>       0.42763857       0.85753169       0.50057846 </v>
   <v>       0.57031694       0.00033401       0.51051131 </v>
   <v>       0.57032513       0.14316045       0.51091016 </v>
   <v>       0.57119368       0.28714677       0.51535312 </v>
   <v>       0.57108214       0.85742503       0.51416331 </v>
   <v>       0.71307432       0.99979573       0.51972467 </v>
   <v>       0.71314702       0.14296039       0.51595409 </v>
   <v>       0.71314029       0.28601717       0.52059561 </v>
   <v>       0.71302261       0.42787968       0.53706929 </v>
   <v>       0.72627731       0.57608533       0.57651343 </v>
   <v>       0.72455884       0.72066795       0.57076247 </v>
   <v>       0.71253493       0.85716280       0.53408458 </v>
   <v>       0.85612132       0.00000269       0.52137176 </v>
   <v>       0.85566956       0.14265992       0.51563532 </v>
   <v>       0.85575890       0.28559226       0.51568790 </v>
   <v>       0.85645220       0.42864773       0.52175519 </v>
   <v>       0.85790637       0.57233906       0.53061524 </v>
   <v>       0.85993602       0.71598958       0.53826825 </v>
   <v>       0.85740745       0.85751109       0.53024689 </v>
   <v>       0.04610808       0.09490524       0.50492606 </v>
   <v>       0.04511679       0.23719008       0.50115486 </v>
   <v>       0.04536856       0.38040378       0.50085132 </v>
   <v>       0.04650488       0.52370886       0.50383154 </v>
   <v>       0.04707474       0.66683467       0.50731737 </v>
   <v>       0.04731980       0.80985948       0.50982673 </v>
   <v>       0.04679277       0.95245501       0.50792277 </v>
   <v>       0.18903418       0.09486401       0.49432370 </v>
   <v>       0.18753411       0.23701204       0.48680159 </v>
   <v>       0.18558762       0.37883368       0.47976891 </v>
   <v>       0.18809772       0.52298067       0.48600364 </v>
   <v>       0.18929569       0.66669292       0.49364198 </v>
   <v>       0.18977711       0.80973657       0.49905545 </v>
   <v>       0.18971547       0.95254291       0.49936978 </v>
   <v>       0.33248451       0.09564033       0.49594491 </v>
   <v>       0.33277400       0.23773065       0.48177507 </v>
   <v>       0.32021358       0.37325735       0.44600826 </v>
   <v>       0.32221745       0.51909991       0.45133526 </v>
   <v>       0.33315236       0.66755336       0.48339332 </v>
   <v>       0.33248357       0.80956001       0.49573024 </v>
   <v>       0.33241388       0.95259524       0.49921115 </v>
   <v>       0.47526630       0.09561344       0.50518481 </v>
   <v>       0.47460101       0.23872219       0.50265508 </v>
   <v>       0.47456128       0.80930236       0.50268314 </v>
   <v>       0.47527022       0.95284878       0.50485405 </v>
   <v>       0.61776725       0.09543681       0.51278408 </v>
   <v>       0.61795560       0.23854155       0.51610706 </v>
   <v>       0.61986074       0.38018189       0.52806933 </v>
   <v>       0.61950674       0.81279674       0.52551669 </v>
   <v>       0.61796530       0.95259884       0.51520472 </v>
   <v>       0.76067230       0.09527065       0.51734150 </v>
   <v>       0.76072047       0.23811593       0.51760263 </v>
   <v>       0.76121733       0.38105185       0.52722027 </v>
   <v>       0.76358314       0.52486321       0.54848336 </v>
   <v>       0.76797221       0.66986745       0.56453084 </v>
   <v>       0.76249927       0.81006411       0.54550820 </v>
   <v>       0.76090598       0.95245398       0.52575000 </v>
   <v>       0.90325244       0.09477988       0.51511681 </v>
   <v>       0.90311338       0.23781153       0.51256905 </v>
   <v>       0.90352529       0.38102960       0.51495743 </v>
   <v>       0.90436406       0.52419970       0.51985472 </v>
   <v>       0.90584041       0.66745740       0.52781022 </v>
   <v>       0.90546769       0.81040989       0.52751653 </v>
   <v>       0.90391984       0.95219818       0.52004512 </v>
   <v>       0.46236816       0.35551508       0.48882230 </v>
   <v>       0.58476250       0.41761921       0.52852770 </v>
   <v>       0.58319463       0.74048976       0.52685882 </v>
   <v>       0.46273707       0.68063760       0.49149721 </v>
   <v>       0.52305344       0.53055805       0.42658765 </v>
   <v>       0.56255568       0.56826389       0.51904646 </v>
   <v>       0.40360563       0.41381598       0.40908476 </v>
   <v>       0.41026281       0.56168899       0.42643878 </v>
   <v>       0.63821798       0.67746978       0.60131250 </v>
   <v>       0.64528408       0.53408179       0.61771805 </v>
   <v>       0.57346700       0.54407671       0.46511209 </v>
  </varray>
  <varray name="selective"  type="logical" >
   <v type="logical" >  T  T  T </v>
   <v type="logical" >  T  T  T </v>
   <v type="logical" >  T  T  T </v>
   <v type="logical" >  T  T  T </v>
   <v type="logical" >  T  T  T </v>
   <v type="logical" >  T  T  T </v>
   <v type="logical" >  T  T  T </v>
   <v type="logical" >  T  T  T </v>
   <v type="logical" >  T  T  T </v>
   <v type="logical" >  T  T  T </v>
   <v type="logical" >  T  T  T </v>
   <v type="logical" >  T  T  T </v>
   <v type="logical" >  T  T  T </v>
   <v type="logical" >  T  T  T </v>
   <v type="logical" >  T  T  T </v>
   <v type="logical" >  T  T  T </v>
   <v type="logical" >  T  T  T </v>
   <v type="logical" >  T  T  T </v>
   <v type="logical" >  T  T  T </v>
   <v type="logical" >  T  T  T </v>
   <v type="logical" >  T  T  T </v>
   <v type="logical" >  T  T  T </v>
   <v type="logical" >  T  T  T </v>
   <v type="logical" >  T  T  T </v>
   <v type="logical" >  T  T  T </v>
   <v type="logical" >  T  T  T </v>
   <v type="logical" >  T  T  T </v>
   <v type="logical" >  T  T  T </v>
   <v type="logical" >  T  T  T </v>
   <v type="logical" >  T  T  T </v>
   <v type="logical" >  T  T  T </v>
   <v type="logical" >  T  T  T </v>
   <v type="logical" >  T  T  T </v>
   <v type="logical" >  T  T  T </v>
   <v type="logical" >  T  T  T </v>
   <v type="logical" >  T  T  T </v>
   <v type="logical" >  T  T  T </v>
   <v type="logical" >  T  T  T </v>
   <v type="logical" >  T  T  T </v>
   <v type="logical" >  T  T  T </v>
   <v type="logical" >  T  T  T </v>
   <v type="logical" >  T  T  T </v>
   <v type="logical" >  T  T  T </v>
   <v type="logical" >  T  T  T </v>
   <v type="logical" >  T  T  T </v>
   <v type="logical" >  T  T  T </v>
   <v type="logical" >  T  T  T </v>
   <v type="logical" >  T  T  T </v>
   <v type="logical" >  T  T  T </v>
   <v type="logical" >  T  T  T </v>
   <v type="logical" >  T  T  T </v>
   <v type="logical" >  T  T  T </v>
   <v type="logical" >  T  T  T </v>
   <v type="logical" >  T  T  T </v>
   <v type="logical" >  T  T  T </v>
   <v type="logical" >  T  T  T </v>
   <v type="logical" >  T  T  T </v>
   <v type="logical" >  T  T  T </v>
   <v type="logical" >  T  T  T </v>
   <v type="logical" >  T  T  T </v>
   <v type="logical" >  T  T  T </v>
   <v type="logical" >  T  T  T </v>
   <v type="logical" >  T  T  T </v>
   <v type="logical" >  T  T  T </v>
   <v type="logical" >  T  T  T </v>
   <v type="logical" >  T  T  T </v>
   <v type="logical" >  T  T  T </v>
   <v type="logical" >  T  T  T </v>
   <v type="logical" >  T  T  T </v>
   <v type="logical" >  T  T  T </v>
   <v type="logical" >  T  T  T </v>
   <v type="logical" >  T  T  T </v>
   <v type="logical" >  T  T  T </v>
   <v type="logical" >  T  T  T </v>
   <v type="logical" >  T  T  T </v>
   <v type="logical" >  T  T  T </v>
   <v type="logical" >  T  T  T </v>
   <v type="logical" >  T  T  T </v>
   <v type="logical" >  T  T  T </v>
   <v type="logical" >  T  T  T </v>
   <v type="logical" >  T  T  T </v>
   <v type="logical" >  T  T  T </v>
   <v type="logical" >  T  T  T </v>
   <v type="logical" >  T  T  T </v>
   <v type="logical" >  T  T  T </v>
   <v type="logical" >  T  T  T </v>
   <v type="logical" >  T  T  T </v>
   <v type="logical" >  T  T  T </v>
   <v type="logical" >  T  T  T </v>
   <v type="logical" >  T  T  T </v>
   <v type="logical" >  T  T  T </v>
   <v type="logical" >  T  T  T </v>
   <v type="logical" >  T  T  T </v>
   <v type="logical" >  T  T  T </v>
   <v type="logical" >  T  T  T </v>
   <v type="logical" >  T  T  T </v>
   <v type="logical" >  T  T  T </v>
   <v type="logical" >  T  T  T </v>
   <v type="logical" >  T  T  T </v>
  </varray>
  <nose>
   <v>      -3.00000000       0.00000000       0.00010000       0.00010000 </v>
  </nose>
 </structure>
 <calculation>
  <scstep>
   <time name="dav">   76.65   77.17</time>
   <time name="total">   81.87   82.47</time>
   <energy>
    <i name="alphaZ">    196.80145815 </i>
    <i name="ewald">  38733.86282555 </i>
    <i name="hartreedc"> -51072.92473907 </i>
    <i name="XCdc">   1355.31475131 </i>
    <i name="pawpsdc">  12061.16201661 </i>
    <i name="pawaedc"> -12133.24665886 </i>
    <i name="eentropy">     -0.05234841 </i>
    <i name="bandstr">  -1686.40630696 </i>
    <i name="atom">  16094.84310894 </i>
    <i name="e_fr_energy">   3549.35410725 </i>
    <i name="e_wo_entrp">   3549.40645566 </i>
    <i name="e_0_energy">   3549.38028146 </i>
   </energy>
  </scstep>
  <scstep>
   <time name="dav">   98.75   99.44</time>
   <time name="total">   98.76   99.47</time>
   <energy>
    <i name="e_fr_energy">   -224.80455856 </i>
    <i name="e_wo_entrp">   -224.80049290 </i>
    <i name="e_0_energy">   -224.80252573 </i>
   </energy>
  </scstep>
  <scstep>
   <time name="dav">   85.17   85.79</time>
   <time name="total">   85.17   85.81</time>
   <energy>
    <i name="e_fr_energy">   -873.73782172 </i>
    <i name="e_wo_entrp">   -873.73315887 </i>
    <i name="e_0_energy">   -873.73549029 </i>
   </energy>
  </scstep>
  <scstep>
   <time name="dav">   85.71   86.29</time>
   <time name="total">   85.71   86.31</time>
   <energy>
    <i name="e_fr_energy">   -895.58582444 </i>
    <i name="e_wo_entrp">   -895.58062170 </i>
    <i name="e_0_energy">   -895.58322307 </i>
   </energy>
  </scstep>
  <scstep>
   <time name="dav">   94.54   95.19</time>
   <time name="total">  100.01  100.71</time>
   <energy>
    <i name="e_fr_energy">   -896.24354327 </i>
    <i name="e_wo_entrp">   -896.23833341 </i>
    <i name="e_0_energy">   -896.24093834 </i>
   </energy>
  </scstep>
  <scstep>
   <time name="dav">   84.85   85.41</time>
   <time name="total">   95.16   95.82</time>
   <energy>
    <i name="e_fr_energy">   -878.03632257 </i>
    <i name="e_wo_entrp">   -878.03502828 </i>
    <i name="e_0_energy">   -878.03567543 </i>
   </energy>
  </scstep>
  <scstep>
   <time name="dav">   82.72   83.26</time>
   <time name="total">   92.94   93.60</time>
   <energy>
    <i name="e_fr_energy">   -856.55035867 </i>
    <i name="e_wo_entrp">   -856.55035765 </i>
    <i name="e_0_energy">   -856.55035816 </i>
   </energy>
  </scstep>
  <scstep>
   <time name="dav">   84.46   85.02</time>
   <time name="total">   94.67   95.32</time>
   <energy>
    <i name="e_fr_energy">   -851.58698208 </i>
    <i name="e_wo_entrp">   -851.58698207 </i>
    <i name="e_0_energy">   -851.58698208 </i>
   </energy>
  </scstep>
  <scstep>
   <time name="dav">   83.96   84.52</time>
   <time name="total">   94.05   94.69</time>
   <energy>
    <i name="e_fr_energy">   -851.72606358 </i>
    <i name="e_wo_entrp">   -851.72606358 </i>
    <i name="e_0_energy">   -851.72606358 </i>
   </energy>
  </scstep>
  <scstep>
   <time name="dav">   82.19   82.73</time>
   <time name="total">   92.25   92.88</time>
   <energy>
    <i name="e_fr_energy">   -851.54044030 </i>
    <i name="e_wo_entrp">   -851.54044030 </i>
    <i name="e_0_energy">   -851.54044030 </i>
   </energy>
  </scstep>
  <scstep>
   <time name="dav">   80.44   80.96</time>
   <time name="total">   90.72   91.33</time>
   <energy>
    <i name="e_fr_energy">   -851.52637086 </i>
    <i name="e_wo_entrp">   -851.52637086 </i>
    <i name="e_0_energy">   -851.52637086 </i>
   </energy>
  </scstep>
  <scstep>
   <time name="dav">   83.70   84.21</time>
   <time name="total">   93.79   94.43</time>
   <energy>
    <i name="e_fr_energy">   -851.52608354 </i>
    <i name="e_wo_entrp">   -851.52608354 </i>
    <i name="e_0_energy">   -851.52608354 </i>
   </energy>
  </scstep>
  <scstep>
   <time name="dav">   84.27   84.84</time>
   <time name="total">   94.55   95.20</time>
   <energy>
    <i name="e_fr_energy">   -851.52624340 </i>
    <i name="e_wo_entrp">   -851.52624340 </i>
    <i name="e_0_energy">   -851.52624340 </i>
   </energy>
  </scstep>
  <scstep>
   <time name="dav">   81.93   82.45</time>
   <time name="total">   92.61   93.23</time>
   <energy>
    <i name="e_fr_energy">   -851.52622046 </i>
    <i name="e_wo_entrp">   -851.52622046 </i>
    <i name="e_0_energy">   -851.52622046 </i>
   </energy>
  </scstep>
  <scstep>
   <time name="dav">   81.36   81.89</time>
   <time name="total">   91.65   92.29</time>
   <energy>
    <i name="e_fr_energy">   -851.52629493 </i>
    <i name="e_wo_entrp">   -851.52629493 </i>
    <i name="e_0_energy">   -851.52629493 </i>
   </energy>
  </scstep>
  <scstep>
   <time name="dav">   79.78   80.36</time>
   <time name="total">   90.46   91.14</time>
   <energy>
    <i name="e_fr_energy">   -851.52629893 </i>
    <i name="e_wo_entrp">   -851.52629893 </i>
    <i name="e_0_energy">   -851.52629893 </i>
   </energy>
  </scstep>
  <scstep>
   <time name="dav">   84.10   84.64</time>
   <time name="total">   94.11   94.73</time>
   <energy>
    <i name="e_fr_energy">   -851.52629969 </i>
    <i name="e_wo_entrp">   -851.52629969 </i>
    <i name="e_0_energy">   -851.52629969 </i>
   </energy>
  </scstep>
  <scstep>
   <time name="dav">   79.35   79.84</time>
   <time name="total">   89.88   90.47</time>
   <energy>
    <i name="e_fr_energy">   -851.52629805 </i>
    <i name="e_wo_entrp">   -851.52629805 </i>
    <i name="e_0_energy">   -851.52629805 </i>
   </energy>
  </scstep>
  <scstep>
   <time name="dav">   64.52   64.91</time>
   <time name="total">   69.98   70.44</time>
   <energy>
    <i name="alphaZ">    196.80145815 </i>
    <i name="ewald">  38733.86282555 </i>
    <i name="hartreedc"> -52579.77053245 </i>
    <i name="XCdc">   1406.01546014 </i>
    <i name="pawpsdc">  39488.58541673 </i>
    <i name="pawaedc"> -39571.84130708 </i>
    <i name="eentropy">     -0.00000000 </i>
    <i name="bandstr">  -4620.02272827 </i>
    <i name="atom">  16094.84310894 </i>
    <i name="e_fr_energy">   -851.52629828 </i>
    <i name="e_wo_entrp">   -851.52629828 </i>
    <i name="e_0_energy">   -851.52629828 </i>
   </energy>
  </scstep>
  <structure>
   <crystal>
    <varray name="basis" >
     <v>      17.27103806       0.00000000       0.00000000 </v>
     <v>      -8.63551903      14.95715771       0.00000000 </v>
     <v>       0.00000000       0.00000000      15.00000000 </v>
    </varray>
    <i name="volume">   3874.88459904 </i>
    <varray name="rec_basis" >
     <v>       0.05790040       0.03342881       0.00000000 </v>
     <v>       0.00000000       0.06685762       0.00000000 </v>
     <v>       0.00000000       0.00000000       0.06666667 </v>
    </varray>
   </crystal>
   <varray name="positions" >
    <v>       0.99875386       0.99970706       0.51072731 </v>
    <v>       0.99825260       0.14235417       0.50751505 </v>
    <v>       0.99804583       0.28524847       0.50518955 </v>
    <v>       0.99854417       0.42840969       0.50684012 </v>
    <v>       0.99914976       0.57153084       0.50994608 </v>
    <v>       0.00020590       0.71474526       0.51425302 </v>
    <v>       0.99998580       0.85765707       0.51436583 </v>
    <v>       0.14186293       0.00013203       0.50019746 </v>
    <v>       0.14098183       0.14235809       0.49613863 </v>
    <v>       0.13965675       0.28432108       0.48911770 </v>
    <v>       0.14000518       0.42777742       0.48892517 </v>
    <v>       0.14141379       0.57108568       0.49488631 </v>
    <v>       0.14208538       0.71425981       0.49951761 </v>
    <v>       0.14227487       0.85738377       0.50220987 </v>
    <v>       0.28482160       0.00011392       0.49786754 </v>
    <v>       0.28436681       0.14257673       0.49005972 </v>
    <v>       0.28223432       0.28406081       0.47109861 </v>
    <v>       0.27830091       0.42499036       0.45661075 </v>
    <v>       0.28338106       0.57052848       0.47297807 </v>
    <v>       0.28459248       0.71437670       0.49014581 </v>
    <v>       0.28483826       0.85739983       0.49757844 </v>
    <v>       0.42781878       0.00047659       0.50265365 </v>
    <v>       0.42768871       0.14335663       0.50081698 </v>
    <v>       0.42595410       0.28305031       0.49069047 </v>
    <v>       0.42615417       0.71629763       0.49229424 </v>
    <v>       0.42763857       0.85753169       0.50057846 </v>
    <v>       0.57031694       0.00033401       0.51051131 </v>
    <v>       0.57032513       0.14316045       0.51091016 </v>
    <v>       0.57119368       0.28714677       0.51535312 </v>
    <v>       0.57108214       0.85742503       0.51416331 </v>
    <v>       0.71307432       0.99979573       0.51972467 </v>
    <v>       0.71314702       0.14296039       0.51595409 </v>
    <v>       0.71314029       0.28601717       0.52059561 </v>
    <v>       0.71302261       0.42787968       0.53706929 </v>
    <v>       0.72627731       0.57608533       0.57651343 </v>
    <v>       0.72455884       0.72066795       0.57076247 </v>
    <v>       0.71253493       0.85716280       0.53408458 </v>
    <v>       0.85612132       0.00000269       0.52137176 </v>
    <v>       0.85566956       0.14265992       0.51563532 </v>
    <v>       0.85575890       0.28559226       0.51568790 </v>
    <v>       0.85645220       0.42864773       0.52175519 </v>
    <v>       0.85790637       0.57233906       0.53061524 </v>
    <v>       0.85993602       0.71598958       0.53826825 </v>
    <v>       0.85740745       0.85751109       0.53024689 </v>
    <v>       0.04610808       0.09490524       0.50492606 </v>
    <v>       0.04511679       0.23719008       0.50115486 </v>
    <v>       0.04536856       0.38040378       0.50085132 </v>
    <v>       0.04650488       0.52370886       0.50383154 </v>
    <v>       0.04707474       0.66683467       0.50731737 </v>
    <v>       0.04731980       0.80985948       0.50982673 </v>
    <v>       0.04679277       0.95245501       0.50792277 </v>
    <v>       0.18903418       0.09486401       0.49432370 </v>
    <v>       0.18753411       0.23701204       0.48680159 </v>
    <v>       0.18558762       0.37883368       0.47976891 </v>
    <v>       0.18809772       0.52298067       0.48600364 </v>
    <v>       0.18929569       0.66669292       0.49364198 </v>
    <v>       0.18977711       0.80973657       0.49905545 </v>
    <v>       0.18971547       0.95254291       0.49936978 </v>
    <v>       0.33248451       0.09564033       0.49594491 </v>
    <v>       0.33277400       0.23773065       0.48177507 </v>
    <v>       0.32021358       0.37325735       0.44600826 </v>
    <v>       0.32221745       0.51909991       0.45133526 </v>
    <v>       0.33315236       0.66755336       0.48339332 </v>
    <v>       0.33248357       0.80956001       0.49573024 </v>
    <v>       0.33241388       0.95259524       0.49921115 </v>
    <v>       0.47526630       0.09561344       0.50518481 </v>
    <v>       0.47460101       0.23872219       0.50265508 </v>
    <v>       0.47456128       0.80930236       0.50268314 </v>
    <v>       0.47527022       0.95284878       0.50485405 </v>
    <v>       0.61776725       0.09543681       0.51278408 </v>
    <v>       0.61795560       0.23854155       0.51610706 </v>
    <v>       0.61986074       0.38018189       0.52806933 </v>
    <v>       0.61950674       0.81279674       0.52551669 </v>
    <v>       0.61796530       0.95259884       0.51520472 </v>
    <v>       0.76067230       0.09527065       0.51734150 </v>
    <v>       0.76072047       0.23811593       0.51760263 </v>
    <v>       0.76121733       0.38105185       0.52722027 </v>
    <v>       0.76358314       0.52486321       0.54848336 </v>
    <v>       0.76797221       0.66986745       0.56453084 </v>
    <v>       0.76249927       0.81006411       0.54550820 </v>
    <v>       0.76090598       0.95245398       0.52575000 </v>
    <v>       0.90325244       0.09477988       0.51511681 </v>
    <v>       0.90311338       0.23781153       0.51256905 </v>
    <v>       0.90352529       0.38102960       0.51495743 </v>
    <v>       0.90436406       0.52419970       0.51985472 </v>
    <v>       0.90584041       0.66745740       0.52781022 </v>
    <v>       0.90546769       0.81040989       0.52751653 </v>
    <v>       0.90391984       0.95219818       0.52004512 </v>
    <v>       0.46236816       0.35551508       0.48882230 </v>
    <v>       0.58476250       0.41761921       0.52852770 </v>
    <v>       0.58319463       0.74048976       0.52685882 </v>
    <v>       0.46273707       0.68063760       0.49149721 </v>
    <v>       0.52305344       0.53055805       0.42658765 </v>
    <v>       0.56255568       0.56826389       0.51904646 </v>
    <v>       0.40360563       0.41381598       0.40908476 </v>
    <v>       0.41026281       0.56168899       0.42643878 </v>
    <v>       0.63821798       0.67746978       0.60131250 </v>
    <v>       0.64528408       0.53408179       0.61771805 </v>
    <v>       0.57346700       0.54407671       0.46511209 </v>
   </varray>
  </structure>
  <varray name="forces" >
   <v>      -0.00335064       0.00343980       0.00232470 </v>
   <v>       0.00175610      -0.00136438      -0.00024439 </v>
   <v>       0.00140545      -0.00150078      -0.00170918 </v>
   <v>       0.00093616       0.00011613      -0.00218125 </v>
   <v>       0.00071077       0.00067417       0.00233371 </v>
   <v>       0.00083377       0.00088943       0.00732895 </v>
   <v>      -0.00156460       0.00278540       0.00731332 </v>
   <v>      -0.00246300       0.00119543       0.00065672 </v>
   <v>      -0.00074010      -0.00139486      -0.00365543 </v>
   <v>       0.00037041      -0.00327616      -0.00441271 </v>
   <v>       0.00015331      -0.00122492      -0.00539898 </v>
   <v>       0.00040794      -0.00214385      -0.00432067 </v>
   <v>       0.00123637       0.00009789      -0.00042855 </v>
   <v>      -0.00085572       0.00100231       0.00419818 </v>
   <v>      -0.00161389       0.00121232       0.00012406 </v>
   <v>      -0.00372653       0.00064182      -0.00179944 </v>
   <v>      -0.00056331      -0.00274520      -0.00046211 </v>
   <v>      -0.00054779      -0.00213733      -0.00305137 </v>
   <v>      -0.00117284      -0.00042269      -0.00387273 </v>
   <v>       0.00047808      -0.00066502      -0.00195924 </v>
   <v>       0.00047000       0.00009235       0.00162032 </v>
   <v>      -0.00037986      -0.00000892       0.00357633 </v>
   <v>      -0.00194189       0.00050046       0.00205796 </v>
   <v>      -0.00171682      -0.00075341       0.00042295 </v>
   <v>       0.00004831      -0.00033164      -0.00370952 </v>
   <v>       0.00015904      -0.00085341       0.00071835 </v>
   <v>       0.00034030      -0.00075200       0.00341247 </v>
   <v>      -0.00084721       0.00019320       0.00430612 </v>
   <v>      -0.00046288       0.00406921       0.00362178 </v>
   <v>       0.00160097      -0.00159420       0.00584112 </v>
   <v>       0.00273751      -0.00077741       0.00497634 </v>
   <v>       0.00002948       0.00033115       0.00261954 </v>
   <v>      -0.00027693       0.00308828       0.00305227 </v>
   <v>      -0.00078401       0.00148817       0.00612468 </v>
   <v>       0.00202655       0.00234256       0.00634666 </v>
   <v>      -0.00048288       0.00165172       0.00520914 </v>
   <v>       0.00175508       0.00095794       0.00788868 </v>
   <v>       0.00312804       0.00065046       0.00062375 </v>
   <v>       0.00297660      -0.00148155       0.00174425 </v>
   <v>       0.00064095       0.00073804      -0.00038719 </v>
   <v>       0.00051268       0.00193727       0.00319356 </v>
   <v>       0.00092884       0.00051557       0.00710219 </v>
   <v>       0.00039058       0.00349684       0.00904533 </v>
   <v>      -0.00077791       0.00293464       0.00946440 </v>
   <v>      -0.00071869      -0.00061064      -0.00070276 </v>
   <v>      -0.00233059       0.00050818      -0.00274625 </v>
   <v>      -0.00178015      -0.00032156      -0.00417370 </v>
   <v>      -0.00030190      -0.00054170      -0.00072433 </v>
   <v>       0.00137487       0.00109088       0.00401673 </v>
   <v>       0.00163323      -0.00096714       0.00580616 </v>
   <v>       0.00456836      -0.00267986       0.00315312 </v>
   <v>       0.00125415      -0.00216635      -0.00215868 </v>
   <v>      -0.00041292      -0.00018287      -0.00448228 </v>
   <v>      -0.00136448       0.00013097      -0.00488250 </v>
   <v>      -0.00132759      -0.00082957      -0.00544276 </v>
   <v>      -0.00027598      -0.00152935      -0.00379432 </v>
   <v>       0.00110818       0.00016599       0.00183015 </v>
   <v>       0.00188038      -0.00206964       0.00142200 </v>
   <v>       0.00510482      -0.00229049      -0.00040442 </v>
   <v>       0.00303283       0.00026453      -0.00006671 </v>
   <v>      -0.00030033       0.00082726       0.00141200 </v>
   <v>      -0.00101705      -0.00076698      -0.00087506 </v>
   <v>      -0.00193296       0.00018583      -0.00419167 </v>
   <v>       0.00053536       0.00043461       0.00029435 </v>
   <v>       0.00171974      -0.00060478       0.00206661 </v>
   <v>       0.00093408      -0.00058544       0.00428303 </v>
   <v>       0.00202139      -0.00089274       0.00219824 </v>
   <v>       0.00002844       0.00084861       0.00019360 </v>
   <v>       0.00104817       0.00019899       0.00323267 </v>
   <v>      -0.00063370       0.00042044       0.00278036 </v>
   <v>       0.00091418      -0.00111672       0.00405821 </v>
   <v>       0.00083227      -0.00086937       0.00365896 </v>
   <v>      -0.00339241       0.00244299       0.00715715 </v>
   <v>      -0.00098694      -0.00014811       0.00524694 </v>
   <v>      -0.00234278       0.00041479       0.00273029 </v>
   <v>      -0.00035910      -0.00000059      -0.00066924 </v>
   <v>       0.00031090      -0.00059765       0.00202201 </v>
   <v>       0.00088055       0.00085368       0.00698801 </v>
   <v>       0.00239378       0.00085227       0.00742079 </v>
   <v>       0.00172494      -0.00090640       0.00761966 </v>
   <v>      -0.00268445       0.00026004       0.00480579 </v>
   <v>      -0.00702008       0.00221967       0.00145003 </v>
   <v>      -0.00327755      -0.00102178      -0.00109060 </v>
   <v>      -0.00039582      -0.00100403       0.00100527 </v>
   <v>       0.00085294       0.00086673       0.00377782 </v>
   <v>       0.00194944       0.00013679       0.00887701 </v>
   <v>       0.00366247      -0.00423320       0.00824475 </v>
   <v>       0.00040255      -0.00127519       0.00629854 </v>
   <v>       0.00002811       0.00004903       0.00256849 </v>
   <v>      -0.00056285       0.00016544       0.00602206 </v>
   <v>      -0.00082901      -0.00017718       0.00990002 </v>
   <v>      -0.00043221       0.00063956      -0.00231518 </v>
   <v>       0.00070012       0.00359294       0.00734914 </v>
   <v>      -0.00232554      -0.00237799       0.00994139 </v>
   <v>       0.00392220      -0.00167803       0.00634565 </v>
   <v>      -0.00111834       0.00257225       0.00424104 </v>
   <v>      -0.00105065      -0.00227454       0.00115479 </v>
   <v>       0.00149601       0.00350380       0.00724585 </v>
   <v>      -0.00890491      -0.00254118      -0.20975325 </v>
  </varray>
  <varray name="stress" >
   <v>      -0.49745221       0.42924608       0.01211610 </v>
   <v>       0.42924644      -1.03098662      -0.02255389 </v>
   <v>       0.01211692      -0.02255394      -0.24938697 </v>
  </varray>
  <energy>
   <i name="e_fr_energy">   -859.43434527 </i>
   <i name="e_wo_entrp">   -859.43434527 </i>
   <i name="e_0_energy">   -859.43434527 </i>
  </energy>
  <time name="totalsc"> 2011.96 2025.76</time>
 </calculation>
 <calculation>
  <scstep>
   <time name="dav">   75.29   75.77</time>
   <time name="total">   86.36   86.93</time>
   <energy>
    <i name="alphaZ">    196.80145815 </i>
    <i name="ewald">  38733.34574507 </i>
    <i name="hartreedc"> -52579.25568225 </i>
    <i name="XCdc">   1406.01395579 </i>
    <i name="pawpsdc">  39488.44173637 </i>
    <i name="pawaedc"> -39571.69727260 </i>
    <i name="eentropy">     -0.00000000 </i>
    <i name="bandstr">  -4620.01969657 </i>
    <i name="atom">  16094.84310894 </i>
    <i name="e_fr_energy">   -851.52664710 </i>
    <i name="e_wo_entrp">   -851.52664710 </i>
    <i name="e_0_energy">   -851.52664710 </i>
   </energy>
  </scstep>
  <scstep>
   <time name="dav">   76.43   76.92</time>
   <time name="total">   87.12   87.72</time>
   <energy>
    <i name="e_fr_energy">   -851.52668471 </i>
    <i name="e_wo_entrp">   -851.52668471 </i>
    <i name="e_0_energy">   -851.52668471 </i>
   </energy>
  </scstep>
  <scstep>
   <time name="dav">   72.30   72.77</time>
   <time name="total">   81.95   82.53</time>
   <energy>
    <i name="e_fr_energy">   -851.52667402 </i>
    <i name="e_wo_entrp">   -851.52667402 </i>
    <i name="e_0_energy">   -851.52667402 </i>
   </energy>
  </scstep>
  <scstep>
   <time name="dav">   71.17   71.65</time>
   <time name="total">   81.87   82.45</time>
   <energy>
    <i name="e_fr_energy">   -851.52668443 </i>
    <i name="e_wo_entrp">   -851.52668443 </i>
    <i name="e_0_energy">   -851.52668443 </i>
   </energy>
  </scstep>
  <scstep>
   <time name="dav">   64.91   65.39</time>
   <time name="total">   74.34   74.94</time>
   <energy>
    <i name="e_fr_energy">   -851.52668562 </i>
    <i name="e_wo_entrp">   -851.52668562 </i>
    <i name="e_0_energy">   -851.52668562 </i>
   </energy>
  </scstep>
  <scstep>
   <time name="dav">   37.97   38.16</time>
   <time name="total">   42.18   42.44</time>
   <energy>
    <i name="alphaZ">    196.80145815 </i>
    <i name="ewald">  38733.34574507 </i>
    <i name="hartreedc"> -52579.18995573 </i>
    <i name="XCdc">   1406.01277611 </i>
    <i name="pawpsdc">  39488.15943929 </i>
    <i name="pawaedc"> -39571.41439135 </i>
    <i name="eentropy">     -0.00000000 </i>
    <i name="bandstr">  -4620.08486691 </i>
    <i name="atom">  16094.84310894 </i>
    <i name="e_fr_energy">   -851.52668643 </i>
    <i name="e_wo_entrp">   -851.52668643 </i>
    <i name="e_0_energy">   -851.52668643 </i>
   </energy>
  </scstep>
  <structure>
   <crystal>
    <varray name="basis" >
     <v>      17.27103806       0.00000000       0.00000000 </v>
     <v>      -8.63551903      14.95715771       0.00000000 </v>
     <v>       0.00000000       0.00000000      15.00000000 </v>
    </varray>
    <i name="volume">   3874.88459904 </i>
    <varray name="rec_basis" >
     <v>       0.05790040       0.03342881       0.00000000 </v>
     <v>       0.00000000       0.06685762       0.00000000 </v>
     <v>       0.00000000       0.00000000       0.06666667 </v>
    </varray>
   </crystal>
   <varray name="positions" >
    <v>       0.99875288       0.99970924       0.51073123 </v>
    <v>       0.99825302       0.14235316       0.50751770 </v>
    <v>       0.99804601       0.28524737       0.50519145 </v>
    <v>       0.99854460       0.42840967       0.50684147 </v>
    <v>       0.99915020       0.57153118       0.50994998 </v>
    <v>       0.00020642       0.71474571       0.51425987 </v>
    <v>       0.99998559       0.85765877       0.51437268 </v>
    <v>       0.14186174       0.00013271       0.50020093 </v>
    <v>       0.14098083       0.14235708       0.49613973 </v>
    <v>       0.13965582       0.28431884       0.48911873 </v>
    <v>       0.14000479       0.42777655       0.48892548 </v>
    <v>       0.14141317       0.57108416       0.49488680 </v>
    <v>       0.14208595       0.71425977       0.49952026 </v>
    <v>       0.14227451       0.85738432       0.50221542 </v>
    <v>       0.28482089       0.00011459       0.49787096 </v>
    <v>       0.28436473       0.14257704       0.49006241 </v>
    <v>       0.28223311       0.28405900       0.47110312 </v>
    <v>       0.27830003       0.42498898       0.45661429 </v>
    <v>       0.28338021       0.57052814       0.47298027 </v>
    <v>       0.28459238       0.71437618       0.49014822 </v>
    <v>       0.28483838       0.85739978       0.49758276 </v>
    <v>       0.42781838       0.00047645       0.50265919 </v>
    <v>       0.42768757       0.14335675       0.50082175 </v>
    <v>       0.42595272       0.28304959       0.49069480 </v>
    <v>       0.42615394       0.71629738       0.49229545 </v>
    <v>       0.42763819       0.85753105       0.50058210 </v>
    <v>       0.57031673       0.00033341       0.51051631 </v>
    <v>       0.57032455       0.14316042       0.51091587 </v>
    <v>       0.57119465       0.28714927       0.51535818 </v>
    <v>       0.57108242       0.85742393       0.51416955 </v>
    <v>       0.71307550       0.99979514       0.51973017 </v>
    <v>       0.71314702       0.14296050       0.51595831 </v>
    <v>       0.71314103       0.28601911       0.52059998 </v>
    <v>       0.71302251       0.42788057       0.53707501 </v>
    <v>       0.72627875       0.57608672       0.57651847 </v>
    <v>       0.72455872       0.72066885       0.57076710 </v>
    <v>       0.71253612       0.85716334       0.53409137 </v>
    <v>       0.85612317       0.00000300       0.52137414 </v>
    <v>       0.85567063       0.14265883       0.51563890 </v>
    <v>       0.85575937       0.28559265       0.51569010 </v>
    <v>       0.85645297       0.42864891       0.52175940 </v>
    <v>       0.85790680       0.57233928       0.53062151 </v>
    <v>       0.85993704       0.71599171       0.53827552 </v>
    <v>       0.85740771       0.85751286       0.53025459 </v>
    <v>       0.04610732       0.09490474       0.50492849 </v>
    <v>       0.04511549       0.23719034       0.50115629 </v>
    <v>       0.04536730       0.38040348       0.50085179 </v>
    <v>       0.04650436       0.52370839       0.50383388 </v>
    <v>       0.04707569       0.66683527       0.50732245 </v>
    <v>       0.04732019       0.80985869       0.50983280 </v>
    <v>       0.04679433       0.95245309       0.50792732 </v>
    <v>       0.18903405       0.09486247       0.49432581 </v>
    <v>       0.18753376       0.23701188       0.48680273 </v>
    <v>       0.18558685       0.37883373       0.47977010 </v>
    <v>       0.18809660       0.52298005       0.48600398 </v>
    <v>       0.18929487       0.66669180       0.49364286 </v>
    <v>       0.18977763       0.80973657       0.49905968 </v>
    <v>       0.18971569       0.95254140       0.49937379 </v>
    <v>       0.33248653       0.09563864       0.49594824 </v>
    <v>       0.33277573       0.23773072       0.48177939 </v>
    <v>       0.32021398       0.37325813       0.44601505 </v>
    <v>       0.32221679       0.51909938       0.45134073 </v>
    <v>       0.33315116       0.66755341       0.48339471 </v>
    <v>       0.33248384       0.80956021       0.49573383 </v>
    <v>       0.33241450       0.95259471       0.49921578 </v>
    <v>       0.47526648       0.09561288       0.50519078 </v>
    <v>       0.47460173       0.23872134       0.50265992 </v>
    <v>       0.47456142       0.80930292       0.50268629 </v>
    <v>       0.47527073       0.95284882       0.50485920 </v>
    <v>       0.61776688       0.09543697       0.51278861 </v>
    <v>       0.61795563       0.23854062       0.51611239 </v>
    <v>       0.61986083       0.38018115       0.52807364 </v>
    <v>       0.61950548       0.81279828       0.52552310 </v>
    <v>       0.61796455       0.95259867       0.51521065 </v>
    <v>       0.76067095       0.09527083       0.51734565 </v>
    <v>       0.76072012       0.23811581       0.51760458 </v>
    <v>       0.76121716       0.38105133       0.52722362 </v>
    <v>       0.76358363       0.52486367       0.54848928 </v>
    <v>       0.76797345       0.66986781       0.56453678 </v>
    <v>       0.76249971       0.81006332       0.54551451 </v>
    <v>       0.76090435       0.95245405       0.52575506 </v>
    <v>       0.90324896       0.09478125       0.51512015 </v>
    <v>       0.90311099       0.23781074       0.51257094 </v>
    <v>       0.90352457       0.38102882       0.51496052 </v>
    <v>       0.90436462       0.52420015       0.51985920 </v>
    <v>       0.90584127       0.66745733       0.52781763 </v>
    <v>       0.90546810       0.81040686       0.52752348 </v>
    <v>       0.90391943       0.95219717       0.52005115 </v>
    <v>       0.46236816       0.35551486       0.48882811 </v>
    <v>       0.58476225       0.41761926       0.52853310 </v>
    <v>       0.58319411       0.74048954       0.52686654 </v>
    <v>       0.46273690       0.68063805       0.49149945 </v>
    <v>       0.52305973       0.53056242       0.42658800 </v>
    <v>       0.56255378       0.56826285       0.51905020 </v>
    <v>       0.40360816       0.41381559       0.40909604 </v>
    <v>       0.41026340       0.56169053       0.42644959 </v>
    <v>       0.63821644       0.67746828       0.60131483 </v>
    <v>       0.64528532       0.53408393       0.61772312 </v>
    <v>       0.57346988       0.54408208       0.46496578 </v>
   </varray>
  </structure>
  <varray name="forces" >
   <v>      -0.00015238       0.00027292       0.00247295 </v>
   <v>      -0.00119075      -0.00032248      -0.00015761 </v>
   <v>      -0.00114503      -0.00083124      -0.00171974 </v>
   <v>      -0.00025818      -0.00031876      -0.00194953 </v>
   <v>       0.00074685       0.00079907       0.00244142 </v>
   <v>       0.00120513       0.00036340       0.00739183 </v>
   <v>       0.00081668      -0.00006733       0.00723395 </v>
   <v>       0.00291459      -0.00096953      -0.00022933 </v>
   <v>      -0.00019248      -0.00118976      -0.00362445 </v>
   <v>      -0.00213573      -0.00048538      -0.00599170 </v>
   <v>      -0.00080383      -0.00102014      -0.00529592 </v>
   <v>      -0.00080516       0.00033613      -0.00281480 </v>
   <v>       0.00103089       0.00012414      -0.00025567 </v>
   <v>       0.00038926      -0.00022631       0.00412849 </v>
   <v>       0.00057238      -0.00050000       0.00027527 </v>
   <v>       0.00027199      -0.00080238      -0.00155675 </v>
   <v>       0.00002707      -0.00122220      -0.00072997 </v>
   <v>      -0.00090980      -0.00105770      -0.00286470 </v>
   <v>      -0.00156564      -0.00036446      -0.00376098 </v>
   <v>      -0.00034789      -0.00025874      -0.00202582 </v>
   <v>       0.00067101       0.00004336       0.00164197 </v>
   <v>       0.00046045      -0.00013839       0.00367564 </v>
   <v>       0.00073028      -0.00016688       0.00227011 </v>
   <v>       0.00093421      -0.00038778       0.00100633 </v>
   <v>      -0.00056812       0.00038020      -0.00349815 </v>
   <v>       0.00025347       0.00002014       0.00088014 </v>
   <v>       0.00031951      -0.00010924       0.00356584 </v>
   <v>      -0.00030075      -0.00002457       0.00436282 </v>
   <v>       0.00043131      -0.00104742       0.00369792 </v>
   <v>      -0.00061660       0.00000865       0.00551913 </v>
   <v>      -0.00017981       0.00004068       0.00490267 </v>
   <v>      -0.00066399       0.00034340       0.00249873 </v>
   <v>       0.00003315       0.00090434       0.00279608 </v>
   <v>       0.00013358       0.00094216       0.00591145 </v>
   <v>       0.00267332       0.00236246       0.00617373 </v>
   <v>       0.00090414       0.00015474       0.00540442 </v>
   <v>       0.00011917       0.00043749       0.00778228 </v>
   <v>      -0.00015635       0.00047205       0.00124291 </v>
   <v>      -0.00086846      -0.00028001       0.00019444 </v>
   <v>      -0.00050705      -0.00005363      -0.00036266 </v>
   <v>       0.00050358       0.00082351       0.00310969 </v>
   <v>       0.00117729       0.00068453       0.00714581 </v>
   <v>       0.00192708       0.00079981       0.00909903 </v>
   <v>       0.00137016       0.00012838       0.00955302 </v>
   <v>      -0.00065327      -0.00020430      -0.00076539 </v>
   <v>      -0.00039321      -0.00119001      -0.00269329 </v>
   <v>      -0.00048255      -0.00084090      -0.00418935 </v>
   <v>      -0.00005764      -0.00043919      -0.00086349 </v>
   <v>       0.00120531       0.00076613       0.00401840 </v>
   <v>       0.00020168       0.00039490       0.00609120 </v>
   <v>       0.00013600       0.00041414       0.00339656 </v>
   <v>      -0.00052855      -0.00066065      -0.00214949 </v>
   <v>      -0.00030058      -0.00181365      -0.00419742 </v>
   <v>      -0.00096311      -0.00173266      -0.00478701 </v>
   <v>      -0.00080976      -0.00121860      -0.00546566 </v>
   <v>       0.00020282      -0.00133723      -0.00365583 </v>
   <v>       0.00061791       0.00024646       0.00191278 </v>
   <v>      -0.00011832      -0.00010454       0.00151128 </v>
   <v>      -0.00132330       0.00029382       0.00003095 </v>
   <v>      -0.00005363      -0.00104331      -0.00173155 </v>
   <v>       0.00106411      -0.00068728       0.00130982 </v>
   <v>      -0.00062850      -0.00049727      -0.00099512 </v>
   <v>      -0.00081713      -0.00010963      -0.00413277 </v>
   <v>       0.00037961      -0.00024822       0.00029507 </v>
   <v>       0.00033249      -0.00010882       0.00211115 </v>
   <v>      -0.00024079      -0.00012786       0.00429364 </v>
   <v>       0.00037137       0.00051464       0.00212647 </v>
   <v>       0.00039640      -0.00036252       0.00027392 </v>
   <v>       0.00039341      -0.00030517       0.00326469 </v>
   <v>       0.00000888       0.00081013       0.00152365 </v>
   <v>       0.00013630       0.00060626       0.00419922 </v>
   <v>       0.00003903       0.00128175       0.00421857 </v>
   <v>      -0.00028190       0.00060489       0.00783553 </v>
   <v>       0.00034106      -0.00032207       0.00538552 </v>
   <v>      -0.00031348      -0.00014020       0.00289753 </v>
   <v>      -0.00025700       0.00080661      -0.00028232 </v>
   <v>      -0.00004424       0.00136768       0.00252319 </v>
   <v>       0.00085898       0.00056133       0.00708803 </v>
   <v>       0.00104801       0.00172632       0.00753943 </v>
   <v>       0.00070475       0.00087108       0.00749817 </v>
   <v>       0.00088722       0.00017797       0.00490517 </v>
   <v>      -0.00057321      -0.00038855      -0.00025996 </v>
   <v>      -0.00064156      -0.00075522      -0.00104444 </v>
   <v>       0.00009325       0.00022951       0.00091174 </v>
   <v>       0.00077578       0.00101988       0.00396732 </v>
   <v>       0.00123466       0.00067126       0.00906905 </v>
   <v>       0.00013734       0.00232954       0.00826662 </v>
   <v>       0.00047600       0.00043556       0.00602403 </v>
   <v>      -0.00001408      -0.00018609       0.00234773 </v>
   <v>      -0.00013961      -0.00025117       0.00582614 </v>
   <v>      -0.00097267       0.00059039       0.00973399 </v>
   <v>      -0.00011627       0.00044469      -0.00241916 </v>
   <v>      -0.05173667      -0.01152347      -0.03552129 </v>
   <v>       0.03657541      -0.03547706      -0.06496383 </v>
[...]
       <r>   -17.2478    11.3908    38.5877 </r>
       <r>   -17.1229     5.3273    39.2533 </r>
       <r>   -16.9979     5.1914    39.9019 </r>
       <r>   -16.8730     9.4813    41.0864 </r>
       <r>   -16.7481     7.2039    41.9864 </r>
       <r>   -16.6231     7.6547    42.9427 </r>
       <r>   -16.4982     2.0659    43.2008 </r>
       <r>   -16.3733    14.1265    44.9657 </r>
       <r>   -16.2483    13.0053    46.5905 </r>
       <r>   -16.1234     3.6807    47.0503 </r>
       <r>   -15.9985     4.1246    47.5656 </r>
       <r>   -15.8735     1.4738    47.7497 </r>
       <r>   -15.7486     1.7344    47.9664 </r>
       <r>   -15.6237     2.3042    48.2543 </r>
       <r>   -15.4987     5.4012    48.9291 </r>
       <r>   -15.3738     6.9726    49.8002 </r>
       <r>   -15.2489     8.9248    50.9152 </r>
       <r>   -15.1239     6.8660    51.7730 </r>
       <r>   -14.9990    12.3109    53.3110 </r>
       <r>   -14.8741     9.7158    54.5248 </r>
       <r>   -14.7491     4.9515    55.1434 </r>
       <r>   -14.6242     8.1382    56.1601 </r>
       <r>   -14.4993    10.2794    57.4444 </r>
       <r>   -14.3743    10.9695    58.8148 </r>
       <r>   -14.2494    12.8923    60.4255 </r>
       <r>   -14.1245     8.7450    61.5180 </r>
       <r>   -13.9995     3.9637    62.0132 </r>
       <r>   -13.8746     6.1397    62.7803 </r>
       <r>   -13.7497     6.7556    63.6243 </r>
       <r>   -13.6247     8.4709    64.6826 </r>
       <r>   -13.4998     7.4617    65.6148 </r>
       <r>   -13.3749     8.6326    66.6933 </r>
       <r>   -13.2499     7.1880    67.5913 </r>
       <r>   -13.1250     6.6584    68.4231 </r>
       <r>   -13.0001     4.0585    68.9302 </r>
       <r>   -12.8751    11.3577    70.3491 </r>
       <r>   -12.7502     3.6379    70.8036 </r>
       <r>   -12.6253    12.4891    72.3639 </r>
       <r>   -12.5003    10.1988    73.6381 </r>
       <r>   -12.3754    10.5586    74.9572 </r>
       <r>   -12.2505    13.7689    76.6774 </r>
       <r>   -12.1255     5.9306    77.4183 </r>
       <r>   -12.0006     8.7542    78.5120 </r>
       <r>   -11.8757     7.6681    79.4700 </r>
       <r>   -11.7507     8.5506    80.5382 </r>
       <r>   -11.6258     5.3569    81.2075 </r>
       <r>   -11.5009    14.5096    83.0202 </r>
       <r>   -11.3759    13.0413    84.6495 </r>
       <r>   -11.2510     9.8268    85.8772 </r>
       <r>   -11.1261    14.2061    87.6520 </r>
       <r>   -11.0011    15.5127    89.5900 </r>
       <r>   -10.8762    10.1405    90.8569 </r>
       <r>   -10.7513     8.2376    91.8861 </r>
       <r>   -10.6263    10.2779    93.1701 </r>
       <r>   -10.5014     8.2425    94.1999 </r>
       <r>   -10.3765    17.5393    96.3911 </r>
       <r>   -10.2515     6.7553    97.2351 </r>
       <r>   -10.1266    12.0443    98.7398 </r>
       <r>   -10.0017    21.1105   101.3772 </r>
       <r>    -9.8768    19.5705   103.8222 </r>
       <r>    -9.7518    19.3098   106.2346 </r>
       <r>    -9.6269    20.5792   108.8056 </r>
       <r>    -9.5020    18.7752   111.1513 </r>
       <r>    -9.3770    17.9314   113.3915 </r>
       <r>    -9.2521    18.2429   115.6706 </r>
       <r>    -9.1272    18.1291   117.9355 </r>
       <r>    -9.0022    20.1176   120.4489 </r>
       <r>    -8.8773    22.2058   123.2231 </r>
       <r>    -8.7524    29.1562   126.8657 </r>
       <r>    -8.6274    22.8670   129.7225 </r>
       <r>    -8.5025    19.6354   132.1756 </r>
       <r>    -8.3776    19.0986   134.5617 </r>
       <r>    -8.2526    14.3611   136.3558 </r>
       <r>    -8.1277    22.4899   139.1656 </r>
       <r>    -8.0028    22.2830   141.9494 </r>
       <r>    -7.8778    16.0835   143.9588 </r>
       <r>    -7.7529    18.2165   146.2346 </r>
       <r>    -7.6280    20.5359   148.8002 </r>
       <r>    -7.5030     8.3978   149.8494 </r>
       <r>    -7.3781    10.1204   151.1138 </r>
       <r>    -7.2532    16.1387   153.1300 </r>
       <r>    -7.1282    19.9933   155.6278 </r>
       <r>    -7.0033    27.6958   159.0880 </r>
       <r>    -6.8784    16.7555   161.1813 </r>
       <r>    -6.7534     8.5555   162.2501 </r>
       <r>    -6.6285    14.4506   164.0555 </r>
       <r>    -6.5036     8.2117   165.0814 </r>
       <r>    -6.3786    10.8205   166.4332 </r>
       <r>    -6.2537    13.6797   168.1423 </r>
       <r>    -6.1288    15.1405   170.0338 </r>
       <r>    -6.0038    20.6570   172.6146 </r>
       <r>    -5.8789     8.2136   173.6407 </r>
       <r>    -5.7540    16.6670   175.7230 </r>
       <r>    -5.6290    10.7697   177.0685 </r>
       <r>    -5.5041    10.8931   178.4294 </r>
       <r>    -5.3792     6.6868   179.2648 </r>
       <r>    -5.2542     4.3041   179.8025 </r>
       <r>    -5.1293     5.7967   180.5267 </r>
       <r>    -5.0044    19.5737   182.9721 </r>
       <r>    -4.8794    20.3979   185.5205 </r>
       <r>    -4.7545    14.1405   187.2871 </r>
       <r>    -4.6296     3.5241   187.7273 </r>
       <r>    -4.5046     9.8156   188.9536 </r>
       <r>    -4.3797     2.6861   189.2892 </r>
       <r>    -4.2548     4.1277   189.8049 </r>
       <r>    -4.1298     7.2159   190.7064 </r>
       <r>    -4.0049     8.9439   191.8238 </r>
       <r>    -3.8800     4.3693   192.3696 </r>
       <r>    -3.7550     8.6090   193.4452 </r>
       <r>    -3.6301     4.4189   193.9973 </r>
       <r>    -3.5052     0.0220   194.0000 </r>
       <r>    -3.3802     0.2692   194.0336 </r>
       <r>    -3.2553     3.9206   194.5234 </r>
       <r>    -3.1304     5.3452   195.1912 </r>
       <r>    -3.0054     1.4902   195.3774 </r>
       <r>    -2.8805     0.9809   195.5000 </r>
       <r>    -2.7556     0.0005   195.5000 </r>
       <r>    -2.6306     1.3107   195.6638 </r>
       <r>    -2.5057     2.6872   195.9995 </r>
       <r>    -2.3808     0.0041   196.0000 </r>
       <r>    -2.2558     0.3376   196.0422 </r>
       <r>    -2.1309     3.6022   196.4922 </r>
       <r>    -2.0060     0.0624   196.5000 </r>
       <r>    -1.8810     0.0716   196.5089 </r>
       <r>    -1.7561     1.8896   196.7450 </r>
       <r>    -1.6312     2.9952   197.1192 </r>
       <r>    -1.5063     6.2236   197.8968 </r>
       <r>    -1.3813     0.8263   198.0000 </r>
       <r>    -1.2564     1.0087   198.1260 </r>
       <r>    -1.1315     5.3038   198.7886 </r>
       <r>    -1.0065     6.9995   199.6631 </r>
       <r>    -0.8816     9.4796   200.8474 </r>
       <r>    -0.7567    14.8668   202.7048 </r>
       <r>    -0.6317     3.3029   203.1174 </r>
       <r>    -0.5068    11.0606   204.4992 </r>
       <r>    -0.3819    10.7022   205.8363 </r>
       <r>    -0.2569     5.5055   206.5241 </r>
       <r>    -0.1320     4.7507   207.1176 </r>
       <r>    -0.0071     9.0598   208.2495 </r>
       <r>     0.1179     8.8189   209.3513 </r>
       <r>     0.2428    14.5114   211.1642 </r>
       <r>     0.3677     6.4538   211.9705 </r>
       <r>     0.4927     0.2821   212.0058 </r>
       <r>     0.6176     6.6314   212.8342 </r>
       <r>     0.7425     6.6737   213.6680 </r>
       <r>     0.8675     9.9146   214.9067 </r>
       <r>     0.9924    10.1190   216.1709 </r>
       <r>     1.1173     7.8083   217.1464 </r>
       <r>     1.2423     6.3444   217.9390 </r>
       <r>     1.3672     8.6914   219.0248 </r>
       <r>     1.4921    16.4363   221.0783 </r>
       <r>     1.6171    16.6002   223.1522 </r>
       <r>     1.7420     9.5273   224.3424 </r>
       <r>     1.8669    14.0177   226.0937 </r>
       <r>     1.9919    14.6853   227.9284 </r>
       <r>     2.1168    17.9532   230.1713 </r>
       <r>     2.2417    18.0761   232.4296 </r>
       <r>     2.3667    17.8697   234.6622 </r>
       <r>     2.4916    21.5097   237.3494 </r>
       <r>     2.6165    12.2096   238.8748 </r>
       <r>     2.7415    16.4822   240.9340 </r>
       <r>     2.8664    23.8702   243.9161 </r>
       <r>     2.9913    35.4694   248.3474 </r>
       <r>     3.1163    30.0327   252.0995 </r>
       <r>     3.2412    21.6936   254.8098 </r>
       <r>     3.3661    16.3522   256.8527 </r>
       <r>     3.4911    21.1308   259.4926 </r>
       <r>     3.6160    21.3278   262.1571 </r>
       <r>     3.7409    12.7739   263.7530 </r>
       <r>     3.8659    24.2232   266.7793 </r>
       <r>     3.9908    27.2358   270.1819 </r>
       <r>     4.1157    24.2246   273.2084 </r>
       <r>     4.2407    16.3453   275.2505 </r>
       <r>     4.3656    22.7981   278.0987 </r>
       <r>     4.4905    15.1561   279.9922 </r>
       <r>     4.6155     0.0625   280.0000 </r>
       <r>     4.7404     0.0000   280.0000 </r>
       <r>     4.8653     0.0000   280.0000 </r>
       <r>     4.9903     0.0000   280.0000 </r>
       <r>     5.1152     0.0000   280.0000 </r>
       <r>     5.2401     0.0000   280.0000 </r>
       <r>     5.3651     0.0000   280.0000 </r>
       <r>     5.4900     0.0000   280.0000 </r>
       <r>     5.6149     0.0000   280.0000 </r>
       <r>     5.7399     0.0000   280.0000 </r>
       <r>     5.8648     0.0000   280.0000 </r>
       <r>     5.9897     0.0000   280.0000 </r>
       <r>     6.1147     0.0000   280.0000 </r>
      </set>
     </set>
    </array>
   </total>
  </dos>
 </calculation>
 <structure name="finalpos" >
  <crystal>
   <varray name="basis" >
    <v>      17.27103806       0.00000000       0.00000000 </v>
    <v>      -8.63551903      14.95715771       0.00000000 </v>
    <v>       0.00000000       0.00000000      15.00000000 </v>
   </varray>
   <i name="volume">   3874.88459904 </i>
   <varray name="rec_basis" >
    <v>       0.05790040       0.03342881       0.00000000 </v>
    <v>       0.00000000       0.06685762       0.00000000 </v>
    <v>       0.00000000       0.00000000       0.06666667 </v>
   </varray>
  </crystal>
  <varray name="positions" >
   <v>       0.99864761       0.99961494       0.51098999 </v>
   <v>       0.99804968       0.14218260       0.50618152 </v>
   <v>       0.99779263       0.28501881       0.50307727 </v>
   <v>       0.99827460       0.42815335       0.50560789 </v>
   <v>       0.99897300       0.57130985       0.51030690 </v>
   <v>       0.00012490       0.71457728       0.51565697 </v>
   <v>       0.99993564       0.85757727       0.51576467 </v>
   <v>       0.14170909      -0.00003247       0.50027144 </v>
   <v>       0.14079228       0.14220066       0.49451036 </v>
   <v>       0.13939872       0.28407639       0.48624934 </v>
   <v>       0.13961200       0.42749306       0.48594163 </v>
   <v>       0.14111313       0.57081877       0.49348265 </v>
   <v>       0.14189208       0.71401121       0.49968036 </v>
   <v>       0.14209388       0.85717229       0.50291475 </v>
   <v>       0.28457990      -0.00017440       0.49789547 </v>
   <v>       0.28417440       0.14233640       0.48925175 </v>
   <v>       0.28226822       0.28403126       0.46961628 </v>
   <v>       0.27811425       0.42495024       0.45408069 </v>
   <v>       0.28297783       0.57039486       0.47028206 </v>
   <v>       0.28436094       0.71411258       0.48924878 </v>
   <v>       0.28459936       0.85709260       0.49777469 </v>
   <v>       0.42754768       0.00006399       0.50310133 </v>
   <v>       0.42741329       0.14286002       0.50044829 </v>
   <v>       0.42580247       0.28247057       0.48952804 </v>
   <v>       0.42597032       0.71597765       0.49072573 </v>
   <v>       0.42737091       0.85713547       0.50067653 </v>
   <v>       0.57002409      -0.00003621       0.51107197 </v>
   <v>       0.57005803       0.14272261       0.51101730 </v>
   <v>       0.57092961       0.28656130       0.51428301 </v>
   <v>       0.57079752       0.85711515       0.51438738 </v>
   <v>       0.71283403       0.99955345       0.52013675 </v>
   <v>       0.71290003       0.14265523       0.51601397 </v>
   <v>       0.71291057       0.28570421       0.52016710 </v>
   <v>       0.71266316       0.42759084       0.53554456 </v>
   <v>       0.72477975       0.57555343       0.57266818 </v>
   <v>       0.72382452       0.72019239       0.56966968 </v>
   <v>       0.71230712       0.85703845       0.53460144 </v>
   <v>       0.85597708      -0.00011651       0.52169902 </v>
   <v>       0.85545853       0.14243233       0.51501374 </v>
   <v>       0.85553709       0.28533967       0.51489311 </v>
   <v>       0.85623656       0.42840194       0.52158055 </v>
   <v>       0.85771544       0.57208572       0.53140105 </v>
   <v>       0.85988387       0.71590146       0.53933142 </v>
   <v>       0.85732499       0.85748112       0.53142352 </v>
   <v>       0.04595188       0.09476182       0.50393143 </v>
   <v>       0.04486771       0.23696360       0.49884566 </v>
   <v>       0.04505626       0.38016838       0.49854117 </v>
   <v>       0.04625520       0.52346660       0.50304886 </v>
   <v>       0.04691330       0.66662283       0.50803991 </v>
   <v>       0.04720342       0.80970084       0.51113926 </v>
   <v>       0.04669574       0.95233919       0.50857082 </v>
   <v>       0.18884427       0.09466806       0.49355732 </v>
   <v>       0.18734385       0.23681037       0.48434731 </v>
   <v>       0.18522925       0.37859065       0.47655262 </v>
   <v>       0.18772512       0.52273131       0.48354326 </v>
   <v>       0.18906108       0.66643988       0.49290388 </v>
   <v>       0.18955381       0.80947620       0.49943322 </v>
   <v>       0.18951003       0.95232515       0.49967857 </v>
   <v>       0.33222742       0.09531602       0.49554404 </v>
   <v>       0.33263956       0.23751001       0.48076901 </v>
   <v>       0.32065207       0.37358820       0.44556606 </v>
   <v>       0.32182920       0.51911336       0.44806156 </v>
   <v>       0.33293105       0.66735510       0.48164093 </v>
   <v>       0.33223901       0.80924314       0.49555000 </v>
   <v>       0.33215346       0.95226522       0.49950110 </v>
   <v>       0.47501251       0.09516942       0.50531768 </v>
   <v>       0.47436602       0.23815102       0.50178044 </v>
   <v>       0.47430488       0.80890414       0.50232854 </v>
   <v>       0.47498506       0.95243635       0.50540243 </v>
   <v>       0.61750012       0.09504681       0.51315450 </v>
   <v>       0.61773719       0.23808998       0.51566467 </v>
   <v>       0.61956985       0.37957843       0.52626060 </v>
   <v>       0.61923652       0.81257249       0.52591790 </v>
   <v>       0.61768548       0.95228077       0.51568437 </v>
   <v>       0.76045054       0.09501344       0.51737668 </v>
   <v>       0.76050017       0.23782790       0.51730623 </v>
   <v>       0.76096546       0.38077027       0.52657761 </v>
   <v>       0.76297174       0.52449557       0.54718275 </v>
   <v>       0.76737435       0.66954524       0.56343463 </v>
   <v>       0.76227170       0.80998017       0.54594377 </v>
   <v>       0.76072883       0.95231038       0.52626037 </v>
   <v>       0.90307385       0.09460509       0.51459497 </v>
   <v>       0.90289183       0.23756990       0.51129868 </v>
   <v>       0.90328740       0.38077075       0.51426743 </v>
   <v>       0.90420125       0.52398229       0.52045962 </v>
   <v>       0.90573364       0.66725443       0.52914630 </v>
   <v>       0.90545052       0.81039102       0.52902191 </v>
   <v>       0.90384244       0.95213702       0.52083655 </v>
   <v>       0.46237239       0.35481417       0.48713019 </v>
   <v>       0.58400699       0.41641233       0.52662258 </v>
   <v>       0.58290003       0.74029079       0.52730606 </v>
   <v>       0.46263773       0.68039600       0.48895726 </v>
   <v>       0.52917180       0.53707996       0.40574753 </v>
   <v>       0.57095596       0.56921406       0.49790733 </v>
   <v>       0.40594029       0.41567533       0.41298063 </v>
   <v>       0.40948752       0.56203055       0.42211728 </v>
   <v>       0.63687964       0.67615585       0.59819073 </v>
   <v>       0.64041208       0.53283607       0.60716563 </v>
   <v>       0.58577829       0.56155156       0.43719834 </v>
  </varray>
  <varray name="selective"  type="logical" >
   <v type="logical" >  T  T  T </v>
   <v type="logical" >  T  T  T </v>
   <v type="logical" >  T  T  T </v>
   <v type="logical" >  T  T  T </v>
   <v type="logical" >  T  T  T </v>
   <v type="logical" >  T  T  T </v>
   <v type="logical" >  T  T  T </v>
   <v type="logical" >  T  T  T </v>
   <v type="logical" >  T  T  T </v>
   <v type="logical" >  T  T  T </v>
   <v type="logical" >  T  T  T </v>
   <v type="logical" >  T  T  T </v>
   <v type="logical" >  T  T  T </v>
   <v type="logical" >  T  T  T </v>
   <v type="logical" >  T  T  T </v>
   <v type="logical" >  T  T  T </v>
   <v type="logical" >  T  T  T </v>
   <v type="logical" >  T  T  T </v>
   <v type="logical" >  T  T  T </v>
   <v type="logical" >  T  T  T </v>
   <v type="logical" >  T  T  T </v>
   <v type="logical" >  T  T  T </v>
   <v type="logical" >  T  T  T </v>
   <v type="logical" >  T  T  T </v>
   <v type="logical" >  T  T  T </v>
   <v type="logical" >  T  T  T </v>
   <v type="logical" >  T  T  T </v>
   <v type="logical" >  T  T  T </v>
   <v type="logical" >  T  T  T </v>
   <v type="logical" >  T  T  T </v>
   <v type="logical" >  T  T  T </v>
   <v type="logical" >  T  T  T </v>
   <v type="logical" >  T  T  T </v>
   <v type="logical" >  T  T  T </v>
   <v type="logical" >  T  T  T </v>
   <v type="logical" >  T  T  T </v>
   <v type="logical" >  T  T  T </v>
   <v type="logical" >  T  T  T </v>
   <v type="logical" >  T  T  T </v>
   <v type="logical" >  T  T  T </v>
   <v type="logical" >  T  T  T </v>
   <v type="logical" >  T  T  T </v>
   <v type="logical" >  T  T  T </v>
   <v type="logical" >  T  T  T </v>
   <v type="logical" >  T  T  T </v>
   <v type="logical" >  T  T  T </v>
   <v type="logical" >  T  T  T </v>
   <v type="logical" >  T  T  T </v>
   <v type="logical" >  T  T  T </v>
   <v type="logical" >  T  T  T </v>
   <v type="logical" >  T  T  T </v>
   <v type="logical" >  T  T  T </v>
   <v type="logical" >  T  T  T </v>
   <v type="logical" >  T  T  T </v>
   <v type="logical" >  T  T  T </v>
   <v type="logical" >  T  T  T </v>
   <v type="logical" >  T  T  T </v>
   <v type="logical" >  T  T  T </v>
   <v type="logical" >  T  T  T </v>
   <v type="logical" >  T  T  T </v>
   <v type="logical" >  T  T  T </v>
   <v type="logical" >  T  T  T </v>
   <v type="logical" >  T  T  T </v>
   <v type="logical" >  T  T  T </v>
   <v type="logical" >  T  T  T </v>
   <v type="logical" >  T  T  T </v>
   <v type="logical" >  T  T  T </v>
   <v type="logical" >  T  T  T </v>
   <v type="logical" >  T  T  T </v>
   <v type="logical" >  T  T  T </v>
   <v type="logical" >  T  T  T </v>
   <v type="logical" >  T  T  T </v>
   <v type="logical" >  T  T  T </v>
   <v type="logical" >  T  T  T </v>
   <v type="logical" >  T  T  T </v>
   <v type="logical" >  T  T  T </v>
   <v type="logical" >  T  T  T </v>
   <v type="logical" >  T  T  T </v>
   <v type="logical" >  T  T  T </v>
   <v type="logical" >  T  T  T </v>
   <v type="logical" >  T  T  T </v>
   <v type="logical" >  T  T  T </v>
   <v type="logical" >  T  T  T </v>
   <v type="logical" >  T  T  T </v>
   <v type="logical" >  T  T  T </v>
   <v type="logical" >  T  T  T </v>
   <v type="logical" >  T  T  T </v>
   <v type="logical" >  T  T  T </v>
   <v type="logical" >  T  T  T </v>
   <v type="logical" >  T  T  T </v>
   <v type="logical" >  T  T  T </v>
   <v type="logical" >  T  T  T </v>
   <v type="logical" >  T  T  T </v>
   <v type="logical" >  T  T  T </v>
   <v type="logical" >  T  T  T </v>
   <v type="logical" >  T  T  T </v>
   <v type="logical" >  T  T  T </v>
   <v type="logical" >  T  T  T </v>
   <v type="logical" >  T  T  T </v>
  </varray>
  <nose>
   <v>      -3.00000000       0.00000000       0.00010000       0.00010000 </v>
  </nose>
 </structure>
</modeling>
