unknown system                          
           1
    17.271038    0.000000    0.000000
    -8.635519   14.957158    0.000000
     0.000000    0.000000   15.000000
   C    H    F    O 
    88     6     4     1
Direct configuration=     1
   0.99875288  0.99970924  0.51073123
   0.99825302  0.14235316  0.50751770
   0.99804601  0.28524737  0.50519145
   0.99854460  0.42840967  0.50684147
   0.99915020  0.57153118  0.50994998
   0.00020642  0.71474571  0.51425987
   0.99998559  0.85765877  0.51437268
   0.14186174  0.00013271  0.50020093
   0.14098083  0.14235708  0.49613973
   0.13965582  0.28431884  0.48911873
   0.14000479  0.42777655  0.48892548
   0.14141317  0.57108416  0.49488680
   0.14208595  0.71425977  0.49952026
   0.14227451  0.85738432  0.50221542
   0.28482089  0.00011459  0.49787096
   0.28436473  0.14257704  0.49006241
   0.28223311  0.28405900  0.47110312
   0.27830003  0.42498898  0.45661429
   0.28338021  0.57052814  0.47298027
   0.28459238  0.71437618  0.49014822
   0.28483838  0.85739978  0.49758276
   0.42781838  0.00047645  0.50265919
   0.42768757  0.14335675  0.50082175
   0.42595272  0.28304959  0.49069480
   0.42615394  0.71629738  0.49229545
   0.42763819  0.85753105  0.50058210
   0.57031673  0.00033341  0.51051631
   0.57032455  0.14316042  0.51091587
   0.57119465  0.28714927  0.51535818
   0.57108242  0.85742393  0.51416955
   0.71307550  0.99979514  0.51973017
   0.71314702  0.14296050  0.51595831
   0.71314103  0.28601911  0.52059998
   0.71302251  0.42788057  0.53707501
   0.72627875  0.57608672  0.57651847
   0.72455872  0.72066885  0.57076710
   0.71253612  0.85716334  0.53409137
   0.85612317  0.00000300  0.52137414
   0.85567063  0.14265883  0.51563890
   0.85575937  0.28559265  0.51569010
   0.85645297  0.42864891  0.52175940
   0.85790680  0.57233928  0.53062151
   0.85993704  0.71599171  0.53827552
   0.85740771  0.85751286  0.53025459
   0.04610732  0.09490474  0.50492849
   0.04511549  0.23719034  0.50115629
   0.04536730  0.38040348  0.50085179
   0.04650436  0.52370839  0.50383388
   0.04707569  0.66683527  0.50732245
   0.04732019  0.80985869  0.50983280
   0.04679433  0.95245309  0.50792732
   0.18903405  0.09486247  0.49432581
   0.18753376  0.23701188  0.48680273
   0.18558685  0.37883373  0.47977010
   0.18809660  0.52298005  0.48600398
   0.18929487  0.66669180  0.49364286
   0.18977763  0.80973657  0.49905968
   0.18971569  0.95254140  0.49937379
   0.33248653  0.09563864  0.49594824
   0.33277573  0.23773072  0.48177939
   0.32021398  0.37325813  0.44601505
   0.32221679  0.51909938  0.45134073
   0.33315116  0.66755341  0.48339471
   0.33248384  0.80956021  0.49573383
   0.33241450  0.95259471  0.49921578
   0.47526648  0.09561288  0.50519078
   0.47460173  0.23872134  0.50265992
   0.47456142  0.80930292  0.50268629
   0.47527073  0.95284882  0.50485920
   0.61776688  0.09543697  0.51278861
   0.61795563  0.23854062  0.51611239
   0.61986083  0.38018115  0.52807364
   0.61950548  0.81279828  0.52552310
   0.61796455  0.95259867  0.51521065
   0.76067095  0.09527083  0.51734565
   0.76072012  0.23811581  0.51760458
   0.76121716  0.38105133  0.52722362
   0.76358363  0.52486367  0.54848928
   0.76797345  0.66986781  0.56453678
   0.76249971  0.81006332  0.54551451
   0.76090435  0.95245405  0.52575506
   0.90324896  0.09478125  0.51512015
   0.90311099  0.23781074  0.51257094
   0.90352457  0.38102882  0.51496052
   0.90436462  0.52420015  0.51985920
   0.90584127  0.66745733  0.52781763
   0.90546810  0.81040686  0.52752348
   0.90391943  0.95219717  0.52005115
   0.46236816  0.35551486  0.48882811
   0.58476225  0.41761926  0.52853310
   0.58319411  0.74048954  0.52686654
   0.46273690  0.68063805  0.49149945
   0.52305973  0.53056242  0.42658800
   0.56255378  0.56826285  0.51905020
   0.40360816  0.41381559  0.40909604
   0.41026340  0.56169053  0.42644959
   0.63821644  0.67746828  0.60131483
   0.64528532  0.53408393  0.61772312
   0.57346988  0.54408208  0.46496578
Direct configuration=     2
   0.99875178  0.99971125  0.51073952
   0.99825232  0.14235189  0.50752342
   0.99804493  0.28524565  0.50519558
   0.99854451  0.42840929  0.50684465
   0.99915114  0.57153194  0.50995822
   0.00020750  0.71474621  0.51427402
   0.99998561  0.85766006  0.51438673
   0.14186202  0.00013246  0.50020760
   0.14097924  0.14235519  0.49614233
   0.13965333  0.28431641  0.48912000
   0.14000342  0.42777492  0.48892658
   0.14141207  0.57108295  0.49488925
   0.14208696  0.71425970  0.49952607
   0.14227413  0.85738448  0.50222691
   0.28482021  0.00011463  0.49787835
   0.28436257  0.14257657  0.49006844
   0.28223161  0.28405646  0.47111255
   0.27829843  0.42498701  0.45662217
   0.28337825  0.57052750  0.47298528
   0.28459176  0.71437542  0.49015342
   0.28483871  0.85739964  0.49759187
   0.42781804  0.00047605  0.50267084
   0.42768674  0.14335648  0.50083193
   0.42595178  0.28304837  0.49070443
   0.42615331  0.71629741  0.49229843
   0.42763781  0.85753042  0.50058992
   0.57031653  0.00033267  0.51052685
   0.57032363  0.14316017  0.51092781
   0.57119527  0.28715046  0.51536878
   0.57108212  0.85742290  0.51418222
   0.71307630  0.99979453  0.51974150
   0.71314654  0.14296074  0.51596702
   0.71314191  0.28602137  0.52060888
   0.71302269  0.42788197  0.53708662
   0.72628205  0.57608952  0.57652866
   0.72455879  0.72066953  0.57077677
   0.71253726  0.85716404  0.53410522
   0.85612469  0.00000349  0.52137963
   0.85567074  0.14265750  0.51564523
   0.85575925  0.28559283  0.51569483
   0.85645409  0.42865047  0.52176809
   0.85790788  0.57233982  0.53063445
   0.85993906  0.71599398  0.53829046
   0.85740856  0.85751431  0.53027044
   0.04610594  0.09490402  0.50493367
   0.04511347  0.23718957  0.50115955
   0.04536537  0.38040246  0.50085303
   0.04650348  0.52370752  0.50383881
   0.04707736  0.66683625  0.50733300
   0.04732054  0.80985809  0.50984555
   0.04679574  0.95245152  0.50793698
   0.18903319  0.09486048  0.49433046
   0.18753250  0.23701032  0.48680566
   0.18558484  0.37883244  0.47977302
   0.18809449  0.52297848  0.48600504
   0.18929357  0.66668968  0.49364508
   0.18977836  0.80973661  0.49906862
   0.18971555  0.95253982  0.49938232
   0.33248738  0.09563715  0.49595566
   0.33277671  0.23772986  0.48178732
   0.32021514  0.37325859  0.44602935
   0.32221583  0.51909852  0.45135235
   0.33314932  0.66755330  0.48339798
   0.33248402  0.80956011  0.49574147
   0.33241500  0.95259399  0.49922554
   0.47526624  0.09561208  0.50520324
   0.47460263  0.23872064  0.50267002
   0.47456148  0.80930315  0.50269302
   0.47527113  0.95284851  0.50486996
   0.61776670  0.09543759  0.51279711
   0.61795583  0.23854004  0.51612359
   0.61986129  0.38018127  0.52808300
   0.61950426  0.81280001  0.52553680
   0.61796382  0.95259819  0.51522303
   0.76066929  0.09527076  0.51735444
   0.76071978  0.23811617  0.51760909
   0.76121730  0.38105174  0.52723099
   0.76358447  0.52486437  0.54850151
   0.76797538  0.66986919  0.56454904
   0.76250059  0.81006304  0.54552736
   0.76090334  0.95245414  0.52576562
   0.90324510  0.09478206  0.51512587
   0.90310794  0.23780932  0.51257508
   0.90352386  0.38102815  0.51496698
   0.90436574  0.52420119  0.51986863
   0.90584272  0.66745757  0.52783297
   0.90546907  0.81040566  0.52753777
   0.90391927  0.95219642  0.52006336
   0.46236805  0.35551421  0.48884014
   0.58476184  0.41761904  0.52854405
   0.58319323  0.74048966  0.52688222
   0.46273668  0.68063882  0.49150428
   0.52303288  0.53056005  0.42655590
   0.56256289  0.56823573  0.51900098
   0.40361261  0.41381465  0.40912046
   0.41026445  0.56169327  0.42647277
   0.63821267  0.67746458  0.60131952
   0.64528648  0.53408800  0.61773273
   0.57350518  0.54413058  0.46475727
Direct configuration=     3
   0.99875145  0.99971088  0.51075228
   0.99824939  0.14235094  0.50753211
   0.99804336  0.28524737  0.50520156
   0.99854311  0.42840827  0.50684993
   0.99915246  0.57153301  0.50997084
   0.00020913  0.71474647  0.51429527
   0.99998637  0.85765965  0.51440759
   0.14186349  0.00013024  0.50021767
   0.14097723  0.14235258  0.49614667
   0.13964976  0.28431446  0.48912186
   0.14000062  0.42777274  0.48892867
   0.14141003  0.57108132  0.49489246
   0.14208814  0.71425959  0.49953525
   0.14227399  0.85738350  0.50224408
   0.28482019  0.00011318  0.49788989
   0.28436186  0.14257461  0.49007795
   0.28223062  0.28405435  0.47112664
   0.27829677  0.42498532  0.45663465
   0.28337507  0.57052646  0.47299324
   0.28459037  0.71437466  0.49016130
   0.28483925  0.85739934  0.49760571
   0.42781811  0.00047529  0.50268851
   0.42768702  0.14335552  0.50084755
   0.42595243  0.28304691  0.49071967
   0.42615222  0.71629798  0.49230354
   0.42763729  0.85753075  0.50060108
   0.57031657  0.00033240  0.51054289
   0.57032277  0.14315975  0.51094574
   0.57119535  0.28714941  0.51538480
   0.57108075  0.85742297  0.51420086
   0.71307491  0.99979417  0.51975730
   0.71314544  0.14296119  0.51597990
   0.71314237  0.28602258  0.52062195
   0.71302328  0.42788340  0.53710361
   0.72628704  0.57609355  0.57654396
   0.72455832  0.72066872  0.57079180
   0.71253720  0.85716453  0.53412573
   0.85612392  0.00000370  0.52138891
   0.85566779  0.14265681  0.51565432
   0.85575777  0.28559237  0.51570210
   0.85645506  0.42865162  0.52178101
   0.85790960  0.57234071  0.53065386
   0.85994192  0.71599506  0.53831281
   0.85740953  0.85751265  0.53029360
   0.04610410  0.09490337  0.50494155
   0.04510990  0.23718574  0.50116396
   0.04536321  0.38040038  0.50085526
   0.04650247  0.52370655  0.50384622
   0.04707941  0.66683733  0.50734885
   0.04732057  0.80985843  0.50986509
   0.04679599  0.95245393  0.50795062
   0.18903362  0.09485961  0.49433659
   0.18752977  0.23700679  0.48681068
   0.18558142  0.37882902  0.47977774
   0.18809156  0.52297607  0.48600713
   0.18929233  0.66668736  0.49364907
   0.18977754  0.80973580  0.49908176
   0.18971509  0.95253917  0.49939533
   0.33248569  0.09563719  0.49596596
   0.33277576  0.23772824  0.48179789
   0.32021623  0.37325748  0.44605141
   0.32221431  0.51909721  0.45137020
   0.33314757  0.66755291  0.48340342
   0.33248373  0.80955928  0.49575312
   0.33241607  0.95259303  0.49923931
   0.47526516  0.09561132  0.50522202
   0.47460296  0.23872057  0.50268408
   0.47456107  0.80930238  0.50270347
   0.47527091  0.95284769  0.50488628
   0.61776635  0.09543798  0.51280997
   0.61795616  0.23854069  0.51614059
   0.61986189  0.38018238  0.52809638
   0.61950413  0.81280055  0.52555804
   0.61796365  0.95259742  0.51524173
   0.76066817  0.09527014  0.51736785
   0.76071958  0.23811736  0.51761664
   0.76121814  0.38105419  0.52724285
   0.76358572  0.52486537  0.54851988
   0.76797813  0.66987216  0.56456603
   0.76250164  0.81006413  0.54554660
   0.76090459  0.95245419  0.52578153
   0.90324560  0.09477972  0.51513405
   0.90310581  0.23780824  0.51258042
   0.90352371  0.38102836  0.51497663
   0.90436733  0.52420279  0.51988309
   0.90584453  0.66745847  0.52785606
   0.90547041  0.81040813  0.52755945
   0.90391979  0.95219701  0.52008128
   0.46236762  0.35551277  0.48885796
   0.58476139  0.41761831  0.52856007
   0.58319227  0.74049070  0.52690522
   0.46273643  0.68063989  0.49151164
   0.52294776  0.53054294  0.42646946
   0.56259378  0.56816499  0.51885761
   0.40361914  0.41381372  0.40915863
   0.41026623  0.56169675  0.42650857
   0.63820704  0.67745866  0.60132612
   0.64528607  0.53409346  0.61774554
   0.57358876  0.54424798  0.46456047
Direct configuration=     4
   0.99875168  0.99970881  0.51076972
   0.99824537  0.14234966  0.50754334
   0.99804076  0.28524957  0.50520887
   0.99854148  0.42840927  0.50685614
   0.99915396  0.57153419  0.50998803
   0.00021134  0.71474670  0.51432395
   0.99998825  0.85765967  0.51443525
   0.14186495  0.00012766  0.50023122
   0.14097469  0.14234917  0.49615271
   0.13964497  0.28431131  0.48912445
   0.13999657  0.42776984  0.48893146
   0.14140665  0.57107740  0.49489498
   0.14208847  0.71426089  0.49954717
   0.14227396  0.85738164  0.50226684
   0.28482136  0.00011042  0.49790433
   0.28436257  0.14257221  0.49009046
   0.28222964  0.28405216  0.47114527
   0.27829558  0.42498376  0.45665183
   0.28337086  0.57052498  0.47300389
   0.28458843  0.71437373  0.49017145
   0.28483939  0.85739844  0.49762413
   0.42781868  0.00047429  0.50271224
   0.42768735  0.14335414  0.50086841
   0.42595342  0.28304512  0.49074031
   0.42615090  0.71629869  0.49231091
   0.42763683  0.85753125  0.50061590
   0.57031686  0.00033262  0.51056460
   0.57032218  0.14315957  0.51096964
   0.57119581  0.28714924  0.51540620
   0.57107867  0.85742251  0.51422448
   0.71307390  0.99979344  0.51977710
   0.71314336  0.14296122  0.51599545
   0.71314088  0.28602315  0.52063833
   0.71302419  0.42788562  0.53712463
   0.72629278  0.57609860  0.57656510
   0.72455542  0.72066620  0.57081301
   0.71253559  0.85716434  0.53414950
   0.85612159  0.00000267  0.52140286
   0.85566359  0.14265616  0.51566605
   0.85575541  0.28559175  0.51571180
   0.85645584  0.42865263  0.52179812
   0.85791198  0.57234198  0.53068014
   0.85994490  0.71599342  0.53834196
   0.85741277  0.85751138  0.53032245
   0.04610200  0.09490264  0.50495200
   0.04510630  0.23718270  0.50117028
   0.04536100  0.38039844  0.50085844
   0.04650177  0.52370573  0.50385451
   0.04708288  0.66683831  0.50736884
   0.04732070  0.80985933  0.50989188
   0.04679557  0.95245806  0.50796865
   0.18903441  0.09485876  0.49434433
   0.18752613  0.23700215  0.48681628
   0.18557667  0.37882428  0.47978378
   0.18808756  0.52297304  0.48601019
   0.18929136  0.66668563  0.49365505
   0.18977624  0.80973459  0.49909924
   0.18971514  0.95253855  0.49941294
   0.33248419  0.09563810  0.49597774
   0.33277388  0.23772613  0.48181168
   0.32021566  0.37325470  0.44608183
   0.32221149  0.51909519  0.45139442
   0.33314605  0.66755229  0.48341104
   0.33248276  0.80955789  0.49576865
   0.33241721  0.95259209  0.49925734
   0.47526452  0.09561059  0.50524610
   0.47460300  0.23872030  0.50270258
   0.47455997  0.80930132  0.50271777
   0.47527038  0.95284683  0.50490829
   0.61776556  0.09543775  0.51282784
   0.61795653  0.23854200  0.51616349
   0.61986192  0.38018390  0.52811316
   0.61950462  0.81280005  0.52558722
   0.61796350  0.95259675  0.51526676
   0.76066734  0.09526953  0.51738458
   0.76071903  0.23811883  0.51762785
   0.76121954  0.38105797  0.52725977
   0.76358780  0.52486684  0.54854468
   0.76798166  0.66987620  0.56458833
   0.76250226  0.81006571  0.54557298
   0.76090656  0.95245428  0.52580282
   0.90324811  0.09477572  0.51514484
   0.90310462  0.23780792  0.51258723
   0.90352366  0.38102833  0.51498805
   0.90436935  0.52420477  0.51990300
   0.90584706  0.66745995  0.52788719
   0.90547259  0.81041249  0.52758935
   0.90392008  0.95219804  0.52010369
   0.46236691  0.35551027  0.48888123
   0.58476088  0.41761714  0.52858096
   0.58319127  0.74049243  0.52693555
   0.46273613  0.68064147  0.49152120
   0.52283116  0.53051702  0.42634630
   0.56264439  0.56806174  0.51864421
   0.40362932  0.41381368  0.40921176
   0.41026596  0.56169822  0.42655572
   0.63820111  0.67745067  0.60133386
   0.64528316  0.53410031  0.61776002
   0.57369480  0.54441816  0.46433805
Direct configuration=     5
   0.99875132  0.99970780  0.51079155
   0.99824294  0.14234758  0.50755607
   0.99803562  0.28524487  0.50521676
   0.99853987  0.42841066  0.50686291
   0.99915648  0.57153422  0.51000796
   0.00021419  0.71474790  0.51435864
   0.99999096  0.85766283  0.51446957
   0.14186541  0.00012697  0.50024785
   0.14097163  0.14234494  0.49615977
   0.13963916  0.28430531  0.48912733
   0.13999193  0.42776581  0.48893400
   0.14140778  0.57107857  0.49489727
   0.14208856  0.71426185  0.49956166
   0.14227356  0.85738063  0.50229333
   0.28482339  0.00011100  0.49792083
   0.28436337  0.14257076  0.49010448
   0.28222630  0.28404841  0.47116613
   0.27829408  0.42498112  0.45667328
   0.28336573  0.57052306  0.47301635
   0.28458632  0.71437215  0.49018295
   0.28483865  0.85739653  0.49764645
   0.42781956  0.00047327  0.50274139
   0.42768664  0.14335290  0.50089345
   0.42595237  0.28304230  0.49076523
   0.42614957  0.71629872  0.49232019
   0.42763619  0.85753072  0.50063442
   0.57031440  0.00033117  0.51059034
   0.57032184  0.14315992  0.51099902
   0.57119724  0.28715270  0.51543139
   0.57107701  0.85742073  0.51425323
   0.71307396  0.99979267  0.51979872
   0.71314153  0.14296115  0.51601337
   0.71313931  0.28602485  0.52065800
   0.71302407  0.42788693  0.53714789
   0.72629806  0.57610390  0.57659135
   0.72454934  0.72066332  0.57084057
   0.71253477  0.85716398  0.53417736
   0.85612015 -0.00000018  0.52142199
   0.85566216  0.14265449  0.51567984
   0.85575320  0.28559162  0.51572196
   0.85645768  0.42865558  0.52181837
   0.85791503  0.57234338  0.53071360
   0.85994894  0.71599355  0.53837817
   0.85741623  0.85751311  0.53035721
   0.04609977  0.09490104  0.50496458
   0.04510199  0.23718216  0.50117784
   0.04535855  0.38039970  0.50086110
   0.04650057  0.52370515  0.50386314
   0.04708522  0.66683806  0.50739176
   0.04732167  0.80985971  0.50992606
   0.04679611  0.95245952  0.50799123
   0.18903459  0.09485613  0.49435349
   0.18752144  0.23699709  0.48682187
   0.18557112  0.37881948  0.47978987
   0.18808237  0.52296931  0.48601340
   0.18928986  0.66668433  0.49366264
   0.18977598  0.80973391  0.49912078
   0.18971628  0.95253765  0.49943365
   0.33248510  0.09563797  0.49599010
   0.33277611  0.23772458  0.48182828
   0.32021312  0.37325194  0.44611858
   0.32220624  0.51909170  0.45142413
   0.33314438  0.66755133  0.48342024
   0.33248135  0.80955643  0.49578737
   0.33241674  0.95259128  0.49927675
   0.47526236  0.09560650  0.50527457
   0.47460348  0.23871883  0.50272581
   0.47455947  0.80930059  0.50273436
   0.47527031  0.95284628  0.50493567
   0.61776537  0.09543702  0.51284981
   0.61795660  0.23854365  0.51619045
   0.61986295  0.38018624  0.52813133
   0.61950369  0.81279934  0.52562380
   0.61796179  0.95259412  0.51529601
   0.76066705  0.09526916  0.51740297
   0.76071717  0.23811982  0.51764147
   0.76122047  0.38106103  0.52728180
   0.76359088  0.52486887  0.54857606
   0.76798556  0.66987972  0.56461679
   0.76250179  0.81006680  0.54560546
   0.76090622  0.95245392  0.52582893
   0.90324504  0.09477429  0.51515807
   0.90310265  0.23780783  0.51259563
   0.90352282  0.38102811  0.51499951
   0.90437294  0.52420596  0.51992831
   0.90585024  0.66746155  0.52792532
   0.90547640  0.81041438  0.52762792
   0.90391985  0.95219734  0.52013055
   0.46236602  0.35550650  0.48890881
   0.58476000  0.41761577  0.52860617
   0.58318996  0.74049362  0.52697294
   0.46273589  0.68064367  0.49153198
   0.52273466  0.53049507  0.42622443
   0.56270128  0.56795973  0.51843764
   0.40364199  0.41381268  0.40927789
   0.41026914  0.56170312  0.42660797
   0.63819856  0.67744396  0.60134309
   0.64527689  0.53410833  0.61777434
   0.57378299  0.54459125  0.46398294
Direct configuration=     6
   0.99875003  0.99970838  0.51081723
   0.99824155  0.14234529  0.50756941
   0.99803211  0.28524274  0.50522364
   0.99853821  0.42841126  0.50686960
   0.99915949  0.57153361  0.51003027
   0.00021975  0.71474916  0.51439827
   0.99999405  0.85766781  0.51451060
   0.14186509  0.00012762  0.50026708
   0.14096841  0.14234000  0.49616705
   0.13963546  0.28429798  0.48912976
   0.13998657  0.42776128  0.48893533
   0.14140941  0.57108026  0.49489772
   0.14208843  0.71426127  0.49957862
   0.14227306  0.85738146  0.50232181
   0.28482503  0.00011368  0.49793873
   0.28436454  0.14256984  0.49011712
   0.28222074  0.28404202  0.47118843
   0.27829098  0.42497738  0.45669852
   0.28335951  0.57052062  0.47302984
   0.28458670  0.71437251  0.49019418
   0.28483722  0.85739468  0.49767170
   0.42781885  0.00047114  0.50277484
   0.42768586  0.14335167  0.50092140
   0.42595049  0.28304007  0.49079258
   0.42614843  0.71629826  0.49233100
   0.42763525  0.85752887  0.50065658
   0.57031119  0.00032831  0.51062014
   0.57032111  0.14316016  0.51103310
   0.57119811  0.28715771  0.51545966
   0.57107596  0.85741760  0.51428702
   0.71307420  0.99979182  0.51982297
   0.71314113  0.14296121  0.51603328
   0.71313917  0.28602836  0.52068094
   0.71302416  0.42788897  0.53717373
   0.72630409  0.57611062  0.57662082
   0.72454584  0.72066438  0.57087101
   0.71253498  0.85716361  0.53421043
   0.85611966 -0.00000338  0.52144646
   0.85566465  0.14265212  0.51569252
   0.85575143  0.28559221  0.51573211
   0.85645979  0.42865898  0.52184146
   0.85791938  0.57234475  0.53075442
   0.85995435  0.71599765  0.53842043
   0.85741749  0.85751597  0.53039857
   0.04609735  0.09489813  0.50497877
   0.04509533  0.23717965  0.50118481
   0.04535395  0.38040050  0.50086283
   0.04650067  0.52370611  0.50387132
   0.04708577  0.66683748  0.50741769
   0.04732268  0.80986055  0.50996600
   0.04679805  0.95245808  0.50801856
   0.18903387  0.09485258  0.49436375
   0.18751517  0.23699077  0.48682708
   0.18556478  0.37881402  0.47979498
   0.18807682  0.52296516  0.48601445
   0.18928855  0.66668468  0.49367120
   0.18977674  0.80973403  0.49914594
   0.18971663  0.95253473  0.49945567
   0.33248825  0.09563658  0.49600360
   0.33277972  0.23772325  0.48184766
   0.32020984  0.37324957  0.44616035
   0.32220120  0.51908711  0.45145548
   0.33314212  0.66754997  0.48343033
   0.33247950  0.80955431  0.49580695
   0.33241566  0.95259035  0.49929797
   0.47526007  0.09560146  0.50530609
   0.47460454  0.23871674  0.50275389
   0.47455904  0.80930019  0.50275315
   0.47526982  0.95284510  0.50496794
   0.61776469  0.09543597  0.51287614
   0.61795564  0.23854498  0.51621952
   0.61986545  0.38018961  0.52815181
   0.61950053  0.81279803  0.52566569
   0.61795886  0.95259084  0.51532860
   0.76066719  0.09526833  0.51742074
   0.76071376  0.23811992  0.51765752
   0.76122060  0.38106275  0.52730852
   0.76359256  0.52486730  0.54861131
   0.76798905  0.66988287  0.56465072
   0.76250035  0.81006722  0.54564272
   0.76090339  0.95245262  0.52585897
   0.90323757  0.09477433  0.51517370
   0.90309848  0.23780630  0.51260548
   0.90352070  0.38102828  0.51501085
   0.90437711  0.52420684  0.51995766
   0.90585455  0.66746262  0.52797049
   0.90548130  0.81041500  0.52767392
   0.90392083  0.95219711  0.52016156
   0.46236498  0.35550143  0.48893928
   0.58475857  0.41761444  0.52863475
   0.58318796  0.74049328  0.52701688
   0.46273595  0.68064631  0.49154291
   0.52264767  0.53047320  0.42609556
   0.56276310  0.56786558  0.51825249
   0.40365728  0.41381126  0.40935876
   0.41027469  0.56171239  0.42666274
   0.63819630  0.67743574  0.60135393
   0.64526396  0.53411654  0.61778566
   0.57386646  0.54476520  0.46349759
Direct configuration=     7
   0.99874932  0.99970823  0.51085046
   0.99823697  0.14234226  0.50758497
   0.99802855  0.28524521  0.50522977
   0.99853537  0.42841116  0.50687667
   0.99916032  0.57153260  0.51005649
   0.00022615  0.71475017  0.51444969
   0.99999744  0.85767056  0.51456538
   0.14186496  0.00012620  0.50029180
   0.14096687  0.14233480  0.49617514
   0.13963055  0.28429044  0.48913221
   0.13997903  0.42775617  0.48893489
   0.14140197  0.57107495  0.49489721
   0.14208784  0.71425950  0.49960130
   0.14227463  0.85738354  0.50235484
   0.28482495  0.00011426  0.49796031
   0.28436689  0.14256684  0.49012775
   0.28221353  0.28403245  0.47121508
   0.27828595  0.42497316  0.45673130
   0.28335199  0.57051676  0.47304589
   0.28458895  0.71437651  0.49020483
   0.28483566  0.85739389  0.49770289
   0.42781716  0.00046636  0.50281531
   0.42768769  0.14334961  0.50095566
   0.42595065  0.28303670  0.49082718
   0.42614724  0.71629787  0.49234532
   0.42763375  0.85752598  0.50068629
   0.57030697  0.00032306  0.51065590
   0.57031922  0.14315915  0.51107636
   0.57119863  0.28716101  0.51549120
   0.57107342  0.85741246  0.51432897
   0.71307208  0.99979065  0.51985453
   0.71314229  0.14296333  0.51605715
   0.71313971  0.28603224  0.52071094
   0.71302585  0.42789237  0.53720657
   0.72631049  0.57611731  0.57665748
   0.72454668  0.72066985  0.57090666
   0.71253356  0.85716471  0.53425235
   0.85611771 -0.00000485  0.52148065
   0.85566541  0.14265104  0.51570584
   0.85574744  0.28559088  0.51574209
   0.85646036  0.42866077  0.52187100
   0.85792728  0.57234763  0.53080773
   0.85996250  0.71600455  0.53847098
   0.85741433  0.85751660  0.53045254
   0.04609453  0.09489403  0.50499662
   0.04509024  0.23717518  0.50119249
   0.04534644  0.38039751  0.50086351
   0.04650386  0.52370868  0.50387963
   0.04708608  0.66683685  0.50745083
   0.04732289  0.80986323  0.51001423
   0.04680049  0.95245758  0.50805580
   0.18903253  0.09484980  0.49437478
   0.18750681  0.23698031  0.48683296
   0.18555589  0.37880542  0.47979985
   0.18807086  0.52296117  0.48601315
   0.18928934  0.66668724  0.49368157
   0.18977688  0.80973419  0.49917845
   0.18971653  0.95253371  0.49948198
   0.33249175  0.09563563  0.49602132
   0.33277984  0.23772103  0.48187307
   0.32020685  0.37324560  0.44621332
   0.32219953  0.51908619  0.45149015
   0.33314309  0.66755214  0.48343832
   0.33247858  0.80955244  0.49583016
   0.33241426  0.95258929  0.49932549
   0.47525910  0.09559855  0.50534644
   0.47460499  0.23871564  0.50279152
   0.47455787  0.80929866  0.50277776
   0.47526690  0.95284120  0.50501010
   0.61776285  0.09543437  0.51291187
   0.61795354  0.23854701  0.51625523
   0.61986878  0.38019534  0.52817533
   0.61949668  0.81279550  0.52571929
   0.61795582  0.95258780  0.51536881
   0.76066734  0.09526764  0.51743860
   0.76071082  0.23811661  0.51767850
   0.76122326  0.38106472  0.52734210
   0.76359318  0.52486465  0.54865679
   0.76799221  0.66988784  0.56469414
   0.76249997  0.81006901  0.54569007
   0.76090047  0.95245058  0.52589504
   0.90323515  0.09476936  0.51519445
   0.90309359  0.23780346  0.51261779
   0.90351791  0.38102960  0.51502378
   0.90438173  0.52420850  0.51999627
   0.90586059  0.66746522  0.52802879
   0.90548640  0.81041855  0.52773482
   0.90392352  0.95219996  0.52019902
   0.46236416  0.35549504  0.48897585
   0.58475661  0.41761300  0.52866966
   0.58318456  0.74049037  0.52707328
   0.46273699  0.68064932  0.49155478
   0.52248904  0.53042755  0.42588652
   0.56285704  0.56773732  0.51799061
   0.40366704  0.41380343  0.40945950
   0.41028081  0.56172459  0.42673001
   0.63819006  0.67742155  0.60136817
   0.64523810  0.53412540  0.61778934
   0.57402489  0.54502381  0.46295593
Direct configuration=     8
   0.99875241  0.99970847  0.51088607
   0.99823024  0.14233677  0.50760317
   0.99802232  0.28524520  0.50523504
   0.99853014  0.42841074  0.50688365
   0.99915995  0.57153307  0.51008819
   0.00023192  0.71475359  0.51451248
   0.99999958  0.85766265  0.51462797
   0.14186481  0.00012200  0.50032329
   0.14096210  0.14232595  0.49618476
   0.13962034  0.28428085  0.48913490
   0.13996875  0.42774958  0.48893123
   0.14140055  0.57107867  0.49489680
   0.14208668  0.71425519  0.49962998
   0.14227856  0.85738695  0.50238836
   0.28482300  0.00011132  0.49798439
   0.28436807  0.14256073  0.49013713
   0.28220314  0.28402298  0.47124404
   0.27828215  0.42497060  0.45677193
   0.28334865  0.57051586  0.47306220
   0.28458980  0.71437971  0.49021482
   0.28483702  0.85739438  0.49773942
   0.42781272  0.00046237  0.50286323
   0.42769223  0.14334711  0.50099759
   0.42595116  0.28303071  0.49086940
   0.42614698  0.71629779  0.49236388
   0.42763080  0.85751934  0.50072424
   0.57030403  0.00031853  0.51070146
   0.57032294  0.14316828  0.51112716
   0.57119816  0.28716214  0.51552809
   0.57107004  0.85740893  0.51437969
   0.71306662  0.99978882  0.51989603
   0.71314085  0.14296151  0.51608633
   0.71313919  0.28603353  0.52074804
   0.71302659  0.42789389  0.53724672
   0.72631592  0.57612457  0.57669902
   0.72454688  0.72067051  0.57095276
   0.71253121  0.85716795  0.53430668
   0.85611373 -0.00000540  0.52152645
   0.85566067  0.14264893  0.51572093
   0.85574127  0.28558746  0.51575304
   0.85645920  0.42866056  0.52190893
   0.85793514  0.57235018  0.53087860
   0.85997046  0.71601007  0.53853679
   0.85741264  0.85751821  0.53051858
   0.04609193  0.09489048  0.50501898
   0.04508601  0.23717054  0.50120010
   0.04534079  0.38039315  0.50086238
   0.04650214  0.52370703  0.50388854
   0.04708731  0.66683533  0.50749388
   0.04732560  0.80986628  0.51007363
   0.04680170  0.95245975  0.50810691
   0.18903321  0.09484764  0.49438679
   0.18749755  0.23696638  0.48683978
   0.18554252  0.37879436  0.47980278
   0.18806120  0.52295672  0.48601187
   0.18929037  0.66668848  0.49369155
   0.18977464  0.80973303  0.49921969
   0.18971702  0.95253678  0.49951372
   0.33249246  0.09563535  0.49604315
   0.33277490  0.23771635  0.48190598
   0.32019839  0.37323436  0.44628168
   0.32219964  0.51908735  0.45152999
   0.33314396  0.66755512  0.48344456
   0.33248206  0.80955582  0.49585633
   0.33241247  0.95258763  0.49936261
   0.47526162  0.09559700  0.50539727
   0.47460615  0.23871529  0.50283771
   0.47455517  0.80929395  0.50280891
   0.47526051  0.95283305  0.50506436
   0.61775899  0.09543001  0.51295763
   0.61795224  0.23854964  0.51630019
   0.61987221  0.38020067  0.52820272
   0.61949339  0.81278859  0.52578613
   0.61795248  0.95258375  0.51541819
   0.76066669  0.09526700  0.51745811
   0.76070647  0.23811017  0.51770170
   0.76122381  0.38106247  0.52738194
   0.76359876  0.52486835  0.54871400
   0.76799811  0.66989747  0.56474933
   0.76250073  0.81007637  0.54574972
   0.76090051  0.95244787  0.52593744
   0.90323385  0.09476178  0.51521977
   0.90309052  0.23780193  0.51263158
   0.90351463  0.38103005  0.51503920