  93  93   0   0
  0.4166543E+02  0.1727104E-08  0.1727104E-08  0.1500000E-08  0.0000000E+00
  1.000000000000000E-004
  CAR 
 unknown system                          
      5.73231444    -30.88468965  301     -2.88084365      1.00000000
    -30.885  0.0000E+00  0.0000E+00  0.0000E+00  0.0000E+00
    -30.763  0.0000E+00  0.0000E+00  0.0000E+00  0.0000E+00
    -30.641  0.0000E+00  0.0000E+00  0.0000E+00  0.0000E+00
    -30.519  0.0000E+00  0.0000E+00  0.0000E+00  0.0000E+00
    -30.396  0.0000E+00  0.0000E+00  0.0000E+00  0.0000E+00
    -30.274  0.0000E+00  0.0000E+00  0.0000E+00  0.0000E+00
    -30.152  0.0000E+00  0.0000E+00  0.0000E+00  0.0000E+00
    -30.030  0.0000E+00  0.0000E+00  0.0000E+00  0.0000E+00
    -29.908  0.0000E+00  0.0000E+00  0.0000E+00  0.0000E+00
    -29.786  0.0000E+00  0.0000E+00  0.0000E+00  0.0000E+00
    -29.664  0.0000E+00  0.0000E+00  0.0000E+00  0.0000E+00
    -29.542  0.0000E+00  0.0000E+00  0.0000E+00  0.0000E+00
    -29.420  0.7527E-10  0.7528E-10  0.9188E-11  0.9188E-11
    -29.298  0.1625E-03  0.1625E-03  0.1983E-04  0.1984E-04
    -29.176  0.1392E-01  0.1392E-01  0.1719E-02  0.1719E-02
    -29.054  0.2300E-02  0.2300E-02  0.2000E-02  0.2000E-02
    -28.932  0.5818E-07  0.5818E-07  0.2000E-02  0.2000E-02
    -28.810  0.1910E-16  0.1910E-16  0.2000E-02  0.2000E-02
    -28.688  0.0000E+00  0.0000E+00  0.2000E-02  0.2000E-02
    -28.566  0.0000E+00  0.0000E+00  0.2000E-02  0.2000E-02
    -28.444  0.0000E+00  0.0000E+00  0.2000E-02  0.2000E-02
    -28.321  0.0000E+00  0.0000E+00  0.2000E-02  0.2000E-02
    -28.199  0.0000E+00  0.0000E+00  0.2000E-02  0.2000E-02
    -28.077  0.0000E+00  0.0000E+00  0.2000E-02  0.2000E-02
    -27.955  0.0000E+00  0.0000E+00  0.2000E-02  0.2000E-02
    -27.833  0.0000E+00  0.0000E+00  0.2000E-02  0.2000E-02
    -27.711  0.0000E+00  0.0000E+00  0.2000E-02  0.2000E-02
    -27.589  0.0000E+00  0.0000E+00  0.2000E-02  0.2000E-02
    -27.467  0.0000E+00  0.0000E+00  0.2000E-02  0.2000E-02
    -27.345  0.0000E+00  0.0000E+00  0.2000E-02  0.2000E-02
    -27.223  0.0000E+00  0.0000E+00  0.2000E-02  0.2000E-02
    -27.101  0.0000E+00  0.0000E+00  0.2000E-02  0.2000E-02
    -26.979  0.0000E+00  0.0000E+00  0.2000E-02  0.2000E-02
    -26.857  0.0000E+00  0.0000E+00  0.2000E-02  0.2000E-02
    -26.735  0.0000E+00  0.0000E+00  0.2000E-02  0.2000E-02
    -26.613  0.0000E+00  0.0000E+00  0.2000E-02  0.2000E-02
    -26.491  0.0000E+00  0.0000E+00  0.2000E-02  0.2000E-02
    -26.369  0.0000E+00  0.0000E+00  0.2000E-02  0.2000E-02
    -26.247  0.0000E+00  0.0000E+00  0.2000E-02  0.2000E-02
    -26.124  0.0000E+00  0.0000E+00  0.2000E-02  0.2000E-02
    -26.002  0.0000E+00  0.0000E+00  0.2000E-02  0.2000E-02
    -25.880  0.0000E+00  0.0000E+00  0.2000E-02  0.2000E-02
    -25.758  0.0000E+00  0.0000E+00  0.2000E-02  0.2000E-02
    -25.636  0.0000E+00  0.0000E+00  0.2000E-02  0.2000E-02
    -25.514  0.0000E+00  0.0000E+00  0.2000E-02  0.2000E-02
    -25.392  0.0000E+00  0.0000E+00  0.2000E-02  0.2000E-02
    -25.270  0.0000E+00  0.0000E+00  0.2000E-02  0.2000E-02
    -25.148  0.0000E+00  0.0000E+00  0.2000E-02  0.2000E-02
    -25.026  0.0000E+00  0.0000E+00  0.2000E-02  0.2000E-02
    -24.904  0.0000E+00  0.0000E+00  0.2000E-02  0.2000E-02
    -24.782  0.0000E+00  0.0000E+00  0.2000E-02  0.2000E-02
    -24.660  0.0000E+00  0.0000E+00  0.2000E-02  0.2000E-02
    -24.538  0.0000E+00  0.0000E+00  0.2000E-02  0.2000E-02
    -24.416  0.0000E+00  0.0000E+00  0.2000E-02  0.2000E-02
    -24.294  0.0000E+00  0.0000E+00  0.2000E-02  0.2000E-02
    -24.172  0.0000E+00  0.0000E+00  0.2000E-02  0.2000E-02
    -24.050  0.0000E+00  0.0000E+00  0.2000E-02  0.2000E-02
    -23.927  0.0000E+00  0.0000E+00  0.2000E-02  0.2000E-02
    -23.805  0.0000E+00  0.0000E+00  0.2000E-02  0.2000E-02
    -23.683  0.0000E+00  0.0000E+00  0.2000E-02  0.2000E-02
    -23.561  0.0000E+00  0.0000E+00  0.2000E-02  0.2000E-02
    -23.439  0.0000E+00  0.0000E+00  0.2000E-02  0.2000E-02
    -23.317  0.0000E+00  0.0000E+00  0.2000E-02  0.2000E-02
    -23.195  0.0000E+00  0.0000E+00  0.2000E-02  0.2000E-02
    -23.073  0.0000E+00  0.0000E+00  0.2000E-02  0.2000E-02
    -22.951  0.3127E-16  0.3127E-16  0.2000E-02  0.2000E-02
    -22.829  0.4834E-07  0.4834E-07  0.2000E-02  0.2000E-02
    -22.707  0.1322E-02  0.1322E-02  0.2161E-02  0.2161E-02
    -22.585  0.1270E-01  0.1270E-01  0.3711E-02  0.3711E-02
    -22.463  0.3031E-02  0.3031E-02  0.4081E-02  0.4081E-02
    -22.341  0.1206E-01  0.1206E-01  0.5554E-02  0.5554E-02
    -22.219  0.3662E-02  0.3662E-02  0.6000E-02  0.6000E-02
    -22.097  0.1910E-02  0.1910E-02  0.6234E-02  0.6234E-02
    -21.975  0.9671E-02  0.9671E-02  0.7414E-02  0.7414E-02
    -21.852  0.1312E-01  0.1312E-01  0.9015E-02  0.9015E-02
    -21.730  0.8470E-02  0.8470E-02  0.1005E-01  0.1005E-01
    -21.608  0.5023E-02  0.5023E-02  0.1066E-01  0.1066E-01
    -21.486  0.6108E-02  0.6108E-02  0.1141E-01  0.1141E-01
    -21.364  0.6488E-02  0.6488E-02  0.1220E-01  0.1220E-01
    -21.242  0.5418E-02  0.5418E-02  0.1286E-01  0.1286E-01
    -21.120  0.1515E-02  0.1515E-02  0.1305E-01  0.1305E-01
    -20.998  0.7435E-02  0.7435E-02  0.1395E-01  0.1395E-01
    -20.876  0.7187E-02  0.7187E-02  0.1483E-01  0.1483E-01
    -20.754  0.4104E-02  0.4104E-02  0.1533E-01  0.1533E-01
    -20.632  0.7068E-02  0.7068E-02  0.1619E-01  0.1619E-01
    -20.510  0.6445E-02  0.6445E-02  0.1698E-01  0.1698E-01
    -20.388  0.6892E-02  0.6892E-02  0.1782E-01  0.1782E-01
    -20.266  0.6288E-02  0.6288E-02  0.1859E-01  0.1859E-01
    -20.144  0.5490E-02  0.5490E-02  0.1926E-01  0.1926E-01
    -20.022  0.6543E-02  0.6543E-02  0.2006E-01  0.2006E-01
    -19.900  0.3820E-02  0.3820E-02  0.2052E-01  0.2052E-01
    -19.778  0.7951E-02  0.7951E-02  0.2150E-01  0.2150E-01
    -19.655  0.1101E-01  0.1101E-01  0.2284E-01  0.2284E-01
    -19.533  0.7383E-02  0.7383E-02  0.2374E-01  0.2374E-01
    -19.411  0.3664E-02  0.3664E-02  0.2419E-01  0.2419E-01
    -19.289  0.6224E-02  0.6224E-02  0.2495E-01  0.2495E-01
    -19.167  0.4309E-02  0.4309E-02  0.2547E-01  0.2547E-01
    -19.045  0.4772E-02  0.4772E-02  0.2606E-01  0.2606E-01
    -18.923  0.5456E-02  0.5456E-02  0.2672E-01  0.2672E-01
    -18.801  0.1567E-01  0.1567E-01  0.2863E-01  0.2863E-01
    -18.679  0.7449E-02  0.7449E-02  0.2954E-01  0.2954E-01
    -18.557  0.6146E-02  0.6146E-02  0.3029E-01  0.3029E-01
    -18.435  0.5854E-02  0.5854E-02  0.3101E-01  0.3101E-01
    -18.313  0.5645E-02  0.5645E-02  0.3170E-01  0.3170E-01
    -18.191  0.7296E-02  0.7296E-02  0.3259E-01  0.3259E-01
    -18.069  0.5919E-02  0.5919E-02  0.3331E-01  0.3331E-01
    -17.947  0.5388E-02  0.5388E-02  0.3397E-01  0.3397E-01
    -17.825  0.7718E-02  0.7718E-02  0.3491E-01  0.3491E-01
    -17.703  0.1476E-01  0.1476E-01  0.3671E-01  0.3671E-01
    -17.581  0.1054E-01  0.1054E-01  0.3800E-01  0.3800E-01
    -17.458  0.4104E-02  0.4104E-02  0.3850E-01  0.3850E-01
    -17.336  0.7606E-02  0.7606E-02  0.3943E-01  0.3943E-01
    -17.214  0.8328E-02  0.8328E-02  0.4044E-01  0.4044E-01
    -17.092  0.6468E-02  0.6468E-02  0.4123E-01  0.4123E-01
    -16.970  0.5263E-02  0.5263E-02  0.4187E-01  0.4187E-01
    -16.848  0.4384E-02  0.4384E-02  0.4241E-01  0.4241E-01
    -16.726  0.1578E-01  0.1578E-01  0.4434E-01  0.4434E-01
    -16.604  0.9673E-02  0.9673E-02  0.4552E-01  0.4552E-01
    -16.482  0.3970E-02  0.3970E-02  0.4600E-01  0.4600E-01
    -16.360  0.1993E-02  0.1993E-02  0.4624E-01  0.4624E-01
    -16.238  0.2428E-03  0.2428E-03  0.4627E-01  0.4627E-01
    -16.116  0.1897E-02  0.1897E-02  0.4651E-01  0.4651E-01
    -15.994  0.5009E-02  0.5009E-02  0.4712E-01  0.4712E-01
    -15.872  0.6270E-02  0.6270E-02  0.4788E-01  0.4788E-01
    -15.750  0.7631E-02  0.7631E-02  0.4881E-01  0.4881E-01
    -15.628  0.2320E-02  0.2320E-02  0.4910E-01  0.4910E-01
    -15.506  0.7614E-02  0.7614E-02  0.5003E-01  0.5003E-01
    -15.383  0.1265E-01  0.1265E-01  0.5157E-01  0.5157E-01
    -15.261  0.9745E-02  0.9745E-02  0.5276E-01  0.5276E-01
    -15.139  0.7428E-02  0.7428E-02  0.5367E-01  0.5367E-01
    -15.017  0.7159E-02  0.7159E-02  0.5454E-01  0.5454E-01
    -14.895  0.9583E-02  0.9583E-02  0.5571E-01  0.5571E-01
    -14.773  0.7502E-02  0.7502E-02  0.5662E-01  0.5662E-01
    -14.651  0.1300E-01  0.1300E-01  0.5821E-01  0.5821E-01
    -14.529  0.9326E-02  0.9326E-02  0.5935E-01  0.5935E-01
    -14.407  0.6094E-02  0.6094E-02  0.6009E-01  0.6009E-01
    -14.285  0.5091E-02  0.5091E-02  0.6072E-01  0.6072E-01
    -14.163  0.2427E-02  0.2427E-02  0.6101E-01  0.6101E-01
    -14.041  0.6418E-02  0.6418E-02  0.6180E-01  0.6180E-01
    -13.919  0.8996E-02  0.8996E-02  0.6289E-01  0.6289E-01
    -13.797  0.1101E-01  0.1101E-01  0.6424E-01  0.6424E-01
    -13.675  0.9942E-02  0.9942E-02  0.6545E-01  0.6545E-01
    -13.553  0.6086E-02  0.6086E-02  0.6619E-01  0.6619E-01
    -13.431  0.2394E-02  0.2394E-02  0.6649E-01  0.6649E-01
    -13.309  0.2069E-02  0.2069E-02  0.6674E-01  0.6674E-01
    -13.186  0.6584E-02  0.6584E-02  0.6754E-01  0.6754E-01
    -13.064  0.6164E-02  0.6164E-02  0.6829E-01  0.6829E-01
    -12.942  0.7975E-02  0.7975E-02  0.6927E-01  0.6927E-01
    -12.820  0.1987E-01  0.1987E-01  0.7169E-01  0.7169E-01
    -12.698  0.4896E-02  0.4896E-02  0.7229E-01  0.7229E-01
    -12.576  0.9618E-02  0.9618E-02  0.7346E-01  0.7346E-01
    -12.454  0.8250E-02  0.8250E-02  0.7447E-01  0.7447E-01
    -12.332  0.7429E-02  0.7429E-02  0.7538E-01  0.7538E-01
    -12.210  0.3159E-02  0.3159E-02  0.7576E-01  0.7576E-01
    -12.088  0.7331E-02  0.7331E-02  0.7666E-01  0.7666E-01
    -11.966  0.6655E-02  0.6655E-02  0.7747E-01  0.7747E-01
    -11.844  0.1490E-01  0.1490E-01  0.7929E-01  0.7929E-01
    -11.722  0.9366E-02  0.9366E-02  0.8043E-01  0.8043E-01
    -11.600  0.1368E-01  0.1368E-01  0.8210E-01  0.8210E-01
    -11.478  0.8664E-02  0.8664E-02  0.8316E-01  0.8316E-01
    -11.356  0.1223E-01  0.1223E-01  0.8465E-01  0.8465E-01
    -11.234  0.1217E-01  0.1217E-01  0.8614E-01  0.8614E-01
    -11.112  0.9483E-02  0.9483E-02  0.8730E-01  0.8730E-01
    -10.989  0.5780E-02  0.5780E-02  0.8800E-01  0.8800E-01
    -10.867  0.3030E-02  0.3030E-02  0.8837E-01  0.8837E-01
    -10.745  0.4118E-02  0.4118E-02  0.8887E-01  0.8887E-01
    -10.623  0.1555E-01  0.1555E-01  0.9077E-01  0.9077E-01
    -10.501  0.1577E-01  0.1577E-01  0.9270E-01  0.9270E-01
    -10.379  0.1041E-01  0.1041E-01  0.9397E-01  0.9397E-01
    -10.257  0.1817E-01  0.1817E-01  0.9619E-01  0.9619E-01
    -10.135  0.1673E-01  0.1673E-01  0.9823E-01  0.9823E-01
    -10.013  0.1476E-01  0.1476E-01  0.1000E+00  0.1000E+00
     -9.891  0.2077E-01  0.2077E-01  0.1026E+00  0.1026E+00
     -9.769  0.2295E-01  0.2295E-01  0.1054E+00  0.1054E+00
     -9.647  0.1961E-01  0.1961E-01  0.1078E+00  0.1078E+00
     -9.525  0.2321E-01  0.2321E-01  0.1106E+00  0.1106E+00
     -9.403  0.2111E-01  0.2111E-01  0.1132E+00  0.1132E+00
     -9.281  0.1640E-01  0.1640E-01  0.1152E+00  0.1152E+00
     -9.159  0.2898E-01  0.2898E-01  0.1187E+00  0.1187E+00
     -9.037  0.1915E-01  0.1915E-01  0.1210E+00  0.1210E+00
     -8.914  0.2288E-01  0.2288E-01  0.1238E+00  0.1238E+00
     -8.792  0.1363E-01  0.1363E-01  0.1255E+00  0.1255E+00
     -8.670  0.1114E-01  0.1114E-01  0.1269E+00  0.1269E+00
     -8.548  0.2206E-01  0.2206E-01  0.1296E+00  0.1296E+00
     -8.426  0.2708E-01  0.2708E-01  0.1329E+00  0.1329E+00
     -8.304  0.1835E-01  0.1835E-01  0.1351E+00  0.1351E+00
     -8.182  0.1209E-01  0.1209E-01  0.1366E+00  0.1366E+00
     -8.060  0.9136E-02  0.9136E-02  0.1377E+00  0.1377E+00
     -7.938  0.1142E-01  0.1142E-01  0.1391E+00  0.1391E+00
     -7.816  0.9201E-02  0.9201E-02  0.1402E+00  0.1402E+00
     -7.694  0.1426E-01  0.1426E-01  0.1419E+00  0.1419E+00
     -7.572  0.1876E-01  0.1876E-01  0.1442E+00  0.1442E+00
     -7.450  0.2260E-01  0.2260E-01  0.1470E+00  0.1470E+00
     -7.328  0.1538E-01  0.1538E-01  0.1489E+00  0.1489E+00
     -7.206  0.1363E-01  0.1363E-01  0.1505E+00  0.1505E+00
     -7.084  0.1467E-01  0.1467E-01  0.1523E+00  0.1523E+00
     -6.962  0.7841E-02  0.7841E-02  0.1533E+00  0.1533E+00
     -6.840  0.9527E-02  0.9527E-02  0.1544E+00  0.1544E+00
     -6.717  0.1418E-01  0.1418E-01  0.1562E+00  0.1562E+00
     -6.595  0.1202E-01  0.1202E-01  0.1576E+00  0.1576E+00
     -6.473  0.2022E-01  0.2022E-01  0.1601E+00  0.1601E+00
     -6.351  0.1170E-01  0.1170E-01  0.1615E+00  0.1615E+00
     -6.229  0.1158E-01  0.1158E-01  0.1630E+00  0.1630E+00
     -6.107  0.1779E-01  0.1779E-01  0.1651E+00  0.1651E+00
     -5.985  0.6941E-02  0.6941E-02  0.1660E+00  0.1660E+00
     -5.863  0.8918E-02  0.8918E-02  0.1671E+00  0.1671E+00
     -5.741  0.6160E-02  0.6160E-02  0.1678E+00  0.1678E+00
     -5.619  0.3723E-02  0.3723E-02  0.1683E+00  0.1683E+00
     -5.497  0.6593E-02  0.6593E-02  0.1691E+00  0.1691E+00
     -5.375  0.9062E-02  0.9062E-02  0.1702E+00  0.1702E+00
     -5.253  0.1882E-01  0.1882E-01  0.1725E+00  0.1725E+00
     -5.131  0.1982E-01  0.1982E-01  0.1749E+00  0.1749E+00
     -5.009  0.1083E-01  0.1083E-01  0.1762E+00  0.1762E+00
     -4.887  0.3520E-03  0.3520E-03  0.1763E+00  0.1763E+00
     -4.765  0.2609E-02  0.2609E-02  0.1766E+00  0.1766E+00
     -4.643  0.1103E-01  0.1103E-01  0.1779E+00  0.1779E+00
     -4.520  0.1667E-01  0.1667E-01  0.1800E+00  0.1800E+00
     -4.398  0.1512E-01  0.1512E-01  0.1818E+00  0.1818E+00
     -4.276  0.2277E-01  0.2277E-01  0.1846E+00  0.1846E+00
     -4.154  0.1343E-01  0.1343E-01  0.1862E+00  0.1862E+00
     -4.032  0.6433E-02  0.6433E-02  0.1870E+00  0.1870E+00
     -3.910  0.4211E-02  0.4211E-02  0.1875E+00  0.1875E+00
     -3.788  0.6736E-02  0.6736E-02  0.1883E+00  0.1883E+00
     -3.666  0.4880E-02  0.4880E-02  0.1889E+00  0.1889E+00
     -3.544  0.2664E-02  0.2664E-02  0.1893E+00  0.1893E+00
     -3.422  0.1872E-02  0.1872E-02  0.1895E+00  0.1895E+00
     -3.300  0.6726E-04  0.6726E-04  0.1895E+00  0.1895E+00
     -3.178  0.4779E-05  0.4779E-05  0.1895E+00  0.1895E+00
     -3.056  0.2300E-02  0.2300E-02  0.1898E+00  0.1898E+00
     -2.934  0.1790E-02  0.1790E-02  0.1900E+00  0.1900E+00
     -2.812  0.8116E-05  0.8116E-05  0.1900E+00  0.1900E+00
     -2.690  0.2133E-02  0.2133E-02  0.1903E+00  0.1903E+00
     -2.568  0.1953E-02  0.1953E-02  0.1905E+00  0.1905E+00
     -2.445  0.4314E-05  0.4314E-05  0.1905E+00  0.1905E+00
     -2.323  0.4053E-03  0.4053E-03  0.1905E+00  0.1905E+00
     -2.201  0.3371E-02  0.3371E-02  0.1910E+00  0.1910E+00
     -2.079  0.1719E-02  0.1719E-02  0.1912E+00  0.1912E+00
     -1.957  0.6637E-02  0.6637E-02  0.1920E+00  0.1920E+00
     -1.835  0.1782E-03  0.1782E-03  0.1920E+00  0.1920E+00
     -1.713  0.3933E-02  0.3933E-02  0.1925E+00  0.1925E+00
     -1.591  0.6811E-02  0.6811E-02  0.1933E+00  0.1933E+00
     -1.469  0.1525E-02  0.1525E-02  0.1935E+00  0.1935E+00
     -1.347  0.7190E-03  0.7190E-03  0.1936E+00  0.1936E+00
     -1.225  0.1064E-01  0.1064E-01  0.1949E+00  0.1949E+00
     -1.103  0.1523E-01  0.1523E-01  0.1967E+00  0.1967E+00
     -0.981  0.7247E-02  0.7247E-02  0.1976E+00  0.1976E+00
     -0.859  0.8097E-02  0.8097E-02  0.1986E+00  0.1986E+00
     -0.737  0.1007E-01  0.1007E-01  0.1998E+00  0.1998E+00
     -0.615  0.3246E-02  0.3246E-02  0.2002E+00  0.2002E+00
     -0.493  0.7422E-02  0.7422E-02  0.2011E+00  0.2011E+00
     -0.371  0.9416E-02  0.9416E-02  0.2023E+00  0.2023E+00
     -0.248  0.1069E-01  0.1069E-01  0.2036E+00  0.2036E+00
     -0.126  0.1272E-01  0.1272E-01  0.2052E+00  0.2052E+00
     -0.004  0.5932E-02  0.5932E-02  0.2059E+00  0.2059E+00
      0.118  0.1344E-02  0.1344E-02  0.2060E+00  0.2060E+00
      0.240  0.4678E-02  0.4678E-02  0.2066E+00  0.2066E+00
      0.362  0.5411E-02  0.5410E-02  0.2073E+00  0.2073E+00
      0.484  0.8727E-02  0.8727E-02  0.2083E+00  0.2083E+00
      0.606  0.4984E-02  0.4984E-02  0.2089E+00  0.2089E+00
      0.728  0.4061E-02  0.4061E-02  0.2094E+00  0.2094E+00
      0.850  0.7345E-02  0.7345E-02  0.2103E+00  0.2103E+00
      0.972  0.9514E-02  0.9514E-02  0.2115E+00  0.2115E+00
      1.094  0.8369E-02  0.8369E-02  0.2125E+00  0.2125E+00
      1.216  0.1328E-01  0.1328E-01  0.2141E+00  0.2141E+00
      1.338  0.1722E-01  0.1722E-01  0.2162E+00  0.2162E+00
      1.460  0.1164E-01  0.1164E-01  0.2177E+00  0.2177E+00
      1.582  0.6520E-02  0.6520E-02  0.2185E+00  0.2185E+00
      1.704  0.6558E-02  0.6558E-02  0.2193E+00  0.2193E+00
      1.827  0.1018E-01  0.1018E-01  0.2205E+00  0.2205E+00
      1.949  0.2735E-01  0.2735E-01  0.2238E+00  0.2238E+00
      2.071  0.1340E-01  0.1340E-01  0.2255E+00  0.2255E+00
      2.193  0.7960E-02  0.7960E-02  0.2264E+00  0.2264E+00
      2.315  0.2034E-01  0.2034E-01  0.2289E+00  0.2289E+00
      2.437  0.1929E-01  0.1929E-01  0.2313E+00  0.2313E+00
      2.559  0.1740E-01  0.1740E-01  0.2334E+00  0.2334E+00
      2.681  0.6646E-02  0.6646E-02  0.2342E+00  0.2342E+00
      2.803  0.3196E-01  0.3196E-01  0.2381E+00  0.2381E+00
      2.925  0.4881E-01  0.4881E-01  0.2441E+00  0.2441E+00
      3.047  0.1653E-01  0.1653E-01  0.2461E+00  0.2461E+00
      3.169  0.7080E-02  0.7080E-02  0.2470E+00  0.2470E+00
      3.291  0.1548E-01  0.1548E-01  0.2489E+00  0.2489E+00
      3.413  0.2498E-01  0.2498E-01  0.2519E+00  0.2519E+00
      3.535  0.1625E-01  0.1625E-01  0.2539E+00  0.2539E+00
      3.657  0.1332E-01  0.1332E-01  0.2555E+00  0.2555E+00
      3.779  0.2478E-01  0.2478E-01  0.2585E+00  0.2585E+00
      3.901  0.3527E-01  0.3527E-01  0.2628E+00  0.2628E+00
      4.024  0.1507E-01  0.1507E-01  0.2647E+00  0.2647E+00
      4.146  0.2623E-02  0.2623E-02  0.2650E+00  0.2650E+00
      4.268  0.2872E-04  0.2872E-04  0.2650E+00  0.2650E+00
      4.390  0.1650E-10  0.1651E-10  0.2650E+00  0.2650E+00
      4.512  0.0000E+00  0.0000E+00  0.2650E+00  0.2650E+00
      4.634  0.0000E+00  0.0000E+00  0.2650E+00  0.2650E+00
      4.756  0.0000E+00  0.0000E+00  0.2650E+00  0.2650E+00
      4.878  0.0000E+00  0.0000E+00  0.2650E+00  0.2650E+00
      5.000  0.0000E+00  0.0000E+00  0.2650E+00  0.2650E+00
      5.122  0.0000E+00  0.0000E+00  0.2650E+00  0.2650E+00
      5.244  0.0000E+00  0.0000E+00  0.2650E+00  0.2650E+00
      5.366  0.0000E+00  0.0000E+00  0.2650E+00  0.2650E+00
      5.488  0.0000E+00  0.0000E+00  0.2650E+00  0.2650E+00
      5.610  0.0000E+00  0.0000E+00  0.2650E+00  0.2650E+00
      5.732  0.0000E+00  0.0000E+00  0.2650E+00  0.2650E+00
