       N       E                     dE             d eps       ncg     rms          rms(c)
DAV:   1     0.348473020612E+04    0.34847E+04   -0.14369E+05  4590   0.109E+03
DAV:   2    -0.185209050583E+03   -0.36699E+04   -0.34591E+04  6350   0.268E+02
DAV:   3    -0.840823668379E+03   -0.65561E+03   -0.65254E+03  5240   0.118E+02
DAV:   4    -0.863380286913E+03   -0.22557E+02   -0.22449E+02  5220   0.275E+01
DAV:   5    -0.864094276211E+03   -0.71399E+00   -0.71302E+00  6050   0.415E+00    0.513E+01
DAV:   6    -0.715505467583E+03    0.14859E+03   -0.16622E+02  4860   0.202E+01    0.281E+01
DAV:   7    -0.752347944758E+03   -0.36842E+02   -0.53647E+01  4755   0.116E+01    0.139E+01
DAV:   8    -0.784736031334E+03   -0.32388E+02   -0.22000E+01  4830   0.712E+00    0.685E+00
DAV:   9    -0.800165884962E+03   -0.15430E+02   -0.59962E+00  4625   0.354E+00    0.393E+00
DAV:  10    -0.812360831853E+03   -0.12195E+02   -0.44708E+00  4590   0.265E+00    0.223E+00
DAV:  11    -0.818886670546E+03   -0.65258E+01   -0.23184E+00  4640   0.173E+00    0.126E+00
DAV:  12    -0.821419896739E+03   -0.25332E+01   -0.82597E-01  4550   0.103E+00    0.722E-01
DAV:  13    -0.822749514307E+03   -0.13296E+01   -0.38568E-01  4700   0.700E-01    0.228E-01
DAV:  14    -0.822998101380E+03   -0.24859E+00   -0.50386E-02  4690   0.294E-01    0.115E-01
DAV:  15    -0.823015264411E+03   -0.17163E-01   -0.76018E-03  4805   0.124E-01    0.862E-02
DAV:  16    -0.823023403893E+03   -0.81395E-02   -0.20221E-03  4510   0.849E-02    0.562E-02
DAV:  17    -0.823036328851E+03   -0.12925E-01   -0.19947E-03  4625   0.695E-02    0.497E-02
DAV:  18    -0.823050760823E+03   -0.14432E-01   -0.99956E-04  4710   0.536E-02    0.323E-02
DAV:  19    -0.823057803866E+03   -0.70430E-02   -0.77947E-04  4660   0.350E-02    0.194E-02
DAV:  20    -0.823059313256E+03   -0.15094E-02   -0.96499E-05  4780   0.207E-02    0.110E-02
DAV:  21    -0.823060936344E+03   -0.16231E-02   -0.70545E-05  4540   0.134E-02    0.653E-03
DAV:  22    -0.823061316368E+03   -0.38002E-03   -0.10654E-05  4330   0.730E-03    0.372E-03
DAV:  23    -0.823061524939E+03   -0.20857E-03   -0.40352E-06  3910   0.471E-03    0.280E-03
DAV:  24    -0.823061622467E+03   -0.97528E-04   -0.28185E-06  3850   0.439E-03    0.155E-03
DAV:  25    -0.823061649364E+03   -0.26897E-04   -0.15063E-06  3560   0.280E-03    0.174E-03
DAV:  26    -0.823061660186E+03   -0.10822E-04   -0.49817E-07  3190   0.178E-03    0.123E-03
DAV:  27    -0.823061669044E+03   -0.88585E-05   -0.36374E-07  3150   0.136E-03    0.110E-03
DAV:  28    -0.823061673890E+03   -0.48458E-05   -0.16586E-07  2980   0.878E-04    0.106E-03
DAV:  29    -0.823061675944E+03   -0.20537E-05   -0.66041E-08  2870   0.543E-04    0.102E-03
DAV:  30    -0.823061676822E+03   -0.87787E-06   -0.28756E-08  2790   0.320E-04
   1 F= -.83055786E+03 E0= -.83055786E+03  d E =-.830558E+03  mag=    -0.0000
       N       E                     dE             d eps       ncg     rms          rms(c)
DAV:   1    -0.823061757458E+03   -0.81514E-04   -0.49877E-02  4390   0.447E-01    0.445E-02
DAV:   2    -0.823061836751E+03   -0.79293E-04   -0.10930E-03  4560   0.624E-02    0.300E-02
DAV:   3    -0.823061828205E+03    0.85462E-05   -0.45210E-05  4880   0.138E-02    0.161E-02
DAV:   4    -0.823061827858E+03    0.34719E-06   -0.91491E-06  4780   0.651E-03
   2 F= -.83055801E+03 E0= -.83055801E+03  d E =-.150770E-03  mag=    -0.0000
       N       E                     dE             d eps       ncg     rms          rms(c)
DAV:   1    -0.823061258349E+03    0.56986E-03   -0.16813E-01  4370   0.780E-01    0.791E-02
DAV:   2    -0.823061512814E+03   -0.25447E-03   -0.33289E-03  4420   0.105E-01    0.516E-02
DAV:   3    -0.823061491586E+03    0.21228E-04   -0.94788E-05  4900   0.207E-02    0.273E-02
DAV:   4    -0.823061494067E+03   -0.24804E-05   -0.34800E-05  4760   0.123E-02    0.584E-03
DAV:   5    -0.823061494734E+03   -0.66717E-06   -0.78779E-06  4400   0.550E-03
   3 F= -.83055767E+03 E0= -.83055767E+03  d E =0.337471E-03  mag=    -0.0000
       N       E                     dE             d eps       ncg     rms          rms(c)
DAV:   1    -0.823060878959E+03    0.61511E-03   -0.37793E-01  4410   0.114E+00    0.117E-01
DAV:   2    -0.823061447647E+03   -0.56869E-03   -0.73678E-03  4400   0.153E-01    0.760E-02
DAV:   3    -0.823061399490E+03    0.48157E-04   -0.18456E-04  4900   0.289E-02    0.408E-02
DAV:   4    -0.823061405214E+03   -0.57241E-05   -0.91412E-05  4850   0.190E-02    0.792E-03
DAV:   5    -0.823061406738E+03   -0.15238E-05   -0.22218E-05  4530   0.874E-03    0.386E-03
DAV:   6    -0.823061407299E+03   -0.56106E-06   -0.10575E-06  3310   0.196E-03
   4 F= -.83055758E+03 E0= -.83055758E+03  d E =0.991855E-04  mag=    -0.0000
       N       E                     dE             d eps       ncg     rms          rms(c)
DAV:   1    -0.823060143987E+03    0.12628E-02   -0.68958E-01  4360   0.154E+00    0.158E-01
DAV:   2    -0.823061183415E+03   -0.10394E-02   -0.13544E-02  4420   0.207E-01    0.103E-01
DAV:   3    -0.823061089921E+03    0.93494E-04   -0.35210E-04  4920   0.397E-02    0.558E-02
DAV:   4    -0.823061098223E+03   -0.83025E-05   -0.17122E-04  4840   0.258E-02    0.111E-02
DAV:   5    -0.823061101391E+03   -0.31683E-05   -0.40021E-05  4560   0.115E-02    0.530E-03
DAV:   6    -0.823061102471E+03   -0.10796E-05   -0.20375E-06  3410   0.271E-03    0.328E-03
DAV:   7    -0.823061103897E+03   -0.14255E-05   -0.64839E-07  3120   0.177E-03    0.154E-03
DAV:   8    -0.823061104873E+03   -0.97640E-06   -0.16655E-07  2840   0.916E-04
   5 F= -.83055725E+03 E0= -.83055725E+03  d E =0.325593E-03  mag=    -0.0000
       N       E                     dE             d eps       ncg     rms          rms(c)
DAV:   1    -0.823059322757E+03    0.17811E-02   -0.10350E+00  4370   0.188E+00    0.194E-01
DAV:   2    -0.823060861698E+03   -0.15389E-02   -0.20037E-02  4420   0.252E-01    0.126E-01
DAV:   3    -0.823060727654E+03    0.13404E-03   -0.50563E-04  4900   0.478E-02    0.674E-02
DAV:   4    -0.823060743381E+03   -0.15727E-04   -0.25255E-04  4820   0.315E-02    0.132E-02
DAV:   5    -0.823060747035E+03   -0.36534E-05   -0.63941E-05  4520   0.148E-02    0.621E-03
DAV:   6    -0.823060748190E+03   -0.11550E-05   -0.32911E-06  3700   0.357E-03    0.394E-03
DAV:   7    -0.823060750177E+03   -0.19877E-05   -0.13418E-06  3240   0.270E-03    0.177E-03
DAV:   8    -0.823060750981E+03   -0.80365E-06   -0.62845E-07  3160   0.196E-03
   6 F= -.83055687E+03 E0= -.83055687E+03  d E =0.383759E-03  mag=    -0.0000
       N       E                     dE             d eps       ncg     rms          rms(c)
DAV:   1    -0.823058421281E+03    0.23289E-02   -0.14701E+00  4345   0.226E+00    0.231E-01
DAV:   2    -0.823060605902E+03   -0.21846E-02   -0.28526E-02  4420   0.302E-01    0.151E-01
DAV:   3    -0.823060415382E+03    0.19052E-03   -0.74573E-04  4895   0.581E-02    0.802E-02
DAV:   4    -0.823060437241E+03   -0.21858E-04   -0.34468E-04  4820   0.375E-02    0.159E-02
DAV:   5    -0.823060442576E+03   -0.53351E-05   -0.89499E-05  4515   0.182E-02    0.730E-03
DAV:   6    -0.823060443461E+03   -0.88516E-06   -0.56221E-06  4360   0.512E-03
   7 F= -.83055653E+03 E0= -.83055653E+03  d E =0.338430E-03  mag=    -0.0000
       N       E                     dE             d eps       ncg     rms          rms(c)
DAV:   1    -0.823056301820E+03    0.41408E-02   -0.25302E+00  4340   0.296E+00    0.304E-01
DAV:   2    -0.823060111278E+03   -0.38095E-02   -0.49468E-02  4350   0.397E-01    0.197E-01
DAV:   3    -0.823059790622E+03    0.32066E-03   -0.12548E-03  4920   0.754E-02    0.105E-01
DAV:   4    -0.823059829544E+03   -0.38923E-04   -0.60994E-04  4820   0.501E-02    0.210E-02
DAV:   5    -0.823059840742E+03   -0.11198E-04   -0.17104E-04  4500   0.259E-02    0.964E-03
DAV:   6    -0.823059839120E+03    0.16225E-05   -0.14527E-05  4610   0.903E-03    0.620E-03
DAV:   7    -0.823059852009E+03   -0.12889E-04   -0.12520E-05  4090   0.886E-03    0.284E-03
DAV:   8    -0.823059846098E+03    0.59108E-05   -0.10798E-05  4080   0.818E-03    0.178E-03
DAV:   9    -0.823059848170E+03   -0.20716E-05   -0.22387E-06  3740   0.368E-03    0.121E-03
DAV:  10    -0.823059852298E+03   -0.41286E-05   -0.11615E-06  3310   0.242E-03    0.110E-03
DAV:  11    -0.823059856130E+03   -0.38318E-05   -0.25685E-07  3080   0.102E-03    0.998E-04
DAV:  12    -0.823059858254E+03   -0.21237E-05   -0.16524E-07  2930   0.838E-04    0.851E-04
DAV:  13    -0.823059859491E+03   -0.12372E-05   -0.97460E-08  2810   0.626E-04    0.829E-04
DAV:  14    -0.823059860626E+03   -0.11349E-05   -0.55128E-08  2840   0.400E-04    0.813E-04
DAV:  15    -0.823059860994E+03   -0.36759E-06   -0.15968E-08  2910   0.243E-04
   8 F= -.83055591E+03 E0= -.83055590E+03  d E =0.622721E-03  mag=    -0.0000
       N       E                     dE             d eps       ncg     rms          rms(c)
DAV:   1    -0.823052960846E+03    0.68998E-02   -0.43443E+00  4340   0.388E+00    0.397E-01
DAV:   2    -0.823059623316E+03   -0.66625E-02   -0.86137E-02  4400   0.522E-01    0.258E-01
DAV:   3    -0.823059054826E+03    0.56849E-03   -0.21498E-03  4860   0.981E-02    0.141E-01
DAV:   4    -0.823059106191E+03   -0.51365E-04   -0.11074E-03  4860   0.662E-02    0.286E-02
DAV:   5    -0.823059118896E+03   -0.12705E-04   -0.29485E-04  4540   0.311E-02    0.130E-02
DAV:   6    -0.823059121864E+03   -0.29674E-05   -0.14961E-05  4830   0.694E-03    0.837E-03
DAV:   7    -0.823059124598E+03   -0.27342E-05   -0.37554E-06  3360   0.400E-03    0.351E-03
DAV:   8    -0.823059126856E+03   -0.22577E-05   -0.58423E-07  3180   0.149E-03    0.198E-03
DAV:   9    -0.823059130060E+03   -0.32039E-05   -0.40102E-07  2940   0.144E-03    0.910E-04
DAV:  10    -0.823059133468E+03   -0.34084E-05   -0.30973E-07  3000   0.983E-04    0.112E-03
DAV:  11    -0.823059136210E+03   -0.27424E-05   -0.16501E-07  2820   0.913E-04    0.880E-04
DAV:  12    -0.823059138168E+03   -0.19577E-05   -0.26815E-07  3140   0.989E-04    0.743E-04
DAV:  13    -0.823059139574E+03   -0.14064E-05   -0.14211E-07  2860   0.788E-04    0.707E-04
DAV:  14    -0.823059140552E+03   -0.97795E-06   -0.47769E-08  2820   0.385E-04
   9 F= -.83055513E+03 E0= -.83055513E+03  d E =0.777841E-03  mag=    -0.0000
       N       E                     dE             d eps       ncg     rms          rms(c)
DAV:   1    -0.823048010056E+03    0.11130E-01   -0.70725E+00  4340   0.497E+00    0.507E-01
DAV:   2    -0.823058955893E+03   -0.10946E-01   -0.14108E-01  4400   0.670E-01    0.329E-01
DAV:   3    -0.823058036399E+03    0.91949E-03   -0.35037E-03  4880   0.126E-01    0.179E-01
DAV:   4    -0.823058121049E+03   -0.84650E-04   -0.17705E-03  4860   0.850E-02    0.368E-02
DAV:   5    -0.823058140101E+03   -0.19052E-04   -0.49005E-04  4520   0.405E-02    0.164E-02
DAV:   6    -0.823058144708E+03   -0.46068E-05   -0.25343E-05  4900   0.912E-03    0.107E-02
DAV:   7    -0.823058148691E+03   -0.39830E-05   -0.56409E-06  3820   0.530E-03    0.451E-03
DAV:   8    -0.823058152358E+03   -0.36666E-05   -0.93029E-07  3240   0.187E-03    0.257E-03
DAV:   9    -0.823058157513E+03   -0.51549E-05   -0.76510E-07  3170   0.212E-03    0.975E-04
DAV:  10    -0.823058162470E+03   -0.49576E-05   -0.56719E-07  3180   0.143E-03    0.134E-03
DAV:  11    -0.823058166151E+03   -0.36808E-05   -0.27151E-07  3140   0.123E-03    0.884E-04
DAV:  12    -0.823058169593E+03   -0.34425E-05   -0.50606E-07  3200   0.151E-03    0.645E-04
DAV:  13    -0.823058171438E+03   -0.18446E-05   -0.39550E-07  3080   0.141E-03    0.583E-04
DAV:  14    -0.823058172799E+03   -0.13613E-05   -0.71562E-08  2800   0.502E-04    0.534E-04
DAV:  15    -0.823058173455E+03   -0.65614E-06   -0.21979E-08  2860   0.251E-04
  10 F= -.83055408E+03 E0= -.83055408E+03  d E =0.104724E-02  mag=     0.0000
       N       E                     dE             d eps       ncg     rms          rms(c)
DAV:   1    -0.823039890371E+03    0.18282E-01   -0.11590E+01  4340   0.638E+00    0.651E-01
DAV:   2    -0.823058025987E+03   -0.18136E-01   -0.23309E-01  4380   0.862E-01    0.422E-01
DAV:   3    -0.823056497892E+03    0.15281E-02   -0.57972E-03  4880   0.162E-01    0.231E-01
DAV:   4    -0.823056617707E+03   -0.11982E-03   -0.29074E-03  4860   0.109E-01    0.482E-02
DAV:   5    -0.823056648860E+03   -0.31152E-04   -0.84241E-04  4520   0.528E-02    0.210E-02
DAV:   6    -0.823056655728E+03   -0.68683E-05   -0.40756E-05  4900   0.113E-02    0.140E-02
DAV:   7    -0.823056662463E+03   -0.67352E-05   -0.13277E-05  3940   0.714E-03    0.599E-03
DAV:   8    -0.823056667245E+03   -0.47816E-05   -0.14918E-06  3440   0.249E-03    0.343E-03
DAV:   9    -0.823056674874E+03   -0.76288E-05   -0.13960E-06  3440   0.253E-03    0.115E-03
DAV:  10    -0.823056681994E+03   -0.71210E-05   -0.54144E-07  3080   0.125E-03    0.143E-03
DAV:  11    -0.823056688152E+03   -0.61577E-05   -0.30356E-07  3040   0.107E-03    0.983E-04
DAV:  12    -0.823056693630E+03   -0.54782E-05   -0.45849E-07  3180   0.117E-03    0.649E-04
DAV:  13    -0.823056696404E+03   -0.27736E-05   -0.28976E-07  3140   0.114E-03    0.544E-04
DAV:  14    -0.823056697996E+03   -0.15917E-05   -0.84519E-08  2820   0.548E-04    0.462E-04
DAV:  15    -0.823056699135E+03   -0.11392E-05   -0.44218E-08  2790   0.362E-04    0.447E-04
DAV:  16    -0.823056699477E+03   -0.34184E-06   -0.16860E-08  2960   0.274E-04
  11 F= -.83055251E+03 E0= -.83055251E+03  d E =0.157358E-02  mag=     0.0000
       N       E                     dE             d eps       ncg     rms          rms(c)
DAV:   1    -0.823026340845E+03    0.30358E-01   -0.19215E+01  4340   0.819E+00    0.842E-01
DAV:   2    -0.823057049292E+03   -0.30708E-01   -0.39335E-01  4380   0.111E+00    0.545E-01
DAV:   3    -0.823054378956E+03    0.26703E-02   -0.97628E-03  4900   0.208E-01    0.303E-01
DAV:   4    -0.823054500061E+03   -0.12111E-03   -0.52904E-03  4760   0.143E-01    0.670E-02
DAV:   5    -0.823054553592E+03   -0.53531E-04   -0.15422E-03  4520   0.686E-02    0.280E-02
DAV:   6    -0.823054565623E+03   -0.12031E-04   -0.77797E-05  4880   0.150E-02    0.194E-02
DAV:   7    -0.823054576524E+03   -0.10901E-04   -0.30789E-05  4120   0.927E-03    0.813E-03
DAV:   8    -0.823054583721E+03   -0.71962E-05   -0.31188E-06  3520   0.329E-03    0.442E-03
DAV:   9    -0.823054595217E+03   -0.11496E-04   -0.24009E-06  3570   0.296E-03    0.144E-03
DAV:  10    -0.823054606581E+03   -0.11364E-04   -0.68880E-07  3180   0.136E-03    0.165E-03
DAV:  11    -0.823054617946E+03   -0.11365E-04   -0.56722E-07  3200   0.129E-03    0.119E-03
DAV:  12    -0.823054626871E+03   -0.89247E-05   -0.81064E-07  3300   0.143E-03    0.102E-03
DAV:  13    -0.823054630400E+03   -0.35293E-05   -0.47596E-07  3140   0.157E-03    0.727E-04
DAV:  14    -0.823054632321E+03   -0.19213E-05   -0.22328E-07  3020   0.981E-04    0.628E-04
DAV:  15    -0.823054633751E+03   -0.14293E-05   -0.57232E-08  2820   0.492E-04    0.607E-04
DAV:  16    -0.823054634439E+03   -0.68836E-06   -0.16938E-08  2860   0.233E-04
  12 F= -.83055035E+03 E0= -.83055035E+03  d E =0.216053E-02  mag=     0.0000
       N       E                     dE             d eps       ncg     rms          rms(c)
DAV:   1    -0.823005900654E+03    0.48733E-01   -0.29649E+01  4340   0.103E+01    0.105E+00
DAV:   2    -0.823053624591E+03   -0.47724E-01   -0.61140E-01  4370   0.140E+00    0.681E-01
DAV:   3    -0.823049446507E+03    0.41781E-02   -0.15773E-02  4880   0.266E-01    0.378E-01
DAV:   4    -0.823049582158E+03   -0.13565E-03   -0.76322E-03  4775   0.178E-01    0.853E-02
DAV:   5    -0.823049668231E+03   -0.86073E-04   -0.23445E-03  4500   0.866E-02    0.347E-02
DAV:   6    -0.823049683409E+03   -0.15178E-04   -0.11280E-04  4880   0.186E-02    0.236E-02
DAV:   7    -0.823049698197E+03   -0.14788E-04   -0.44252E-05  4160   0.124E-02    0.103E-02
DAV:   8    -0.823049707820E+03   -0.96228E-05   -0.51616E-06  3920   0.458E-03    0.545E-03
DAV:   9    -0.823049723124E+03   -0.15304E-04   -0.35776E-06  3860   0.373E-03    0.182E-03
DAV:  10    -0.823049738903E+03   -0.15779E-04   -0.98275E-07  3270   0.165E-03    0.188E-03
DAV:  11    -0.823049751960E+03   -0.13058E-04   -0.64818E-07  3240   0.128E-03    0.142E-03
DAV:  12    -0.823049766698E+03   -0.14738E-04   -0.12740E-06  3420   0.180E-03    0.122E-03
DAV:  13    -0.823049770869E+03   -0.41717E-05   -0.73782E-07  3200   0.194E-03    0.941E-04
DAV:  14    -0.823049773513E+03   -0.26437E-05   -0.32834E-07  3080   0.122E-03    0.858E-04
DAV:  15    -0.823049775502E+03   -0.19887E-05   -0.83172E-08  2860   0.575E-04    0.848E-04
DAV:  16    -0.823049776282E+03   -0.78002E-06   -0.15224E-08  2840   0.231E-04
  13 F= -.83054532E+03 E0= -.83054532E+03  d E =0.502566E-02  mag=     0.0000
       N       E                     dE             d eps       ncg     rms          rms(c)
DAV:   1    -0.822945371153E+03    0.10440E+00   -0.50071E+01  4340   0.133E+01    0.140E+00
DAV:   2    -0.823031089225E+03   -0.85718E-01   -0.11005E+00  4350   0.185E+00    0.909E-01
DAV:   3    -0.823022829138E+03    0.82601E-02   -0.29862E-02  4900   0.357E-01    0.529E-01
DAV:   4    -0.823022267335E+03    0.56180E-03   -0.17044E-02  4680   0.249E-01    0.138E-01
DAV:   5    -0.823022434779E+03   -0.16744E-03   -0.44529E-03  4560   0.115E-01    0.518E-02
DAV:   6    -0.823022473969E+03   -0.39190E-04   -0.35252E-04  4800   0.302E-02    0.360E-02
DAV:   7    -0.823022494762E+03   -0.20793E-04   -0.14261E-04  4580   0.195E-02    0.158E-02
DAV:   8    -0.823022511541E+03   -0.16778E-04   -0.14607E-05  4560   0.691E-03    0.785E-03
DAV:   9    -0.823022533839E+03   -0.22298E-04   -0.86676E-06  3940   0.507E-03    0.254E-03
DAV:  10    -0.823022560116E+03   -0.26277E-04   -0.14966E-06  3520   0.194E-03    0.210E-03
DAV:  11    -0.823022588473E+03   -0.28357E-04   -0.16457E-06  3680   0.156E-03    0.180E-03
DAV:  12    -0.823022609202E+03   -0.20729E-04   -0.16706E-06  3480   0.183E-03    0.153E-03
DAV:  13    -0.823022617985E+03   -0.87832E-05   -0.86698E-07  3300   0.196E-03    0.107E-03
DAV:  14    -0.823022622465E+03   -0.44800E-05   -0.55301E-07  3140   0.157E-03    0.898E-04
DAV:  15    -0.823022625318E+03   -0.28533E-05   -0.14838E-07  2940   0.804E-04    0.877E-04
DAV:  16    -0.823022627086E+03   -0.17680E-05   -0.46376E-08  2800   0.348E-04    0.859E-04
DAV:  17    -0.823022627846E+03   -0.75930E-06   -0.19820E-08  2860   0.267E-04
  14 F= -.83051802E+03 E0= -.83051802E+03  d E =0.273017E-01  mag=    -0.0000
       N       E                     dE             d eps       ncg     rms          rms(c)
DAV:   1    -0.823048937173E+03   -0.26310E-01   -0.15419E+00  4280   0.260E+00    0.287E-01
DAV:   2    -0.823051168283E+03   -0.22311E-02   -0.39879E-02  4880   0.389E-01    0.192E-01
DAV:   3    -0.823050644507E+03    0.52378E-03   -0.29536E-03  5220   0.106E-01    0.103E-01
DAV:   4    -0.823050559927E+03    0.84580E-04   -0.34787E-04  4620   0.361E-02    0.447E-02
DAV:   5    -0.823050550659E+03    0.92687E-05   -0.82649E-05  4480   0.213E-02    0.800E-03
DAV:   6    -0.823050550940E+03   -0.28118E-06   -0.21365E-05  4520   0.920E-03    0.583E-03
DAV:   7    -0.823050551552E+03   -0.61277E-06   -0.87329E-07  2840   0.211E-03
  15 F= -.83054597E+03 E0= -.83054597E+03  d E =-.279508E-01  mag=     0.0000
       N       E                     dE             d eps       ncg     rms          rms(c)
DAV:   1    -0.823025121838E+03    0.25429E-01   -0.16337E+00  4240   0.268E+00    0.275E-01
DAV:   2    -0.823027735762E+03   -0.26139E-02   -0.40962E-02  4780   0.392E-01    0.190E-01
DAV:   3    -0.823027287911E+03    0.44785E-03   -0.25627E-03  5460   0.100E-01    0.102E-01
DAV:   4    -0.823027218747E+03    0.69165E-04   -0.31974E-04  4620   0.368E-02    0.403E-02
DAV:   5    -0.823027219319E+03   -0.57229E-06   -0.57688E-05  4620   0.178E-02    0.761E-03
DAV:   6    -0.823027219813E+03   -0.49407E-06   -0.15806E-05  4560   0.791E-03    0.545E-03
DAV:   7    -0.823027220731E+03   -0.91804E-06   -0.75458E-07  2800   0.205E-03
  16 F= -.83052256E+03 E0= -.83052256E+03  d E =0.234074E-01  mag=    -0.0000
       N       E                     dE             d eps       ncg     rms          rms(c)
DAV:   1    -0.823037451795E+03   -0.10232E-01   -0.94043E-02  4260   0.634E-01    0.682E-02
DAV:   2    -0.823037592431E+03   -0.14064E-03   -0.23685E-03  4690   0.940E-02    0.460E-02
DAV:   3    -0.823037563771E+03    0.28660E-04   -0.15765E-04  4920   0.245E-02    0.251E-02
DAV:   4    -0.823037559563E+03    0.42082E-05   -0.20997E-05  4560   0.883E-03    0.102E-02
DAV:   5    -0.823037560025E+03   -0.46171E-06   -0.45962E-06  4220   0.494E-03
  17 F= -.83053293E+03 E0= -.83053293E+03  d E =-.103640E-01  mag=    -0.0000
       N       E                     dE             d eps       ncg     rms          rms(c)
DAV:   1    -0.823047892306E+03   -0.10333E-01   -0.29724E-01  4240   0.113E+00    0.120E-01
DAV:   2    -0.823048351904E+03   -0.45960E-03   -0.74812E-03  4880   0.167E-01    0.813E-02
DAV:   3    -0.823048261544E+03    0.90360E-04   -0.47771E-04  4900   0.427E-02    0.446E-02
DAV:   4    -0.823048246345E+03    0.15199E-04   -0.65808E-05  4520   0.158E-02    0.177E-02
DAV:   5    -0.823048246169E+03    0.17585E-06   -0.13724E-05  4500   0.844E-03    0.367E-03
DAV:   6    -0.823048246481E+03   -0.31231E-06   -0.36385E-06  3800   0.373E-03
  18 F= -.83054364E+03 E0= -.83054364E+03  d E =-.107152E-01  mag=    -0.0000
       N       E                     dE             d eps       ncg     rms          rms(c)
DAV:   1    -0.823048627305E+03   -0.38114E-03   -0.44519E-01  4240   0.137E+00    0.143E-01
DAV:   2    -0.823049343419E+03   -0.71611E-03   -0.11109E-02  4800   0.201E-01    0.977E-02
DAV:   3    -0.823049216505E+03    0.12691E-03   -0.64584E-04  5100   0.499E-02    0.542E-02
DAV:   4    -0.823049194254E+03    0.22251E-04   -0.98122E-05  4580   0.195E-02    0.204E-02
DAV:   5    -0.823049194868E+03   -0.61397E-06   -0.19249E-05  4540   0.974E-03    0.446E-03
DAV:   6    -0.823049195363E+03   -0.49514E-06   -0.47207E-06  3840   0.424E-03
  19 F= -.83054460E+03 E0= -.83054460E+03  d E =-.960159E-03  mag=    -0.0000
       N       E                     dE             d eps       ncg     rms          rms(c)
DAV:   1    -0.823049314681E+03   -0.11981E-03   -0.73628E-04  4440   0.548E-02    0.559E-03
DAV:   2    -0.823049316149E+03   -0.14681E-05   -0.16873E-05  4620   0.781E-03    0.386E-03
DAV:   3    -0.823049316375E+03   -0.22584E-06   -0.72722E-07  2780   0.191E-03
  20 F= -.83054472E+03 E0= -.83054472E+03  d E =-.121022E-03  mag=     0.0000
       N       E                     dE             d eps       ncg     rms          rms(c)
DAV:   1    -0.823049519060E+03   -0.20291E-03   -0.28660E-03  4440   0.108E-01    0.108E-02
DAV:   2    -0.823049523561E+03   -0.45009E-05   -0.60544E-05  4640   0.148E-02    0.735E-03
DAV:   3    -0.823049523264E+03    0.29730E-06   -0.24615E-06  3480   0.339E-03
  21 F= -.83054493E+03 E0= -.83054493E+03  d E =-.206835E-03  mag=    -0.0000
       N       E                     dE             d eps       ncg     rms          rms(c)
DAV:   1    -0.823049750861E+03   -0.22730E-03   -0.62453E-03  4320   0.159E-01    0.160E-02
DAV:   2    -0.823049760209E+03   -0.93476E-05   -0.12943E-04  4620   0.216E-02    0.107E-02
DAV:   3    -0.823049759267E+03    0.94187E-06   -0.54566E-06  4520   0.491E-03
  22 F= -.83054516E+03 E0= -.83054516E+03  d E =-.235799E-03  mag=     0.0000
       N       E                     dE             d eps       ncg     rms          rms(c)
DAV:   1    -0.823049942979E+03   -0.18277E-03   -0.10708E-02  4320   0.206E-01    0.209E-02
DAV:   2    -0.823049958571E+03   -0.15592E-04   -0.21799E-04  4560   0.280E-02    0.140E-02
DAV:   3    -0.823049956888E+03    0.16830E-05   -0.90017E-06  5110   0.632E-03    0.713E-03
DAV:   4    -0.823049957070E+03   -0.18179E-06   -0.18225E-06  3120   0.299E-03
  23 F= -.83054536E+03 E0= -.83054536E+03  d E =-.197290E-03  mag=     0.0000
       N       E                     dE             d eps       ncg     rms          rms(c)
DAV:   1    -0.823050037491E+03   -0.80603E-04   -0.16140E-02  4320   0.251E-01    0.244E-02
DAV:   2    -0.823050062104E+03   -0.24612E-04   -0.33365E-04  4440   0.344E-02    0.163E-02
DAV:   3    -0.823050059667E+03    0.24363E-05   -0.12152E-05  5040   0.734E-03    0.855E-03
DAV:   4    -0.823050059818E+03   -0.15083E-06   -0.27415E-06  3380   0.369E-03
  24 F= -.83054546E+03 E0= -.83054546E+03  d E =-.101943E-03  mag=     0.0000
       N       E                     dE             d eps       ncg     rms          rms(c)
DAV:   1    -0.823050017166E+03    0.42502E-04   -0.22235E-02  4320   0.292E-01    0.285E-02
DAV:   2    -0.823050050580E+03   -0.33415E-04   -0.44870E-04  4420   0.396E-02    0.188E-02
DAV:   3    -0.823050047436E+03    0.31446E-05   -0.15068E-05  5040   0.826E-03    0.983E-03
DAV:   4    -0.823050047736E+03   -0.30016E-06   -0.39848E-06  3840   0.441E-03
  25 F= -.83054545E+03 E0= -.83054545E+03  d E =0.132949E-04  mag=     0.0000
       N       E                     dE             d eps       ncg     rms          rms(c)
DAV:   1    -0.823049870576E+03    0.17686E-03   -0.36088E-02  4340   0.367E-01    0.360E-02
DAV:   2    -0.823049924188E+03   -0.53612E-04   -0.71321E-04  4370   0.495E-02    0.236E-02
DAV:   3    -0.823049919424E+03    0.47636E-05   -0.21664E-05  4980   0.100E-02    0.123E-02
DAV:   4    -0.823049920081E+03   -0.65714E-06   -0.69983E-06  4560   0.575E-03
  26 F= -.83054532E+03 E0= -.83054532E+03  d E =0.129403E-03  mag=     0.0000
       N       E                     dE             d eps       ncg     rms          rms(c)
DAV:   1    -0.823049633766E+03    0.28566E-03   -0.57612E-02  4340   0.459E-01    0.452E-02
DAV:   2    -0.823049718225E+03   -0.84459E-04   -0.11175E-03  4320   0.614E-02    0.294E-02
DAV:   3    -0.823049711029E+03    0.71962E-05   -0.31110E-05  4960   0.122E-02    0.153E-02
DAV:   4    -0.823049712431E+03   -0.14019E-05   -0.12049E-05  4720   0.753E-03    0.314E-03
DAV:   5    -0.823049713219E+03   -0.78897E-06   -0.38798E-06  3940   0.483E-03
  27 F= -.83054511E+03 E0= -.83054511E+03  d E =0.209431E-03  mag=    -0.0000
       N       E                     dE             d eps       ncg     rms          rms(c)
DAV:   1    -0.823049388838E+03    0.32359E-03   -0.91194E-02  4340   0.572E-01    0.565E-02
DAV:   2    -0.823049522789E+03   -0.13395E-03   -0.17638E-03  4400   0.764E-02    0.366E-02
DAV:   3    -0.823049511726E+03    0.11063E-04   -0.45351E-05  4940   0.147E-02    0.191E-02
DAV:   4    -0.823049513776E+03   -0.20500E-05   -0.19700E-05  4820   0.929E-03    0.366E-03
DAV:   5    -0.823049514669E+03   -0.89309E-06   -0.56953E-06  4440   0.532E-03
  28 F= -.83054491E+03 E0= -.83054491E+03  d E =0.201993E-03  mag=     0.0000
       N       E                     dE             d eps       ncg     rms          rms(c)
DAV:   1    -0.823049204986E+03    0.30879E-03   -0.14455E-01  4340   0.717E-01    0.711E-02
DAV:   2    -0.823049418067E+03   -0.21308E-03   -0.27981E-03  4400   0.958E-02    0.459E-02
DAV:   3    -0.823049400578E+03    0.17489E-04   -0.69896E-05  4940   0.181E-02    0.242E-02
DAV:   4    -0.823049403652E+03   -0.30732E-05   -0.32196E-05  4820   0.116E-02    0.455E-03
DAV:   5    -0.823049404662E+03   -0.10105E-05   -0.84922E-06  4500   0.596E-03    0.227E-03
DAV:   6    -0.823049404657E+03    0.47876E-08   -0.71664E-07  3220   0.225E-03
  29 F= -.83054480E+03 E0= -.83054480E+03  d E =0.114277E-03  mag=     0.0000
       N       E                     dE             d eps       ncg     rms          rms(c)
DAV:   1    -0.823049046017E+03    0.35865E-03   -0.22836E-01  4340   0.900E-01    0.891E-02
DAV:   2    -0.823049383457E+03   -0.33744E-03   -0.44480E-03  4390   0.121E-01    0.578E-02
DAV:   3    -0.823049355218E+03    0.28239E-04   -0.11232E-04  4920   0.231E-02    0.308E-02
DAV:   4    -0.823049360041E+03   -0.48231E-05   -0.53683E-05  4820   0.153E-02    0.582E-03
DAV:   5    -0.823049362328E+03   -0.22867E-05   -0.16390E-05  4480   0.934E-03    0.288E-03
DAV:   6    -0.823049360998E+03    0.13294E-05   -0.31906E-06  3890   0.485E-03    0.187E-03
DAV:   7    -0.823049363513E+03   -0.25145E-05   -0.30724E-06  3860   0.473E-03    0.119E-03
DAV:   8    -0.823049361514E+03    0.19989E-05   -0.18547E-06  3630   0.360E-03    0.892E-04
DAV:   9    -0.823049361759E+03   -0.24491E-06   -0.65271E-08  2880   0.670E-04
  30 F= -.83054475E+03 E0= -.83054475E+03  d E =0.483563E-04  mag=    -0.0000
       N       E                     dE             d eps       ncg     rms          rms(c)
DAV:   1    -0.823048731674E+03    0.62984E-03   -0.35526E-01  4340   0.112E+00    0.111E-01
DAV:   2    -0.823049257005E+03   -0.52533E-03   -0.69333E-03  4410   0.151E-01    0.725E-02
DAV:   3    -0.823049212071E+03    0.44933E-04   -0.17685E-04  4900   0.286E-02    0.387E-02
DAV:   4    -0.823049218133E+03   -0.60613E-05   -0.82176E-05  4800   0.182E-02    0.741E-03
DAV:   5    -0.823049219767E+03   -0.16339E-05   -0.19589E-05  4530   0.816E-03    0.353E-03
DAV:   6    -0.823049220150E+03   -0.38304E-06   -0.84900E-07  3280   0.175E-03
  31 F= -.83054460E+03 E0= -.83054460E+03  d E =0.148939E-03  mag=    -0.0000
       N       E                     dE             d eps       ncg     rms          rms(c)
DAV:   1    -0.823048115174E+03    0.11046E-02   -0.54191E-01  4340   0.139E+00    0.138E-01
DAV:   2    -0.823048914203E+03   -0.79903E-03   -0.10557E-02  4400   0.186E-01    0.895E-02
DAV:   3    -0.823048845327E+03    0.68877E-04   -0.26934E-04  4900   0.353E-02    0.476E-02
DAV:   4    -0.823048855137E+03   -0.98105E-05   -0.12585E-04  4800   0.226E-02    0.913E-03
DAV:   5    -0.823048857602E+03   -0.24646E-05   -0.29913E-05  4520   0.102E-02    0.433E-03
DAV:   6    -0.823048858304E+03   -0.70252E-06   -0.14201E-06  3300   0.234E-03
  32 F= -.83054423E+03 E0= -.83054423E+03  d E =0.371099E-03  mag=    -0.0000
       N       E                     dE             d eps       ncg     rms          rms(c)
DAV:   1    -0.823047269095E+03    0.15885E-02   -0.80850E-01  4360   0.169E+00    0.168E-01
DAV:   2    -0.823048454734E+03   -0.11856E-02   -0.15663E-02  4400   0.226E-01    0.109E-01
DAV:   3    -0.823048352701E+03    0.10203E-03   -0.39596E-04  4900   0.429E-02    0.577E-02
DAV:   4    -0.823048369194E+03   -0.16493E-04   -0.18706E-04  4780   0.277E-02    0.110E-02
DAV:   5    -0.823048372694E+03   -0.34995E-05   -0.46280E-05  4540   0.129E-02    0.519E-03
DAV:   6    -0.823048373588E+03   -0.89379E-06   -0.25492E-06  3560   0.340E-03
  33 F= -.83054373E+03 E0= -.83054373E+03  d E =0.496608E-03  mag=    -0.0000
       N       E                     dE             d eps       ncg     rms          rms(c)
DAV:   1    -0.823046360137E+03    0.20126E-02   -0.11901E+00  4360   0.206E+00    0.204E-01
DAV:   2    -0.823048093488E+03   -0.17334E-02   -0.22950E-02  4360   0.275E-01    0.132E-01
DAV:   3    -0.823047945335E+03    0.14815E-03   -0.58609E-04  4900   0.524E-02    0.696E-02
DAV:   4    -0.823047971891E+03   -0.26556E-04   -0.27206E-04  4760   0.338E-02    0.134E-02
DAV:   5    -0.823047977871E+03   -0.59801E-05   -0.71577E-05  4540   0.171E-02    0.624E-03
DAV:   6    -0.823047977462E+03    0.40884E-06   -0.60356E-06  4280   0.598E-03
  34 F= -.83054332E+03 E0= -.83054332E+03  d E =0.410337E-03  mag=    -0.0000
       N       E                     dE             d eps       ncg     rms          rms(c)
DAV:   1    -0.823045173214E+03    0.28047E-02   -0.17518E+00  4340   0.250E+00    0.248E-01
DAV:   2    -0.823047712959E+03   -0.25397E-02   -0.33730E-02  4360   0.334E-01    0.161E-01
DAV:   3    -0.823047492734E+03    0.22023E-03   -0.88424E-04  4900   0.647E-02    0.843E-02
DAV:   4    -0.823047532982E+03   -0.40248E-04   -0.40201E-04  4760   0.419E-02    0.165E-02
DAV:   5    -0.823047546800E+03   -0.13818E-04   -0.11981E-04  4500   0.245E-02    0.762E-03
DAV:   6    -0.823047538000E+03    0.87998E-05   -0.19747E-05  4500   0.116E-02    0.487E-03
DAV:   7    -0.823047553625E+03   -0.15625E-04   -0.17392E-05  4180   0.108E-02    0.259E-03
DAV:   8    -0.823047541990E+03    0.11635E-04   -0.13405E-05  4090   0.941E-03    0.154E-03
DAV:   9    -0.823047543148E+03   -0.11571E-05   -0.10552E-06  3400   0.262E-03    0.111E-03
DAV:  10    -0.823047547198E+03   -0.40507E-05   -0.55296E-07  3100   0.155E-03    0.105E-03
DAV:  11    -0.823047550047E+03   -0.28487E-05   -0.15198E-07  2840   0.885E-04    0.915E-04
DAV:  12    -0.823047551781E+03   -0.17338E-05   -0.15931E-07  2840   0.770E-04    0.822E-04
DAV:  13    -0.823047552457E+03   -0.67667E-06   -0.66129E-08  2860   0.544E-04
  35 F= -.83054288E+03 E0= -.83054288E+03  d E =0.444095E-03  mag=     0.0000
       N       E                     dE             d eps       ncg     rms          rms(c)
DAV:   1    -0.823043275006E+03    0.42768E-02   -0.25818E+00  4340   0.303E+00    0.301E-01
DAV:   2    -0.823047005884E+03   -0.37309E-02   -0.49562E-02  4380   0.404E-01    0.196E-01
DAV:   3    -0.823046674814E+03    0.33107E-03   -0.12983E-03  4900   0.778E-02    0.103E-01
DAV:   4    -0.823046725869E+03   -0.51055E-04   -0.59008E-04  4830   0.492E-02    0.203E-02
DAV:   5    -0.823046732954E+03   -0.70853E-05   -0.14973E-04  4540   0.231E-02    0.921E-03
DAV:   6    -0.823046734493E+03   -0.15388E-05   -0.75535E-06  4400   0.498E-03    0.599E-03
DAV:   7    -0.823046736098E+03   -0.16053E-05   -0.27527E-06  3260   0.307E-03    0.274E-03
DAV:   8    -0.823046737145E+03   -0.10462E-05   -0.33154E-07  3120   0.116E-03    0.172E-03
DAV:   9    -0.823046739197E+03   -0.20527E-05   -0.27269E-07  2920   0.108E-03    0.892E-04
DAV:  10    -0.823046741398E+03   -0.22006E-05   -0.21225E-07  2920   0.926E-04    0.993E-04
DAV:  11    -0.823046743443E+03   -0.20454E-05   -0.22698E-07  2900   0.103E-03    0.917E-04
DAV:  12    -0.823046744239E+03   -0.79604E-06   -0.19044E-07  2940   0.958E-04
  36 F= -.83054204E+03 E0= -.83054204E+03  d E =0.834978E-03  mag=     0.0000
       N       E                     dE             d eps       ncg     rms          rms(c)
DAV:   1    -0.823040774787E+03    0.59687E-02   -0.37715E+00  4360   0.365E+00    0.365E-01
DAV:   2    -0.823046224394E+03   -0.54496E-02   -0.72360E-02  4380   0.487E-01    0.237E-01
DAV:   3    -0.823045722711E+03    0.50168E-03   -0.18858E-03  4880   0.936E-02    0.125E-01
DAV:   4    -0.823045795186E+03   -0.72476E-04   -0.89454E-04  4860   0.598E-02    0.251E-02
DAV:   5    -0.823045805299E+03   -0.10113E-04   -0.22840E-04  4540   0.281E-02    0.113E-02
DAV:   6    -0.823045807722E+03   -0.24230E-05   -0.11586E-05  4540   0.602E-03    0.744E-03
DAV:   7    -0.823045810260E+03   -0.25380E-05   -0.47562E-06  3280   0.366E-03    0.337E-03
DAV:   8    -0.823045811737E+03   -0.14774E-05   -0.52695E-07  3200   0.139E-03    0.205E-03
DAV:   9    -0.823045814766E+03   -0.30286E-05   -0.39152E-07  2940   0.122E-03    0.955E-04
DAV:  10    -0.823045817887E+03   -0.31206E-05   -0.26439E-07  3020   0.954E-04    0.108E-03
DAV:  11    -0.823045820977E+03   -0.30901E-05   -0.26009E-07  3030   0.108E-03    0.973E-04
DAV:  12    -0.823045822325E+03   -0.13482E-05   -0.28056E-07  3000   0.119E-03    0.852E-04
DAV:  13    -0.823045823808E+03   -0.14833E-05   -0.15601E-07  2830   0.744E-04    0.847E-04
DAV:  14    -0.823045824359E+03   -0.55117E-06   -0.25444E-08  2880   0.237E-04
  37 F= -.83054109E+03 E0= -.83054109E+03  d E =0.954571E-03  mag=    -0.0000
       N       E                     dE             d eps       ncg     rms          rms(c)
DAV:   1    -0.823037425294E+03    0.83985E-02   -0.54827E+00  4360   0.440E+00    0.441E-01
DAV:   2    -0.823045341355E+03   -0.79161E-02   -0.10523E-01  4400   0.586E-01    0.287E-01
DAV:   3    -0.823044587275E+03    0.75408E-03   -0.27778E-03  4860   0.113E-01    0.152E-01
DAV:   4    -0.823044681213E+03   -0.93938E-04   -0.13400E-03  4860   0.728E-02    0.312E-02
DAV:   5    -0.823044695928E+03   -0.14715E-04   -0.34289E-04  4500   0.341E-02    0.139E-02
DAV:   6    -0.823044699352E+03   -0.34238E-05   -0.17774E-05  4840   0.735E-03    0.921E-03
DAV:   7    -0.823044702738E+03   -0.33858E-05   -0.73405E-06  3370   0.444E-03    0.413E-03
DAV:   8    -0.823044704761E+03   -0.20232E-05   -0.77159E-07  3220   0.166E-03    0.245E-03
DAV:   9    -0.823044708836E+03   -0.40754E-05   -0.62816E-07  3140   0.146E-03    0.104E-03
DAV:  10    -0.823044713052E+03   -0.42160E-05   -0.25296E-07  3000   0.876E-04    0.115E-03
DAV:  11    -0.823044716882E+03   -0.38299E-05   -0.20164E-07  2920   0.827E-04    0.105E-03
DAV:  12    -0.823044719435E+03   -0.25529E-05   -0.31685E-07  3060   0.118E-03    0.870E-04
DAV:  13    -0.823044721089E+03   -0.16536E-05   -0.20793E-07  2900   0.950E-04    0.880E-04
DAV:  14    -0.823044721826E+03   -0.73764E-06   -0.32187E-08  2860   0.295E-04
  38 F= -.83053994E+03 E0= -.83053994E+03  d E =0.114433E-02  mag=     0.0000
       N       E                     dE             d eps       ncg     rms          rms(c)
DAV:   1    -0.823033021587E+03    0.11700E-01   -0.78117E+00  4360   0.526E+00    0.527E-01
DAV:   2    -0.823044256323E+03   -0.11235E-01   -0.14947E-01  4400   0.699E-01    0.343E-01
DAV:   3    -0.823043170108E+03    0.10862E-02   -0.39865E-03  4860   0.136E-01    0.181E-01
DAV:   4    -0.823043295308E+03   -0.12520E-03   -0.19029E-03  4880   0.870E-02    0.377E-02
DAV:   5    -0.823043314516E+03   -0.19208E-04   -0.50311E-04  4520   0.413E-02    0.167E-02
DAV:   6    -0.823043319105E+03   -0.45897E-05   -0.26182E-05  4860   0.896E-03    0.112E-02
DAV:   7    -0.823043323649E+03   -0.45435E-05   -0.12274E-05  3650   0.556E-03    0.517E-03
DAV:   8    -0.823043326288E+03   -0.26389E-05   -0.11977E-06  3320   0.204E-03    0.306E-03
DAV:   9    -0.823043331877E+03   -0.55891E-05   -0.95781E-07  3140   0.179E-03    0.115E-03
DAV:  10    -0.823043337665E+03   -0.57882E-05   -0.39367E-07  3000   0.107E-03    0.134E-03
DAV:  11    -0.823043342560E+03   -0.48949E-05   -0.25277E-07  3140   0.901E-04    0.117E-03
DAV:  12    -0.823043346398E+03   -0.38377E-05   -0.44462E-07  3080   0.132E-03    0.907E-04
DAV:  13    -0.823043348495E+03   -0.20976E-05   -0.30839E-07  3060   0.113E-03    0.919E-04
DAV:  14    -0.823043349496E+03   -0.10010E-05   -0.46109E-08  2820   0.378E-04    0.850E-04
DAV:  15    -0.823043350433E+03   -0.93702E-06   -0.34971E-08  2780   0.263E-04
  39 F= -.83053852E+03 E0= -.83053852E+03  d E =0.142197E-02  mag=     0.0000
       N       E                     dE             d eps       ncg     rms          rms(c)
DAV:   1    -0.823027409104E+03    0.15940E-01   -0.11111E+01  4360   0.628E+00    0.631E-01
DAV:   2    -0.823043492714E+03   -0.16084E-01   -0.21379E-01  4420   0.836E-01    0.410E-01
DAV:   3    -0.823041943167E+03    0.15495E-02   -0.57338E-03  4860   0.163E-01    0.217E-01
DAV:   4    -0.823042097778E+03   -0.15461E-03   -0.27171E-03  4880   0.104E-01    0.461E-02
DAV:   5    -0.823042124117E+03   -0.26339E-04   -0.73276E-04  4540   0.500E-02    0.201E-02
DAV:   6    -0.823042130261E+03   -0.61441E-05   -0.39179E-05  4920   0.110E-02    0.136E-02
DAV:   7    -0.823042136120E+03   -0.58594E-05   -0.17616E-05  3930   0.696E-03    0.614E-03
DAV:   8    -0.823042139856E+03   -0.37356E-05   -0.16417E-06  3340   0.246E-03    0.364E-03
DAV:   9    -0.823042147331E+03   -0.74754E-05   -0.14164E-06  3320   0.222E-03    0.128E-03
DAV:  10    -0.823042154812E+03   -0.74810E-05   -0.49001E-07  3040   0.119E-03    0.147E-03
DAV:  11    -0.823042161294E+03   -0.64815E-05   -0.28875E-07  3060   0.922E-04    0.127E-03
DAV:  12    -0.823042167067E+03   -0.57736E-05   -0.50479E-07  3140   0.133E-03    0.942E-04
DAV:  13    -0.823042169615E+03   -0.25481E-05   -0.33634E-07  3100   0.130E-03    0.906E-04
DAV:  14    -0.823042170900E+03   -0.12851E-05   -0.73574E-08  2820   0.533E-04    0.838E-04
DAV:  15    -0.823042172217E+03   -0.13165E-05   -0.44818E-08  2780   0.325E-04    0.830E-04
DAV:  16    -0.823042172539E+03   -0.32262E-06   -0.90984E-09  2980   0.195E-04
  40 F= -.83053728E+03 E0= -.83053728E+03  d E =0.124275E-02  mag=    -0.0000
       N       E                     dE             d eps       ncg     rms          rms(c)
DAV:   1    -0.823018969937E+03    0.23202E-01   -0.15956E+01  4360   0.752E+00    0.759E-01
DAV:   2    -0.823042345737E+03   -0.23376E-01   -0.30999E-01  4400   0.100E+00    0.492E-01
DAV:   3    -0.823040095890E+03    0.22498E-02   -0.82291E-03  4880   0.195E-01    0.263E-01
DAV:   4    -0.823040272191E+03   -0.17630E-03   -0.40616E-03  4900   0.127E-01    0.575E-02
DAV:   5    -0.823040308208E+03   -0.36017E-04   -0.11179E-03  4520   0.610E-02    0.246E-02
DAV:   6    -0.823040317808E+03   -0.96005E-05   -0.61991E-05  4920   0.135E-02    0.171E-02
DAV:   7    -0.823040325419E+03   -0.76110E-05   -0.27102E-05  4030   0.861E-03    0.725E-03
DAV:   8    -0.823040330680E+03   -0.52613E-05   -0.24051E-06  3500   0.296E-03    0.429E-03
DAV:   9    -0.823040340981E+03   -0.10300E-04   -0.19198E-06  3360   0.259E-03    0.139E-03
DAV:  10    -0.823040350874E+03   -0.98929E-05   -0.61780E-07  3180   0.126E-03    0.155E-03
DAV:  11    -0.823040360273E+03   -0.93993E-05   -0.39792E-07  3160   0.953E-04    0.135E-03
DAV:  12    -0.823040368919E+03   -0.86461E-05   -0.63492E-07  3240   0.121E-03    0.959E-04
DAV:  13    -0.823040371840E+03   -0.29209E-05   -0.26057E-07  3050   0.111E-03    0.848E-04
DAV:  14    -0.823040373522E+03   -0.16824E-05   -0.10065E-07  2800   0.650E-04    0.773E-04
DAV:  15    -0.823040375115E+03   -0.15924E-05   -0.53992E-08  2860   0.389E-04    0.767E-04
DAV:  16    -0.823040375554E+03   -0.43953E-06   -0.10420E-08  2940   0.196E-04
  41 F= -.83053539E+03 E0= -.83053539E+03  d E =0.188308E-02  mag=    -0.0000
       N       E                     dE             d eps       ncg     rms          rms(c)
DAV:   1    -0.823006768972E+03    0.33606E-01   -0.22901E+01  4360   0.901E+00    0.912E-01
DAV:   2    -0.823040624329E+03   -0.33855E-01   -0.44832E-01  4370   0.120E+00    0.592E-01
DAV:   3    -0.823037299743E+03    0.33246E-02   -0.11986E-02  4880   0.235E-01    0.319E-01
DAV:   4    -0.823037480857E+03   -0.18111E-03   -0.60865E-03  4920   0.154E-01    0.725E-02
DAV:   5    -0.823037532860E+03   -0.52004E-04   -0.17157E-03  4500   0.748E-02    0.301E-02
DAV:   6    -0.823037547270E+03   -0.14409E-04   -0.95990E-05  4880   0.166E-02    0.213E-02
DAV:   7    -0.823037558277E+03   -0.11007E-04   -0.45638E-05  4070   0.108E-02    0.906E-03
DAV:   8    -0.823037565340E+03   -0.70634E-05   -0.41424E-06  3580   0.379E-03    0.515E-03
DAV:   9    -0.823037579449E+03   -0.14108E-04   -0.29710E-06  3500   0.311E-03    0.155E-03
DAV:  10    -0.823037593197E+03   -0.13748E-04   -0.79077E-07  3280   0.146E-03    0.160E-03
DAV:  11    -0.823037606396E+03   -0.13199E-04   -0.59246E-07  3200   0.108E-03    0.142E-03
DAV:  12    -0.823037618929E+03   -0.12533E-04   -0.99182E-07  3370   0.159E-03    0.990E-04
DAV:  13    -0.823037622570E+03   -0.36415E-05   -0.45104E-07  3100   0.146E-03    0.821E-04
DAV:  14    -0.823037625277E+03   -0.27062E-05   -0.16594E-07  2880   0.735E-04    0.675E-04
DAV:  15    -0.823037627278E+03   -0.20014E-05   -0.64637E-08  2860   0.420E-04    0.669E-04
DAV:  16    -0.823037627949E+03   -0.67055E-06   -0.14557E-08  2860   0.227E-04
  42 F= -.83053256E+03 E0= -.83053256E+03  d E =0.283313E-02  mag=    -0.0000
       N       E                     dE             d eps       ncg     rms          rms(c)
DAV:   1    -0.822989731746E+03    0.47896E-01   -0.32371E+01  4360   0.107E+01    0.109E+00
DAV:   2    -0.823037976852E+03   -0.48245E-01   -0.63884E-01  4370   0.144E+00    0.707E-01
DAV:   3    -0.823033216011E+03    0.47608E-02   -0.17297E-02  4920   0.282E-01    0.383E-01
DAV:   4    -0.823033424557E+03   -0.20855E-03   -0.86368E-03  4900   0.185E-01    0.892E-02
DAV:   5    -0.823033493081E+03   -0.68524E-04   -0.25154E-03  4500   0.904E-02    0.364E-02
DAV:   6    -0.823033511325E+03   -0.18244E-04   -0.14182E-04  4900   0.202E-02    0.257E-02
DAV:   7    -0.823033525416E+03   -0.14092E-04   -0.66893E-05  4110   0.130E-02    0.108E-02
DAV:   8    -0.823033535242E+03   -0.98257E-05   -0.63005E-06  3720   0.462E-03    0.599E-03
DAV:   9    -0.823033554120E+03   -0.18878E-04   -0.40870E-06  3760   0.360E-03    0.180E-03
DAV:  10    -0.823033573551E+03   -0.19431E-04   -0.11251E-06  3420   0.178E-03    0.186E-03
DAV:  11    -0.823033589466E+03   -0.15915E-04   -0.69690E-07  3160   0.123E-03    0.155E-03
DAV:  12    -0.823033607055E+03   -0.17589E-04   -0.14236E-06  3500   0.194E-03    0.115E-03
DAV:  13    -0.823033611816E+03   -0.47605E-05   -0.59688E-07  3160   0.176E-03    0.877E-04
DAV:  14    -0.823033615234E+03   -0.34180E-05   -0.22510E-07  2980   0.898E-04    0.690E-04
DAV:  15    -0.823033618228E+03   -0.29945E-05   -0.92648E-08  2900   0.546E-04    0.680E-04
DAV:  16    -0.823033619032E+03   -0.80343E-06   -0.19316E-08  2900   0.280E-04
  43 F= -.83052842E+03 E0= -.83052842E+03  d E =0.413668E-02  mag=     0.0000
       N       E                     dE             d eps       ncg     rms          rms(c)
DAV:   1    -0.822962350595E+03    0.71268E-01   -0.47141E+01  4360   0.129E+01    0.133E+00
DAV:   2    -0.823034836753E+03   -0.72486E-01   -0.95427E-01  4360   0.174E+00    0.857E-01
DAV:   3    -0.823027702366E+03    0.71344E-02   -0.25507E-02  4920   0.342E-01    0.474E-01
DAV:   4    -0.823027823116E+03   -0.12075E-03   -0.13582E-02  4760   0.230E-01    0.116E-01
DAV:   5    -0.823027922108E+03   -0.98993E-04   -0.39092E-03  4580   0.111E-01    0.446E-02
DAV:   6    -0.823027953887E+03   -0.31778E-04   -0.24320E-04  4800   0.262E-02    0.318E-02
DAV:   7    -0.823027970929E+03   -0.17043E-04   -0.85642E-05  4460   0.164E-02    0.119E-02
DAV:   8    -0.823027986830E+03   -0.15901E-04   -0.82940E-06  4420   0.545E-03    0.677E-03
DAV:   9    -0.823028013644E+03   -0.26814E-04   -0.50690E-06  3880   0.428E-03    0.225E-03
DAV:  10    -0.823028039448E+03   -0.25804E-04   -0.15152E-06  3480   0.206E-03    0.222E-03
DAV:  11    -0.823028062670E+03   -0.23222E-04   -0.11809E-06  3460   0.159E-03    0.184E-03
DAV:  12    -0.823028085710E+03   -0.23040E-04   -0.19850E-06  3780   0.243E-03    0.134E-03
DAV:  13    -0.823028093122E+03   -0.74118E-05   -0.10349E-06  3200   0.233E-03    0.109E-03
DAV:  14    -0.823028098227E+03   -0.51059E-05   -0.33072E-07  3130   0.109E-03    0.886E-04
DAV:  15    -0.823028102405E+03   -0.41775E-05   -0.12580E-07  2840   0.636E-04    0.882E-04
DAV:  16    -0.823028103886E+03   -0.14811E-05   -0.36941E-08  2850   0.368E-04    0.860E-04
DAV:  17    -0.823028104690E+03   -0.80438E-06   -0.21370E-08  2820   0.310E-04
  44 F= -.83052273E+03 E0= -.83052273E+03  d E =0.569888E-02  mag=     0.0000
       N       E                     dE             d eps       ncg     rms          rms(c)
DAV:   1    -0.822920130174E+03    0.10797E+00   -0.68988E+01  4360   0.157E+01    0.163E+00
DAV:   2    -0.823029055210E+03   -0.10893E+00   -0.14262E+00  4310   0.212E+00    0.104E+00
DAV:   3    -0.823018321115E+03    0.10734E-01   -0.38408E-02  4940   0.417E-01    0.584E-01
DAV:   4    -0.823018306525E+03    0.14590E-04   -0.20146E-02  4750   0.281E-01    0.147E-01
DAV:   5    -0.823018464797E+03   -0.15827E-03   -0.59924E-03  4580   0.138E-01    0.542E-02
DAV:   6    -0.823018505696E+03   -0.40900E-04   -0.36289E-04  4840   0.321E-02    0.392E-02
DAV:   7    -0.823018527762E+03   -0.22066E-04   -0.13612E-04  4510   0.210E-02    0.147E-02
DAV:   8    -0.823018549107E+03   -0.21345E-04   -0.14060E-05  4620   0.709E-03    0.816E-03
DAV:   9    -0.823018584630E+03   -0.35524E-04   -0.76011E-06  3960   0.532E-03    0.278E-03
DAV:  10    -0.823018619581E+03   -0.34951E-04   -0.20629E-06  3740   0.235E-03    0.262E-03
DAV:  11    -0.823018651484E+03   -0.31903E-04   -0.15802E-06  3800   0.171E-03    0.210E-03
DAV:  12    -0.823018685473E+03   -0.33988E-04   -0.23634E-06  4000   0.184E-03    0.159E-03
DAV:  13    -0.823018695977E+03   -0.10504E-04   -0.46214E-07  3240   0.119E-03    0.114E-03
DAV:  14    -0.823018704335E+03   -0.83586E-05   -0.48614E-07  3120   0.141E-03    0.105E-03
DAV:  15    -0.823018707360E+03   -0.30249E-05   -0.24436E-07  3060   0.112E-03    0.104E-03
DAV:  16    -0.823018708948E+03   -0.15881E-05   -0.43008E-08  2840   0.465E-04    0.999E-04
DAV:  17    -0.823018710359E+03   -0.14110E-05   -0.34665E-08  2830   0.357E-04    0.100E-03
DAV:  18    -0.823018710628E+03   -0.26851E-06   -0.53879E-09  3020   0.203E-04
  45 F= -.83051316E+03 E0= -.83051316E+03  d E =0.956627E-02  mag=     0.0000
       N       E                     dE             d eps       ncg     rms          rms(c)
DAV:   1    -0.822840368712E+03    0.17834E+00   -0.10316E+02  4360   0.192E+01    0.203E+00
DAV:   2    -0.823012273012E+03   -0.17190E+00   -0.22367E+00  4320   0.263E+00    0.129E+00
DAV:   3    -0.822995610607E+03    0.16662E-01   -0.60932E-02  5060   0.520E-01    0.743E-01
DAV:   4    -0.822994933742E+03    0.67686E-03   -0.32919E-02  4690   0.358E-01    0.199E-01
DAV:   5    -0.822995203330E+03   -0.26959E-03   -0.91369E-03  4620   0.170E-01    0.684E-02
DAV:   6    -0.822995276249E+03   -0.72919E-04   -0.68733E-04  4820   0.443E-02    0.492E-02
DAV:   7    -0.822995299349E+03   -0.23099E-04   -0.19141E-04  4540   0.274E-02    0.172E-02
DAV:   8    -0.822995333883E+03   -0.34534E-04   -0.22185E-05  4700   0.881E-03    0.965E-03
DAV:   9    -0.822995382589E+03   -0.48706E-04   -0.10620E-05  4000   0.680E-03    0.338E-03
DAV:  10    -0.822995429186E+03   -0.46597E-04   -0.30529E-06  4090   0.295E-03    0.309E-03
DAV:  11    -0.822995474480E+03   -0.45294E-04   -0.23896E-06  3840   0.217E-03    0.216E-03
DAV:  12    -0.822995521583E+03   -0.47103E-04   -0.33012E-06  4000   0.202E-03    0.157E-03
DAV:  13    -0.822995539754E+03   -0.18171E-04   -0.81161E-07  3360   0.136E-03    0.840E-04
DAV:  14    -0.822995549506E+03   -0.97526E-05   -0.49521E-07  3080   0.140E-03    0.788E-04
DAV:  15    -0.822995553490E+03   -0.39830E-05   -0.21794E-07  3080   0.105E-03    0.742E-04
DAV:  16    -0.822995556157E+03   -0.26676E-05   -0.71511E-08  2870   0.553E-04    0.679E-04
DAV:  17    -0.822995557647E+03   -0.14903E-05   -0.35065E-08  2830   0.328E-04    0.678E-04
DAV:  18    -0.822995558074E+03   -0.42664E-06   -0.87756E-09  3000   0.213E-04
  46 F= -.83048969E+03 E0= -.83048969E+03  d E =0.234663E-01  mag=     0.0000
       N       E                     dE             d eps       ncg     rms          rms(c)
DAV:   1    -0.822764978801E+03    0.23058E+00   -0.10994E+02  4360   0.201E+01    0.211E+00
DAV:   2    -0.822949581240E+03   -0.18460E+00   -0.24194E+00  4320   0.278E+00    0.135E+00
DAV:   3    -0.822930759591E+03    0.18822E-01   -0.71569E-02  5200   0.561E-01    0.779E-01
DAV:   4    -0.822929209091E+03    0.15505E-02   -0.31010E-02  4700   0.356E-01    0.204E-01
DAV:   5    -0.822929680125E+03   -0.47103E-03   -0.84486E-03  4620   0.166E-01    0.697E-02
DAV:   6    -0.822929739829E+03   -0.59704E-04   -0.58738E-04  4880   0.404E-02    0.484E-02
DAV:   7    -0.822929768819E+03   -0.28990E-04   -0.19935E-04  4520   0.268E-02    0.185E-02
DAV:   8    -0.822929799902E+03   -0.31083E-04   -0.26181E-05  4720   0.989E-03    0.944E-03
DAV:   9    -0.822929845945E+03   -0.46043E-04   -0.14674E-05  4100   0.726E-03    0.356E-03
DAV:  10    -0.822929893055E+03   -0.47110E-04   -0.26784E-06  3880   0.284E-03    0.237E-03
DAV:  11    -0.822929943610E+03   -0.50555E-04   -0.30045E-06  3880   0.208E-03    0.187E-03
DAV:  12    -0.822929988291E+03   -0.44681E-04   -0.28361E-06  4000   0.194E-03    0.138E-03
DAV:  13    -0.822930003612E+03   -0.15321E-04   -0.59717E-07  3280   0.129E-03    0.694E-04
DAV:  14    -0.822930014842E+03   -0.11230E-04   -0.56016E-07  3220   0.143E-03    0.579E-04
DAV:  15    -0.822930018687E+03   -0.38443E-05   -0.23111E-07  3060   0.108E-03    0.522E-04
DAV:  16    -0.822930021116E+03   -0.24294E-05   -0.55561E-08  2840   0.483E-04    0.422E-04
DAV:  17    -0.822930022877E+03   -0.17614E-05   -0.37775E-08  2850   0.331E-04    0.421E-04
DAV:  18    -0.822930023228E+03   -0.35102E-06   -0.60672E-09  3000   0.205E-04
  47 F= -.83042391E+03 E0= -.83042391E+03  d E =0.657784E-01  mag=    -0.0000
       N       E                     dE             d eps       ncg     rms          rms(c)
DAV:   1    -0.822993667400E+03   -0.63645E-01   -0.40757E+00  4320   0.422E+00    0.465E-01
DAV:   2    -0.822999419575E+03   -0.57522E-02   -0.10228E-01  4960   0.624E-01    0.310E-01
DAV:   3    -0.822997968063E+03    0.14515E-02   -0.73183E-03  5460   0.168E-01    0.160E-01
DAV:   4    -0.822997723165E+03    0.24490E-03   -0.90867E-04  4680   0.578E-02    0.646E-02
DAV:   5    -0.822997704882E+03    0.18283E-04   -0.18713E-04  4580   0.315E-02    0.130E-02
DAV:   6    -0.822997705040E+03   -0.15822E-06   -0.46273E-05  4660   0.137E-02    0.919E-03
DAV:   7    -0.822997706292E+03   -0.12522E-05   -0.23906E-06  3330   0.316E-03    0.383E-03
DAV:   8    -0.822997707283E+03   -0.99028E-06   -0.75317E-07  2860   0.202E-03
  48 F= -.83049164E+03 E0= -.83049164E+03  d E =-.677211E-01  mag=    -0.0000
       N       E                     dE             d eps       ncg     rms          rms(c)
DAV:   1    -0.822997734692E+03   -0.28400E-04   -0.23674E-02  4340   0.292E-01    0.291E-02
DAV:   2    -0.822997769187E+03   -0.34495E-04   -0.46454E-04  4540   0.388E-02    0.192E-02
DAV:   3    -0.822997766302E+03    0.28855E-05   -0.14812E-05  4900   0.816E-03    0.981E-03
DAV:   4    -0.822997767239E+03   -0.93760E-06   -0.49771E-06  4170   0.456E-03
  49 F= -.83049170E+03 E0= -.83049170E+03  d E =-.675689E-04  mag=    -0.0000
       N       E                     dE             d eps       ncg     rms          rms(c)
DAV:   1    -0.822997552494E+03    0.21381E-03   -0.92674E-02  4340   0.576E-01    0.578E-02
DAV:   2    -0.822997683237E+03   -0.13074E-03   -0.17956E-03  4460   0.762E-02    0.377E-02
DAV:   3    -0.822997670940E+03    0.12297E-04   -0.55609E-05  4940   0.159E-02    0.191E-02
DAV:   4    -0.822997672652E+03   -0.17115E-05   -0.19758E-05  4790   0.898E-03    0.392E-03
DAV:   5    -0.822997673127E+03   -0.47511E-06   -0.32832E-06  3540   0.357E-03
  50 F= -.83049162E+03 E0= -.83049162E+03  d E =0.794894E-04  mag=     0.0000
       N       E                     dE             d eps       ncg     rms          rms(c)
DAV:   1    -0.822996980770E+03    0.69188E-03   -0.20205E-01  4360   0.845E-01    0.848E-02
DAV:   2    -0.822997263839E+03   -0.28307E-03   -0.38864E-03  4400   0.111E-01    0.550E-02
DAV:   3    -0.822997236973E+03    0.26866E-04   -0.11462E-04  4980   0.229E-02    0.279E-02
DAV:   4    -0.822997241233E+03   -0.42605E-05   -0.43616E-05  4790   0.133E-02    0.551E-03
DAV:   5    -0.822997242244E+03   -0.10103E-05   -0.78853E-06  4530   0.543E-03    0.262E-03
DAV:   6    -0.822997242552E+03   -0.30893E-06   -0.43169E-07  3040   0.136E-03
  51 F= -.83049121E+03 E0= -.83049121E+03  d E =0.409732E-03  mag=     0.0000
       N       E                     dE             d eps       ncg     rms          rms(c)
DAV:   1    -0.822996057641E+03    0.11846E-02   -0.34871E-01  4360   0.110E+00    0.111E-01
DAV:   2    -0.822996540733E+03   -0.48309E-03   -0.66283E-03  4390   0.145E-01    0.718E-02
DAV:   3    -0.822996494821E+03    0.45911E-04   -0.18907E-04  4960   0.295E-02    0.362E-02
DAV:   4    -0.822996502706E+03   -0.78848E-05   -0.76434E-05  4750   0.175E-02    0.698E-03
DAV:   5    -0.822996504337E+03   -0.16310E-05   -0.14303E-05  4620   0.739E-03    0.337E-03
DAV:   6    -0.822996504927E+03   -0.58929E-06   -0.85531E-07  3100   0.196E-03
  52 F= -.83049050E+03 E0= -.83049050E+03  d E =0.710763E-03  mag=     0.0000
       N       E                     dE             d eps       ncg     rms          rms(c)
DAV:   1    -0.822995009164E+03    0.14952E-02   -0.53100E-01  4360   0.136E+00    0.137E-01
DAV:   2    -0.822995743033E+03   -0.73387E-03   -0.10033E-02  4390   0.178E-01    0.882E-02
DAV:   3    -0.822995674500E+03    0.68533E-04   -0.28060E-04  4980   0.360E-02    0.444E-02
DAV:   4    -0.822995686389E+03   -0.11889E-04   -0.11701E-04  4740   0.216E-02    0.853E-03
DAV:   5    -0.822995688545E+03   -0.21554E-05   -0.22647E-05  4610   0.939E-03    0.415E-03
DAV:   6    -0.822995689532E+03   -0.98706E-06   -0.14845E-06  3330   0.261E-03
  53 F= -.83048972E+03 E0= -.83048972E+03  d E =0.783052E-03  mag=     0.0000
       N       E                     dE             d eps       ncg     rms          rms(c)
DAV:   1    -0.822993924056E+03    0.17645E-02   -0.74920E-01  4360   0.162E+00    0.162E-01
DAV:   2    -0.822994961812E+03   -0.10378E-02   -0.14157E-02  4380   0.212E-01    0.105E-01
DAV:   3    -0.822994865663E+03    0.96149E-04   -0.39506E-04  4980   0.427E-02    0.528E-02
DAV:   4    -0.822994882359E+03   -0.16696E-04   -0.16508E-04  4730   0.257E-02    0.103E-02
DAV:   5    -0.822994885274E+03   -0.29150E-05   -0.32655E-05  4600   0.113E-02    0.495E-03
DAV:   6    -0.822994886866E+03   -0.15927E-05   -0.22508E-06  3520   0.321E-03    0.290E-03
DAV:   7    -0.822994887908E+03   -0.10412E-05   -0.50125E-07  3040   0.194E-03    0.170E-03
DAV:   8    -0.822994889365E+03   -0.14577E-05   -0.29483E-07  2860   0.131E-03    0.857E-04
DAV:   9    -0.822994890296E+03   -0.93030E-06   -0.53832E-08  2920   0.542E-04
  54 F= -.83048896E+03 E0= -.83048896E+03  d E =0.761639E-03  mag=     0.0000
       N       E                     dE             d eps       ncg     rms          rms(c)
DAV:   1    -0.822992216875E+03    0.26725E-02   -0.12463E+00  4360   0.209E+00    0.209E-01
DAV:   2    -0.822993943128E+03   -0.17263E-02   -0.23571E-02  4380   0.274E-01    0.135E-01
DAV:   3    -0.822993780982E+03    0.16215E-03   -0.66199E-04  4980   0.553E-02    0.685E-02
DAV:   4    -0.822993808018E+03   -0.27036E-04   -0.27615E-04  4760   0.332E-02    0.135E-02
DAV:   5    -0.822993812211E+03   -0.41932E-05   -0.55766E-05  4590   0.146E-02    0.621E-03
DAV:   6    -0.822993813520E+03   -0.13082E-05   -0.35225E-06  4000   0.346E-03    0.373E-03
DAV:   7    -0.822993814814E+03   -0.12939E-05   -0.86252E-07  3170   0.214E-03    0.158E-03
DAV:   8    -0.822993815839E+03   -0.10258E-05   -0.19958E-07  2880   0.997E-04    0.104E-03
DAV:   9    -0.822993817590E+03   -0.17502E-05   -0.17950E-07  2850   0.983E-04    0.662E-04
DAV:  10    -0.822993819106E+03   -0.15168E-05   -0.19923E-07  2880   0.102E-03    0.728E-04
DAV:  11    -0.822993820437E+03   -0.13309E-05   -0.92853E-08  2820   0.594E-04    0.677E-04
DAV:  12    -0.822993821612E+03   -0.11749E-05   -0.60410E-08  2820   0.412E-04    0.589E-04
DAV:  13    -0.822993822231E+03   -0.61903E-06   -0.25426E-08  2850   0.308E-04
  55 F= -.83048794E+03 E0= -.83048794E+03  d E =0.102140E-02  mag=    -0.0000
       N       E                     dE             d eps       ncg     rms          rms(c)
DAV:   1    -0.822989525202E+03    0.42964E-02   -0.20220E+00  4360   0.266E+00    0.267E-01
DAV:   2    -0.822992328381E+03   -0.28032E-02   -0.38264E-02  4380   0.349E-01    0.173E-01
DAV:   3    -0.822992064872E+03    0.26351E-03   -0.10771E-03  4960   0.705E-02    0.873E-02
DAV:   4    -0.822992108258E+03   -0.43386E-04   -0.45137E-04  4770   0.425E-02    0.174E-02
DAV:   5    -0.822992113907E+03   -0.56489E-05   -0.92494E-05  4590   0.188E-02    0.793E-03
DAV:   6    -0.822992115329E+03   -0.14219E-05   -0.60453E-06  4400   0.445E-03    0.485E-03
DAV:   7    -0.822992116327E+03   -0.99856E-06   -0.14069E-06  3220   0.265E-03
  56 F= -.83048629E+03 E0= -.83048629E+03  d E =0.164804E-02  mag=    -0.0000
       N       E                     dE             d eps       ncg     rms          rms(c)
DAV:   1    -0.822985791810E+03    0.63235E-02   -0.32065E+00  4360   0.335E+00    0.336E-01
DAV:   2    -0.822990253838E+03   -0.44620E-02   -0.60817E-02  4380   0.439E-01    0.217E-01
DAV:   3    -0.822989831651E+03    0.42219E-03   -0.17082E-03  4980   0.887E-02    0.110E-01
DAV:   4    -0.822989898206E+03   -0.66555E-04   -0.72659E-04  4830   0.540E-02    0.222E-02
DAV:   5    -0.822989907278E+03   -0.90712E-05   -0.15036E-04  4550   0.240E-02    0.101E-02
DAV:   6    -0.822989910812E+03   -0.35344E-05   -0.10540E-05  4700   0.581E-03    0.630E-03
DAV:   7    -0.822989914164E+03   -0.33520E-05   -0.24746E-06  3310   0.353E-03    0.268E-03
DAV:   8    -0.822989917117E+03   -0.29528E-05   -0.45100E-07  3020   0.124E-03    0.174E-03
DAV:   9    -0.822989922009E+03   -0.48920E-05   -0.39250E-07  2930   0.132E-03    0.925E-04
DAV:  10    -0.822989926677E+03   -0.46679E-05   -0.26637E-07  3020   0.817E-04    0.113E-03
DAV:  11    -0.822989930399E+03   -0.37224E-05   -0.16484E-07  2820   0.810E-04    0.866E-04
DAV:  12    -0.822989932328E+03   -0.19292E-05   -0.16755E-07  2920   0.806E-04    0.741E-04
DAV:  13    -0.822989933844E+03   -0.15157E-05   -0.12234E-07  2830   0.673E-04    0.725E-04
DAV:  14    -0.822989934561E+03   -0.71712E-06   -0.30125E-08  2880   0.242E-04
  57 F= -.83048418E+03 E0= -.83048418E+03  d E =0.211251E-02  mag=    -0.0000
       N       E                     dE             d eps       ncg     rms          rms(c)
DAV:   1    -0.822980888005E+03    0.90458E-02   -0.49971E+00  4360   0.418E+00    0.420E-01
DAV:   2    -0.822987876442E+03   -0.69884E-02   -0.95136E-02  4380   0.548E-01    0.272E-01
DAV:   3    -0.822987205623E+03    0.67082E-03   -0.26868E-03  4940   0.111E-01    0.138E-01
DAV:   4    -0.822987306361E+03   -0.10074E-03   -0.11474E-03  4890   0.678E-02    0.283E-02
DAV:   5    -0.822987318102E+03   -0.11741E-04   -0.23783E-04  4540   0.301E-02    0.127E-02
DAV:   6    -0.822987321581E+03   -0.34784E-05   -0.17743E-05  4900   0.751E-03    0.808E-03
DAV:   7    -0.822987323473E+03   -0.18928E-05   -0.36593E-06  3520   0.442E-03    0.344E-03
DAV:   8    -0.822987325855E+03   -0.23812E-05   -0.73520E-07  3200   0.154E-03    0.218E-03
DAV:   9    -0.822987329656E+03   -0.38013E-05   -0.42707E-07  2910   0.158E-03    0.103E-03
DAV:  10    -0.822987333497E+03   -0.38414E-05   -0.32485E-07  2980   0.951E-04    0.127E-03
DAV:  11    -0.822987337067E+03   -0.35700E-05   -0.17728E-07  3000   0.892E-04    0.990E-04
DAV:  12    -0.822987339067E+03   -0.19994E-05   -0.16125E-07  2920   0.744E-04    0.848E-04
DAV:  13    -0.822987340919E+03   -0.18527E-05   -0.11798E-07  2810   0.604E-04    0.804E-04
DAV:  14    -0.822987342028E+03   -0.11088E-05   -0.48849E-08  2840   0.284E-04    0.798E-04
DAV:  15    -0.822987342523E+03   -0.49492E-06   -0.15619E-08  2880   0.217E-04
  58 F= -.83048167E+03 E0= -.83048167E+03  d E =0.251022E-02  mag=     0.0000
       N       E                     dE             d eps       ncg     rms          rms(c)
DAV:   1    -0.822973909067E+03    0.13433E-01   -0.76707E+00  4360   0.518E+00    0.523E-01
DAV:   2    -0.822984735004E+03   -0.10826E-01   -0.14703E-01  4350   0.679E-01    0.337E-01
DAV:   3    -0.822983685509E+03    0.10495E-02   -0.41453E-03  4980   0.137E-01    0.173E-01
DAV:   4    -0.822983825534E+03   -0.14003E-03   -0.17900E-03  4890   0.848E-02    0.358E-02
DAV:   5    -0.822983843294E+03   -0.17759E-04   -0.37105E-04  4540   0.375E-02    0.161E-02
DAV:   6    -0.822983848843E+03   -0.55488E-05   -0.30714E-05  4920   0.987E-03    0.103E-02
DAV:   7    -0.822983851262E+03   -0.24199E-05   -0.55290E-06  3880   0.561E-03    0.439E-03
DAV:   8    -0.822983855023E+03   -0.37601E-05   -0.13389E-06  3320   0.200E-03    0.274E-03
DAV:   9    -0.822983860583E+03   -0.55601E-05   -0.69586E-07  3090   0.211E-03    0.119E-03
DAV:  10    -0.822983865966E+03   -0.53835E-05   -0.44654E-07  3080   0.107E-03    0.153E-03
DAV:  11    -0.822983871061E+03   -0.50946E-05   -0.23398E-07  2980   0.104E-03    0.110E-03
DAV:  12    -0.822983874870E+03   -0.38094E-05   -0.22278E-07  2990   0.774E-04    0.931E-04
DAV:  13    -0.822983877068E+03   -0.21978E-05   -0.15587E-07  2920   0.801E-04    0.899E-04
DAV:  14    -0.822983878298E+03   -0.12300E-05   -0.66950E-08  2840   0.438E-04    0.885E-04
DAV:  15    -0.822983879043E+03   -0.74497E-06   -0.20870E-08  2840   0.234E-04
  59 F= -.83047829E+03 E0= -.83047829E+03  d E =0.337881E-02  mag=    -0.0000
       N       E                     dE             d eps       ncg     rms          rms(c)
DAV:   1    -0.822964315137E+03    0.19563E-01   -0.11530E+01  4360   0.634E+00    0.643E-01
DAV:   2    -0.822980710605E+03   -0.16395E-01   -0.22224E-01  4330   0.832E-01    0.413E-01
DAV:   3    -0.822979122349E+03    0.15883E-02   -0.62277E-03  4920   0.168E-01    0.213E-01
DAV:   4    -0.822979310946E+03   -0.18860E-03   -0.27389E-03  4880   0.105E-01    0.451E-02
DAV:   5    -0.822979336397E+03   -0.25451E-04   -0.58116E-04  4560   0.466E-02    0.201E-02
DAV:   6    -0.822979345130E+03   -0.87327E-05   -0.49937E-05  4860   0.123E-02    0.132E-02
DAV:   7    -0.822979348638E+03   -0.35082E-05   -0.10469E-05  4040   0.718E-03    0.536E-03
DAV:   8    -0.822979353718E+03   -0.50803E-05   -0.18961E-06  3420   0.239E-03    0.338E-03
DAV:   9    -0.822979361709E+03   -0.79911E-05   -0.10411E-06  3250   0.240E-03    0.139E-03
DAV:  10    -0.822979369019E+03   -0.73101E-05   -0.57034E-07  3140   0.122E-03    0.169E-03
DAV:  11    -0.822979376604E+03   -0.75850E-05   -0.36336E-07  3070   0.113E-03    0.129E-03
DAV:  12    -0.822979382042E+03   -0.54375E-05   -0.33016E-07  3070   0.984E-04    0.104E-03
DAV:  13    -0.822979384937E+03   -0.28951E-05   -0.21793E-07  3020   0.999E-04    0.993E-04
DAV:  14    -0.822979386803E+03   -0.18663E-05   -0.82508E-08  2840   0.505E-04    0.975E-04
DAV:  15    -0.822979387865E+03   -0.10622E-05   -0.26582E-08  2860   0.256E-04    0.967E-04
DAV:  16    -0.822979388372E+03   -0.50695E-06   -0.87692E-09  2870   0.173E-04
  60 F= -.83047388E+03 E0= -.83047388E+03  d E =0.441139E-02  mag=     0.0000
       N       E                     dE             d eps       ncg     rms          rms(c)
DAV:   1    -0.822951833315E+03    0.27555E-01   -0.17003E+01  4360   0.772E+00    0.782E-01
DAV:   2    -0.822976151363E+03   -0.24318E-01   -0.32920E-01  4330   0.101E+00    0.503E-01
DAV:   3    -0.822973760456E+03    0.23909E-02   -0.92739E-03  4940   0.205E-01    0.261E-01
DAV:   4    -0.822974011636E+03   -0.25118E-03   -0.40895E-03  4900   0.128E-01    0.567E-02
DAV:   5    -0.822974048909E+03   -0.37273E-04   -0.89679E-04  4520   0.575E-02    0.246E-02
DAV:   6    -0.822974061803E+03   -0.12894E-04   -0.77798E-05  4900   0.150E-02    0.165E-02
DAV:   7    -0.822974066595E+03   -0.47924E-05   -0.17552E-05  4160   0.878E-03    0.658E-03
DAV:   8    -0.822974073515E+03   -0.69201E-05   -0.27772E-06  3580   0.288E-03    0.410E-03
DAV:   9    -0.822974084565E+03   -0.11050E-04   -0.15338E-06  3390   0.277E-03    0.159E-03
DAV:  10    -0.822974094824E+03   -0.10259E-04   -0.75736E-07  3260   0.138E-03    0.190E-03
DAV:  11    -0.822974105375E+03   -0.10550E-04   -0.49311E-07  3120   0.121E-03    0.147E-03
DAV:  12    -0.822974113516E+03   -0.81410E-05   -0.43249E-07  3140   0.934E-04    0.111E-03
DAV:  13    -0.822974117784E+03   -0.42683E-05   -0.23689E-07  3020   0.964E-04    0.106E-03
DAV:  14    -0.822974119684E+03   -0.18996E-05   -0.10700E-07  2880   0.668E-04    0.104E-03
DAV:  15    -0.822974121062E+03   -0.13781E-05   -0.37639E-08  2830   0.328E-04    0.103E-03
DAV:  16    -0.822974121739E+03   -0.67747E-06   -0.12803E-08  2860   0.214E-04
  61 F= -.83046868E+03 E0= -.83046868E+03  d E =0.519519E-02  mag=     0.0000
       N       E                     dE             d eps       ncg     rms          rms(c)
DAV:   1    -0.822935043302E+03    0.39078E-01   -0.24705E+01  4360   0.931E+00    0.946E-01
DAV:   2    -0.822971004654E+03   -0.35961E-01   -0.48454E-01  4330   0.123E+00    0.607E-01
DAV:   3    -0.822967472029E+03    0.35326E-02   -0.13631E-02  4960   0.248E-01    0.319E-01
DAV:   4    -0.822967776537E+03   -0.30451E-03   -0.61087E-03  4920   0.157E-01    0.712E-02
DAV:   5    -0.822967830493E+03   -0.53956E-04   -0.13787E-03  4560   0.711E-02    0.304E-02
DAV:   6    -0.822967850491E+03   -0.19999E-04   -0.12917E-04  4840   0.193E-02    0.207E-02
DAV:   7    -0.822967856117E+03   -0.56259E-05   -0.25839E-05  4260   0.109E-02    0.823E-03
DAV:   8    -0.822967866443E+03   -0.10326E-04   -0.48910E-06  3820   0.368E-03    0.510E-03
DAV:   9    -0.822967881522E+03   -0.15079E-04   -0.22909E-06  3730   0.364E-03    0.184E-03
DAV:  10    -0.822967895149E+03   -0.13627E-04   -0.11914E-06  3420   0.181E-03    0.234E-03
DAV:  11    -0.822967909812E+03   -0.14663E-04   -0.80601E-07  3200   0.176E-03    0.162E-03
DAV:  12    -0.822967920676E+03   -0.10864E-04   -0.61861E-07  3200   0.135E-03    0.120E-03
DAV:  13    -0.822967927490E+03   -0.68136E-05   -0.58006E-07  3060   0.163E-03    0.110E-03
DAV:  14    -0.822967930296E+03   -0.28064E-05   -0.26095E-07  3080   0.107E-03    0.107E-03
DAV:  15    -0.822967932230E+03   -0.19334E-05   -0.57670E-08  2880   0.478E-04    0.105E-03
DAV:  16    -0.822967933309E+03   -0.10796E-05   -0.24648E-08  2850   0.291E-04    0.104E-03
DAV:  17    -0.822967933703E+03   -0.39389E-06   -0.86745E-09  2920   0.220E-04
  62 F= -.83046256E+03 E0= -.83046256E+03  d E =0.612508E-02  mag=     0.0000
       N       E                     dE             d eps       ncg     rms          rms(c)
DAV:   1    -0.822968169924E+03   -0.23661E-03   -0.85965E-03  4510   0.160E-01    0.201E-02
DAV:   2    -0.822968186138E+03   -0.16214E-04   -0.19399E-04  4580   0.223E-02    0.124E-02
DAV:   3    -0.822968185055E+03    0.10833E-05   -0.42372E-06  3920   0.412E-03    0.722E-03
DAV:   4    -0.822968185180E+03   -0.12451E-06   -0.32364E-06  3590   0.336E-03
  63 F= -.83046280E+03 E0= -.83046280E+03  d E =-.245715E-03  mag=     0.0000
       N       E                     dE             d eps       ncg     rms          rms(c)
DAV:   1    -0.822968589794E+03   -0.40474E-03   -0.34171E-02  4360   0.319E-01    0.402E-02
DAV:   2    -0.822968653495E+03   -0.63701E-04   -0.76513E-04  4450   0.443E-02    0.247E-02
DAV:   3    -0.822968649399E+03    0.40961E-05   -0.16800E-05  4750   0.812E-03    0.142E-02
DAV:   4    -0.822968650057E+03   -0.65756E-06   -0.12120E-05  4110   0.640E-03    0.340E-03
DAV:   5    -0.822968650130E+03   -0.72949E-07   -0.25704E-06  3500   0.283E-03
  64 F= -.83046325E+03 E0= -.83046325E+03  d E =-.452968E-03  mag=    -0.0000
       N       E                     dE             d eps       ncg     rms          rms(c)
DAV:   1    -0.822969166237E+03   -0.51618E-03   -0.75859E-02  4380   0.474E-01    0.592E-02
DAV:   2    -0.822969308209E+03   -0.14197E-03   -0.16902E-03  4410   0.656E-02    0.366E-02
DAV:   3    -0.822969298868E+03    0.93409E-05   -0.35682E-05  4880   0.119E-02    0.211E-02
DAV:   4    -0.822969300401E+03   -0.15325E-05   -0.27211E-05  4610   0.942E-03    0.491E-03
DAV:   5    -0.822969300582E+03   -0.18161E-06   -0.59200E-06  3960   0.422E-03
  65 F= -.83046389E+03 E0= -.83046389E+03  d E =-.631766E-03  mag=    -0.0000
       N       E                     dE             d eps       ncg     rms          rms(c)
DAV:   1    -0.822969892340E+03   -0.59194E-03   -0.13392E-01  4380   0.628E-01    0.784E-02
DAV:   2    -0.822970142561E+03   -0.25022E-03   -0.29625E-03  4400   0.867E-02    0.487E-02
DAV:   3    -0.822970126369E+03    0.16192E-04   -0.61316E-05  4860   0.155E-02    0.280E-02
DAV:   4    -0.822970129294E+03   -0.29250E-05   -0.48066E-05  4610   0.124E-02    0.644E-03
DAV:   5    -0.822970129618E+03   -0.32402E-06   -0.10658E-05  4310   0.563E-03    0.386E-03
DAV:   6    -0.822970130046E+03   -0.42812E-06   -0.19199E-06  3390   0.226E-03
  66 F= -.83046469E+03 E0= -.83046469E+03  d E =-.803240E-03  mag=    -0.0000
       N       E                     dE             d eps       ncg     rms          rms(c)
DAV:   1    -0.822970789045E+03   -0.65943E-03   -0.20824E-01  4380   0.784E-01    0.975E-02
DAV:   2    -0.822971174265E+03   -0.38522E-03   -0.45624E-03  4400   0.108E-01    0.610E-02
DAV:   3    -0.822971148972E+03    0.25293E-04   -0.94330E-05  4790   0.192E-02    0.348E-02
DAV:   4    -0.822971153630E+03   -0.46578E-05   -0.73315E-05  4690   0.152E-02    0.776E-03
DAV:   5    -0.822971154184E+03   -0.55385E-06   -0.16476E-05  4490   0.698E-03    0.454E-03
DAV:   6    -0.822971154851E+03   -0.66762E-06   -0.25765E-06  3450   0.256E-03
  67 F= -.83046568E+03 E0= -.83046568E+03  d E =-.990083E-03  mag=    -0.0000
       N       E                     dE             d eps       ncg     rms          rms(c)
DAV:   1    -0.822971869467E+03   -0.71528E-03   -0.30060E-01  4380   0.942E-01    0.117E-01
DAV:   2    -0.822972425783E+03   -0.55632E-03   -0.65698E-03  4370   0.129E-01    0.734E-02
DAV:   3    -0.822972388886E+03    0.36897E-04   -0.13593E-04  4790   0.230E-02    0.418E-02
DAV:   4    -0.822972395790E+03   -0.69047E-05   -0.10504E-04  4690   0.181E-02    0.925E-03
DAV:   5    -0.822972396600E+03   -0.80998E-06   -0.24153E-05  4520   0.846E-03    0.512E-03
DAV:   6    -0.822972397578E+03   -0.97750E-06   -0.32214E-06  3540   0.278E-03
  68 F= -.83046688E+03 E0= -.83046688E+03  d E =-.119944E-02  mag=     0.0000
       N       E                     dE             d eps       ncg     rms          rms(c)
DAV:   1    -0.822972376246E+03    0.20354E-04   -0.67591E-04  4500   0.487E-02    0.480E-03
DAV:   2    -0.822972377655E+03   -0.14091E-05   -0.12430E-05  4500   0.634E-03    0.342E-03
DAV:   3    -0.822972378079E+03   -0.42418E-06   -0.35265E-07  2880   0.136E-03
  69 F= -.83046686E+03 E0= -.83046686E+03  d E =0.202404E-04  mag=    -0.0000
       N       E                     dE             d eps       ncg     rms          rms(c)
DAV:   1    -0.822972329711E+03    0.47944E-04   -0.27960E-03  4460   0.994E-02    0.102E-02
DAV:   2    -0.822972333818E+03   -0.41073E-05   -0.52231E-05  4500   0.129E-02    0.655E-03
DAV:   3    -0.822972333817E+03    0.80036E-09   -0.15187E-06  3380   0.272E-03
  70 F= -.83046681E+03 E0= -.83046681E+03  d E =0.455680E-04  mag=     0.0000
       N       E                     dE             d eps       ncg     rms          rms(c)
DAV:   1    -0.822972251525E+03    0.82293E-04   -0.65186E-03  4340   0.152E-01    0.156E-02
DAV:   2    -0.822972260385E+03   -0.88601E-05   -0.12098E-04  4480   0.195E-02    0.999E-03
DAV:   3    -0.822972259778E+03    0.60681E-06   -0.37125E-06  3980   0.413E-03
  71 F= -.83046674E+03 E0= -.83046674E+03  d E =0.756401E-04  mag=    -0.0000
       N       E                     dE             d eps       ncg     rms          rms(c)
DAV:   1    -0.822972137492E+03    0.12289E-03   -0.12043E-02  4320   0.206E-01    0.212E-02
DAV:   2    -0.822972153369E+03   -0.15877E-04   -0.22143E-04  4500   0.264E-02    0.135E-02
DAV:   3    -0.822972152015E+03    0.13541E-05   -0.69263E-06  4680   0.560E-03    0.667E-03
DAV:   4    -0.822972152441E+03   -0.42610E-06   -0.21894E-06  3190   0.308E-03
  72 F= -.83046663E+03 E0= -.83046663E+03  d E =0.108863E-03  mag=    -0.0000
       N       E                     dE             d eps       ncg     rms          rms(c)
DAV:   1    -0.822971980521E+03    0.17149E-03   -0.19850E-02  4400   0.264E-01    0.266E-02
DAV:   2    -0.822972007498E+03   -0.26977E-04   -0.37584E-04  4450   0.345E-02    0.170E-02
DAV:   3    -0.822972004926E+03    0.25725E-05   -0.11182E-05  4840   0.713E-03    0.853E-03
DAV:   4    -0.822972005437E+03   -0.51155E-06   -0.39359E-06  3930   0.405E-03
  73 F= -.83046648E+03 E0= -.83046648E+03  d E =0.147934E-03  mag=    -0.0000
       N       E                     dE             d eps       ncg     rms          rms(c)
DAV:   1    -0.822971777270E+03    0.22766E-03   -0.29911E-02  4360   0.324E-01    0.327E-02
DAV:   2    -0.822971817645E+03   -0.40375E-04   -0.56283E-04  4360   0.422E-02    0.209E-02
DAV:   3    -0.822971813780E+03    0.38651E-05   -0.16665E-05  4920   0.871E-03    0.104E-02
DAV:   4    -0.822971814624E+03   -0.84388E-06   -0.61598E-06  4570   0.497E-03
  74 F= -.83046629E+03 E0= -.83046629E+03  d E =0.190571E-03  mag=    -0.0000
       N       E                     dE             d eps       ncg     rms          rms(c)
DAV:   1    -0.822971475386E+03    0.33839E-03   -0.53421E-02  4360   0.433E-01    0.435E-02
DAV:   2    -0.822971547098E+03   -0.71712E-04   -0.99961E-04  4360   0.562E-02    0.279E-02
DAV:   3    -0.822971540175E+03    0.69227E-05   -0.29433E-05  4980   0.116E-02    0.138E-02
DAV:   4    -0.822971541694E+03   -0.15187E-05   -0.11165E-05  4800   0.665E-03    0.282E-03
DAV:   5    -0.822971542092E+03   -0.39761E-06   -0.18824E-06  3310   0.276E-03
  75 F= -.83046602E+03 E0= -.83046602E+03  d E =0.270079E-03  mag=     0.0000
       N       E                     dE             d eps       ncg     rms          rms(c)
DAV:   1    -0.822971053804E+03    0.48789E-03   -0.93790E-02  4360   0.573E-01    0.572E-02
DAV:   2    -0.822971179983E+03   -0.12618E-03   -0.17585E-03  4390   0.744E-02    0.368E-02
DAV:   3    -0.822971167463E+03    0.12520E-04   -0.51326E-05  4960   0.153E-02    0.183E-02
DAV:   4    -0.822971169950E+03   -0.24865E-05   -0.19851E-05  4800   0.887E-03    0.359E-03
DAV:   5    -0.822971170580E+03   -0.63064E-06   -0.35456E-06  3930   0.376E-03
  76 F= -.83046566E+03 E0= -.83046565E+03  d E =0.365527E-03  mag=    -0.0000
       N       E                     dE             d eps       ncg     rms          rms(c)
DAV:   1    -0.822970485049E+03    0.68490E-03   -0.15996E-01  4360   0.747E-01    0.746E-02
DAV:   2    -0.822970699605E+03   -0.21456E-03   -0.29872E-03  4390   0.968E-02    0.481E-02
DAV:   3    -0.822970678335E+03    0.21271E-04   -0.87193E-05  4960   0.200E-02    0.238E-02
DAV:   4    -0.822970682626E+03   -0.42920E-05   -0.33947E-05  4800   0.116E-02    0.464E-03
DAV:   5    -0.822970683575E+03   -0.94897E-06   -0.63006E-06  4450   0.499E-03
  77 F= -.83046518E+03 E0= -.83046518E+03  d E =0.476311E-03  mag=     0.0000
       N       E                     dE             d eps       ncg     rms          rms(c)
DAV:   1    -0.822969698930E+03    0.98370E-03   -0.26600E-01  4360   0.963E-01    0.962E-02
DAV:   2    -0.822970054876E+03   -0.35595E-03   -0.49520E-03  4390   0.125E-01    0.620E-02
DAV:   3    -0.822970019422E+03    0.35454E-04   -0.14495E-04  4980   0.258E-02    0.306E-02
DAV:   4    -0.822970026704E+03   -0.72819E-05   -0.56592E-05  4790   0.149E-02    0.599E-03
DAV:   5    -0.822970028103E+03   -0.13991E-05   -0.10731E-05  4600   0.651E-03    0.292E-03
DAV:   6    -0.822970028582E+03   -0.47874E-06   -0.73897E-07  3230   0.198E-03
  78 F= -.83046454E+03 E0= -.83046454E+03  d E =0.638214E-03  mag=     0.0000
       N       E                     dE             d eps       ncg     rms          rms(c)
DAV:   1    -0.822968657418E+03    0.13707E-02   -0.43350E-01  4360   0.123E+00    0.123E-01
DAV:   2    -0.822969233500E+03   -0.57608E-03   -0.80408E-03  4390   0.159E-01    0.793E-02
DAV:   3    -0.822969174670E+03    0.58829E-04   -0.23794E-04  4960   0.331E-02    0.390E-02
DAV:   4    -0.822969186548E+03   -0.11877E-04   -0.93151E-05  4780   0.193E-02    0.769E-03
DAV:   5    -0.822969188902E+03   -0.23544E-05   -0.18510E-05  4580   0.900E-03    0.367E-03
DAV:   6    -0.822969189167E+03   -0.26529E-06   -0.19839E-06  3470   0.354E-03
  79 F= -.83046373E+03 E0= -.83046373E+03  d E =0.815293E-03  mag=     0.0000
       N       E                     dE             d eps       ncg     rms          rms(c)
DAV:   1    -0.822967243098E+03    0.19458E-02   -0.69456E-01  4360   0.155E+00    0.155E-01
DAV:   2    -0.822968166548E+03   -0.92345E-03   -0.12873E-02  4390   0.201E-01    0.100E-01
DAV:   3    -0.822968072213E+03    0.94335E-04   -0.38285E-04  4980   0.420E-02    0.494E-02
DAV:   4    -0.822968091275E+03   -0.19063E-04   -0.15073E-04  4770   0.249E-02    0.985E-03
DAV:   5    -0.822968095753E+03   -0.44781E-05   -0.32833E-05  4580   0.127E-02    0.467E-03
[...]
       N       E                     dE             d eps       ncg     rms          rms(c)
DAV:   1    -0.823043359526E+03    0.37240E-03   -0.33816E-01  4340   0.114E+00    0.101E-01
DAV:   2    -0.823043721132E+03   -0.36161E-03   -0.56909E-03  4400   0.147E-01    0.709E-02
DAV:   3    -0.823043670538E+03    0.50595E-04   -0.21767E-04  4980   0.335E-02    0.297E-02
DAV:   4    -0.823043682647E+03   -0.12110E-04   -0.69209E-05  4650   0.161E-02    0.654E-03
DAV:   5    -0.823043687400E+03   -0.47526E-05   -0.12773E-05  4520   0.900E-03    0.228E-03
DAV:   6    -0.823043686363E+03    0.10371E-05   -0.77767E-06  4040   0.714E-03    0.145E-03
DAV:   7    -0.823043685190E+03    0.11728E-05   -0.33921E-06  3860   0.458E-03    0.115E-03
DAV:   8    -0.823043685165E+03    0.25102E-07   -0.60205E-07  3080   0.192E-03
 379 F= -.83053950E+03 E0= -.83053950E+03  d E =0.446356E-04  mag=     0.0000
       N       E                     dE             d eps       ncg     rms          rms(c)
DAV:   1    -0.823043097896E+03    0.58729E-03   -0.51152E-01  4340   0.140E+00    0.124E-01
DAV:   2    -0.823043645288E+03   -0.54739E-03   -0.86350E-03  4400   0.181E-01    0.880E-02
DAV:   3    -0.823043565210E+03    0.80078E-04   -0.33680E-04  4980   0.413E-02    0.369E-02
DAV:   4    -0.823043581784E+03   -0.16574E-04   -0.10301E-04  4650   0.187E-02    0.829E-03
DAV:   5    -0.823043584479E+03   -0.26959E-05   -0.99823E-06  4560   0.632E-03    0.275E-03
DAV:   6    -0.823043585083E+03   -0.60379E-06   -0.55897E-07  3020   0.189E-03
 380 F= -.83053940E+03 E0= -.83053940E+03  d E =0.966827E-04  mag=     0.0000
       N       E                     dE             d eps       ncg     rms          rms(c)
DAV:   1    -0.823042946351E+03    0.63813E-03   -0.72532E-01  4340   0.166E+00    0.148E-01
DAV:   2    -0.823043700558E+03   -0.75421E-03   -0.12024E-02  4400   0.214E-01    0.104E-01
DAV:   3    -0.823043587848E+03    0.11271E-03   -0.47761E-04  4980   0.493E-02    0.425E-02
DAV:   4    -0.823043612132E+03   -0.24284E-04   -0.14660E-04  4630   0.221E-02    0.959E-03
DAV:   5    -0.823043616236E+03   -0.41041E-05   -0.14454E-05  4600   0.811E-03    0.302E-03
DAV:   6    -0.823043617271E+03   -0.10344E-05   -0.24887E-06  3780   0.417E-03    0.163E-03
DAV:   7    -0.823043618655E+03   -0.13846E-05   -0.24780E-06  3740   0.394E-03    0.113E-03
DAV:   8    -0.823043618797E+03   -0.14126E-06   -0.17273E-06  3690   0.320E-03
 381 F= -.83053943E+03 E0= -.83053943E+03  d E =-.302264E-04  mag=     0.0000
       N       E                     dE             d eps       ncg     rms          rms(c)
DAV:   1    -0.823042550341E+03    0.10683E-02   -0.10741E+00  4340   0.203E+00    0.180E-01
DAV:   2    -0.823043674323E+03   -0.11240E-02   -0.17876E-02  4400   0.261E-01    0.127E-01
DAV:   3    -0.823043507063E+03    0.16726E-03   -0.71473E-04  4980   0.603E-02    0.519E-02
DAV:   4    -0.823043541680E+03   -0.34617E-04   -0.21458E-04  4650   0.266E-02    0.120E-02
DAV:   5    -0.823043546554E+03   -0.48738E-05   -0.19493E-05  4600   0.900E-03    0.362E-03
DAV:   6    -0.823043547725E+03   -0.11711E-05   -0.15703E-06  3360   0.324E-03    0.184E-03
DAV:   7    -0.823043549070E+03   -0.13447E-05   -0.11852E-06  3300   0.280E-03    0.111E-03
DAV:   8    -0.823043550360E+03   -0.12904E-05   -0.14641E-06  3590   0.298E-03    0.962E-04
DAV:   9    -0.823043551263E+03   -0.90212E-06   -0.83991E-07  3270   0.220E-03
 382 F= -.83053935E+03 E0= -.83053935E+03  d E =0.779649E-04  mag=    -0.0000
       N       E                     dE             d eps       ncg     rms          rms(c)
DAV:   1    -0.823042077956E+03    0.14724E-02   -0.15473E+00  4340   0.244E+00    0.216E-01
DAV:   2    -0.823043746099E+03   -0.16681E-02   -0.26094E-02  4380   0.316E-01    0.153E-01
DAV:   3    -0.823043501010E+03    0.24509E-03   -0.10132E-03  5040   0.717E-02    0.643E-02
DAV:   4    -0.823043547505E+03   -0.46495E-04   -0.31255E-04  4670   0.330E-02    0.143E-02
DAV:   5    -0.823043553566E+03   -0.60610E-05   -0.30545E-05  4540   0.112E-02    0.449E-03
DAV:   6    -0.823043554760E+03   -0.11942E-05   -0.17144E-06  3340   0.303E-03    0.234E-03
DAV:   7    -0.823043555976E+03   -0.12164E-05   -0.63606E-07  2980   0.209E-03    0.121E-03
DAV:   8    -0.823043557491E+03   -0.15142E-05   -0.67460E-07  3160   0.202E-03    0.962E-04
DAV:   9    -0.823043559019E+03   -0.15284E-05   -0.83993E-07  3320   0.219E-03    0.911E-04
DAV:  10    -0.823043560495E+03   -0.14758E-05   -0.61848E-07  3100   0.179E-03    0.915E-04
DAV:  11    -0.823043561671E+03   -0.11757E-05   -0.12572E-07  2940   0.747E-04    0.891E-04
DAV:  12    -0.823043562903E+03   -0.12326E-05   -0.48981E-08  2820   0.365E-04    0.871E-04
DAV:  13    -0.823043563243E+03   -0.33926E-06   -0.11692E-08  2860   0.299E-04
 383 F= -.83053937E+03 E0= -.83053937E+03  d E =-.167848E-04  mag=    -0.0000
       N       E                     dE             d eps       ncg     rms          rms(c)
DAV:   1    -0.823041564360E+03    0.19985E-02   -0.21847E+00  4340   0.289E+00    0.257E-01
DAV:   2    -0.823043883304E+03   -0.23189E-02   -0.36500E-02  4380   0.374E-01    0.182E-01
DAV:   3    -0.823043539776E+03    0.34353E-03   -0.14413E-03  5020   0.856E-02    0.752E-02
DAV:   4    -0.823043606140E+03   -0.66364E-04   -0.43738E-04  4690   0.387E-02    0.173E-02
DAV:   5    -0.823043613317E+03   -0.71766E-05   -0.40228E-05  4560   0.129E-02    0.530E-03
DAV:   6    -0.823043614321E+03   -0.10042E-05   -0.22065E-06  3440   0.317E-03    0.270E-03
DAV:   7    -0.823043615129E+03   -0.80800E-06   -0.53980E-07  2820   0.177E-03
 384 F= -.83053944E+03 E0= -.83053944E+03  d E =-.682282E-04  mag=     0.0000
       N       E                     dE             d eps       ncg     rms          rms(c)
DAV:   1    -0.823040541471E+03    0.30728E-02   -0.31771E+00  4340   0.349E+00    0.311E-01
DAV:   2    -0.823043838809E+03   -0.32973E-02   -0.52453E-02  4360   0.449E-01    0.220E-01
DAV:   3    -0.823043326810E+03    0.51200E-03   -0.21415E-03  5080   0.105E-01    0.885E-02
DAV:   4    -0.823043424109E+03   -0.97299E-04   -0.64309E-04  4640   0.459E-02    0.207E-02
DAV:   5    -0.823043435159E+03   -0.11050E-04   -0.54859E-05  4620   0.151E-02    0.629E-03
DAV:   6    -0.823043437772E+03   -0.26134E-05   -0.34789E-06  4120   0.416E-03    0.302E-03
DAV:   7    -0.823043440647E+03   -0.28743E-05   -0.12221E-06  3140   0.281E-03    0.141E-03
DAV:   8    -0.823043443901E+03   -0.32547E-05   -0.11551E-06  3460   0.267E-03    0.102E-03
DAV:   9    -0.823043447749E+03   -0.38482E-05   -0.15075E-06  3640   0.295E-03    0.928E-04
DAV:  10    -0.823043450784E+03   -0.30340E-05   -0.98716E-07  3340   0.230E-03    0.945E-04
DAV:  11    -0.823043453802E+03   -0.30186E-05   -0.24069E-07  2980   0.105E-03    0.859E-04
DAV:  12    -0.823043455891E+03   -0.20887E-05   -0.97796E-08  2840   0.502E-04    0.823E-04
DAV:  13    -0.823043456614E+03   -0.72314E-06   -0.34093E-08  2880   0.415E-04
 385 F= -.83053928E+03 E0= -.83053928E+03  d E =0.156587E-03  mag=    -0.0000
       N       E                     dE             d eps       ncg     rms          rms(c)
DAV:   1    -0.823043645939E+03   -0.19005E-03   -0.74492E-03  4420   0.179E-01    0.192E-02
DAV:   2    -0.823043658660E+03   -0.12720E-04   -0.18512E-04  4720   0.265E-02    0.127E-02
DAV:   3    -0.823043656755E+03    0.19044E-05   -0.10109E-05  4780   0.651E-03    0.703E-03
DAV:   4    -0.823043656413E+03    0.34244E-06   -0.15776E-06  2980   0.302E-03
 386 F= -.83053949E+03 E0= -.83053949E+03  d E =-.203921E-03  mag=    -0.0000
       N       E                     dE             d eps       ncg     rms          rms(c)
DAV:   1    -0.823043670144E+03   -0.13389E-04   -0.23428E-02  4280   0.301E-01    0.327E-02
DAV:   2    -0.823043710164E+03   -0.40020E-04   -0.53254E-04  4540   0.428E-02    0.213E-02
DAV:   3    -0.823043705727E+03    0.44368E-05   -0.20959E-05  4880   0.955E-03    0.120E-02
DAV:   4    -0.823043705148E+03    0.57932E-06   -0.58593E-06  4480   0.543E-03
 387 F= -.83053954E+03 E0= -.83053954E+03  d E =-.541585E-04  mag=    -0.0000
       N       E                     dE             d eps       ncg     rms          rms(c)
DAV:   1    -0.823043686907E+03    0.18820E-04   -0.50560E-02  4340   0.400E-01    0.464E-02
DAV:   2    -0.823043767416E+03   -0.80509E-04   -0.10038E-03  4420   0.539E-02    0.296E-02
DAV:   3    -0.823043760711E+03    0.67057E-05   -0.25216E-05  4860   0.105E-02    0.165E-02
DAV:   4    -0.823043761345E+03   -0.63380E-06   -0.14814E-05  4560   0.740E-03    0.381E-03
DAV:   5    -0.823043761472E+03   -0.12764E-06   -0.31317E-06  3420   0.348E-03
 388 F= -.83053960E+03 E0= -.83053960E+03  d E =-.585659E-04  mag=     0.0000
       N       E                     dE             d eps       ncg     rms          rms(c)
DAV:   1    -0.823043857869E+03   -0.96524E-04   -0.99261E-02  4340   0.555E-01    0.640E-02
DAV:   2    -0.823044017008E+03   -0.15914E-03   -0.19804E-03  4390   0.747E-02    0.414E-02
DAV:   3    -0.823044003120E+03    0.13888E-04   -0.48184E-05  4820   0.142E-02    0.231E-02
DAV:   4    -0.823044004132E+03   -0.10128E-05   -0.29922E-05  4610   0.991E-03    0.490E-03
DAV:   5    -0.823044004521E+03   -0.38860E-06   -0.67415E-06  3980   0.462E-03
 389 F= -.83053984E+03 E0= -.83053984E+03  d E =-.241012E-03  mag=    -0.0000
       N       E                     dE             d eps       ncg     rms          rms(c)
DAV:   1    -0.823043931288E+03    0.72845E-04   -0.16244E-01  4340   0.714E-01    0.820E-02
DAV:   2    -0.823044192866E+03   -0.26158E-03   -0.32613E-03  4370   0.965E-02    0.532E-02
DAV:   3    -0.823044169377E+03    0.23489E-04   -0.81664E-05  4840   0.184E-02    0.295E-02
DAV:   4    -0.823044170909E+03   -0.15321E-05   -0.48258E-05  4680   0.126E-02    0.617E-03
DAV:   5    -0.823044171701E+03   -0.79237E-06   -0.10974E-05  4320   0.579E-03    0.309E-03
DAV:   6    -0.823044172155E+03   -0.45361E-06   -0.71627E-07  3200   0.145E-03
 390 F= -.83054000E+03 E0= -.83054000E+03  d E =-.162806E-03  mag=    -0.0000
       N       E                     dE             d eps       ncg     rms          rms(c)
DAV:   1    -0.823044024656E+03    0.14705E-03   -0.22209E-01  4360   0.826E-01    0.957E-02
DAV:   2    -0.823044370384E+03   -0.34573E-03   -0.43282E-03  4390   0.110E-01    0.619E-02
DAV:   3    -0.823044339913E+03    0.30472E-04   -0.10404E-04  4840   0.208E-02    0.339E-02
DAV:   4    -0.823044343573E+03   -0.36607E-05   -0.65216E-05  4700   0.145E-02    0.698E-03
DAV:   5    -0.823044344391E+03   -0.81770E-06   -0.15507E-05  4460   0.689E-03    0.340E-03
DAV:   6    -0.823044344969E+03   -0.57840E-06   -0.92676E-07  3280   0.167E-03
 391 F= -.83054017E+03 E0= -.83054017E+03  d E =-.169319E-03  mag=    -0.0000
       N       E                     dE             d eps       ncg     rms          rms(c)
DAV:   1    -0.823044175729E+03    0.16866E-03   -0.36290E-01  4360   0.106E+00    0.122E-01
DAV:   2    -0.823044740089E+03   -0.56436E-03   -0.70692E-03  4350   0.142E-01    0.791E-02
DAV:   3    -0.823044691075E+03    0.49014E-04   -0.17241E-04  4880   0.268E-02    0.432E-02
DAV:   4    -0.823044696897E+03   -0.58218E-05   -0.10308E-04  4760   0.185E-02    0.876E-03
DAV:   5    -0.823044698101E+03   -0.12037E-05   -0.24442E-05  4480   0.889E-03    0.427E-03
DAV:   6    -0.823044698874E+03   -0.77298E-06   -0.15960E-06  3350   0.238E-03
 392 F= -.83054052E+03 E0= -.83054052E+03  d E =-.351852E-03  mag=    -0.0000
       N       E                     dE             d eps       ncg     rms          rms(c)
DAV:   1    -0.823044155813E+03    0.54229E-03   -0.58702E-01  4360   0.134E+00    0.155E-01
DAV:   2    -0.823045069246E+03   -0.91343E-03   -0.11432E-02  4340   0.180E-01    0.999E-02
DAV:   3    -0.823044991580E+03    0.77667E-04   -0.27229E-04  4870   0.336E-02    0.548E-02
DAV:   4    -0.823045001006E+03   -0.94268E-05   -0.16909E-04  4740   0.238E-02    0.109E-02
DAV:   5    -0.823045002892E+03   -0.18853E-05   -0.40219E-05  4500   0.118E-02    0.551E-03
DAV:   6    -0.823045003858E+03   -0.96652E-06   -0.33887E-06  3760   0.380E-03
 393 F= -.83054083E+03 E0= -.83054083E+03  d E =-.306807E-03  mag=    -0.0000
       N       E                     dE             d eps       ncg     rms          rms(c)
DAV:   1    -0.823044209197E+03    0.79369E-03   -0.87981E-01  4360   0.165E+00    0.189E-01
DAV:   2    -0.823045592996E+03   -0.13838E-02   -0.17242E-02  4330   0.221E-01    0.121E-01
DAV:   3    -0.823045477029E+03    0.11597E-03   -0.40010E-04  4880   0.409E-02    0.669E-02
DAV:   4    -0.823045491687E+03   -0.14658E-04   -0.25351E-04  4760   0.293E-02    0.130E-02
DAV:   5    -0.823045494974E+03   -0.32872E-05   -0.63763E-05  4480   0.156E-02    0.674E-03
DAV:   6    -0.823045495331E+03   -0.35714E-06   -0.75054E-06  4180   0.621E-03
 394 F= -.83054132E+03 E0= -.83054132E+03  d E =-.494775E-03  mag=    -0.0000
       N       E                     dE             d eps       ncg     rms          rms(c)
DAV:   1    -0.823044209816E+03    0.12852E-02   -0.12578E+00  4360   0.198E+00    0.224E-01
DAV:   2    -0.823046213379E+03   -0.20036E-02   -0.24801E-02  4320   0.267E-01    0.144E-01
DAV:   3    -0.823046053927E+03    0.15945E-03   -0.56186E-04  4860   0.493E-02    0.793E-02
DAV:   4    -0.823046080350E+03   -0.26423E-04   -0.35594E-04  4730   0.362E-02    0.151E-02
DAV:   5    -0.823046087447E+03   -0.70967E-05   -0.10918E-04  4430   0.227E-02    0.782E-03
DAV:   6    -0.823046081675E+03    0.57713E-05   -0.22186E-05  4400   0.115E-02    0.479E-03
DAV:   7    -0.823046096079E+03   -0.14403E-04   -0.21867E-05  4060   0.116E-02    0.260E-03
DAV:   8    -0.823046083800E+03    0.12279E-04   -0.14326E-05  4140   0.926E-03    0.144E-03
DAV:   9    -0.823046084363E+03   -0.56347E-06   -0.90843E-07  3440   0.232E-03
 395 F= -.83054192E+03 E0= -.83054192E+03  d E =-.590716E-03  mag=    -0.0000
       N       E                     dE             d eps       ncg     rms          rms(c)
DAV:   1    -0.823046132650E+03   -0.48850E-04   -0.87939E-04  4420   0.622E-02    0.590E-03
DAV:   2    -0.823046135134E+03   -0.24844E-05   -0.21236E-05  4700   0.900E-03    0.418E-03
DAV:   3    -0.823046135768E+03   -0.63354E-06   -0.87113E-07  2800   0.217E-03
 396 F= -.83054197E+03 E0= -.83054197E+03  d E =-.512627E-04  mag=     0.0000
       N       E                     dE             d eps       ncg     rms          rms(c)
DAV:   1    -0.823046183069E+03   -0.47935E-04   -0.26899E-03  4490   0.108E-01    0.105E-02
DAV:   2    -0.823046188141E+03   -0.50716E-05   -0.62922E-05  4670   0.154E-02    0.718E-03
DAV:   3    -0.823046188003E+03    0.13803E-06   -0.24563E-06  3300   0.354E-03
 397 F= -.83054202E+03 E0= -.83054202E+03  d E =-.523575E-04  mag=     0.0000
       N       E                     dE             d eps       ncg     rms          rms(c)
DAV:   1    -0.823046211004E+03   -0.22863E-04   -0.42608E-03  4350   0.134E-01    0.127E-02
DAV:   2    -0.823046219303E+03   -0.82989E-05   -0.10068E-04  4610   0.188E-02    0.837E-03
DAV:   3    -0.823046218877E+03    0.42613E-06   -0.29284E-06  3910   0.381E-03
 398 F= -.83054205E+03 E0= -.83054205E+03  d E =-.325442E-04  mag=    -0.0000
       N       E                     dE             d eps       ncg     rms          rms(c)
DAV:   1    -0.823046245096E+03   -0.25793E-04   -0.54845E-03  4320   0.147E-01    0.136E-02
DAV:   2    -0.823046256216E+03   -0.11120E-04   -0.12879E-04  4520   0.201E-02    0.860E-03
DAV:   3    -0.823046255874E+03    0.34191E-06   -0.23884E-06  3960   0.353E-03
 399 F= -.83054209E+03 E0= -.83054209E+03  d E =-.406443E-04  mag=     0.0000
       N       E                     dE             d eps       ncg     rms          rms(c)
DAV:   1    -0.823046306160E+03   -0.49944E-04   -0.73172E-03  4260   0.168E-01    0.154E-02
DAV:   2    -0.823046321292E+03   -0.15133E-04   -0.17360E-04  4510   0.230E-02    0.950E-03
DAV:   3    -0.823046320878E+03    0.41429E-06   -0.29024E-06  4120   0.382E-03
 400 F= -.83054216E+03 E0= -.83054216E+03  d E =-.704422E-04  mag=    -0.0000
       N       E                     dE             d eps       ncg     rms          rms(c)
DAV:   1    -0.823046374735E+03   -0.53443E-04   -0.97318E-03  4260   0.195E-01    0.181E-02
DAV:   2    -0.823046394656E+03   -0.19921E-04   -0.23304E-04  4450   0.270E-02    0.112E-02
DAV:   3    -0.823046393983E+03    0.67332E-06   -0.45751E-06  4540   0.467E-03
 401 F= -.83054224E+03 E0= -.83054224E+03  d E =-.796788E-04  mag=     0.0000
       N       E                     dE             d eps       ncg     rms          rms(c)
DAV:   1    -0.823046424982E+03   -0.30326E-04   -0.15054E-02  4260   0.242E-01    0.228E-02
DAV:   2    -0.823046455275E+03   -0.30293E-04   -0.35795E-04  4430   0.336E-02    0.142E-02
DAV:   3    -0.823046454175E+03    0.10996E-05   -0.71712E-06  4900   0.587E-03    0.851E-03
DAV:   4    -0.823046454458E+03   -0.28221E-06   -0.24123E-06  3550   0.396E-03
 402 F= -.83054231E+03 E0= -.83054231E+03  d E =-.685983E-04  mag=     0.0000
       N       E                     dE             d eps       ncg     rms          rms(c)
DAV:   1    -0.823046485469E+03   -0.31294E-04   -0.21701E-02  4280   0.286E-01    0.266E-02
DAV:   2    -0.823046530151E+03   -0.44682E-04   -0.51875E-04  4370   0.401E-02    0.161E-02
DAV:   3    -0.823046528592E+03    0.15592E-05   -0.89074E-06  4830   0.662E-03    0.973E-03
DAV:   4    -0.823046529118E+03   -0.52607E-06   -0.36117E-06  3930   0.476E-03
 403 F= -.83054239E+03 E0= -.83054239E+03  d E =-.840036E-04  mag=     0.0000
       N       E                     dE             d eps       ncg     rms          rms(c)
DAV:   1    -0.823046578994E+03   -0.50402E-04   -0.31877E-02  4280   0.348E-01    0.323E-02
DAV:   2    -0.823046643121E+03   -0.64127E-04   -0.75351E-04  4350   0.487E-02    0.199E-02
DAV:   3    -0.823046640644E+03    0.24764E-05   -0.13845E-05  4900   0.819E-03    0.119E-02
DAV:   4    -0.823046641476E+03   -0.83119E-06   -0.53780E-06  4150   0.588E-03
 404 F= -.83054252E+03 E0= -.83054252E+03  d E =-.122836E-03  mag=     0.0000
       N       E                     dE             d eps       ncg     rms          rms(c)
DAV:   1    -0.823046652458E+03   -0.11814E-04   -0.47517E-02  4280   0.426E-01    0.399E-02
DAV:   2    -0.823046744774E+03   -0.92315E-04   -0.11028E-03  4370   0.598E-02    0.248E-02
DAV:   3    -0.823046740779E+03    0.39945E-05   -0.22125E-05  5090   0.103E-02    0.146E-02
DAV:   4    -0.823046742041E+03   -0.12619E-05   -0.84967E-06  4480   0.747E-03    0.308E-03
DAV:   5    -0.823046742405E+03   -0.36375E-06   -0.32568E-06  4140   0.406E-03
 405 F= -.83054263E+03 E0= -.83054263E+03  d E =-.114438E-03  mag=    -0.0000
       N       E                     dE             d eps       ncg     rms          rms(c)
DAV:   1    -0.823046732239E+03    0.98028E-05   -0.68619E-02  4300   0.510E-01    0.477E-02
DAV:   2    -0.823046861363E+03   -0.12912E-03   -0.15601E-03  4440   0.717E-02    0.300E-02
DAV:   3    -0.823046855160E+03    0.62035E-05   -0.31679E-05  5040   0.125E-02    0.174E-02
DAV:   4    -0.823046857084E+03   -0.19246E-05   -0.13434E-05  4540   0.919E-03    0.361E-03
DAV:   5    -0.823046857543E+03   -0.45897E-06   -0.47580E-06  4420   0.492E-03
 406 F= -.83054277E+03 E0= -.83054277E+03  d E =-.136819E-03  mag=     0.0000
       N       E                     dE             d eps       ncg     rms          rms(c)
DAV:   1    -0.823046805601E+03    0.51483E-04   -0.10455E-01  4320   0.630E-01    0.589E-02
DAV:   2    -0.823046990773E+03   -0.18517E-03   -0.22919E-03  4420   0.878E-02    0.376E-02
DAV:   3    -0.823046980349E+03    0.10424E-04   -0.50513E-05  5060   0.158E-02    0.214E-02
DAV:   4    -0.823046983316E+03   -0.29673E-05   -0.21036E-05  4700   0.111E-02    0.447E-03
DAV:   5    -0.823046984068E+03   -0.75188E-06   -0.67250E-06  4480   0.599E-03
 407 F= -.83054292E+03 E0= -.83054292E+03  d E =-.155653E-03  mag=    -0.0000
