unknown system                          
           1
    17.271038    0.000000    0.000000
    -8.635519   14.957158    0.000000
     0.000000    0.000000   15.000000
   C    F    N    H    O 
    82     2     6     2     1
Direct configuration=     1
   0.00064171  0.99739002  0.49092338
   0.00099317  0.14048860  0.49050412
   0.00098649  0.28339364  0.49084711
   0.00062788  0.42634723  0.49154920
   0.00100486  0.56914608  0.49168434
   0.00197139  0.71217192  0.49166698
   0.00099280  0.85499529  0.49143789
   0.14451436  0.99857211  0.49024772
   0.14510163  0.14194814  0.48907292
   0.14468545  0.28408952  0.48890771
   0.14354368  0.42678653  0.49020038
   0.14457821  0.56926317  0.49119019
   0.14490841  0.71204890  0.49112199
   0.14441037  0.85525579  0.49106457
   0.28731405  0.99804928  0.49058094
   0.28814282  0.14167088  0.48903226
   0.29087007  0.28755062  0.48733078
   0.28627836  0.43070937  0.48750882
   0.28926364  0.56711427  0.49024371
   0.28826177  0.71187497  0.49128789
   0.28731583  0.85504722  0.49119079
   0.43019344  0.99796891  0.49152218
   0.43045612  0.14183767  0.49033059
   0.43018104  0.85405072  0.49243042
   0.57232292  0.99748532  0.49279507
   0.57250253  0.14105233  0.49143738
   0.57481753  0.28799466  0.49034071
   0.57430085  0.85307382  0.49387229
   0.71460295  0.99700779  0.49306180
   0.71517729  0.14058561  0.49214523
   0.71483353  0.28381896  0.49139823
   0.71031808  0.42376820  0.49095125
   0.70986967  0.85281302  0.49256521
   0.85726210  0.99676774  0.49213521
   0.85774972  0.14014838  0.49184028
   0.85779210  0.28329030  0.49165892
   0.85737269  0.42627647  0.49167279
   0.85750798  0.56890286  0.49173470
   0.85914800  0.71157677  0.49159342
   0.85590198  0.85287769  0.49187619
   0.04911919  0.09331130  0.49010713
   0.04886167  0.23580588  0.49005334
   0.04802798  0.37870347  0.49090226
   0.04896927  0.52172766  0.49149418
   0.04937038  0.66453008  0.49154230
   0.04894289  0.80746642  0.49137982
   0.04883453  0.95028444  0.49083165
   0.19251993  0.09391731  0.48931759
   0.19380044  0.23780889  0.48825061
   0.19085414  0.37932001  0.48889867
   0.19248191  0.52195979  0.49070007
   0.19262740  0.66457060  0.49099440
   0.19218557  0.80757472  0.49102692
   0.19216303  0.95066420  0.49059654
   0.33527386  0.09378322  0.48999660
   0.33979016  0.23778578  0.48812334
   0.33949509  0.66694702  0.49202735
   0.33511023  0.80702457  0.49164959
   0.33478151  0.95027230  0.49117472
   0.47761107  0.09342107  0.49124148
   0.47556264  0.23784627  0.48967569
   0.47520143  0.80303971  0.49379689
   0.47745089  0.94983634  0.49226598
   0.61976850  0.09293332  0.49215326
   0.61975423  0.23681752  0.49101179
   0.61944399  0.94904867  0.49344519
   0.76260100  0.09276376  0.49245593
   0.76264340  0.23579426  0.49175631
   0.76173294  0.37897659  0.49136898
   0.76067407  0.52373593  0.49111581
   0.76376071  0.66018948  0.49067370
   0.75882169  0.80307489  0.49149394
   0.76159364  0.94898369  0.49287356
   0.90530564  0.09215214  0.49161172
   0.90551700  0.23556396  0.49146164
   0.90510136  0.37883192  0.49166505
   0.90540205  0.52159277  0.49183366
   0.90644060  0.66407835  0.49179709
   0.90519026  0.80676052  0.49162579
   0.90465380  0.94872038  0.49179559
   0.71661862  0.70899386  0.48960850
   0.33317431  0.38166180  0.48644557
   0.62768777  0.65930696  0.48586781
   0.42237678  0.43123739  0.48527711
   0.42976772  0.28207704  0.48846438
   0.42951275  0.71250842  0.49450806
   0.71688640  0.56924573  0.49036868
   0.33311308  0.52166753  0.48778411
   0.62041063  0.37837932  0.49037967
   0.61990342  0.80864258  0.49319659
   0.48295267  0.65016940  0.58033862
   0.49584216  0.57344273  0.61244026
   0.48986298  0.62296559  0.63502349
Direct configuration=     2
   0.00064967  0.99738695  0.49089236
   0.00100289  0.14048556  0.49046604
   0.00099255  0.28341602  0.49079615
   0.00063075  0.42635699  0.49150705
   0.00100420  0.56913026  0.49164742
   0.00197254  0.71216394  0.49163623
   0.00099869  0.85500487  0.49140360
   0.14451990  0.99858022  0.49020080
   0.14511362  0.14194122  0.48901454
   0.14470102  0.28409442  0.48885193
   0.14354360  0.42680784  0.49014242
   0.14456926  0.56925498  0.49114104
   0.14490769  0.71203460  0.49108093
   0.14441520  0.85526184  0.49101318
   0.28732245  0.99805511  0.49052558
   0.28813836  0.14166909  0.48896881
   0.29087925  0.28754214  0.48726807
   0.28628954  0.43071035  0.48744096
   0.28926147  0.56712429  0.49018537
   0.28826617  0.71187164  0.49123613
   0.28732921  0.85504766  0.49114827
   0.43019427  0.99796262  0.49147918
   0.43045617  0.14183009  0.49028290
   0.43018711  0.85405118  0.49238529
   0.57231618  0.99748185  0.49276428
   0.57250212  0.14104436  0.49140236
   0.57481966  0.28798893  0.49030095
   0.57430171  0.85307169  0.49385467
   0.71459349  0.99699499  0.49303816
   0.71516811  0.14058848  0.49211772
   0.71484135  0.28381953  0.49136826
   0.71032586  0.42376555  0.49093828
   0.70987244  0.85280745  0.49257181
   0.85726539  0.99675228  0.49211789
   0.85774755  0.14015262  0.49180988
   0.85779289  0.28331054  0.49162752
   0.85738591  0.42627413  0.49164131
   0.85751764  0.56889333  0.49171310
   0.85915363  0.71158444  0.49157935
   0.85590502  0.85287843  0.49186803
   0.04911582  0.09331659  0.49006733
   0.04886352  0.23580067  0.49000254
   0.04804238  0.37868185  0.49085654
   0.04897726  0.52172628  0.49145116
   0.04937423  0.66454201  0.49150040
   0.04894839  0.80745657  0.49133961
   0.04883517  0.95027446  0.49079195
   0.19251380  0.09390730  0.48925892
   0.19379542  0.23781050  0.48819253
   0.19086102  0.37930890  0.48883827
   0.19249110  0.52194597  0.49064965
   0.19262883  0.66457230  0.49095110
   0.19217881  0.80757083  0.49097959
   0.19215931  0.95064269  0.49054630
   0.33528204  0.09377601  0.48993871
   0.33979587  0.23778910  0.48805978
   0.33949999  0.66693891  0.49197801
   0.33510662  0.80702076  0.49160186
   0.33477276  0.95025877  0.49112248
   0.47761571  0.09342427  0.49119452
   0.47557083  0.23784934  0.48963076
   0.47520746  0.80303553  0.49376068
   0.47745781  0.94983317  0.49222646
   0.61978500  0.09293855  0.49212743
   0.61975626  0.23681687  0.49098387
   0.61946516  0.94905425  0.49341779
   0.76261803  0.09276116  0.49242887
   0.76264503  0.23577966  0.49172240
   0.76172897  0.37897545  0.49134153
   0.76067233  0.52373830  0.49111365
   0.76376563  0.66018303  0.49069048
   0.75882162  0.80306722  0.49151198
   0.76160352  0.94898937  0.49286469
   0.90530967  0.09215804  0.49158708
   0.90552716  0.23554547  0.49143000
   0.90510529  0.37881842  0.49163003
   0.90539396  0.52159691  0.49181372
   0.90644024  0.66408033  0.49177249
   0.90519714  0.80674737  0.49161176
   0.90465748  0.94873033  0.49177538
   0.71663044  0.70900198  0.48965862
   0.33318046  0.38166656  0.48637599
   0.62769200  0.65930822  0.48595218
   0.42237191  0.43123706  0.48520401
   0.42976152  0.28207463  0.48841116
   0.42951724  0.71251149  0.49446701
   0.71688966  0.56924348  0.49038872
   0.33312205  0.52165624  0.48772173
   0.62041020  0.37837492  0.49035485
   0.61990983  0.80864385  0.49319599
   0.48288487  0.65023782  0.58034165
   0.49571378  0.57350262  0.61253564
   0.48974172  0.62301347  0.63507610
Direct configuration=     3
   0.00065872  0.99739100  0.49084573
   0.00100556  0.14048829  0.49040848
   0.00100104  0.28340713  0.49072286
   0.00064399  0.42634589  0.49144325
   0.00100552  0.56913094  0.49159196
   0.00197259  0.71216242  0.49159079
   0.00100844  0.85499736  0.49135218
   0.14452219  0.99856887  0.49012906
   0.14511561  0.14194061  0.48892946
   0.14470469  0.28409516  0.48876787
   0.14355597  0.42679924  0.49005616
   0.14457635  0.56924769  0.49106874
   0.14490783  0.71203214  0.49101839
   0.14441392  0.85525170  0.49093655
   0.28732215  0.99804301  0.49044362
   0.28813817  0.14165970  0.48887458
   0.29088644  0.28754440  0.48717540
   0.28629340  0.43070018  0.48734155
   0.28927280  0.56711955  0.49009903
   0.28827043  0.71186561  0.49115856
   0.28732437  0.85503606  0.49108275
   0.43019369  0.99795708  0.49141540
   0.43046132  0.14182840  0.49021026
   0.43019105  0.85404501  0.49231838
   0.57232870  0.99748271  0.49271763
   0.57250926  0.14104140  0.49135090
   0.57482318  0.28798422  0.49024250
   0.57431240  0.85307191  0.49382727
   0.71461160  0.99700027  0.49300276
   0.71517786  0.14058045  0.49207594
   0.71484508  0.28381288  0.49132278
   0.71032672  0.42376358  0.49091826
   0.70988054  0.85280660  0.49258178
   0.85727241  0.99675832  0.49209271
   0.85775509  0.14014784  0.49176461
   0.85779881  0.28329703  0.49157986
   0.85738905  0.42626795  0.49159533
   0.85751784  0.56889586  0.49168110
   0.85915892  0.71158021  0.49155907
   0.85591394  0.85287610  0.49185638
   0.04912691  0.09331306  0.49000696
   0.04887225  0.23580390  0.48992664
   0.04805040  0.37869386  0.49078784
   0.04898089  0.52172231  0.49139082
   0.04937373  0.66452884  0.49143867
   0.04895240  0.80745299  0.49127876
   0.04884256  0.95027670  0.49073480
   0.19251761  0.09390108  0.48916999
   0.19380575  0.23780156  0.48810531
   0.19086989  0.37931691  0.48874718
   0.19249753  0.52195452  0.49057250
   0.19262989  0.66456073  0.49088570
   0.19218213  0.80756502  0.49090881
   0.19216946  0.95064515  0.49047173
   0.33528543  0.09377506  0.48985331
   0.33979463  0.23778156  0.48796689
   0.33950502  0.66693369  0.49190315
   0.33511708  0.80701754  0.49153111
   0.33477858  0.95025770  0.49104537
   0.47761731  0.09341668  0.49112475
   0.47557075  0.23784664  0.48956189
   0.47521371  0.80303428  0.49370814
   0.47746081  0.94982922  0.49216702
   0.61978529  0.09293549  0.49208717
   0.61976287  0.23681239  0.49094108
   0.61946526  0.94905023  0.49337698
   0.76261536  0.09275635  0.49238789
   0.76264981  0.23578077  0.49167315
   0.76173894  0.37897308  0.49130240
   0.76067718  0.52373449  0.49111001
   0.76377252  0.66018273  0.49071659
   0.75883009  0.80306725  0.49153954
   0.76160825  0.94898130  0.49285091
   0.90531327  0.09215318  0.49154883
   0.90553217  0.23555845  0.49138024
   0.90511834  0.37882404  0.49157850
   0.90539800  0.52158777  0.49178132
   0.90644033  0.66407434  0.49173598
   0.90520588  0.80675442  0.49159034
   0.90466773  0.94872803  0.49174506
   0.71663719  0.70899695  0.48973012
   0.33318537  0.38165706  0.48627266
   0.62770191  0.65931511  0.48607228
   0.42237186  0.43123829  0.48509515
   0.42976703  0.28207326  0.48833179
   0.42952358  0.71250984  0.49440644
   0.71689328  0.56924220  0.49041901
   0.33313052  0.52165968  0.48762849
   0.62041501  0.37837062  0.49031783
   0.61991495  0.80864365  0.49319552
   0.48278608  0.65032937  0.58036750
   0.49552478  0.57356944  0.61266822
   0.48955167  0.62311475  0.63514507
Direct configuration=     4
   0.00066844  0.99739786  0.49078164
   0.00100483  0.14048993  0.49033196
   0.00101150  0.28338075  0.49062661
   0.00066377  0.42632740  0.49135948
   0.00100887  0.56913909  0.49151715
   0.00197306  0.71216227  0.49152754
   0.00101997  0.85498051  0.49128273
   0.14452476  0.99854464  0.49003058
   0.14511266  0.14194247  0.48881616
   0.14470341  0.28409314  0.48865476
   0.14357820  0.42677584  0.48994178
   0.14459404  0.56924413  0.49097623
   0.14490912  0.71203602  0.49093558
   0.14441304  0.85523150  0.49083611
   0.28731832  0.99802137  0.49033528
   0.28814674  0.14164898  0.48875190
   0.29088943  0.28755051  0.48705135
   0.28629531  0.43068756  0.48721071
   0.28929090  0.56710438  0.48998635
   0.28827449  0.71185635  0.49105414
   0.28731028  0.85502022  0.49099356
   0.43019518  0.99795208  0.49132899
   0.43046943  0.14182973  0.49011125
   0.43019704  0.85403673  0.49223057
   0.57235145  0.99748418  0.49265347
   0.57251878  0.14103981  0.49128303
   0.57482904  0.28798063  0.49016814
   0.57432787  0.85307410  0.49378956
   0.71464203  0.99701261  0.49295738
   0.71519945  0.14056717  0.49201839
   0.71484679  0.28380455  0.49126063
   0.71032508  0.42376082  0.49088958
   0.70989213  0.85280753  0.49259496
   0.85728228  0.99677382  0.49206022
   0.85776941  0.14013934  0.49170511
   0.85781103  0.28326861  0.49151522
   0.85738540  0.42626155  0.49153764
   0.85751317  0.56890221  0.49163973
   0.85916453  0.71156890  0.49153435
   0.85592831  0.85287394  0.49184152
   0.04914641  0.09330632  0.48992385
   0.04888578  0.23581052  0.48982512
   0.04805617  0.37872143  0.49069401
   0.04898111  0.52171511  0.49131047
   0.04936996  0.66450108  0.49135659
   0.04895527  0.80745341  0.49120004
   0.04885564  0.95028776  0.49066149
   0.19252902  0.09389567  0.48905354
   0.19382466  0.23778960  0.48798758
   0.19088129  0.37933167  0.48862356
   0.19250141  0.52197138  0.49046765
   0.19263344  0.66454325  0.49079630
   0.19219259  0.80755473  0.49081559
   0.19218598  0.95066007  0.49036988
   0.33528370  0.09377810  0.48974010
   0.33979147  0.23776728  0.48784460
   0.33951143  0.66693349  0.49180497
   0.33513484  0.80701243  0.49143649
   0.33479296  0.95026109  0.49094224
   0.47761900  0.09340444  0.49103251
   0.47556749  0.23783901  0.48946730
   0.47522115  0.80303688  0.49363739
   0.47746106  0.94982465  0.49208695
   0.61977692  0.09292548  0.49203042
   0.61977192  0.23680426  0.49088050
   0.61945574  0.94904139  0.49332222
   0.76260503  0.09275167  0.49233167
   0.76265814  0.23578974  0.49160801
   0.76175638  0.37896717  0.49125069
   0.76068617  0.52372625  0.49110405
   0.76378028  0.66018547  0.49075192
   0.75884675  0.80307269  0.49157740
   0.76161191  0.94896641  0.49283126
   0.90531891  0.09214335  0.49149489
   0.90553542  0.23558466  0.49131195
   0.90513577  0.37883718  0.49150847
   0.90541065  0.52157145  0.49173312
   0.90644458  0.66406401  0.49168759
   0.90521249  0.80677038  0.49156255
   0.90468116  0.94871858  0.49170668
   0.71664135  0.70898439  0.48982270
   0.33318738  0.38163796  0.48613446
   0.62771664  0.65932384  0.48622782
   0.42237751  0.43124069  0.48494903
   0.42977927  0.28207108  0.48822571
   0.42953133  0.71250398  0.49432604
   0.71689750  0.56924094  0.49045978
   0.33313795  0.52166839  0.48750329
   0.62042335  0.37836575  0.49026825
   0.61992148  0.80864174  0.49319523
   0.48265474  0.65044676  0.58041138
   0.49527301  0.57365158  0.61284234
   0.48929580  0.62325847  0.63523654
Direct configuration=     5
   0.00068121  0.99739750  0.49070216
   0.00101293  0.14048769  0.49023745
   0.00102400  0.28337491  0.49050691
   0.00067698  0.42632497  0.49125746
   0.00101147  0.56913209  0.49142625
   0.00197723  0.71215165  0.49144732
   0.00103003  0.85497647  0.49119523
   0.14453432  0.99853211  0.48990327
   0.14512110  0.14193871  0.48867790
   0.14471302  0.28408893  0.48851356
   0.14359552  0.42677174  0.48979972
   0.14460438  0.56924351  0.49086302
   0.14491248  0.71202690  0.49083092
   0.14442276  0.85522006  0.49071090
   0.28732396  0.99801109  0.49019909
   0.28815500  0.14163846  0.48860159
   0.29089191  0.28754352  0.48689291
   0.28630775  0.43068576  0.48704779
   0.28930372  0.56709469  0.48984710
   0.28828086  0.71184630  0.49092242
   0.28731214  0.85501234  0.49087887
   0.43019991  0.99794668  0.49121954
   0.43047321  0.14182504  0.48998448
   0.43020723  0.85403080  0.49212141
   0.57236174  0.99747931  0.49257005
   0.57252193  0.14103333  0.49119981
   0.57483450  0.28797579  0.49007970
   0.57433813  0.85307639  0.49374438
   0.71465157  0.99700809  0.49290400
   0.71521111  0.14056200  0.49194729
   0.71485380  0.28379999  0.49118238
   0.71033184  0.42375467  0.49085069
   0.70990423  0.85280384  0.49261118
   0.85729177  0.99677200  0.49202010
   0.85778301  0.14013904  0.49163308
   0.85782262  0.28326278  0.49143442
   0.85739140  0.42625595  0.49146949
   0.85751439  0.56889341  0.49159016
   0.85917400  0.71156563  0.49150593
   0.85594478  0.85287743  0.49182438
   0.04915836  0.09330612  0.48981741
   0.04889769  0.23580674  0.48969875
   0.04807404  0.37872168  0.49057221
   0.04898621  0.52170947  0.49120897
   0.04936942  0.66448847  0.49125534
   0.04896029  0.80744803  0.49110286
   0.04886822  0.95028962  0.49057082
   0.19253941  0.09388690  0.48890855
   0.19383789  0.23778888  0.48784158
   0.19089616  0.37933127  0.48847035
   0.19251465  0.52196956  0.49033420
   0.19264196  0.66453762  0.49068281
   0.19219820  0.80754048  0.49070303
   0.19219517  0.95065492  0.49023793
   0.33528433  0.09377073  0.48959761
   0.33979682  0.23775753  0.48769102
   0.33952336  0.66693437  0.49168186
   0.33514512  0.80700189  0.49131991
   0.33479998  0.95025223  0.49081452
   0.47762345  0.09339646  0.49091867
   0.47557280  0.23783043  0.48934646
   0.47523205  0.80303602  0.49354979
   0.47746591  0.94982152  0.49198576
   0.61978123  0.09291662  0.49195866
   0.61977856  0.23679633  0.49080073
   0.61946744  0.94904114  0.49325348
   0.76261556  0.09274965  0.49225930
   0.76266783  0.23578792  0.49152895
   0.76176548  0.37895787  0.49118700
   0.76069271  0.52371994  0.49109507
   0.76379003  0.66018365  0.49079635
   0.75886622  0.80307466  0.49162623
   0.76162400  0.94896189  0.49280515
   0.90532753  0.09214105  0.49142433
   0.90554578  0.23557982  0.49122324
   0.90514896  0.37883441  0.49141973
   0.90541883  0.52156380  0.49166601
   0.90645197  0.66405678  0.49162733
   0.90522063  0.80676973  0.49152716
   0.90469408  0.94871813  0.49165976
   0.71665206  0.70898074  0.48993294
   0.33319119  0.38163105  0.48596383
   0.62772812  0.65933084  0.48642063
   0.42238526  0.43123891  0.48476504
   0.42978527  0.28206499  0.48809268
   0.42954094  0.71249987  0.49422575
   0.71690386  0.56923768  0.49051110
   0.33314755  0.52166305  0.48734594
   0.62043140  0.37835927  0.49020621
   0.61993402  0.80863960  0.49319525
   0.48248870  0.65059811  0.58045705
   0.49495656  0.57376976  0.61306728
   0.48897968  0.62341853  0.63535848
Direct configuration=     6
   0.00069850  0.99739162  0.49060830
   0.00103100  0.14047992  0.49012279
   0.00103743  0.28338851  0.49036490
   0.00068391  0.42633650  0.49113434
   0.00101372  0.56910745  0.49131936
   0.00198954  0.71213918  0.49134806
   0.00103974  0.85499329  0.49109242
   0.14455078  0.99853709  0.48974639
   0.14514397  0.14192960  0.48851360
   0.14473529  0.28408725  0.48834137
   0.14360643  0.42678864  0.48962759
   0.14460738  0.56923772  0.49073017
   0.14491913  0.71200432  0.49070235
   0.14443932  0.85522055  0.49056249
   0.28733973  0.99801462  0.49003511
   0.28816271  0.14163120  0.48842255
   0.29089713  0.28752407  0.48670278
   0.28632559  0.43069033  0.48685082
   0.28931230  0.56709796  0.48968171
   0.28829198  0.71183858  0.49076726
   0.28733735  0.85500942  0.49074039
   0.43020693  0.99793778  0.49108400
   0.43047228  0.14181064  0.48983297
   0.43021894  0.85402826  0.49198992
   0.57235657  0.99746798  0.49246545
   0.57252028  0.14102188  0.49109851
   0.57484046  0.28796708  0.48997511
   0.57434318  0.85307365  0.49369178
   0.71464397  0.99698911  0.49284048
   0.71520678  0.14056438  0.49186162
   0.71486457  0.28379580  0.49108795
   0.71034767  0.42374395  0.49079977
   0.70991782  0.85279580  0.49263007
   0.85730271  0.99675303  0.49197028
   0.85779011  0.14014124  0.49154774
   0.85783210  0.28328004  0.49133719
   0.85740973  0.42624962  0.49139426
   0.85752348  0.56886901  0.49153526
   0.85918896  0.71157011  0.49147711
   0.85596176  0.85288459  0.49180579
   0.04916011  0.09331116  0.48968727
   0.04890857  0.23579164  0.48954827
   0.04809576  0.37869090  0.49042201
   0.04899993  0.52170767  0.49108542
   0.04937507  0.66449349  0.49113540
   0.04897253  0.80743676  0.49098608
   0.04887995  0.95027657  0.49045967
   0.19254268  0.09387326  0.48873643
   0.19384122  0.23779811  0.48766734
   0.19091050  0.37931083  0.48828997
   0.19253433  0.52194996  0.49017197
   0.19265613  0.66454237  0.49054668
   0.19219891  0.80752536  0.49056910
   0.19219640  0.95062210  0.49007988
   0.33529194  0.09375090  0.48942312
   0.33981489  0.23775657  0.48750762
   0.33953665  0.66692923  0.49153316
   0.33514794  0.80699515  0.49118250
   0.33479723  0.95023059  0.49066459
   0.47763144  0.09339696  0.49078443
   0.47558769  0.23782224  0.48920016
   0.47524756  0.80303040  0.49344585
   0.47747727  0.94981788  0.49186257
   0.61980149  0.09291220  0.49186896
   0.61978327  0.23679072  0.49070073
   0.61949926  0.94904711  0.49317198
   0.76264500  0.09274778  0.49217259
   0.76267869  0.23577461  0.49143478
   0.76176361  0.37894720  0.49111565
   0.76069384  0.52371583  0.49108166
   0.76380144  0.66017488  0.49085100
   0.75888493  0.80306867  0.49168457
   0.76164295  0.94896811  0.49277226
   0.90534013  0.09214460  0.49133887
   0.90556605  0.23554742  0.49111605
   0.90515646  0.37881456  0.49131094
   0.90541857  0.52156460  0.49157918
   0.90646000  0.66405316  0.49155615
   0.90523670  0.80675386  0.49148368
   0.90470773  0.94872803  0.49160339
   0.71667421  0.70898982  0.49005927
   0.33320168  0.38163992  0.48576124
   0.62773591  0.65933694  0.48665901
   0.42238978  0.43123392  0.48455295
   0.42978389  0.28205386  0.48793197
   0.42955296  0.71249986  0.49410584
   0.71691291  0.56923183  0.49057248
   0.33316223  0.52164488  0.48715719
   0.62043871  0.37835159  0.49013187
   0.61995056  0.80863844  0.49319572
   0.48228738  0.65078424  0.58050139
   0.49457558  0.57392748  0.61334458
   0.48860502  0.62359029  0.63550951
Direct configuration=     7
   0.00071972  0.99738697  0.49048408
   0.00105040  0.14047259  0.48996935
   0.00105507  0.28338304  0.49018056
   0.00069723  0.42633368  0.49096860
   0.00102081  0.56908859  0.49117656
   0.00200553  0.71213408  0.49121158
   0.00105254  0.85500100  0.49096264
   0.14457131  0.99853607  0.48953750
   0.14516454  0.14192270  0.48829710
   0.14475715  0.28408376  0.48811383
   0.14362128  0.42678844  0.48940140
   0.14462662  0.56923018  0.49055724
   0.14492736  0.71198611  0.49053282
   0.14444849  0.85520870  0.49037377
   0.28735237  0.99800873  0.48981856
   0.28817652  0.14162444  0.48818623
   0.29090950  0.28751279  0.48645195
   0.28634284  0.43069079  0.48659438
   0.28933235  0.56710297  0.48946521
   0.28831055  0.71183564  0.49056464
   0.28736207  0.85500050  0.49056328
   0.43021042  0.99791696  0.49090595
   0.43047683  0.14179213  0.48962917
   0.43023032  0.85402336  0.49182451
   0.57236111  0.99745571  0.49232531
   0.57252618  0.14100942  0.49095957
   0.57485111  0.28795841  0.48984089
   0.57435824  0.85306663  0.49362007
   0.71465282  0.99697758  0.49275619
   0.71521449  0.14056707  0.49174655
   0.71487690  0.28378704  0.49096789
   0.71036235  0.42373212  0.49073532
   0.70993864  0.85279001  0.49265387
   0.85732099  0.99674307  0.49190035
   0.85780181  0.14013193  0.49143576
   0.85784795  0.28327685  0.49120681
   0.85742745  0.42623713  0.49129648
   0.85753568  0.56885282  0.49146569
   0.85920700  0.71156630  0.49144576
   0.85598470  0.85288645  0.49178384
   0.04917030  0.09330636  0.48951491
   0.04891991  0.23577886  0.48935534
   0.04811042  0.37867229  0.49021959
   0.04901654  0.52170350  0.49092306
   0.04938864  0.66448750  0.49098127
   0.04899000  0.80742972  0.49083153
   0.04889881  0.95026763  0.49030880
   0.19254813  0.09386381  0.48851414
   0.19385174  0.23779948  0.48743684
   0.19092311  0.37929151  0.48805380
   0.19255518  0.52194140  0.48996003
   0.19267222  0.66453692  0.49036625
   0.19220826  0.80751165  0.49039509
   0.19220484  0.95059412  0.48987485
   0.33530285  0.09373355  0.48919724
   0.33983475  0.23775058  0.48726977
   0.33954567  0.66691173  0.49133831
   0.33515810  0.80699228  0.49100073
   0.33480321  0.95021380  0.49046880
   0.47763766  0.09339274  0.49060777
   0.47560311  0.23781446  0.48900966
   0.47526277  0.80302542  0.49330940
   0.47748891  0.94981444  0.49170450
   0.61981494  0.09290574  0.49174677
   0.61979060  0.23678170  0.49056814
   0.61951716  0.94904110  0.49306496
   0.76266722  0.09274532  0.49206312
   0.76268608  0.23576052  0.49131609
   0.76177035  0.37893817  0.49102437
   0.76069710  0.52370415  0.49106130
   0.76381556  0.66016380  0.49092364
   0.75890827  0.80306621  0.49175794
   0.76166008  0.94896674  0.49272741
   0.90535457  0.09213976  0.49122780
   0.90558569  0.23552947  0.49097478
   0.90516611  0.37880260  0.49116742
   0.90542249  0.52155441  0.49146182
   0.90646723  0.66403838  0.49146827
   0.90526285  0.80675034  0.49142466
   0.90473010  0.94873250  0.49153192
   0.71670091  0.70899627  0.49021949
   0.33321547  0.38164547  0.48549878
   0.62774963  0.65934751  0.48698545
   0.42239771  0.43122935  0.48427201
   0.42979308  0.28204000  0.48771922
   0.42956837  0.71249985  0.49394954
   0.71692416  0.56922434  0.49065158
   0.33318233  0.52163594  0.48691174
   0.62044994  0.37834270  0.49003426
   0.61996751  0.80863726  0.49319725
   0.48202285  0.65102295  0.58056698
   0.49407809  0.57412672  0.61370551
   0.48811606  0.62382249  0.63570232
Direct configuration=     8
   0.00074404  0.99738560  0.49031780
   0.00105839  0.14046637  0.48976710
   0.00107788  0.28334538  0.48994000
   0.00072369  0.42630281  0.49074517
   0.00104279  0.56909014  0.49099211
   0.00202331  0.71213629  0.49102819
   0.00107877  0.85497795  0.49079781
   0.14458338  0.99850663  0.48926480
   0.14516932  0.14192813  0.48802649
   0.14476724  0.28407088  0.48781907
   0.14364476  0.42674798  0.48910367
   0.14466590  0.56922269  0.49033486
   0.14493858  0.71198529  0.49031145
   0.14444959  0.85517138  0.49013392
   0.28735941  0.99797442  0.48953664
   0.28819009  0.14161731  0.48787721
   0.29093659  0.28752657  0.48612782
   0.28635143  0.43068191  0.48626914
   0.28936248  0.56709324  0.48918891
   0.28832445  0.71183279  0.49031153
   0.28735521  0.85497862  0.49033129
   0.43021648  0.99790215  0.49067629
   0.43049717  0.14178315  0.48935814
   0.43024292  0.85401268  0.49161647
   0.57238908  0.99745392  0.49214528
   0.57254493  0.14099669  0.49077302
   0.57486526  0.28794812  0.48966881
   0.57438714  0.85305902  0.49352274
   0.71469636  0.99698716  0.49264402
   0.71524361  0.14055181  0.49159502
   0.71488801  0.28377411  0.49081675
   0.71036814  0.42371993  0.49065272
   0.70996390  0.85279012  0.49268196
   0.85735163  0.99675826  0.49181159
   0.85782858  0.14011202  0.49128721
   0.85786659  0.28323260  0.49103972
   0.85743318  0.42621994  0.49116646
   0.85754339  0.56885166  0.49137425
   0.85922440  0.71154244  0.49141037
   0.85601874  0.85287980  0.49175746
   0.04920875  0.09329489  0.48929591
   0.04893988  0.23577324  0.48910628
   0.04811608  0.37869061  0.48995503
   0.04903462  0.52169017  0.49071395
   0.04940391  0.66445012  0.49078779
   0.04899809  0.80742881  0.49062701
   0.04893068  0.95027756  0.49010152
   0.19256478  0.09385687  0.48822812
   0.19387714  0.23777287  0.48713229
   0.19093930  0.37929878  0.48775258
   0.19257676  0.52195091  0.48968883
   0.19268469  0.66451287  0.49013315
   0.19223944  0.80749989  0.49017375
   0.19223028  0.95059972  0.48960247
   0.33531321  0.09372752  0.48889991
   0.33984452  0.23773141  0.48696226
   0.33955818  0.66689848  0.49108961
   0.33519070  0.80699057  0.49076994
   0.33482365  0.95020950  0.49021631
   0.47763992  0.09336021  0.49037887
   0.47560730  0.23779829  0.48877135
   0.47527620  0.80302359  0.49313168
   0.47749693  0.94979841  0.49150462
   0.61981089  0.09289256  0.49157926
   0.61980959  0.23677366  0.49039690
   0.61950262  0.94901673  0.49292852
   0.76266112  0.09273973  0.49192722
   0.76269929  0.23576309  0.49116645
   0.76180350  0.37893322  0.49091177
   0.76071251  0.52368282  0.49103364
   0.76383674  0.66016249  0.49102089
   0.75894385  0.80307808  0.49184557
   0.76167420  0.94894847  0.49266942
   0.90537583  0.09212187  0.49108498
   0.90559585  0.23554869  0.49079168
   0.90518787  0.37880732  0.49098909
   0.90544011  0.52152122  0.49131006
   0.90648147  0.66401382  0.49136435
   0.90528886  0.80676427  0.49134829
   0.90476200  0.94871929  0.49144109
   0.71672523  0.70898741  0.49042388
   0.33322993  0.38163372  0.48516139
   0.62778142  0.65935959  0.48742790
   0.42241830  0.43121930  0.48390458
   0.42982662  0.28202955  0.48744230
   0.42958395  0.71249361  0.49374790
   0.71693655  0.56921415  0.49075086
   0.33320662  0.52165093  0.48659784
   0.62046795  0.37833255  0.48990844
   0.61998835  0.80863360  0.49320034
   0.48168104  0.65131952  0.58067152
   0.49344072  0.57435273  0.61415913
   0.48748206  0.62416099  0.63593580
Direct configuration=     9
   0.00078023  0.99738015  0.49009346
   0.00108903  0.14045075  0.48950283
   0.00109025  0.28333992  0.48963438
   0.00074151  0.42629286  0.49043933
   0.00107316  0.56906374  0.49075632
   0.00204339  0.71211282  0.49079508
   0.00111662  0.85497465  0.49058230
   0.14460015  0.99849017  0.48891415
   0.14519159  0.14191306  0.48768339
   0.14478607  0.28404897  0.48743956
   0.14364866  0.42673265  0.48871747
   0.14468333  0.56920424  0.49003738
   0.14496525  0.71196857  0.49002772
   0.14448190  0.85516088  0.48982645
   0.28738146  0.99796340  0.48917032
   0.28820441  0.14160349  0.48749176
   0.29097481  0.28752326  0.48570760
   0.28637533  0.43068650  0.48585056
   0.28938128  0.56708619  0.48883183
   0.28834248  0.71181821  0.49001743
   0.28736673  0.85496497  0.49002864
   0.43023118  0.99788979  0.49038342
   0.43051284  0.14177000  0.48900698
   0.43027396  0.85401029  0.49135226
   0.57239506  0.99743634  0.49192287
   0.57256093  0.14098680  0.49053193
   0.57488638  0.28793821  0.48945447
   0.57440110  0.85304166  0.49338904
   0.71471182  0.99697811  0.49249750
   0.71525088  0.14053887  0.49140718
   0.71491227  0.28377499  0.49063599
   0.71038760  0.42370676  0.49054192