  95  95   0   0
  0.4078826E+02  0.1727104E-08  0.1727104E-08  0.1500000E-08  0.0000000E+00
  1.000000000000000E-004
  CAR 
 unknown system                          
      5.96450860    -31.02482439  301     -2.67733005      1.00000000
    -31.025  0.0000E+00  0.0000E+00  0.0000E+00  0.0000E+00
    -30.902  0.0000E+00  0.0000E+00  0.0000E+00  0.0000E+00
    -30.778  0.0000E+00  0.0000E+00  0.0000E+00  0.0000E+00
    -30.655  0.0000E+00  0.0000E+00  0.0000E+00  0.0000E+00
    -30.532  0.0000E+00  0.0000E+00  0.0000E+00  0.0000E+00
    -30.408  0.0000E+00  0.0000E+00  0.0000E+00  0.0000E+00
    -30.285  0.0000E+00  0.0000E+00  0.0000E+00  0.0000E+00
    -30.162  0.0000E+00  0.0000E+00  0.0000E+00  0.0000E+00
    -30.038  0.0000E+00  0.0000E+00  0.0000E+00  0.0000E+00
    -29.915  0.0000E+00  0.0000E+00  0.0000E+00  0.0000E+00
    -29.792  0.0000E+00  0.0000E+00  0.0000E+00  0.0000E+00
    -29.669  0.0000E+00  0.0000E+00  0.0000E+00  0.0000E+00
    -29.545  0.4655E-10  0.4655E-10  0.5740E-11  0.5740E-11
    -29.422  0.1072E-03  0.1072E-03  0.1322E-04  0.1322E-04
    -29.299  0.8889E-02  0.8889E-02  0.1109E-02  0.1109E-02
    -29.175  0.1515E-01  0.1515E-01  0.2977E-02  0.2977E-02
    -29.052  0.7855E-02  0.7855E-02  0.3946E-02  0.3946E-02
    -28.929  0.4413E-03  0.4413E-03  0.4000E-02  0.4000E-02
    -28.805  0.1445E-08  0.1445E-08  0.4000E-02  0.4000E-02
    -28.682  0.0000E+00  0.0000E+00  0.4000E-02  0.4000E-02
    -28.559  0.0000E+00  0.0000E+00  0.4000E-02  0.4000E-02
    -28.436  0.0000E+00  0.0000E+00  0.4000E-02  0.4000E-02
    -28.312  0.0000E+00  0.0000E+00  0.4000E-02  0.4000E-02
    -28.189  0.0000E+00  0.0000E+00  0.4000E-02  0.4000E-02
    -28.066  0.0000E+00  0.0000E+00  0.4000E-02  0.4000E-02
    -27.942  0.0000E+00  0.0000E+00  0.4000E-02  0.4000E-02
    -27.819  0.0000E+00  0.0000E+00  0.4000E-02  0.4000E-02
    -27.696  0.0000E+00  0.0000E+00  0.4000E-02  0.4000E-02
    -27.572  0.0000E+00  0.0000E+00  0.4000E-02  0.4000E-02
    -27.449  0.0000E+00  0.0000E+00  0.4000E-02  0.4000E-02
    -27.326  0.0000E+00  0.0000E+00  0.4000E-02  0.4000E-02
    -27.203  0.0000E+00  0.0000E+00  0.4000E-02  0.4000E-02
    -27.079  0.0000E+00  0.0000E+00  0.4000E-02  0.4000E-02
    -26.956  0.0000E+00  0.0000E+00  0.4000E-02  0.4000E-02
    -26.833  0.0000E+00  0.0000E+00  0.4000E-02  0.4000E-02
    -26.709  0.0000E+00  0.0000E+00  0.4000E-02  0.4000E-02
    -26.586  0.0000E+00  0.0000E+00  0.4000E-02  0.4000E-02
    -26.463  0.0000E+00  0.0000E+00  0.4000E-02  0.4000E-02
    -26.340  0.0000E+00  0.0000E+00  0.4000E-02  0.4000E-02
    -26.216  0.0000E+00  0.0000E+00  0.4000E-02  0.4000E-02
    -26.093  0.0000E+00  0.0000E+00  0.4000E-02  0.4000E-02
    -25.970  0.0000E+00  0.0000E+00  0.4000E-02  0.4000E-02
    -25.846  0.0000E+00  0.0000E+00  0.4000E-02  0.4000E-02
    -25.723  0.0000E+00  0.0000E+00  0.4000E-02  0.4000E-02
    -25.600  0.0000E+00  0.0000E+00  0.4000E-02  0.4000E-02
    -25.476  0.0000E+00  0.0000E+00  0.4000E-02  0.4000E-02
    -25.353  0.0000E+00  0.0000E+00  0.4000E-02  0.4000E-02
    -25.230  0.0000E+00  0.0000E+00  0.4000E-02  0.4000E-02
    -25.107  0.0000E+00  0.0000E+00  0.4000E-02  0.4000E-02
    -24.983  0.0000E+00  0.0000E+00  0.4000E-02  0.4000E-02
    -24.860  0.0000E+00  0.0000E+00  0.4000E-02  0.4000E-02
    -24.737  0.0000E+00  0.0000E+00  0.4000E-02  0.4000E-02
    -24.613  0.0000E+00  0.0000E+00  0.4000E-02  0.4000E-02
    -24.490  0.0000E+00  0.0000E+00  0.4000E-02  0.4000E-02
    -24.367  0.0000E+00  0.0000E+00  0.4000E-02  0.4000E-02
    -24.243  0.0000E+00  0.0000E+00  0.4000E-02  0.4000E-02
    -24.120  0.0000E+00  0.0000E+00  0.4000E-02  0.4000E-02
    -23.997  0.0000E+00  0.0000E+00  0.4000E-02  0.4000E-02
    -23.874  0.0000E+00  0.0000E+00  0.4000E-02  0.4000E-02
    -23.750  0.0000E+00  0.0000E+00  0.4000E-02  0.4000E-02
    -23.627  0.0000E+00  0.0000E+00  0.4000E-02  0.4000E-02
    -23.504  0.0000E+00  0.0000E+00  0.4000E-02  0.4000E-02
    -23.380  0.0000E+00  0.0000E+00  0.4000E-02  0.4000E-02
    -23.257  0.0000E+00  0.0000E+00  0.4000E-02  0.4000E-02
    -23.134  0.0000E+00  0.0000E+00  0.4000E-02  0.4000E-02
    -23.010  0.0000E+00  0.0000E+00  0.4000E-02  0.4000E-02
    -22.887  0.0000E+00  0.0000E+00  0.4000E-02  0.4000E-02
    -22.764  0.0000E+00  0.0000E+00  0.4000E-02  0.4000E-02
    -22.641  0.5665E-13  0.5665E-13  0.4000E-02  0.4000E-02
    -22.517  0.3213E-05  0.3213E-05  0.4000E-02  0.4000E-02
    -22.394  0.4740E-02  0.4740E-02  0.4585E-02  0.4585E-02
    -22.271  0.2060E-01  0.2060E-01  0.7125E-02  0.7125E-02
    -22.147  0.7089E-02  0.7089E-02  0.7999E-02  0.7999E-02
    -22.024  0.1078E-04  0.1078E-04  0.8000E-02  0.8000E-02
    -21.901  0.4492E-09  0.4492E-09  0.8000E-02  0.8000E-02
    -21.777  0.3056E-03  0.3056E-03  0.8038E-02  0.8038E-02
    -21.654  0.1752E-01  0.1752E-01  0.1020E-01  0.1020E-01
    -21.531  0.8080E-02  0.8080E-02  0.1119E-01  0.1119E-01
    -21.408  0.4298E-02  0.4298E-02  0.1172E-01  0.1172E-01
    -21.284  0.3939E-02  0.3939E-02  0.1221E-01  0.1221E-01
    -21.161  0.5128E-02  0.5128E-02  0.1284E-01  0.1284E-01
    -21.038  0.7290E-02  0.7290E-02  0.1374E-01  0.1374E-01
    -20.914  0.5215E-02  0.5215E-02  0.1438E-01  0.1438E-01
    -20.791  0.7394E-02  0.7394E-02  0.1530E-01  0.1530E-01
    -20.668  0.7740E-02  0.7740E-02  0.1625E-01  0.1625E-01
    -20.545  0.5190E-02  0.5190E-02  0.1689E-01  0.1689E-01
    -20.421  0.6874E-02  0.6874E-02  0.1774E-01  0.1774E-01
    -20.298  0.8991E-02  0.8991E-02  0.1885E-01  0.1885E-01
    -20.175  0.5037E-02  0.5037E-02  0.1947E-01  0.1947E-01
    -20.051  0.7008E-03  0.7008E-03  0.1955E-01  0.1955E-01
    -19.928  0.1172E-01  0.1172E-01  0.2100E-01  0.2100E-01
    -19.805  0.2773E-02  0.2773E-02  0.2134E-01  0.2134E-01
    -19.681  0.8500E-02  0.8500E-02  0.2239E-01  0.2239E-01
    -19.558  0.1185E-01  0.1185E-01  0.2385E-01  0.2385E-01
    -19.435  0.7903E-02  0.7903E-02  0.2482E-01  0.2482E-01
    -19.312  0.5066E-02  0.5066E-02  0.2545E-01  0.2545E-01
    -19.188  0.3418E-02  0.3418E-02  0.2587E-01  0.2587E-01
    -19.065  0.5764E-02  0.5764E-02  0.2658E-01  0.2658E-01
    -18.942  0.3400E-02  0.3400E-02  0.2700E-01  0.2700E-01
    -18.818  0.7057E-02  0.7057E-02  0.2787E-01  0.2787E-01
    -18.695  0.1780E-01  0.1780E-01  0.3006E-01  0.3006E-01
    -18.572  0.6560E-02  0.6560E-02  0.3087E-01  0.3087E-01
    -18.448  0.2562E-02  0.2562E-02  0.3119E-01  0.3119E-01
    -18.325  0.1008E-01  0.1008E-01  0.3243E-01  0.3243E-01
    -18.202  0.6071E-02  0.6071E-02  0.3318E-01  0.3318E-01
    -18.079  0.2608E-02  0.2608E-02  0.3350E-01  0.3350E-01
    -17.955  0.7515E-02  0.7515E-02  0.3443E-01  0.3443E-01
    -17.832  0.6054E-02  0.6054E-02  0.3517E-01  0.3517E-01
    -17.709  0.8824E-02  0.8824E-02  0.3626E-01  0.3626E-01
    -17.585  0.1307E-01  0.1307E-01  0.3787E-01  0.3787E-01
    -17.462  0.1155E-01  0.1155E-01  0.3930E-01  0.3930E-01
    -17.339  0.9459E-02  0.9459E-02  0.4046E-01  0.4046E-01
    -17.215  0.3796E-02  0.3796E-02  0.4093E-01  0.4093E-01
    -17.092  0.8249E-02  0.8249E-02  0.4195E-01  0.4195E-01
    -16.969  0.5123E-02  0.5123E-02  0.4258E-01  0.4258E-01
    -16.846  0.4754E-02  0.4754E-02  0.4317E-01  0.4317E-01
    -16.722  0.6448E-02  0.6448E-02  0.4396E-01  0.4396E-01
    -16.599  0.1705E-01  0.1705E-01  0.4606E-01  0.4606E-01
    -16.476  0.1111E-01  0.1111E-01  0.4743E-01  0.4743E-01
    -16.352  0.4390E-02  0.4390E-02  0.4798E-01  0.4798E-01
    -16.229  0.1958E-03  0.1958E-03  0.4800E-01  0.4800E-01
    -16.106  0.4669E-05  0.4669E-05  0.4800E-01  0.4800E-01
    -15.982  0.1565E-02  0.1565E-02  0.4819E-01  0.4819E-01
    -15.859  0.6179E-02  0.6179E-02  0.4896E-01  0.4896E-01
    -15.736  0.3188E-02  0.3188E-02  0.4935E-01  0.4935E-01
    -15.613  0.7330E-02  0.7330E-02  0.5025E-01  0.5025E-01
    -15.489  0.6577E-02  0.6577E-02  0.5106E-01  0.5106E-01
    -15.366  0.6607E-02  0.6607E-02  0.5188E-01  0.5188E-01
    -15.243  0.1456E-01  0.1456E-01  0.5367E-01  0.5367E-01
    -15.119  0.8201E-02  0.8201E-02  0.5468E-01  0.5468E-01
    -14.996  0.5296E-02  0.5296E-02  0.5534E-01  0.5534E-01
    -14.873  0.8588E-02  0.8588E-02  0.5640E-01  0.5640E-01
    -14.750  0.1028E-01  0.1028E-01  0.5766E-01  0.5766E-01
    -14.626  0.8778E-02  0.8778E-02  0.5874E-01  0.5874E-01
    -14.503  0.1374E-01  0.1374E-01  0.6044E-01  0.6044E-01
    -14.380  0.7640E-02  0.7640E-02  0.6138E-01  0.6138E-01
    -14.256  0.6871E-02  0.6871E-02  0.6223E-01  0.6223E-01
    -14.133  0.3998E-02  0.3998E-02  0.6272E-01  0.6272E-01
    -14.010  0.3875E-02  0.3875E-02  0.6320E-01  0.6320E-01
    -13.886  0.5254E-02  0.5254E-02  0.6385E-01  0.6385E-01
    -13.763  0.1210E-01  0.1210E-01  0.6534E-01  0.6534E-01
    -13.640  0.1086E-01  0.1086E-01  0.6668E-01  0.6668E-01
    -13.517  0.7682E-02  0.7682E-02  0.6762E-01  0.6762E-01
    -13.393  0.5358E-02  0.5358E-02  0.6828E-01  0.6828E-01
    -13.270  0.2281E-02  0.2281E-02  0.6857E-01  0.6857E-01
    -13.147  0.5916E-02  0.5916E-02  0.6929E-01  0.6929E-01
    -13.023  0.5022E-02  0.5022E-02  0.6991E-01  0.6991E-01
    -12.900  0.7375E-02  0.7375E-02  0.7082E-01  0.7082E-01
    -12.777  0.1506E-01  0.1506E-01  0.7268E-01  0.7268E-01
    -12.653  0.1396E-01  0.1396E-01  0.7440E-01  0.7440E-01
    -12.530  0.6426E-02  0.6426E-02  0.7519E-01  0.7519E-01
    -12.407  0.8617E-02  0.8617E-02  0.7626E-01  0.7626E-01
    -12.284  0.1018E-01  0.1018E-01  0.7751E-01  0.7751E-01
    -12.160  0.3637E-02  0.3637E-02  0.7796E-01  0.7796E-01
    -12.037  0.6649E-02  0.6649E-02  0.7878E-01  0.7878E-01
    -11.914  0.1084E-01  0.1084E-01  0.8012E-01  0.8012E-01
    -11.790  0.9803E-02  0.9803E-02  0.8133E-01  0.8133E-01
    -11.667  0.1371E-01  0.1371E-01  0.8302E-01  0.8302E-01
    -11.544  0.1052E-01  0.1052E-01  0.8431E-01  0.8431E-01
    -11.420  0.1284E-01  0.1284E-01  0.8590E-01  0.8590E-01
    -11.297  0.1068E-01  0.1068E-01  0.8721E-01  0.8721E-01
    -11.174  0.1178E-01  0.1178E-01  0.8866E-01  0.8866E-01
    -11.051  0.1031E-01  0.1031E-01  0.8994E-01  0.8994E-01
    -10.927  0.8128E-02  0.8128E-02  0.9094E-01  0.9094E-01
    -10.804  0.4331E-02  0.4331E-02  0.9147E-01  0.9147E-01
    -10.681  0.6691E-02  0.6691E-02  0.9230E-01  0.9230E-01
    -10.557  0.1180E-01  0.1180E-01  0.9375E-01  0.9375E-01
    -10.434  0.1362E-01  0.1362E-01  0.9543E-01  0.9543E-01
    -10.311  0.1556E-01  0.1556E-01  0.9735E-01  0.9735E-01
    -10.188  0.1673E-01  0.1673E-01  0.9941E-01  0.9941E-01
    -10.064  0.2091E-01  0.2091E-01  0.1020E+00  0.1020E+00
     -9.941  0.1821E-01  0.1821E-01  0.1042E+00  0.1042E+00
     -9.818  0.1837E-01  0.1837E-01  0.1065E+00  0.1065E+00
     -9.694  0.2072E-01  0.2072E-01  0.1091E+00  0.1091E+00
     -9.571  0.2302E-01  0.2302E-01  0.1119E+00  0.1119E+00
     -9.448  0.2115E-01  0.2115E-01  0.1145E+00  0.1145E+00
     -9.324  0.2205E-01  0.2205E-01  0.1172E+00  0.1172E+00
     -9.201  0.2078E-01  0.2078E-01  0.1198E+00  0.1198E+00
     -9.078  0.2188E-01  0.2188E-01  0.1225E+00  0.1225E+00
     -8.955  0.2409E-01  0.2409E-01  0.1254E+00  0.1254E+00
     -8.831  0.2464E-01  0.2464E-01  0.1285E+00  0.1285E+00
     -8.708  0.2013E-01  0.2013E-01  0.1310E+00  0.1310E+00
     -8.585  0.7490E-02  0.7490E-02  0.1319E+00  0.1319E+00
     -8.461  0.1825E-01  0.1825E-01  0.1341E+00  0.1341E+00
     -8.338  0.2362E-01  0.2362E-01  0.1371E+00  0.1371E+00
     -8.215  0.2008E-01  0.2008E-01  0.1395E+00  0.1395E+00
     -8.091  0.1763E-01  0.1763E-01  0.1417E+00  0.1417E+00
     -7.968  0.1212E-01  0.1212E-01  0.1432E+00  0.1432E+00
     -7.845  0.1291E-01  0.1291E-01  0.1448E+00  0.1448E+00
     -7.722  0.9389E-02  0.9389E-02  0.1459E+00  0.1459E+00
     -7.598  0.1004E-01  0.1004E-01  0.1472E+00  0.1472E+00
     -7.475  0.1968E-01  0.1968E-01  0.1496E+00  0.1496E+00
     -7.352  0.2687E-01  0.2687E-01  0.1529E+00  0.1529E+00
     -7.228  0.1725E-01  0.1725E-01  0.1551E+00  0.1551E+00
     -7.105  0.1750E-01  0.1750E-01  0.1572E+00  0.1572E+00
     -6.982  0.1424E-01  0.1424E-01  0.1590E+00  0.1590E+00
     -6.858  0.1114E-01  0.1114E-01  0.1603E+00  0.1603E+00
     -6.735  0.9170E-02  0.9170E-02  0.1615E+00  0.1615E+00
     -6.612  0.1161E-01  0.1161E-01  0.1629E+00  0.1629E+00
     -6.489  0.1326E-01  0.1326E-01  0.1645E+00  0.1645E+00
     -6.365  0.1402E-01  0.1402E-01  0.1663E+00  0.1663E+00
     -6.242  0.2131E-01  0.2131E-01  0.1689E+00  0.1689E+00
     -6.119  0.9218E-02  0.9218E-02  0.1700E+00  0.1700E+00
     -5.995  0.1037E-01  0.1037E-01  0.1713E+00  0.1713E+00
     -5.872  0.8602E-02  0.8602E-02  0.1724E+00  0.1724E+00
     -5.749  0.1008E-01  0.1008E-01  0.1736E+00  0.1736E+00
     -5.625  0.6848E-02  0.6848E-02  0.1745E+00  0.1745E+00
     -5.502  0.3373E-02  0.3373E-02  0.1749E+00  0.1749E+00
     -5.379  0.8253E-02  0.8253E-02  0.1759E+00  0.1759E+00
     -5.256  0.1264E-01  0.1264E-01  0.1774E+00  0.1774E+00
     -5.132  0.1871E-01  0.1871E-01  0.1798E+00  0.1798E+00
     -5.009  0.1692E-01  0.1692E-01  0.1818E+00  0.1818E+00
     -4.886  0.8997E-02  0.8997E-02  0.1829E+00  0.1829E+00
     -4.762  0.7134E-02  0.7134E-02  0.1838E+00  0.1838E+00
     -4.639  0.3306E-02  0.3306E-02  0.1842E+00  0.1842E+00
     -4.516  0.1039E-01  0.1039E-01  0.1855E+00  0.1855E+00
     -4.393  0.1060E-01  0.1060E-01  0.1868E+00  0.1868E+00
     -4.269  0.1133E-01  0.1133E-01  0.1882E+00  0.1882E+00
     -4.146  0.1652E-01  0.1652E-01  0.1903E+00  0.1903E+00
     -4.023  0.1390E-01  0.1390E-01  0.1920E+00  0.1920E+00
     -3.899  0.7596E-02  0.7596E-02  0.1929E+00  0.1929E+00
     -3.776  0.2569E-02  0.2569E-02  0.1932E+00  0.1932E+00
     -3.653  0.8556E-02  0.8556E-02  0.1943E+00  0.1943E+00
     -3.529  0.2132E-02  0.2132E-02  0.1945E+00  0.1945E+00
     -3.406  0.4094E-02  0.4094E-02  0.1950E+00  0.1950E+00
     -3.283  0.1668E-02  0.1668E-02  0.1953E+00  0.1953E+00
     -3.160  0.1799E-02  0.1799E-02  0.1955E+00  0.1955E+00
     -3.036  0.2923E-03  0.2923E-03  0.1955E+00  0.1955E+00
     -2.913  0.1919E-02  0.1919E-02  0.1957E+00  0.1957E+00
     -2.790  0.1933E-02  0.1933E-02  0.1960E+00  0.1960E+00
     -2.666  0.1179E-03  0.1179E-03  0.1960E+00  0.1960E+00
     -2.543  0.3575E-03  0.3575E-03  0.1960E+00  0.1960E+00
     -2.420  0.3318E-02  0.3318E-02  0.1965E+00  0.1965E+00
     -2.296  0.3803E-03  0.3803E-03  0.1965E+00  0.1965E+00
     -2.173  0.6643E-03  0.6643E-03  0.1966E+00  0.1966E+00
     -2.050  0.2452E-02  0.2452E-02  0.1969E+00  0.1969E+00
     -1.927  0.2448E-02  0.2448E-02  0.1972E+00  0.1972E+00
     -1.803  0.3599E-02  0.3599E-02  0.1976E+00  0.1976E+00
     -1.680  0.2992E-02  0.2992E-02  0.1980E+00  0.1980E+00
     -1.557  0.6200E-04  0.6200E-04  0.1980E+00  0.1980E+00
     -1.433  0.4503E-02  0.4503E-02  0.1986E+00  0.1986E+00
     -1.310  0.5931E-02  0.5931E-02  0.1993E+00  0.1993E+00
     -1.187  0.3614E-02  0.3614E-02  0.1997E+00  0.1997E+00
     -1.063  0.1587E-01  0.1587E-01  0.2017E+00  0.2017E+00
     -0.940  0.8912E-02  0.8912E-02  0.2028E+00  0.2028E+00
     -0.817  0.4949E-02  0.4949E-02  0.2034E+00  0.2034E+00
     -0.694  0.1358E-01  0.1358E-01  0.2051E+00  0.2051E+00
     -0.570  0.7332E-02  0.7332E-02  0.2060E+00  0.2060E+00
     -0.447  0.4818E-02  0.4818E-02  0.2066E+00  0.2066E+00
     -0.324  0.6955E-02  0.6955E-02  0.2074E+00  0.2074E+00
     -0.200  0.8151E-02  0.8151E-02  0.2084E+00  0.2084E+00
     -0.077  0.1162E-01  0.1162E-01  0.2099E+00  0.2099E+00
      0.046  0.1311E-01  0.1311E-01  0.2115E+00  0.2115E+00
      0.170  0.4126E-02  0.4126E-02  0.2120E+00  0.2120E+00
      0.293  0.1029E-02  0.1029E-02  0.2121E+00  0.2121E+00
      0.416  0.6853E-02  0.6853E-02  0.2130E+00  0.2130E+00
      0.539  0.7364E-02  0.7364E-02  0.2139E+00  0.2139E+00
      0.663  0.5602E-02  0.5602E-02  0.2146E+00  0.2146E+00
      0.786  0.4468E-02  0.4468E-02  0.2151E+00  0.2151E+00
      0.909  0.7684E-02  0.7684E-02  0.2161E+00  0.2161E+00
      1.033  0.1025E-01  0.1025E-01  0.2173E+00  0.2173E+00
      1.156  0.4848E-02  0.4848E-02  0.2179E+00  0.2179E+00
      1.279  0.1337E-01  0.1337E-01  0.2196E+00  0.2196E+00
      1.402  0.1977E-01  0.1977E-01  0.2220E+00  0.2220E+00
      1.526  0.1222E-01  0.1222E-01  0.2235E+00  0.2235E+00
      1.649  0.6745E-02  0.6745E-02  0.2244E+00  0.2244E+00
      1.772  0.6421E-02  0.6421E-02  0.2251E+00  0.2251E+00
      1.896  0.1564E-01  0.1564E-01  0.2271E+00  0.2271E+00
      2.019  0.2348E-01  0.2348E-01  0.2300E+00  0.2300E+00
      2.142  0.1254E-01  0.1254E-01  0.2315E+00  0.2315E+00
      2.266  0.1014E-01  0.1014E-01  0.2328E+00  0.2328E+00
      2.389  0.2033E-01  0.2033E-01  0.2353E+00  0.2353E+00
      2.512  0.2334E-01  0.2334E-01  0.2382E+00  0.2382E+00
      2.635  0.9858E-02  0.9858E-02  0.2394E+00  0.2394E+00
      2.759  0.1775E-01  0.1775E-01  0.2416E+00  0.2416E+00
      2.882  0.3201E-01  0.3201E-01  0.2455E+00  0.2455E+00
      3.005  0.4388E-01  0.4388E-01  0.2509E+00  0.2509E+00
      3.129  0.1535E-01  0.1535E-01  0.2528E+00  0.2528E+00
      3.252  0.1169E-01  0.1169E-01  0.2542E+00  0.2542E+00
      3.375  0.1772E-01  0.1772E-01  0.2564E+00  0.2564E+00
      3.499  0.2280E-01  0.2280E-01  0.2592E+00  0.2592E+00
      3.622  0.1453E-01  0.1453E-01  0.2610E+00  0.2610E+00
      3.745  0.1731E-01  0.1731E-01  0.2632E+00  0.2632E+00
      3.868  0.2872E-01  0.2872E-01  0.2667E+00  0.2667E+00
      3.992  0.3091E-01  0.3091E-01  0.2705E+00  0.2705E+00
      4.115  0.1569E-01  0.1569E-01  0.2725E+00  0.2725E+00
      4.238  0.1326E-01  0.1326E-01  0.2741E+00  0.2741E+00
      4.362  0.7336E-02  0.7337E-02  0.2750E+00  0.2750E+00
      4.485  0.4170E-04  0.4171E-04  0.2750E+00  0.2750E+00
      4.608  0.1287E-10  0.1287E-10  0.2750E+00  0.2750E+00
      4.732  0.0000E+00  0.0000E+00  0.2750E+00  0.2750E+00
      4.855  0.0000E+00  0.0000E+00  0.2750E+00  0.2750E+00
      4.978  0.0000E+00  0.0000E+00  0.2750E+00  0.2750E+00
      5.101  0.0000E+00  0.0000E+00  0.2750E+00  0.2750E+00
      5.225  0.0000E+00  0.0000E+00  0.2750E+00  0.2750E+00
      5.348  0.0000E+00  0.0000E+00  0.2750E+00  0.2750E+00
      5.471  0.0000E+00  0.0000E+00  0.2750E+00  0.2750E+00
      5.595  0.0000E+00  0.0000E+00  0.2750E+00  0.2750E+00
      5.718  0.0000E+00  0.0000E+00  0.2750E+00  0.2750E+00
      5.841  0.0000E+00  0.0000E+00  0.2750E+00  0.2750E+00
      5.965  0.0000E+00  0.0000E+00  0.2750E+00  0.2750E+00
