 vasp.6.4.2 20Jul23 (build Aug 26 2025 15:10:52) complex                        
  
 POSCAR found type information on POSCAR C F N H O 
 03/POSCAR found :  5 types and      95 ions
 Reading from existing POTCAR
 scaLAPACK will be used
 -----------------------------------------------------------------------------
|                                                                             |
|           W    W    AA    RRRRR   N    N  II  N    N   GGGG   !!!           |
|           W    W   A  A   R    R  NN   N  II  NN   N  G    G  !!!           |
|           W    W  A    A  R    R  N N  N  II  N N  N  G       !!!           |
|           W WW W  AAAAAA  RRRRR   N  N N  II  N  N N  G  GGG   !            |
|           WW  WW  A    A  R   R   N   NN  II  N   NN  G    G                |
|           W    W  A    A  R    R  N    N  II  N    N   GGGG   !!!           |
|                                                                             |
|     For optimal performance we recommend to set                             |
|       NCORE = 2 up to number-of-cores-per-socket                            |
|     NCORE specifies how many cores store one orbital (NPAR=cpu/NCORE).      |
|     This setting can greatly improve the performance of VASP for DFT.       |
|     The default, NCORE=1 might be grossly inefficient on modern             |
|     multi-core architectures or massively parallel machines. Do your        |
|     own testing! More info at https://www.vasp.at/wiki/index.php/NCORE      |
|     Unfortunately you need to use the default for GW and RPA                |
|     calculations (for HF NCORE is supported but not extensively tested      |
|     yet).                                                                   |
|                                                                             |
 -----------------------------------------------------------------------------

 Reading from existing POTCAR
 LDA part: xc-table for Pade appr. of Perdew
 POSCAR found type information on POSCAR C F N H O 
 00/POSCAR found :  5 types and      95 ions
 POSCAR found type information on POSCAR C F N H O 
 06/POSCAR found :  5 types and      95 ions
 Jacobian:    33.5511073471780     
 POSCAR found type information on POSCAR C F N H O 
 00/POSCAR found :  5 types and      95 ions
 POSCAR found type information on POSCAR C F N H O 
 06/POSCAR found :  5 types and      95 ions
 POSCAR, INCAR and KPOINTS ok, starting setup
 FFT: planning ... GRIDC
 FFT: planning ... GRID_SOFT
 FFT: planning ... GRID
 WAVECAR not read
 entering main loop
       N       E                     dE             d eps       ncg     rms          rms(c)
DAV:   1     0.360669418131E+04    0.36067E+04   -0.14967E+05  4780   0.109E+03
DAV:   2    -0.184415239280E+03   -0.37911E+04   -0.35763E+04  6580   0.269E+02
DAV:   3    -0.851088528513E+03   -0.66667E+03   -0.66342E+03  5460   0.118E+02
DAV:   4    -0.873392123646E+03   -0.22304E+02   -0.22197E+02  5450   0.269E+01
DAV:   5    -0.874088961424E+03   -0.69684E+00   -0.69581E+00  6250   0.404E+00    0.518E+01
DAV:   6    -0.857055058808E+03    0.17034E+02   -0.21277E+01  5370   0.855E+00    0.336E+01
DAV:   7    -0.836782218503E+03    0.20273E+02   -0.33110E+01  5200   0.945E+00    0.203E+01
DAV:   8    -0.832120605155E+03    0.46616E+01   -0.20035E+01  5190   0.686E+00    0.821E+00
DAV:   9    -0.832247431327E+03   -0.12683E+00   -0.10275E+00  5210   0.191E+00    0.369E+00
DAV:  10    -0.832076216247E+03    0.17122E+00   -0.52115E-01  5040   0.131E+00    0.111E+00
DAV:  11    -0.832062015694E+03    0.14201E-01   -0.10964E-01  5020   0.610E-01    0.298E-01
DAV:  12    -0.832061844082E+03    0.17161E-03   -0.11630E-02  5340   0.268E-01    0.130E-01
DAV:  13    -0.832062081320E+03   -0.23724E-03   -0.21092E-03  5230   0.952E-02    0.995E-02
DAV:  14    -0.832062098492E+03   -0.17172E-04   -0.25376E-04  5250   0.361E-02    0.648E-02
DAV:  15    -0.832062164433E+03   -0.65940E-04   -0.24970E-04  4980   0.361E-02    0.264E-02
DAV:  16    -0.832062162134E+03    0.22981E-05   -0.38786E-05  4460   0.164E-02
   1 F= -.83972982E+03 E0= -.83972982E+03  d E =-.839730E+03  mag=     0.0007
quench:  g(F)=  0.000E+00 g(S)=  0.000E+00 dE (1.order)= 0.000E+00
 bond charge predicted
       N       E                     dE             d eps       ncg     rms          rms(c)
DAV:   1    -0.832062267757E+03   -0.10332E-03   -0.94580E-03  4700   0.147E-01    0.202E-02
DAV:   2    -0.832062280225E+03   -0.12468E-04   -0.18871E-04  4720   0.207E-02    0.138E-02
DAV:   3    -0.832062279037E+03    0.11885E-05   -0.50415E-06  3290   0.534E-03
   2 F= -.83972993E+03 E0= -.83972993E+03  d E =-.109986E-03  mag=    -0.0000
quench:  g(F)=  0.000E+00 g(S)=  0.000E+00 dE (1.order)= 0.000E+00
 bond charge predicted
       N       E                     dE             d eps       ncg     rms          rms(c)
DAV:   1    -0.832062427878E+03   -0.14765E-03   -0.32114E-02  4670   0.283E-01    0.352E-02
DAV:   2    -0.832062468339E+03   -0.40461E-04   -0.60386E-04  4640   0.375E-02    0.246E-02
DAV:   3    -0.832062466869E+03    0.14699E-05   -0.95194E-06  3460   0.572E-03
   3 F= -.83973011E+03 E0= -.83973011E+03  d E =-.179464E-03  mag=     0.0000
quench:  g(F)=  0.000E+00 g(S)=  0.000E+00 dE (1.order)= 0.000E+00
 bond charge predicted
       N       E                     dE             d eps       ncg     rms          rms(c)
DAV:   1    -0.832062653179E+03   -0.18484E-03   -0.63714E-02  4580   0.418E-01    0.467E-02
DAV:   2    -0.832062737640E+03   -0.84461E-04   -0.12043E-03  4560   0.551E-02    0.332E-02
DAV:   3    -0.832062736772E+03    0.86732E-06   -0.15511E-05  3770   0.756E-03
   4 F= -.83973038E+03 E0= -.83973038E+03  d E =-.262641E-03  mag=    -0.0000
quench:  g(F)=  0.000E+00 g(S)=  0.000E+00 dE (1.order)= 0.000E+00
 bond charge predicted
       N       E                     dE             d eps       ncg     rms          rms(c)
DAV:   1    -0.832062917930E+03   -0.18029E-03   -0.10740E-01  4580   0.556E-01    0.588E-02
DAV:   2    -0.832063068099E+03   -0.15017E-03   -0.20546E-03  4480   0.733E-02    0.419E-02
DAV:   3    -0.832063065811E+03    0.22874E-05   -0.27146E-05  4200   0.100E-02
   5 F= -.83973070E+03 E0= -.83973070E+03  d E =-.322545E-03  mag=     0.0000
quench:  g(F)=  0.000E+00 g(S)=  0.000E+00 dE (1.order)= 0.000E+00
 bond charge predicted
       N       E                     dE             d eps       ncg     rms          rms(c)
DAV:   1    -0.832063183604E+03   -0.11551E-03   -0.16413E-01  4580   0.694E-01    0.734E-02
DAV:   2    -0.832063411567E+03   -0.22796E-03   -0.31456E-03  4480   0.918E-02    0.526E-02
DAV:   3    -0.832063408471E+03    0.30962E-05   -0.43420E-05  4650   0.126E-02
   6 F= -.83973103E+03 E0= -.83973103E+03  d E =-.333292E-03  mag=    -0.0000
quench:  g(F)=  0.000E+00 g(S)=  0.000E+00 dE (1.order)= 0.000E+00
 bond charge predicted
       N       E                     dE             d eps       ncg     rms          rms(c)
DAV:   1    -0.832063495824E+03   -0.84256E-04   -0.23596E-01  4580   0.832E-01    0.889E-02
DAV:   2    -0.832063819928E+03   -0.32410E-03   -0.45155E-03  4480   0.110E-01    0.635E-02
DAV:   3    -0.832063816602E+03    0.33263E-05   -0.64781E-05  4840   0.154E-02
   7 F= -.83973142E+03 E0= -.83973142E+03  d E =-.391998E-03  mag=     0.0000
quench:  g(F)=  0.000E+00 g(S)=  0.000E+00 dE (1.order)= 0.000E+00
 bond charge predicted
       N       E                     dE             d eps       ncg     rms          rms(c)
DAV:   1    -0.832063750054E+03    0.69874E-04   -0.39800E-01  4550   0.109E+00    0.116E-01
DAV:   2    -0.832064316990E+03   -0.56694E-03   -0.77240E-03  4500   0.145E-01    0.825E-02
DAV:   3    -0.832064304651E+03    0.12339E-04   -0.11249E-04  5130   0.203E-02    0.641E-02
DAV:   4    -0.832064406827E+03   -0.10218E-03   -0.13138E-04  4340   0.244E-02    0.168E-02
DAV:   5    -0.832064423011E+03   -0.16184E-04   -0.40114E-05  4350   0.102E-02    0.956E-03
DAV:   6    -0.832064422518E+03    0.49322E-06   -0.50963E-06  3160   0.576E-03
   8 F= -.83973201E+03 E0= -.83973201E+03  d E =-.582632E-03  mag=    -0.0000
quench:  g(F)=  0.000E+00 g(S)=  0.000E+00 dE (1.order)= 0.000E+00
 bond charge predicted
       N       E                     dE             d eps       ncg     rms          rms(c)
DAV:   1    -0.832063877624E+03    0.54539E-03   -0.65246E-01  4540   0.142E+00    0.136E-01
DAV:   2    -0.832064988833E+03   -0.11112E-02   -0.13720E-02  4560   0.195E-01    0.944E-02
DAV:   3    -0.832064946278E+03    0.42555E-04   -0.17948E-04  5320   0.263E-02    0.747E-02
DAV:   4    -0.832065049022E+03   -0.10274E-03   -0.22593E-04  4380   0.336E-02    0.209E-02
DAV:   5    -0.832065071355E+03   -0.22333E-04   -0.65297E-05  4800   0.133E-02    0.129E-02
DAV:   6    -0.832065071775E+03   -0.41942E-06   -0.97523E-06  3160   0.858E-03
   9 F= -.83973264E+03 E0= -.83973264E+03  d E =-.629196E-03  mag=     0.0000
quench:  g(F)=  0.000E+00 g(S)=  0.000E+00 dE (1.order)= 0.000E+00
 bond charge predicted
       N       E                     dE             d eps       ncg     rms          rms(c)
DAV:   1    -0.832063836902E+03    0.12345E-02   -0.10577E+00  4530   0.184E+00    0.173E-01
DAV:   2    -0.832065729164E+03   -0.18923E-02   -0.22632E-02  4600   0.253E-01    0.120E-01
DAV:   3    -0.832065655960E+03    0.73204E-04   -0.28819E-04  5290   0.336E-02    0.955E-02
DAV:   4    -0.832065787958E+03   -0.13200E-03   -0.37904E-04  4540   0.432E-02    0.271E-02
DAV:   5    -0.832065825068E+03   -0.37110E-04   -0.10363E-04  4820   0.172E-02    0.170E-02
DAV:   6    -0.832065826935E+03   -0.18669E-05   -0.18683E-05  3580   0.115E-02
  10 F= -.83973338E+03 E0= -.83973338E+03  d E =-.741280E-03  mag=     0.0000
quench:  g(F)=  0.000E+00 g(S)=  0.000E+00 dE (1.order)= 0.000E+00
 bond charge predicted
       N       E                     dE             d eps       ncg     rms          rms(c)
DAV:   1    -0.832063422430E+03    0.24026E-02   -0.17065E+00  4520   0.235E+00    0.220E-01
DAV:   2    -0.832066563703E+03   -0.31413E-02   -0.36881E-02  4630   0.322E-01    0.150E-01
DAV:   3    -0.832066457532E+03    0.10617E-03   -0.45555E-04  5280   0.424E-02    0.119E-01
DAV:   4    -0.832066627844E+03   -0.17031E-03   -0.54635E-04  4580   0.534E-02    0.333E-02
DAV:   5    -0.832066687223E+03   -0.59380E-04   -0.16266E-04  4860   0.215E-02    0.203E-02
DAV:   6    -0.832066689760E+03   -0.25363E-05   -0.24710E-05  4050   0.136E-02
  11 F= -.83973421E+03 E0= -.83973421E+03  d E =-.834990E-03  mag=     0.0000
quench:  g(F)=  0.000E+00 g(S)=  0.000E+00 dE (1.order)= 0.000E+00
 bond charge predicted
       N       E                     dE             d eps       ncg     rms          rms(c)
DAV:   1    -0.832062383473E+03    0.43038E-02   -0.26369E+00  4520   0.294E+00    0.274E-01
DAV:   2    -0.832067391259E+03   -0.50078E-02   -0.57974E-02  4665   0.405E-01    0.185E-01
DAV:   3    -0.832067227567E+03    0.16369E-03   -0.69188E-04  5340   0.527E-02    0.147E-01
DAV:   4    -0.832067447482E+03   -0.21991E-03   -0.80425E-04  4600   0.664E-02    0.406E-02
DAV:   5    -0.832067543682E+03   -0.96201E-04   -0.24912E-04  4860   0.268E-02    0.250E-02
DAV:   6    -0.832067547829E+03   -0.41463E-05   -0.37090E-05  4300   0.167E-02
  12 F= -.83973503E+03 E0= -.83973503E+03  d E =-.820846E-03  mag=     0.0000
quench:  g(F)=  0.000E+00 g(S)=  0.000E+00 dE (1.order)= 0.000E+00
 bond charge predicted
       N       E                     dE             d eps       ncg     rms          rms(c)
DAV:   1    -0.832060243576E+03    0.73001E-02   -0.39452E+00  4500   0.364E+00    0.335E-01
DAV:   2    -0.832067973009E+03   -0.77294E-02   -0.88250E-02  4665   0.505E-01    0.231E-01
DAV:   3    -0.832067713564E+03    0.25944E-03   -0.10725E-03  5300   0.657E-02    0.183E-01
DAV:   4    -0.832067948597E+03   -0.23503E-03   -0.13128E-03  4800   0.837E-02    0.526E-02
DAV:   5    -0.832068080668E+03   -0.13207E-03   -0.38002E-04  4840   0.337E-02    0.325E-02
DAV:   6    -0.832068091598E+03   -0.10931E-04   -0.68217E-05  4280   0.224E-02    0.161E-02
DAV:   7    -0.832068098040E+03   -0.64411E-05   -0.20665E-05  3840   0.939E-03
  13 F= -.83973554E+03 E0= -.83973554E+03  d E =-.509016E-03  mag=     0.0000
quench:  g(F)=  0.000E+00 g(S)=  0.000E+00 dE (1.order)= 0.000E+00
 bond charge predicted
       N       E                     dE             d eps       ncg     rms          rms(c)
DAV:   1    -0.832056206108E+03    0.11885E-01   -0.52205E+00  4500   0.426E+00    0.398E-01
DAV:   2    -0.832066565573E+03   -0.10359E-01   -0.11915E-01  4710   0.594E-01    0.273E-01
DAV:   3    -0.832066175844E+03    0.38973E-03   -0.16387E-03  5400   0.815E-02    0.214E-01
DAV:   4    -0.832066367772E+03   -0.19193E-03   -0.14721E-03  4820   0.916E-02    0.702E-02
DAV:   5    -0.832066541996E+03   -0.17422E-03   -0.54787E-04  4830   0.401E-02    0.376E-02
DAV:   6    -0.832066553651E+03   -0.11655E-04   -0.79346E-05  4520   0.222E-02    0.200E-02
DAV:   7    -0.832066566526E+03   -0.12874E-04   -0.22427E-05  3790   0.936E-03    0.111E-02
DAV:   8    -0.832066566050E+03    0.47597E-06   -0.53383E-06  3420   0.651E-03
  14 F= -.83973395E+03 E0= -.83973395E+03  d E =0.159643E-02  mag=    -0.0000
quench:  g(F)=  0.000E+00 g(S)=  0.000E+00 dE (1.order)= 0.000E+00
 bond charge predicted
       N       E                     dE             d eps       ncg     rms          rms(c)
DAV:   1    -0.832068510953E+03   -0.19444E-02   -0.15941E-01  4520   0.695E-01    0.871E-02
DAV:   2    -0.832068842630E+03   -0.33168E-03   -0.43408E-03  5080   0.108E-01    0.787E-02
DAV:   3    -0.832068790006E+03    0.52624E-04   -0.10563E-04  5290   0.191E-02    0.647E-02
DAV:   4    -0.832068724638E+03    0.65368E-04   -0.19296E-04  4580   0.257E-02    0.248E-02
DAV:   5    -0.832068728182E+03   -0.35447E-05   -0.56185E-05  4320   0.121E-02
  15 F= -.83973611E+03 E0= -.83973611E+03  d E =-.216666E-02  mag=     0.0000
quench:  g(F)=  0.000E+00 g(S)=  0.000E+00 dE (1.order)= 0.000E+00
 bond charge predicted
       N       E                     dE             d eps       ncg     rms          rms(c)
DAV:   1    -0.832068731409E+03   -0.67715E-05   -0.31265E-04  4360   0.348E-02    0.615E-03
DAV:   2    -0.832068731904E+03   -0.49498E-06   -0.94631E-06  2820   0.575E-03
  16 F= -.83973612E+03 E0= -.83973612E+03  d E =-.294881E-05  mag=    -0.0000
quench:  g(F)=  0.000E+00 g(S)=  0.000E+00 dE (1.order)= 0.000E+00
 bond charge predicted
       N       E                     dE             d eps       ncg     rms          rms(c)
DAV:   1    -0.832068726342E+03    0.50674E-05   -0.11251E-03  4480   0.665E-02    0.871E-03
DAV:   2    -0.832068728058E+03   -0.17166E-05   -0.27152E-05  3880   0.986E-03
  17 F= -.83973611E+03 E0= -.83973611E+03  d E =0.535155E-05  mag=    -0.0000
quench:  g(F)=  0.000E+00 g(S)=  0.000E+00 dE (1.order)= 0.000E+00
 bond charge predicted
       N       E                     dE             d eps       ncg     rms          rms(c)
DAV:   1    -0.832068704318E+03    0.22023E-04   -0.23358E-03  4540   0.961E-02    0.138E-02
DAV:   2    -0.832068707251E+03   -0.29323E-05   -0.54460E-05  4920   0.139E-02
  18 F= -.83973609E+03 E0= -.83973609E+03  d E =0.227689E-04  mag=    -0.0000
quench:  g(F)=  0.000E+00 g(S)=  0.000E+00 dE (1.order)= 0.000E+00
 bond charge predicted
       N       E                     dE             d eps       ncg     rms          rms(c)
DAV:   1    -0.832068664935E+03    0.39384E-04   -0.38985E-03  4570   0.124E-01    0.186E-02
DAV:   2    -0.832068669224E+03   -0.42898E-05   -0.85637E-05  4820   0.175E-02
  19 F= -.83973605E+03 E0= -.83973605E+03  d E =0.399611E-04  mag=    -0.0000
quench:  g(F)=  0.000E+00 g(S)=  0.000E+00 dE (1.order)= 0.000E+00
 bond charge predicted
       N       E                     dE             d eps       ncg     rms          rms(c)
DAV:   1    -0.832068614669E+03    0.50265E-04   -0.58726E-03  4530   0.150E-01    0.228E-02
DAV:   2    -0.832068621094E+03   -0.64250E-05   -0.12404E-04  4640   0.208E-02    0.182E-02
DAV:   3    -0.832068621375E+03   -0.28082E-06   -0.33008E-06  2800   0.439E-03
  20 F= -.83973600E+03 E0= -.83973600E+03  d E =0.492075E-04  mag=    -0.0000
quench:  g(F)=  0.000E+00 g(S)=  0.000E+00 dE (1.order)= 0.000E+00
 bond charge predicted
       N       E                     dE             d eps       ncg     rms          rms(c)
DAV:   1    -0.832068559687E+03    0.61408E-04   -0.82798E-03  4530   0.176E-01    0.181E-02
DAV:   2    -0.832068572963E+03   -0.13276E-04   -0.17080E-04  4540   0.239E-02    0.135E-02
DAV:   3    -0.832068572806E+03    0.15679E-06   -0.25061E-06  2415   0.363E-03
  21 F= -.83973595E+03 E0= -.83973595E+03  d E =0.492747E-04  mag=    -0.0000
quench:  g(F)=  0.000E+00 g(S)=  0.000E+00 dE (1.order)= 0.000E+00
 bond charge predicted
       N       E                     dE             d eps       ncg     rms          rms(c)
DAV:   1    -0.832068485261E+03    0.87702E-04   -0.14193E-02  4520   0.229E-01    0.232E-02
DAV:   2    -0.832068508869E+03   -0.23608E-04   -0.29935E-04  4500   0.315E-02    0.175E-02
DAV:   3    -0.832068507990E+03    0.87905E-06   -0.47584E-06  3015   0.481E-03
  22 F= -.83973588E+03 E0= -.83973588E+03  d E =0.646537E-04  mag=     0.0000
quench:  g(F)=  0.000E+00 g(S)=  0.000E+00 dE (1.order)= 0.000E+00
 bond charge predicted
       N       E                     dE             d eps       ncg     rms          rms(c)
DAV:   1    -0.832068375236E+03    0.13363E-03   -0.23026E-02  4500   0.293E-01    0.299E-02
DAV:   2    -0.832068413146E+03   -0.37910E-04   -0.48508E-04  4500   0.401E-02    0.226E-02
DAV:   3    -0.832068411715E+03    0.14306E-05   -0.78644E-06  3445   0.613E-03
  23 F= -.83973579E+03 E0= -.83973579E+03  d E =0.958464E-04  mag=     0.0000
quench:  g(F)=  0.000E+00 g(S)=  0.000E+00 dE (1.order)= 0.000E+00
 bond charge predicted
       N       E                     dE             d eps       ncg     rms          rms(c)
DAV:   1    -0.832068221415E+03    0.19173E-03   -0.35779E-02  4500   0.367E-01    0.373E-02
DAV:   2    -0.832068280188E+03   -0.58774E-04   -0.75286E-04  4480   0.502E-02    0.279E-02
DAV:   3    -0.832068278109E+03    0.20794E-05   -0.12224E-05  3685   0.762E-03
  24 F= -.83973565E+03 E0= -.83973565E+03  d E =0.134198E-03  mag=     0.0000
quench:  g(F)=  0.000E+00 g(S)=  0.000E+00 dE (1.order)= 0.000E+00
 bond charge predicted
       N       E                     dE             d eps       ncg     rms          rms(c)
DAV:   1    -0.832068022172E+03    0.25802E-03   -0.55313E-02  4520   0.460E-01    0.461E-02
DAV:   2    -0.832068113262E+03   -0.91090E-04   -0.11698E-03  4480   0.628E-02    0.346E-02
DAV:   3    -0.832068110451E+03    0.28109E-05   -0.19145E-05  3900   0.945E-03
  25 F= -.83973548E+03 E0= -.83973548E+03  d E =0.171035E-03  mag=     0.0000
quench:  g(F)=  0.000E+00 g(S)=  0.000E+00 dE (1.order)= 0.000E+00
 bond charge predicted
       N       E                     dE             d eps       ncg     rms          rms(c)
DAV:   1    -0.832067741790E+03    0.37147E-03   -0.87196E-02  4500   0.578E-01    0.581E-02
DAV:   2    -0.832067885514E+03   -0.14372E-03   -0.18452E-03  4480   0.791E-02    0.436E-02
DAV:   3    -0.832067881105E+03    0.44091E-05   -0.31808E-05  4540   0.119E-02
  26 F= -.83973525E+03 E0= -.83973525E+03  d E =0.237880E-03  mag=    -0.0000
quench:  g(F)=  0.000E+00 g(S)=  0.000E+00 dE (1.order)= 0.000E+00
 bond charge predicted
       N       E                     dE             d eps       ncg     rms          rms(c)
DAV:   1    -0.832067358111E+03    0.52740E-03   -0.13928E-01  4480   0.731E-01    0.737E-02
DAV:   2    -0.832067588380E+03   -0.23027E-03   -0.29583E-03  4465   0.100E-01    0.556E-02
DAV:   3    -0.832067580658E+03    0.77220E-05   -0.52323E-05  4870   0.151E-02
  27 F= -.83973493E+03 E0= -.83973493E+03  d E =0.314145E-03  mag=    -0.0000
quench:  g(F)=  0.000E+00 g(S)=  0.000E+00 dE (1.order)= 0.000E+00
 bond charge predicted
       N       E                     dE             d eps       ncg     rms          rms(c)
DAV:   1    -0.832066844015E+03    0.74436E-03   -0.22159E-01  4480   0.918E-01    0.934E-02
DAV:   2    -0.832067212986E+03   -0.36897E-03   -0.47165E-03  4455   0.127E-01    0.707E-02
DAV:   3    -0.832067199465E+03    0.13521E-04   -0.83663E-05  5170   0.190E-02    0.541E-02
DAV:   4    -0.832067240207E+03   -0.40742E-04   -0.84342E-05  4300   0.215E-02    0.147E-02
DAV:   5    -0.832067248133E+03   -0.79255E-05   -0.26823E-05  3920   0.924E-03
  28 F= -.83973458E+03 E0= -.83973458E+03  d E =0.352771E-03  mag=     0.0000
quench:  g(F)=  0.000E+00 g(S)=  0.000E+00 dE (1.order)= 0.000E+00
 bond charge predicted
       N       E                     dE             d eps       ncg     rms          rms(c)
DAV:   1    -0.832066172848E+03    0.10674E-02   -0.33781E-01  4500   0.114E+00    0.108E-01
DAV:   2    -0.832066791621E+03   -0.61877E-03   -0.76025E-03  4500   0.161E-01    0.791E-02
DAV:   3    -0.832066763319E+03    0.28302E-04   -0.12945E-04  5115   0.238E-02    0.611E-02
DAV:   4    -0.832066799781E+03   -0.36462E-04   -0.12620E-04  4460   0.269E-02    0.185E-02
DAV:   5    -0.832066811092E+03   -0.11311E-04   -0.38953E-05  4640   0.111E-02    0.101E-02
DAV:   6    -0.832066811345E+03   -0.25342E-06   -0.74547E-06  3180   0.709E-03
  29 F= -.83973412E+03 E0= -.83973412E+03  d E =0.456768E-03  mag=     0.0000
quench:  g(F)=  0.000E+00 g(S)=  0.000E+00 dE (1.order)= 0.000E+00
 bond charge predicted
       N       E                     dE             d eps       ncg     rms          rms(c)
DAV:   1    -0.832065386539E+03    0.14246E-02   -0.48927E-01  4500   0.137E+00    0.129E-01
DAV:   2    -0.832066272145E+03   -0.88561E-03   -0.10901E-02  4510   0.193E-01    0.948E-02
DAV:   3    -0.832066229023E+03    0.43123E-04   -0.18854E-04  5140   0.287E-02    0.731E-02
DAV:   4    -0.832066271319E+03   -0.42297E-04   -0.18168E-04  4555   0.322E-02    0.223E-02
DAV:   5    -0.832066287144E+03   -0.15825E-04   -0.56377E-05  4820   0.134E-02    0.119E-02
DAV:   6    -0.832066287680E+03   -0.53532E-06   -0.99864E-06  3140   0.829E-03
  30 F= -.83973358E+03 E0= -.83973358E+03  d E =0.542745E-03  mag=     0.0000
quench:  g(F)=  0.000E+00 g(S)=  0.000E+00 dE (1.order)= 0.000E+00
 bond charge predicted
       N       E                     dE             d eps       ncg     rms          rms(c)
DAV:   1    -0.832064320898E+03    0.19662E-02   -0.73940E-01  4500   0.167E+00    0.158E-01
DAV:   2    -0.832065673968E+03   -0.13531E-02   -0.16483E-02  4485   0.236E-01    0.116E-01
DAV:   3    -0.832065606423E+03    0.67546E-04   -0.27897E-04  5140   0.349E-02    0.900E-02
DAV:   4    -0.832065662659E+03   -0.56237E-04   -0.28860E-04  4555   0.402E-02    0.275E-02
DAV:   5    -0.832065686850E+03   -0.24190E-04   -0.86885E-05  4920   0.166E-02    0.152E-02
DAV:   6    -0.832065687516E+03   -0.66591E-06   -0.16903E-05  3560   0.105E-02
  31 F= -.83973296E+03 E0= -.83973296E+03  d E =0.618228E-03  mag=     0.0000
quench:  g(F)=  0.000E+00 g(S)=  0.000E+00 dE (1.order)= 0.000E+00
 bond charge predicted
       N       E                     dE             d eps       ncg     rms          rms(c)
DAV:   1    -0.832062923037E+03    0.27638E-02   -0.11076E+00  4500   0.205E+00    0.194E-01
DAV:   2    -0.832064995580E+03   -0.20725E-02   -0.25015E-02  4510   0.291E-01    0.141E-01
DAV:   3    -0.832064897926E+03    0.97654E-04   -0.41336E-04  5180   0.427E-02    0.110E-01
DAV:   4    -0.832064978307E+03   -0.80381E-04   -0.40614E-04  4620   0.487E-02    0.343E-02
DAV:   5    -0.832065016700E+03   -0.38393E-04   -0.12827E-04  4940   0.202E-02    0.186E-02
DAV:   6    -0.832065016997E+03   -0.29703E-06   -0.26563E-05  4020   0.133E-02
  32 F= -.83973225E+03 E0= -.83973225E+03  d E =0.707637E-03  mag=     0.0000
quench:  g(F)=  0.000E+00 g(S)=  0.000E+00 dE (1.order)= 0.000E+00
 bond charge predicted
       N       E                     dE             d eps       ncg     rms          rms(c)
DAV:   1    -0.832061146089E+03    0.38706E-02   -0.16086E+00  4500   0.247E+00    0.234E-01
DAV:   2    -0.832064221559E+03   -0.30755E-02   -0.36748E-02  4555   0.351E-01    0.167E-01
DAV:   3    -0.832064089499E+03    0.13206E-03   -0.59704E-04  5160   0.512E-02    0.130E-01
DAV:   4    -0.832064191427E+03   -0.10193E-03   -0.52894E-04  4620   0.562E-02    0.421E-02
DAV:   5    -0.832064249170E+03   -0.57742E-04   -0.17808E-04  4880   0.238E-02    0.219E-02
DAV:   6    -0.832064248807E+03    0.36230E-06   -0.37038E-05  4220   0.158E-02
  33 F= -.83973143E+03 E0= -.83973143E+03  d E =0.826127E-03  mag=     0.0000
quench:  g(F)=  0.000E+00 g(S)=  0.000E+00 dE (1.order)= 0.000E+00
 bond charge predicted
       N       E                     dE             d eps       ncg     rms          rms(c)
DAV:   1    -0.832058449503E+03    0.57997E-02   -0.23965E+00  4500   0.302E+00    0.280E-01
DAV:   2    -0.832063199051E+03   -0.47495E-02   -0.55663E-02  4545   0.432E-01    0.203E-01
DAV:   3    -0.832062990202E+03    0.20885E-03   -0.85317E-04  5220   0.614E-02    0.158E-01
DAV:   4    -0.832063119798E+03   -0.12960E-03   -0.89897E-04  4940   0.719E-02    0.493E-02
DAV:   5    -0.832063197612E+03   -0.77814E-04   -0.26883E-04  4880   0.295E-02    0.281E-02
DAV:   6    -0.832063198418E+03   -0.80639E-06   -0.60102E-05  4220   0.198E-02
  34 F= -.83973033E+03 E0= -.83973033E+03  d E =0.109248E-02  mag=     0.0000
quench:  g(F)=  0.000E+00 g(S)=  0.000E+00 dE (1.order)= 0.000E+00
 bond charge predicted
       N       E                     dE             d eps       ncg     rms          rms(c)
DAV:   1    -0.832055034388E+03    0.81632E-02   -0.31146E+00  4500   0.348E+00    0.326E-01
DAV:   2    -0.832061439369E+03   -0.64050E-02   -0.75219E-02  4615   0.499E-01    0.233E-01
DAV:   3    -0.832061161440E+03    0.27793E-03   -0.12064E-03  5300   0.722E-02    0.183E-01
DAV:   4    -0.832061276657E+03   -0.11522E-03   -0.10127E-03  5080   0.773E-02    0.623E-02
DAV:   5    -0.832061394359E+03   -0.11770E-03   -0.36139E-04  4800   0.342E-02    0.316E-02
DAV:   6    -0.832061393624E+03    0.73507E-06   -0.69394E-05  4420   0.205E-02
  35 F= -.83972845E+03 E0= -.83972845E+03  d E =0.188943E-02  mag=     0.0000
quench:  g(F)=  0.000E+00 g(S)=  0.000E+00 dE (1.order)= 0.000E+00
 bond charge predicted
       N       E                     dE             d eps       ncg     rms          rms(c)
DAV:   1    -0.832062547667E+03   -0.11533E-02   -0.74089E-02  4530   0.483E-01    0.587E-02
DAV:   2    -0.832062696508E+03   -0.14884E-03   -0.20101E-03  5120   0.752E-02    0.532E-02
DAV:   3    -0.832062674046E+03    0.22461E-04   -0.55601E-05  4740   0.143E-02    0.436E-02
DAV:   4    -0.832062645510E+03    0.28537E-04   -0.78433E-05  4320   0.165E-02    0.176E-02
DAV:   5    -0.832062646829E+03   -0.13198E-05   -0.26896E-05  3560   0.859E-03
  36 F= -.83972970E+03 E0= -.83972970E+03  d E =-.125584E-02  mag=     0.0000
quench:  g(F)=  0.000E+00 g(S)=  0.000E+00 dE (1.order)= 0.000E+00
 bond charge predicted
       N       E                     dE             d eps       ncg     rms          rms(c)
DAV:   1    -0.832061616217E+03    0.10293E-02   -0.83918E-02  4480   0.545E-01    0.607E-02
DAV:   2    -0.832061805658E+03   -0.18944E-03   -0.23650E-03  5240   0.846E-02    0.533E-02
DAV:   3    -0.832061785441E+03    0.20217E-04   -0.57824E-05  4900   0.146E-02    0.438E-02
DAV:   4    -0.832061762471E+03    0.22970E-04   -0.78330E-05  4340   0.173E-02    0.174E-02
DAV:   5    -0.832061764916E+03   -0.24453E-05   -0.25326E-05  3560   0.858E-03
  37 F= -.83972881E+03 E0= -.83972881E+03  d E =0.888811E-03  mag=     0.0000
quench:  g(F)=  0.000E+00 g(S)=  0.000E+00 dE (1.order)= 0.000E+00
 bond charge predicted
       N       E                     dE             d eps       ncg     rms          rms(c)
DAV:   1    -0.832062141595E+03   -0.37912E-03   -0.31587E-03  4530   0.995E-02    0.117E-02
DAV:   2    -0.832062148770E+03   -0.71748E-05   -0.98932E-05  4660   0.159E-02
  38 F= -.83972919E+03 E0= -.83972919E+03  d E =-.381526E-03  mag=     0.0000
quench:  g(F)=  0.000E+00 g(S)=  0.000E+00 dE (1.order)= 0.000E+00
 bond charge predicted
       N       E                     dE             d eps       ncg     rms          rms(c)
DAV:   1    -0.832062565581E+03   -0.42399E-03   -0.99873E-03  4555   0.178E-01    0.284E-02
DAV:   2    -0.832062582066E+03   -0.16485E-04   -0.29685E-04  5340   0.278E-02    0.264E-02
DAV:   3    -0.832062575569E+03    0.64965E-05   -0.94887E-06  3140   0.608E-03
  39 F= -.83972962E+03 E0= -.83972962E+03  d E =-.422263E-03  mag=     0.0000
quench:  g(F)=  0.000E+00 g(S)=  0.000E+00 dE (1.order)= 0.000E+00
 bond charge predicted
       N       E                     dE             d eps       ncg     rms          rms(c)
DAV:   1    -0.832062639863E+03   -0.57798E-04   -0.14215E-02  4550   0.216E-01    0.299E-02
DAV:   2    -0.832062666020E+03   -0.26156E-04   -0.36964E-04  5260   0.321E-02    0.272E-02
DAV:   3    -0.832062661203E+03    0.48167E-05   -0.98529E-06  3320   0.635E-03
  40 F= -.83972970E+03 E0= -.83972970E+03  d E =-.792394E-04  mag=     0.0000
quench:  g(F)=  0.000E+00 g(S)=  0.000E+00 dE (1.order)= 0.000E+00
 bond charge predicted
       N       E                     dE             d eps       ncg     rms          rms(c)
DAV:   1    -0.832062658207E+03    0.78128E-05   -0.49513E-05  3760   0.131E-02    0.657E-03
DAV:   2    -0.832062658702E+03   -0.49527E-06   -0.58343E-06  2560   0.409E-03
  41 F= -.83972969E+03 E0= -.83972969E+03  d E =0.268981E-05  mag=     0.0000
quench:  g(F)=  0.000E+00 g(S)=  0.000E+00 dE (1.order)= 0.000E+00
 bond charge predicted
       N       E                     dE             d eps       ncg     rms          rms(c)
DAV:   1    -0.832062662753E+03   -0.45458E-05   -0.58065E-05  3920   0.144E-02    0.295E-03
DAV:   2    -0.832062662905E+03   -0.15209E-06   -0.16665E-06  2380   0.250E-03
  42 F= -.83972970E+03 E0= -.83972970E+03  d E =-.384349E-05  mag=     0.0000
quench:  g(F)=  0.000E+00 g(S)=  0.000E+00 dE (1.order)= 0.000E+00
 bond charge predicted
       N       E                     dE             d eps       ncg     rms          rms(c)
DAV:   1    -0.832062667617E+03   -0.48642E-05   -0.12889E-04  4110   0.214E-02    0.266E-03
DAV:   2    -0.832062667866E+03   -0.24884E-06   -0.32416E-06  2385   0.334E-03
  43 F= -.83972970E+03 E0= -.83972970E+03  d E =-.442052E-05  mag=     0.0000
quench:  g(F)=  0.000E+00 g(S)=  0.000E+00 dE (1.order)= 0.000E+00
 bond charge predicted
       N       E                     dE             d eps       ncg     rms          rms(c)
DAV:   1    -0.832062671809E+03   -0.41917E-05   -0.22220E-04  4210   0.281E-02    0.383E-03
DAV:   2    -0.832062672179E+03   -0.37045E-06   -0.55022E-06  2465   0.428E-03
  44 F= -.83972970E+03 E0= -.83972970E+03  d E =-.359756E-05  mag=     0.0000
quench:  g(F)=  0.000E+00 g(S)=  0.000E+00 dE (1.order)= 0.000E+00
 bond charge predicted
       N       E                     dE             d eps       ncg     rms          rms(c)
DAV:   1    -0.832062674114E+03   -0.23053E-05   -0.32949E-04  4250   0.343E-02    0.509E-03
DAV:   2    -0.832062674609E+03   -0.49532E-06   -0.80024E-06  2625   0.515E-03
  45 F= -.83972971E+03 E0= -.83972971E+03  d E =-.151747E-05  mag=     0.0000
quench:  g(F)=  0.000E+00 g(S)=  0.000E+00 dE (1.order)= 0.000E+00
 bond charge predicted
       N       E                     dE             d eps       ncg     rms          rms(c)
DAV:   1    -0.832062673525E+03    0.58898E-06   -0.44693E-04  4290   0.402E-02    0.616E-03
DAV:   2    -0.832062674183E+03   -0.65837E-06   -0.10685E-05  2825   0.593E-03
  46 F= -.83972970E+03 E0= -.83972970E+03  d E =0.154381E-05  mag=     0.0000
quench:  g(F)=  0.000E+00 g(S)=  0.000E+00 dE (1.order)= 0.000E+00
 bond charge predicted
       N       E                     dE             d eps       ncg     rms          rms(c)
DAV:   1    -0.832062669304E+03    0.42208E-05   -0.70836E-04  4365   0.510E-02    0.745E-03
DAV:   2    -0.832062670375E+03   -0.10704E-05   -0.16625E-05  3040   0.735E-03
  47 F= -.83972970E+03 E0= -.83972970E+03  d E =0.528175E-05  mag=     0.0000
quench:  g(F)=  0.000E+00 g(S)=  0.000E+00 dE (1.order)= 0.000E+00
 bond charge predicted
       N       E                     dE             d eps       ncg     rms          rms(c)
DAV:   1    -0.832062661407E+03    0.78977E-05   -0.10808E-03  4430   0.633E-02    0.899E-03
DAV:   2    -0.832062663024E+03   -0.16175E-05   -0.24765E-05  3245   0.892E-03
  48 F= -.83972969E+03 E0= -.83972969E+03  d E =0.926961E-05  mag=     0.0000
quench:  g(F)=  0.000E+00 g(S)=  0.000E+00 dE (1.order)= 0.000E+00
 bond charge predicted
       N       E                     dE             d eps       ncg     rms          rms(c)
DAV:   1    -0.832062651207E+03    0.10200E-04   -0.16252E-03  4435   0.780E-02    0.108E-02
DAV:   2    -0.832062653719E+03   -0.25115E-05   -0.37208E-05  3665   0.109E-02
  49 F= -.83972968E+03 E0= -.83972968E+03  d E =0.117685E-04  mag=     0.0000
quench:  g(F)=  0.000E+00 g(S)=  0.000E+00 dE (1.order)= 0.000E+00
 bond charge predicted
       N       E                     dE             d eps       ncg     rms          rms(c)
DAV:   1    -0.832062639879E+03    0.11328E-04   -0.24249E-03  4460   0.955E-02    0.129E-02
DAV:   2    -0.832062643643E+03   -0.37635E-05   -0.55179E-05  4000   0.133E-02
  50 F= -.83972967E+03 E0= -.83972967E+03  d E =0.131439E-04  mag=     0.0000
quench:  g(F)=  0.000E+00 g(S)=  0.000E+00 dE (1.order)= 0.000E+00
 bond charge predicted
       N       E                     dE             d eps       ncg     rms          rms(c)
DAV:   1    -0.832062627453E+03    0.12427E-04   -0.36542E-03  4485   0.117E-01    0.158E-02
DAV:   2    -0.832062633194E+03   -0.57410E-05   -0.83755E-05  4410   0.163E-02
  51 F= -.83972965E+03 E0= -.83972965E+03  d E =0.144117E-04  mag=     0.0000
quench:  g(F)=  0.000E+00 g(S)=  0.000E+00 dE (1.order)= 0.000E+00
 bond charge predicted
       N       E                     dE             d eps       ncg     rms          rms(c)
DAV:   1    -0.832062611796E+03    0.15657E-04   -0.55555E-03  4545   0.144E-01    0.195E-02
DAV:   2    -0.832062620266E+03   -0.84703E-05   -0.12660E-04  4540   0.200E-02    0.156E-02
DAV:   3    -0.832062620847E+03   -0.58120E-06   -0.19120E-06  2640   0.327E-03
  52 F= -.83972963E+03 E0= -.83972963E+03  d E =0.173389E-04  mag=     0.0000
quench:  g(F)=  0.000E+00 g(S)=  0.000E+00 dE (1.order)= 0.000E+00
 bond charge predicted
       N       E                     dE             d eps       ncg     rms          rms(c)
DAV:   1    -0.832062589528E+03    0.30738E-04   -0.83780E-03  4510   0.177E-01    0.166E-02
DAV:   2    -0.832062605143E+03   -0.15615E-04   -0.18681E-04  4560   0.240E-02    0.112E-02
DAV:   3    -0.832062605042E+03    0.10136E-06   -0.18489E-06  2350   0.307E-03
  53 F= -.83972961E+03 E0= -.83972961E+03  d E =0.222032E-04  mag=     0.0000
quench:  g(F)=  0.000E+00 g(S)=  0.000E+00 dE (1.order)= 0.000E+00
 bond charge predicted
       N       E                     dE             d eps       ncg     rms          rms(c)
DAV:   1    -0.832062553046E+03    0.52097E-04   -0.13067E-02  4520   0.220E-01    0.202E-02
DAV:   2    -0.832062578308E+03   -0.25262E-04   -0.29962E-04  4510   0.304E-02    0.137E-02
DAV:   3    -0.832062577898E+03    0.41022E-06   -0.28859E-06  2720   0.385E-03
  54 F= -.83972958E+03 E0= -.83972958E+03  d E =0.349752E-04  mag=     0.0000
quench:  g(F)=  0.000E+00 g(S)=  0.000E+00 dE (1.order)= 0.000E+00
 bond charge predicted
       N       E                     dE             d eps       ncg     rms          rms(c)
DAV:   1    -0.832062505235E+03    0.73073E-04   -0.19806E-02  4500   0.270E-01    0.248E-02
DAV:   2    -0.832062543162E+03   -0.37927E-04   -0.44947E-04  4460   0.370E-02    0.168E-02
DAV:   3    -0.832062542611E+03    0.55102E-06   -0.44186E-06  2985   0.461E-03
  55 F= -.83972953E+03 E0= -.83972953E+03  d E =0.441856E-04  mag=     0.0000
quench:  g(F)=  0.000E+00 g(S)=  0.000E+00 dE (1.order)= 0.000E+00
 bond charge predicted
       N       E                     dE             d eps       ncg     rms          rms(c)
DAV:   1    -0.832062444062E+03    0.99100E-04   -0.29690E-02  4500   0.329E-01    0.304E-02
DAV:   2    -0.832062500355E+03   -0.56293E-04   -0.67100E-04  4460   0.452E-02    0.207E-02
DAV:   3    -0.832062499537E+03    0.81868E-06   -0.68627E-06  3470   0.563E-03
  56 F= -.83972948E+03 E0= -.83972948E+03  d E =0.530538E-04  mag=     0.0000
quench:  g(F)=  0.000E+00 g(S)=  0.000E+00 dE (1.order)= 0.000E+00
 bond charge predicted
       N       E                     dE             d eps       ncg     rms          rms(c)
DAV:   1    -0.832062353789E+03    0.14657E-03   -0.43993E-02  4520   0.399E-01    0.374E-02
DAV:   2    -0.832062436015E+03   -0.82226E-04   -0.99109E-04  4455   0.548E-02    0.256E-02
DAV:   3    -0.832062435172E+03    0.84308E-06   -0.10565E-05  3680   0.685E-03
  57 F= -.83972940E+03 E0= -.83972940E+03  d E =0.755154E-04  mag=     0.0000
quench:  g(F)=  0.000E+00 g(S)=  0.000E+00 dE (1.order)= 0.000E+00
 bond charge predicted
       N       E                     dE             d eps       ncg     rms          rms(c)
DAV:   1    -0.832062228879E+03    0.20714E-03   -0.63930E-02  4500   0.480E-01    0.455E-02
DAV:   2    -0.832062346717E+03   -0.11784E-03   -0.14364E-03  4450   0.659E-02    0.309E-02
DAV:   3    -0.832062345831E+03    0.88592E-06   -0.15932E-05  4020   0.827E-03
  58 F= -.83972930E+03 E0= -.83972930E+03  d E =0.101410E-03  mag=     0.0000
quench:  g(F)=  0.000E+00 g(S)=  0.000E+00 dE (1.order)= 0.000E+00
 bond charge predicted
       N       E                     dE             d eps       ncg     rms          rms(c)
DAV:   1    -0.832062080304E+03    0.26641E-03   -0.90363E-02  4520   0.567E-01    0.551E-02
DAV:   2    -0.832062241996E+03   -0.16169E-03   -0.20157E-03  4440   0.779E-02    0.376E-02
DAV:   3    -0.832062241767E+03    0.22847E-06   -0.23743E-05  4320   0.100E-02
  59 F= -.83972919E+03 E0= -.83972919E+03  d E =0.116480E-03  mag=     0.0000
quench:  g(F)=  0.000E+00 g(S)=  0.000E+00 dE (1.order)= 0.000E+00
 bond charge predicted
       N       E                     dE             d eps       ncg     rms          rms(c)
DAV:   1    -0.832061878759E+03    0.36324E-03   -0.13252E-01  4520   0.683E-01    0.675E-02
DAV:   2    -0.832062109868E+03   -0.23111E-03   -0.29347E-03  4430   0.938E-02    0.462E-02
DAV:   3    -0.832062110391E+03   -0.52335E-06   -0.36590E-05  4740   0.122E-02
  60 F= -.83972904E+03 E0= -.83972904E+03  d E =0.141939E-03  mag=     0.0000
quench:  g(F)=  0.000E+00 g(S)=  0.000E+00 dE (1.order)= 0.000E+00
 bond charge predicted
       N       E                     dE             d eps       ncg     rms          rms(c)
DAV:   1    -0.832061596180E+03    0.51369E-03   -0.19619E-01  4520   0.822E-01    0.825E-02
DAV:   2    -0.832061934028E+03   -0.33785E-03   -0.42928E-03  4430   0.113E-01    0.568E-02
DAV:   3    -0.832061931816E+03    0.22126E-05   -0.54533E-05  4860   0.147E-02
  61 F= -.83972886E+03 E0= -.83972886E+03  d E =0.188334E-03  mag=     0.0000
quench:  g(F)=  0.000E+00 g(S)=  0.000E+00 dE (1.order)= 0.000E+00
 bond charge predicted
       N       E                     dE             d eps       ncg     rms          rms(c)
DAV:   1    -0.832061202149E+03    0.73188E-03   -0.28933E-01  4520   0.989E-01    0.101E-01
DAV:   2    -0.832061704425E+03   -0.50228E-03   -0.62977E-03  4430   0.136E-01    0.697E-02
DAV:   3    -0.832061698231E+03    0.61941E-05   -0.81820E-05  4980   0.179E-02
  62 F= -.83972861E+03 E0= -.83972861E+03  d E =0.246937E-03  mag=     0.0000
quench:  g(F)=  0.000E+00 g(S)=  0.000E+00 dE (1.order)= 0.000E+00
 bond charge predicted
       N       E                     dE             d eps       ncg     rms          rms(c)
DAV:   1    -0.832060704548E+03    0.99988E-03   -0.40097E-01  4520   0.115E+00    0.122E-01
DAV:   2    -0.832061402357E+03   -0.69781E-03   -0.87287E-03  4420   0.158E-01    0.835E-02
DAV:   3    -0.832061394722E+03    0.76344E-05   -0.11761E-04  5160   0.214E-02    0.647E-02
DAV:   4    -0.832061478982E+03   -0.84260E-04   -0.11700E-04  4430   0.242E-02    0.165E-02
DAV:   5    -0.832061492509E+03   -0.13526E-04   -0.37254E-05  4180   0.103E-02    0.962E-03
DAV:   6    -0.832061491970E+03    0.53919E-06   -0.61554E-06  3240   0.590E-03
  63 F= -.83972838E+03 E0= -.83972838E+03  d E =0.228942E-03  mag=     0.0000
quench:  g(F)=  0.000E+00 g(S)=  0.000E+00 dE (1.order)= 0.000E+00
 bond charge predicted
       N       E                     dE             d eps       ncg     rms          rms(c)
DAV:   1    -0.832060018797E+03    0.14737E-02   -0.56156E-01  4540   0.134E+00    0.136E-01
DAV:   2    -0.832061085818E+03   -0.10670E-02   -0.12817E-02  4550   0.189E-01    0.904E-02
DAV:   3    -0.832061062946E+03    0.22872E-04   -0.16959E-04  5120   0.257E-02    0.706E-02
DAV:   4    -0.832061126612E+03   -0.63666E-04   -0.18965E-04  4450   0.306E-02    0.197E-02
DAV:   5    -0.832061143124E+03   -0.16512E-04   -0.55087E-05  4680   0.125E-02    0.124E-02
DAV:   6    -0.832061142965E+03    0.15975E-06   -0.10739E-05  3400   0.816E-03
  64 F= -.83972800E+03 E0= -.83972800E+03  d E =0.380894E-03  mag=     0.0000
quench:  g(F)=  0.000E+00 g(S)=  0.000E+00 dE (1.order)= 0.000E+00
 bond charge predicted
       N       E                     dE             d eps       ncg     rms          rms(c)
DAV:   1    -0.832059237117E+03    0.19060E-02   -0.78154E-01  4540   0.155E+00    0.159E-01
DAV:   2    -0.832060663710E+03   -0.14266E-02   -0.17096E-02  4570   0.216E-01    0.108E-01
DAV:   3    -0.832060621898E+03    0.41813E-04   -0.23682E-04  5100   0.299E-02    0.846E-02
DAV:   4    -0.832060699751E+03   -0.77853E-04   -0.29882E-04  4510   0.367E-02    0.229E-02
DAV:   5    -0.832060720681E+03   -0.20930E-04   -0.80976E-05  4860   0.150E-02    0.151E-02
DAV:   6    -0.832060720916E+03   -0.23490E-06   -0.15199E-05  3470   0.948E-03
  65 F= -.83972754E+03 E0= -.83972754E+03  d E =0.455250E-03  mag=     0.0000
quench:  g(F)=  0.000E+00 g(S)=  0.000E+00 dE (1.order)= 0.000E+00
 bond charge predicted
       N       E                     dE             d eps       ncg     rms          rms(c)
DAV:   1    -0.832058317016E+03    0.24037E-02   -0.10034E+00  4540   0.173E+00    0.182E-01
DAV:   2    -0.832060086340E+03   -0.17693E-02   -0.21450E-02  4580   0.239E-01    0.124E-01
DAV:   3    -0.832060032720E+03    0.53620E-04   -0.31484E-04  5080   0.347E-02    0.964E-02
DAV:   4    -0.832060131965E+03   -0.99246E-04   -0.36206E-04  4510   0.408E-02    0.263E-02
DAV:   5    -0.832060157738E+03   -0.25773E-04   -0.10281E-04  4920   0.167E-02    0.164E-02
DAV:   6    -0.832060158056E+03   -0.31749E-06   -0.17829E-05  3700   0.101E-02
  66 F= -.83972693E+03 E0= -.83972693E+03  d E =0.611229E-03  mag=     0.0000
quench:  g(F)=  0.000E+00 g(S)=  0.000E+00 dE (1.order)= 0.000E+00
 bond charge predicted
       N       E                     dE             d eps       ncg     rms          rms(c)
DAV:   1    -0.832056929219E+03    0.32285E-02   -0.14095E+00  4540   0.199E+00    0.212E-01
DAV:   2    -0.832059405771E+03   -0.24766E-02   -0.29562E-02  4590   0.274E-01    0.149E-01
DAV:   3    -0.832059301402E+03    0.10437E-03   -0.44952E-04  5120   0.405E-02    0.116E-01
DAV:   4    -0.832059394708E+03   -0.93306E-04   -0.63893E-04  4550   0.513E-02    0.305E-02
DAV:   5    -0.832059427866E+03   -0.33157E-04   -0.16266E-04  5000   0.210E-02    0.207E-02
DAV:   6    -0.832059429273E+03   -0.14073E-05   -0.26860E-05  3860   0.120E-02
  67 F= -.83972615E+03 E0= -.83972615E+03  d E =0.783152E-03  mag=     0.0000
quench:  g(F)=  0.000E+00 g(S)=  0.000E+00 dE (1.order)= 0.000E+00
 bond charge predicted
       N       E                     dE             d eps       ncg     rms          rms(c)
DAV:   1    -0.832055020766E+03    0.44071E-02   -0.17328E+00  4540   0.220E+00    0.244E-01
DAV:   2    -0.832058117939E+03   -0.30972E-02   -0.37694E-02  4605   0.303E-01    0.172E-01
DAV:   3    -0.832057984743E+03    0.13320E-03   -0.62206E-04  5220   0.472E-02    0.133E-01
DAV:   4    -0.832058071862E+03   -0.87119E-04   -0.65213E-04  4570   0.537E-02    0.390E-02
DAV:   5    -0.832058126526E+03   -0.54664E-04   -0.22065E-04  4900   0.231E-02    0.219E-02
DAV:   6    -0.832058125700E+03    0.82626E-06   -0.29531E-05  4220   0.123E-02
  68 F= -.83972476E+03 E0= -.83972476E+03  d E =0.138888E-02  mag=     0.0000
quench:  g(F)=  0.000E+00 g(S)=  0.000E+00 dE (1.order)= 0.000E+00
 bond charge predicted
       N       E                     dE             d eps       ncg     rms          rms(c)
DAV:   1    -0.832058931566E+03   -0.80504E-03   -0.60570E-02  4580   0.352E-01    0.516E-02
DAV:   2    -0.832059056369E+03   -0.12480E-03   -0.16111E-03  5040   0.540E-02    0.483E-02
DAV:   3    -0.832059038336E+03    0.18033E-04   -0.30649E-05  3940   0.948E-03    0.406E-02
DAV:   4    -0.832059012341E+03    0.25995E-04   -0.89516E-05  4080   0.149E-02    0.133E-02
DAV:   5    -0.832059014402E+03   -0.20608E-05   -0.21847E-05  3680   0.640E-03
  69 F= -.83972565E+03 E0= -.83972565E+03  d E =-.893221E-03  mag=     0.0000
quench:  g(F)=  0.000E+00 g(S)=  0.000E+00 dE (1.order)= 0.000E+00
 bond charge predicted
       N       E                     dE             d eps       ncg     rms          rms(c)
DAV:   1    -0.832058215891E+03    0.79645E-03   -0.55357E-02  4520   0.362E-01    0.478E-02
DAV:   2    -0.832058344081E+03   -0.12819E-03   -0.15481E-03  5040   0.551E-02    0.439E-02
DAV:   3    -0.832058330462E+03    0.13619E-04   -0.26680E-05  4020   0.907E-03    0.372E-02
DAV:   4    -0.832058312620E+03    0.17843E-04   -0.80835E-05  4200   0.150E-02    0.117E-02
DAV:   5    -0.832058314600E+03   -0.19800E-05   -0.16727E-05  3440   0.614E-03
  70 F= -.83972495E+03 E0= -.83972495E+03  d E =0.699242E-03  mag=     0.0000
quench:  g(F)=  0.000E+00 g(S)=  0.000E+00 dE (1.order)= 0.000E+00
 bond charge predicted
       N       E                     dE             d eps       ncg     rms          rms(c)
DAV:   1    -0.832058613108E+03   -0.30049E-03   -0.28105E-03  4610   0.761E-02    0.107E-02
DAV:   2    -0.832058619310E+03   -0.62020E-05   -0.81636E-05  3820   0.119E-02
  71 F= -.83972526E+03 E0= -.83972526E+03  d E =-.303120E-03  mag=     0.0000
quench:  g(F)=  0.000E+00 g(S)=  0.000E+00 dE (1.order)= 0.000E+00
 bond charge predicted
       N       E                     dE             d eps       ncg     rms          rms(c)
DAV:   1    -0.832058936775E+03   -0.32367E-03   -0.87836E-03  4640   0.135E-01    0.266E-02
DAV:   2    -0.832058950638E+03   -0.13863E-04   -0.24642E-04  4840   0.209E-02    0.249E-02
DAV:   3    -0.832058945128E+03    0.55102E-05   -0.68289E-06  3160   0.450E-03
  72 F= -.83972558E+03 E0= -.83972558E+03  d E =-.322654E-03  mag=    -0.0000
quench:  g(F)=  0.000E+00 g(S)=  0.000E+00 dE (1.order)= 0.000E+00
 bond charge predicted
       N       E                     dE             d eps       ncg     rms          rms(c)
DAV:   1    -0.832058962301E+03   -0.11663E-04   -0.11997E-02  4700   0.159E-01    0.266E-02
DAV:   2    -0.832058984200E+03   -0.21899E-04   -0.29858E-04  4980   0.232E-02    0.246E-02
DAV:   3    -0.832058980529E+03    0.36705E-05   -0.61758E-06  3240   0.435E-03
  73 F= -.83972561E+03 E0= -.83972561E+03  d E =-.310980E-04  mag=    -0.0000
quench:  g(F)=  0.000E+00 g(S)=  0.000E+00 dE (1.order)= 0.000E+00
 bond charge predicted
       N       E                     dE             d eps       ncg     rms          rms(c)
DAV:   1    -0.832058979267E+03    0.49331E-05   -0.46345E-05  3520   0.103E-02    0.539E-03
DAV:   2    -0.832058979825E+03   -0.55775E-06   -0.53264E-06  2640   0.336E-03
  74 F= -.83972561E+03 E0= -.83972561E+03  d E =0.761187E-06  mag=     0.0000
quench:  g(F)=  0.000E+00 g(S)=  0.000E+00 dE (1.order)= 0.000E+00
 bond charge predicted
       N       E                     dE             d eps       ncg     rms          rms(c)
DAV:   1    -0.832058985179E+03   -0.59117E-05   -0.44526E-05  3160   0.103E-02    0.233E-03
DAV:   2    -0.832058985303E+03   -0.12424E-06   -0.12925E-06  2385   0.196E-03
  75 F= -.83972562E+03 E0= -.83972562E+03  d E =-.537804E-05  mag=     0.0000
quench:  g(F)=  0.000E+00 g(S)=  0.000E+00 dE (1.order)= 0.000E+00
 bond charge predicted
       N       E                     dE             d eps       ncg     rms          rms(c)
DAV:   1    -0.832058991501E+03   -0.63224E-05   -0.98272E-05  3900   0.152E-02    0.224E-03
DAV:   2    -0.832058991690E+03   -0.18954E-06   -0.25237E-06  2395   0.249E-03
  76 F= -.83972562E+03 E0= -.83972562E+03  d E =-.623869E-05  mag=     0.0000
quench:  g(F)=  0.000E+00 g(S)=  0.000E+00 dE (1.order)= 0.000E+00
 bond charge predicted
       N       E                     dE             d eps       ncg     rms          rms(c)
DAV:   1    -0.832058996960E+03   -0.54587E-05   -0.16404E-04  4020   0.197E-02    0.353E-03
DAV:   2    -0.832058997199E+03   -0.23973E-06   -0.41794E-06  2550   0.315E-03
  77 F= -.83972563E+03 E0= -.83972563E+03  d E =-.529883E-05  mag=     0.0000
quench:  g(F)=  0.000E+00 g(S)=  0.000E+00 dE (1.order)= 0.000E+00
 bond charge predicted
       N       E                     dE             d eps       ncg     rms          rms(c)
DAV:   1    -0.832058999428E+03   -0.24683E-05   -0.23084E-04  4050   0.237E-02    0.476E-03
DAV:   2    -0.832058999697E+03   -0.26952E-06   -0.56682E-06  2540   0.372E-03
  78 F= -.83972563E+03 E0= -.83972563E+03  d E =-.222488E-05  mag=     0.0000
quench:  g(F)=  0.000E+00 g(S)=  0.000E+00 dE (1.order)= 0.000E+00
 bond charge predicted
       N       E                     dE             d eps       ncg     rms          rms(c)
DAV:   1    -0.832058997846E+03    0.15823E-05   -0.28890E-04  4120   0.269E-02    0.559E-03
DAV:   2    -0.832058998152E+03   -0.30619E-06   -0.67851E-06  2615   0.408E-03
  79 F= -.83972563E+03 E0= -.83972563E+03  d E =0.189689E-05  mag=     0.0000
quench:  g(F)=  0.000E+00 g(S)=  0.000E+00 dE (1.order)= 0.000E+00
 bond charge predicted
       N       E                     dE             d eps       ncg     rms          rms(c)
DAV:   1    -0.832058992006E+03    0.58391E-05   -0.41531E-04  4205   0.327E-02    0.637E-03
DAV:   2    -0.832058992477E+03   -0.47009E-06   -0.93449E-06  2640   0.480E-03
  80 F= -.83972562E+03 E0= -.83972562E+03  d E =0.620192E-05  mag=    -0.0000
quench:  g(F)=  0.000E+00 g(S)=  0.000E+00 dE (1.order)= 0.000E+00
 bond charge predicted
       N       E                     dE             d eps       ncg     rms          rms(c)
DAV:   1    -0.832058982834E+03    0.91725E-05   -0.57259E-04  4265   0.390E-02    0.726E-03
DAV:   2    -0.832058983465E+03   -0.63140E-06   -0.12311E-05  2710   0.556E-03
  81 F= -.83972561E+03 E0= -.83972561E+03  d E =0.975671E-05  mag=     0.0000
quench:  g(F)=  0.000E+00 g(S)=  0.000E+00 dE (1.order)= 0.000E+00
 bond charge predicted
       N       E                     dE             d eps       ncg     rms          rms(c)
DAV:   1    -0.832058972899E+03    0.99353E-05   -0.78847E-04  4365   0.463E-02    0.819E-03
DAV:   2    -0.832058973715E+03   -0.81607E-06   -0.15937E-05  2740   0.633E-03
  82 F= -.83972560E+03 E0= -.83972560E+03  d E =0.107734E-04  mag=     0.0000
quench:  g(F)=  0.000E+00 g(S)=  0.000E+00 dE (1.order)= 0.000E+00
 bond charge predicted
       N       E                     dE             d eps       ncg     rms          rms(c)
DAV:   1    -0.832058965057E+03    0.78416E-05   -0.11282E-03  4460   0.554E-02    0.939E-03
DAV:   2    -0.832058966134E+03   -0.10774E-05   -0.21941E-05  3160   0.735E-03
  83 F= -.83972559E+03 E0= -.83972559E+03  d E =0.898793E-05  mag=     0.0000
quench:  g(F)=  0.000E+00 g(S)=  0.000E+00 dE (1.order)= 0.000E+00
 bond charge predicted
       N       E                     dE             d eps       ncg     rms          rms(c)
DAV:   1    -0.832058959185E+03    0.58723E-05   -0.16980E-03  4500   0.678E-02    0.113E-02
DAV:   2    -0.832058960821E+03   -0.16365E-05   -0.33751E-05  3460   0.907E-03
  84 F= -.83972558E+03 E0= -.83972558E+03  d E =0.717111E-05  mag=     0.0000
quench:  g(F)=  0.000E+00 g(S)=  0.000E+00 dE (1.order)= 0.000E+00
 bond charge predicted
       N       E                     dE             d eps       ncg     rms          rms(c)
DAV:   1    -0.832058950538E+03    0.86464E-05   -0.26302E-03  4500   0.841E-02    0.141E-02
DAV:   2    -0.832058953087E+03   -0.25485E-05   -0.53482E-05  3780   0.114E-02
  85 F= -.83972557E+03 E0= -.83972557E+03  d E =0.100443E-04  mag=    -0.0000
quench:  g(F)=  0.000E+00 g(S)=  0.000E+00 dE (1.order)= 0.000E+00
 bond charge predicted
       N       E                     dE             d eps       ncg     rms          rms(c)
DAV:   1    -0.832058933353E+03    0.17186E-04   -0.40259E-03  4540   0.104E-01    0.178E-02
DAV:   2    -0.832058937070E+03   -0.37179E-05   -0.80627E-05  4080   0.138E-02
  86 F= -.83972556E+03 E0= -.83972556E+03  d E =0.188110E-04  mag=     0.0000
quench:  g(F)=  0.000E+00 g(S)=  0.000E+00 dE (1.order)= 0.000E+00
 bond charge predicted
       N       E                     dE             d eps       ncg     rms          rms(c)
DAV:   1    -0.832058907276E+03    0.26077E-04   -0.60148E-03  4550   0.126E-01    0.218E-02
DAV:   2    -0.832058912450E+03   -0.51744E-05   -0.11719E-04  4500   0.166E-02    0.171E-02
DAV:   3    -0.832058913473E+03   -0.10227E-05   -0.30468E-06  2910   0.357E-03
  87 F= -.83972553E+03 E0= -.83972553E+03  d E =0.267033E-04  mag=     0.0000
quench:  g(F)=  0.000E+00 g(S)=  0.000E+00 dE (1.order)= 0.000E+00
 bond charge predicted
       N       E                     dE             d eps       ncg     rms          rms(c)
DAV:   1    -0.832058879201E+03    0.33249E-04   -0.87423E-03  4520   0.151E-01    0.179E-02
DAV:   2    -0.832058891647E+03   -0.12446E-04   -0.16608E-04  4565   0.194E-02    0.123E-02
DAV:   3    -0.832058891751E+03   -0.10434E-06   -0.24568E-06  2545   0.301E-03
  88 F= -.83972550E+03 E0= -.83972550E+03  d E =0.249089E-04  mag=     0.0000
quench:  g(F)=  0.000E+00 g(S)=  0.000E+00 dE (1.order)= 0.000E+00
 bond charge predicted
       N       E                     dE             d eps       ncg     rms          rms(c)
DAV:   1    -0.832058848322E+03    0.43325E-04   -0.13372E-02  4520   0.185E-01    0.216E-02
DAV:   2    -0.832058868940E+03   -0.20618E-04   -0.26653E-04  4580   0.244E-02    0.150E-02
DAV:   3    -0.832058868617E+03    0.32379E-06   -0.40520E-06  3040   0.370E-03
  89 F= -.83972548E+03 E0= -.83972548E+03  d E =0.263035E-04  mag=     0.0000
quench:  g(F)=  0.000E+00 g(S)=  0.000E+00 dE (1.order)= 0.000E+00
 bond charge predicted
       N       E                     dE             d eps       ncg     rms          rms(c)
DAV:   1    -0.832058798314E+03    0.70626E-04   -0.20128E-02  4520   0.226E-01    0.268E-02
DAV:   2    -0.832058828958E+03   -0.30644E-04   -0.40157E-04  4540   0.297E-02    0.188E-02
DAV:   3    -0.832058828669E+03    0.28897E-06   -0.61220E-06  3300   0.453E-03
  90 F= -.83972543E+03 E0= -.83972543E+03  d E =0.440153E-04  mag=    -0.0000
quench:  g(F)=  0.000E+00 g(S)=  0.000E+00 dE (1.order)= 0.000E+00
 bond charge predicted
       N       E                     dE             d eps       ncg     rms          rms(c)
DAV:   1    -0.832058739254E+03    0.89704E-04   -0.28299E-02  4520   0.268E-01    0.319E-02
DAV:   2    -0.832058780594E+03   -0.41340E-04   -0.55493E-04  4535   0.347E-02    0.221E-02
DAV:   3    -0.832058780694E+03   -0.10012E-06   -0.84804E-06  3340   0.538E-03
  91 F= -.83972538E+03 E0= -.83972538E+03  d E =0.540303E-04  mag=    -0.0000
quench:  g(F)=  0.000E+00 g(S)=  0.000E+00 dE (1.order)= 0.000E+00
 bond charge predicted
       N       E                     dE             d eps       ncg     rms          rms(c)
DAV:   1    -0.832058684112E+03    0.96481E-04   -0.39905E-02  4520   0.317E-01    0.380E-02
DAV:   2    -0.832058742814E+03   -0.58702E-04   -0.78676E-04  4460   0.411E-02    0.263E-02
DAV:   3    -0.832058742398E+03    0.41626E-06   -0.12070E-05  3520   0.643E-03
  92 F= -.83972533E+03 E0= -.83972533E+03  d E =0.466960E-04  mag=     0.0000
quench:  g(F)=  0.000E+00 g(S)=  0.000E+00 dE (1.order)= 0.000E+00
 bond charge predicted
       N       E                     dE             d eps       ncg     rms          rms(c)
DAV:   1    -0.832058599307E+03    0.14351E-03   -0.58654E-02  4540   0.383E-01    0.458E-02
DAV:   2    -0.832058686429E+03   -0.87122E-04   -0.11542E-03  4480   0.495E-02    0.316E-02
DAV:   3    -0.832058685656E+03    0.77279E-06   -0.17218E-05  3660   0.762E-03
  93 F= -.83972527E+03 E0= -.83972527E+03  d E =0.676065E-04  mag=     0.0000
quench:  g(F)=  0.000E+00 g(S)=  0.000E+00 dE (1.order)= 0.000E+00
 bond charge predicted
       N       E                     dE             d eps       ncg     rms          rms(c)
DAV:   1    -0.832058505701E+03    0.18073E-03   -0.84854E-02  4520   0.457E-01    0.545E-02
DAV:   2    -0.832058633932E+03   -0.12823E-03   -0.16660E-03  4450   0.592E-02    0.373E-02
DAV:   3    -0.832058632729E+03    0.12027E-05   -0.24431E-05  3860   0.894E-03
  94 F= -.83972520E+03 E0= -.83972520E+03  d E =0.642521E-04  mag=    -0.0000
quench:  g(F)=  0.000E+00 g(S)=  0.000E+00 dE (1.order)= 0.000E+00
 bond charge predicted
       N       E                     dE             d eps       ncg     rms          rms(c)
DAV:   1    -0.832058367611E+03    0.26632E-03   -0.12494E-01  4520   0.553E-01    0.661E-02
DAV:   2    -0.832058559414E+03   -0.19180E-03   -0.24709E-03  4440   0.718E-02    0.452E-02
DAV:   3    -0.832058557579E+03    0.18343E-05   -0.36481E-05  4300   0.108E-02
  95 F= -.83972511E+03 E0= -.83972511E+03  d E =0.903591E-04  mag=    -0.0000
quench:  g(F)=  0.000E+00 g(S)=  0.000E+00 dE (1.order)= 0.000E+00
 bond charge predicted
       N       E                     dE             d eps       ncg     rms          rms(c)
DAV:   1    -0.832058228231E+03    0.33118E-03   -0.17381E-01  4520   0.653E-01    0.786E-02
DAV:   2    -0.832058489265E+03   -0.26103E-03   -0.34302E-03  4425   0.848E-02    0.536E-02
DAV:   3    -0.832058490012E+03   -0.74656E-06   -0.51755E-05  4580   0.129E-02
  96 F= -.83972503E+03 E0= -.83972503E+03  d E =0.842685E-04  mag=    -0.0000
quench:  g(F)=  0.000E+00 g(S)=  0.000E+00 dE (1.order)= 0.000E+00
 bond charge predicted
       N       E                     dE             d eps       ncg     rms          rms(c)
DAV:   1    -0.832058004262E+03    0.48500E-03   -0.25173E-01  4520   0.788E-01    0.948E-02
DAV:   2    -0.832058384378E+03   -0.38012E-03   -0.49998E-03  4405   0.103E-01    0.644E-02
DAV:   3    -0.832058386885E+03   -0.25077E-05   -0.75168E-05  4880   0.155E-02
  97 F= -.83972491E+03 E0= -.83972491E+03  d E =0.117577E-03  mag=     0.0000
quench:  g(F)=  0.000E+00 g(S)=  0.000E+00 dE (1.order)= 0.000E+00
 bond charge predicted
       N       E                     dE             d eps       ncg     rms          rms(c)
DAV:   1    -0.832057730909E+03    0.65347E-03   -0.35440E-01  4520   0.927E-01    0.112E-01
DAV:   2    -0.832058261517E+03   -0.53061E-03   -0.69750E-03  4420   0.121E-01    0.766E-02
DAV:   3    -0.832058262448E+03   -0.93075E-06   -0.10758E-04  5000   0.183E-02    0.585E-02
DAV:   4    -0.832058329445E+03   -0.66997E-04   -0.13105E-04  4355   0.217E-02    0.143E-02
DAV:   5    -0.832058339518E+03   -0.10073E-04   -0.34921E-05  3720   0.885E-03    0.958E-03
DAV:   6    -0.832058339022E+03    0.49646E-06   -0.56819E-06  3180   0.511E-03
  98 F= -.83972484E+03 E0= -.83972484E+03  d E =0.693650E-04  mag=    -0.0000
quench:  g(F)=  0.000E+00 g(S)=  0.000E+00 dE (1.order)= 0.000E+00
 bond charge predicted
       N       E                     dE             d eps       ncg     rms          rms(c)
DAV:   1    -0.832057404809E+03    0.93471E-03   -0.46778E-01  4560   0.106E+00    0.120E-01
DAV:   2    -0.832058173668E+03   -0.76886E-03   -0.96005E-03  4550   0.140E-01    0.804E-02
DAV:   3    -0.832058157792E+03    0.15876E-04   -0.14232E-04  5040   0.209E-02    0.624E-02
DAV:   4    -0.832058208980E+03   -0.51188E-04   -0.18383E-04  4420   0.258E-02    0.160E-02
DAV:   5    -0.832058219932E+03   -0.10952E-04   -0.48159E-05  3960   0.102E-02    0.109E-02
DAV:   6    -0.832058219804E+03    0.12788E-06   -0.80615E-06  3200   0.614E-03
  99 F= -.83972469E+03 E0= -.83972469E+03  d E =0.147848E-03  mag=    -0.0000
quench:  g(F)=  0.000E+00 g(S)=  0.000E+00 dE (1.order)= 0.000E+00
 bond charge predicted
       N       E                     dE             d eps       ncg     rms          rms(c)
DAV:   1    -0.832056918321E+03    0.13016E-02   -0.63603E-01  4560   0.121E+00    0.140E-01
DAV:   2    -0.832057989813E+03   -0.10715E-02   -0.13092E-02  4610   0.162E-01    0.956E-02
DAV:   3    -0.832057953485E+03    0.36328E-04   -0.19419E-04  5120   0.237E-02    0.746E-02
DAV:   4    -0.832058011724E+03   -0.58239E-04   -0.28841E-04  4460   0.317E-02    0.189E-02
DAV:   5    -0.832058026258E+03   -0.14534E-04   -0.71254E-05  4480   0.126E-02    0.138E-02
DAV:   6    -0.832058025806E+03    0.45221E-06   -0.12365E-05  3440   0.768E-03
 100 F= -.83972447E+03 E0= -.83972447E+03  d E =0.217877E-03  mag=    -0.0000
quench:  g(F)=  0.000E+00 g(S)=  0.000E+00 dE (1.order)= 0.000E+00
 bond charge predicted
       N       E                     dE             d eps       ncg     rms          rms(c)
DAV:   1    -0.832058157109E+03   -0.13085E-03   -0.65980E-03  4580   0.125E-01    0.175E-02
DAV:   2    -0.832058172081E+03   -0.14972E-04   -0.19364E-04  4820   0.191E-02    0.165E-02
DAV:   3    -0.832058170099E+03    0.19822E-05   -0.33178E-06  2700   0.321E-03
 101 F= -.83972462E+03 E0= -.83972462E+03  d E =-.144237E-03  mag=     0.0000
quench:  g(F)=  0.000E+00 g(S)=  0.000E+00 dE (1.order)= 0.000E+00
 bond charge predicted
       N       E                     dE             d eps       ncg     rms          rms(c)
DAV:   1    -0.832058066037E+03    0.10604E-03   -0.97325E-03  4590   0.158E-01    0.231E-02
DAV:   2    -0.832058085990E+03   -0.19953E-04   -0.26003E-04  5200   0.230E-02    0.210E-02
DAV:   3    -0.832058083421E+03    0.25688E-05   -0.52646E-06  3120   0.409E-03
 102 F= -.83972453E+03 E0= -.83972453E+03  d E =0.857017E-04  mag=    -0.0000
quench:  g(F)=  0.000E+00 g(S)=  0.000E+00 dE (1.order)= 0.000E+00
 bond charge predicted
       N       E                     dE             d eps       ncg     rms          rms(c)
DAV:   1    -0.832058113415E+03   -0.27425E-04   -0.37006E-04  4240   0.283E-02    0.487E-03
DAV:   2    -0.832058115175E+03   -0.17599E-05   -0.18703E-05  3000   0.590E-03
 103 F= -.83972456E+03 E0= -.83972456E+03  d E =-.323151E-04  mag=    -0.0000
quench:  g(F)=  0.000E+00 g(S)=  0.000E+00 dE (1.order)= 0.000E+00
 bond charge predicted
       N       E                     dE             d eps       ncg     rms          rms(c)
DAV:   1    -0.832058157627E+03   -0.44212E-04   -0.97633E-04  4500   0.454E-02    0.723E-03
DAV:   2    -0.832058159236E+03   -0.16094E-05   -0.25640E-05  3060   0.702E-03
 104 F= -.83972461E+03 E0= -.83972461E+03  d E =-.451380E-04  mag=    -0.0000
quench:  g(F)=  0.000E+00 g(S)=  0.000E+00 dE (1.order)= 0.000E+00
 bond charge predicted
       N       E                     dE             d eps       ncg     rms          rms(c)
DAV:   1    -0.832058175345E+03   -0.17718E-04   -0.16165E-03  4570   0.585E-02    0.124E-02
DAV:   2    -0.832058177135E+03   -0.17894E-05   -0.40523E-05  3340   0.887E-03
 105 F= -.83972463E+03 E0= -.83972463E+03  d E =-.193817E-04  mag=    -0.0000
quench:  g(F)=  0.000E+00 g(S)=  0.000E+00 dE (1.order)= 0.000E+00
 bond charge predicted
       N       E                     dE             d eps       ncg     rms          rms(c)
DAV:   1    -0.832058156543E+03    0.18803E-04   -0.16048E-03  4540   0.592E-02    0.149E-02
DAV:   2    -0.832058157542E+03   -0.99916E-06   -0.36784E-05  3530   0.869E-03
 106 F= -.83972461E+03 E0= -.83972461E+03  d E =0.180466E-04  mag=    -0.0000
quench:  g(F)=  0.000E+00 g(S)=  0.000E+00 dE (1.order)= 0.000E+00
 bond charge predicted
       N       E                     dE             d eps       ncg     rms          rms(c)
DAV:   1    -0.832058157453E+03   -0.91042E-06   -0.94713E-06  2720   0.508E-03    0.837E-03
DAV:   2    -0.832058157328E+03    0.12515E-06   -0.18611E-06  2385   0.203E-03
 107 F= -.83972461E+03 E0= -.83972461E+03  d E =0.221108E-06  mag=    -0.0000
quench:  g(F)=  0.000E+00 g(S)=  0.000E+00 dE (1.order)= 0.000E+00
 bond charge predicted
       N       E                     dE             d eps       ncg     rms          rms(c)
DAV:   1    -0.832058160742E+03   -0.32891E-05   -0.19473E-05  2905   0.662E-03    0.205E-03
DAV:   2    -0.832058160851E+03   -0.10856E-06   -0.10970E-06  2370   0.165E-03
 108 F= -.83972461E+03 E0= -.83972461E+03  d E =-.350919E-05  mag=    -0.0000
quench:  g(F)=  0.000E+00 g(S)=  0.000E+00 dE (1.order)= 0.000E+00
 bond charge predicted
       N       E                     dE             d eps       ncg     rms          rms(c)
DAV:   1    -0.832058165307E+03   -0.45646E-05   -0.31652E-05  3010   0.840E-03    0.167E-03
DAV:   2    -0.832058165376E+03   -0.69194E-07   -0.99016E-07  2320   0.163E-03
 109 F= -.83972462E+03 E0= -.83972462E+03  d E =-.450910E-05  mag=    -0.0000
quench:  g(F)=  0.000E+00 g(S)=  0.000E+00 dE (1.order)= 0.000E+00
 bond charge predicted
       N       E                     dE             d eps       ncg     rms          rms(c)
DAV:   1    -0.832058169843E+03   -0.45366E-05   -0.52396E-05  3310   0.108E-02    0.230E-03
DAV:   2    -0.832058169924E+03   -0.80167E-07   -0.15499E-06  2380   0.194E-03
 110 F= -.83972462E+03 E0= -.83972462E+03  d E =-.452967E-05  mag=    -0.0000
quench:  g(F)=  0.000E+00 g(S)=  0.000E+00 dE (1.order)= 0.000E+00
 bond charge predicted
       N       E                     dE             d eps       ncg     rms          rms(c)
DAV:   1    -0.832058173511E+03   -0.36676E-05   -0.73196E-05  3530   0.127E-02    0.304E-03
DAV:   2    -0.832058173593E+03   -0.82458E-07   -0.19997E-06  2380   0.217E-03
 111 F= -.83972463E+03 E0= -.83972463E+03  d E =-.366550E-05  mag=    -0.0000
quench:  g(F)=  0.000E+00 g(S)=  0.000E+00 dE (1.order)= 0.000E+00
 bond charge predicted
       N       E                     dE             d eps       ncg     rms          rms(c)
DAV:   1    -0.832058175463E+03   -0.19521E-05   -0.91115E-05  3860   0.143E-02    0.356E-03
DAV:   2    -0.832058175554E+03   -0.90571E-07   -0.23493E-06  2380   0.234E-03
 112 F= -.83972463E+03 E0= -.83972463E+03  d E =-.198125E-05  mag=    -0.0000
quench:  g(F)=  0.000E+00 g(S)=  0.000E+00 dE (1.order)= 0.000E+00
 bond charge predicted
       N       E                     dE             d eps       ncg     rms          rms(c)
DAV:   1    -0.832058175643E+03   -0.18020E-06   -0.12883E-04  3980   0.171E-02    0.404E-03
DAV:   2    -0.832058175779E+03   -0.13615E-06   -0.32037E-06  2490   0.272E-03
 113 F= -.83972463E+03 E0= -.83972463E+03  d E =-.328453E-06  mag=    -0.0000
quench:  g(F)=  0.000E+00 g(S)=  0.000E+00 dE (1.order)= 0.000E+00
 bond charge predicted
       N       E                     dE             d eps       ncg     rms          rms(c)
DAV:   1    -0.832058173914E+03    0.17296E-05   -0.17247E-04  4060   0.197E-02    0.458E-03
DAV:   2    -0.832058174084E+03   -0.17040E-06   -0.39941E-06  2540   0.299E-03
 114 F= -.83972463E+03 E0= -.83972463E+03  d E =0.148223E-05  mag=    -0.0000
quench:  g(F)=  0.000E+00 g(S)=  0.000E+00 dE (1.order)= 0.000E+00
 bond charge predicted
       N       E                     dE             d eps       ncg     rms          rms(c)
DAV:   1    -0.832058171293E+03    0.26204E-05   -0.22742E-04  4130   0.225E-02    0.503E-03
DAV:   2    -0.832058171506E+03   -0.21279E-06   -0.47754E-06  2540   0.321E-03
 115 F= -.83972463E+03 E0= -.83972463E+03  d E =0.220057E-05  mag=    -0.0000
quench:  g(F)=  0.000E+00 g(S)=  0.000E+00 dE (1.order)= 0.000E+00
 bond charge predicted
       N       E                     dE             d eps       ncg     rms          rms(c)
DAV:   1    -0.832058169514E+03    0.17793E-05   -0.31656E-04  4165   0.262E-02    0.550E-03
DAV:   2    -0.832058169829E+03   -0.31502E-06   -0.62087E-06  2540   0.358E-03
 116 F= -.83972462E+03 E0= -.83972462E+03  d E =0.109788E-05  mag=    -0.0000
quench:  g(F)=  0.000E+00 g(S)=  0.000E+00 dE (1.order)= 0.000E+00
 bond charge predicted
       N       E                     dE             d eps       ncg     rms          rms(c)
DAV:   1    -0.832058169875E+03   -0.36069E-06   -0.47789E-04  4290   0.319E-02    0.630E-03
DAV:   2    -0.832058170382E+03   -0.50785E-06   -0.90764E-06  2560   0.425E-03
 117 F= -.83972463E+03 E0= -.83972463E+03  d E =-.137631E-05  mag=    -0.0000
quench:  g(F)=  0.000E+00 g(S)=  0.000E+00 dE (1.order)= 0.000E+00
 bond charge predicted
       N       E                     dE             d eps       ncg     rms          rms(c)
DAV:   1    -0.832058172013E+03   -0.21383E-05   -0.76167E-04  4415   0.398E-02    0.769E-03
DAV:   2    -0.832058172863E+03   -0.85002E-06   -0.14566E-05  2720   0.531E-03
 118 F= -.83972463E+03 E0= -.83972463E+03  d E =-.346649E-05  mag=    -0.0000
quench:  g(F)=  0.000E+00 g(S)=  0.000E+00 dE (1.order)= 0.000E+00
 bond charge predicted
       N       E                     dE             d eps       ncg     rms          rms(c)
DAV:   1    -0.832058172414E+03   -0.40120E-06   -0.12084E-03  4470   0.496E-02    0.977E-03
DAV:   2    -0.832058173690E+03   -0.12761E-05   -0.23111E-05  2970   0.660E-03
 119 F= -.83972463E+03 E0= -.83972463E+03  d E =-.197710E-05  mag=    -0.0000
quench:  g(F)=  0.000E+00 g(S)=  0.000E+00 dE (1.order)= 0.000E+00
 bond charge predicted
       N       E                     dE             d eps       ncg     rms          rms(c)
DAV:   1    -0.832058167913E+03    0.45011E-05   -0.18131E-03  4485   0.606E-02    0.122E-02
DAV:   2    -0.832058169613E+03   -0.16997E-05   -0.33663E-05  3250   0.788E-03
 120 F= -.83972463E+03 E0= -.83972463E+03  d E =0.284010E-05  mag=    -0.0000
quench:  g(F)=  0.000E+00 g(S)=  0.000E+00 dE (1.order)= 0.000E+00
 bond charge predicted
       N       E                     dE             d eps       ncg     rms          rms(c)
DAV:   1    -0.832058160976E+03    0.69371E-05   -0.25459E-03  4500   0.713E-02    0.146E-02
DAV:   2    -0.832058163133E+03   -0.21572E-05   -0.45062E-05  3440   0.902E-03
 121 F= -.83972462E+03 E0= -.83972462E+03  d E =0.550154E-05  mag=    -0.0000
quench:  g(F)=  0.000E+00 g(S)=  0.000E+00 dE (1.order)= 0.000E+00
 bond charge predicted
       N       E                     dE             d eps       ncg     rms          rms(c)
DAV:   1    -0.832058157447E+03    0.35285E-05   -0.35452E-03  4480   0.830E-02    0.171E-02
DAV:   2    -0.832058160414E+03   -0.29670E-05   -0.61878E-05  3500   0.103E-02
 122 F= -.83972462E+03 E0= -.83972462E+03  d E =0.213153E-05  mag=    -0.0000
quench:  g(F)=  0.000E+00 g(S)=  0.000E+00 dE (1.order)= 0.000E+00
 bond charge predicted
       N       E                     dE             d eps       ncg     rms          rms(c)
DAV:   1    -0.832058156609E+03    0.83866E-06   -0.52269E-03  4520   0.998E-02    0.205E-02
DAV:   2    -0.832058161134E+03   -0.45254E-05   -0.92709E-05  3760   0.124E-02
 123 F= -.83972462E+03 E0= -.83972462E+03  d E =-.750466E-06  mag=    -0.0000
quench:  g(F)=  0.000E+00 g(S)=  0.000E+00 dE (1.order)= 0.000E+00
 bond charge predicted
       N       E                     dE             d eps       ncg     rms          rms(c)
DAV:   1    -0.832058149521E+03    0.70877E-05   -0.78879E-03  4540   0.122E-01    0.252E-02
DAV:   2    -0.832058155894E+03   -0.63726E-05   -0.13993E-04  4230   0.151E-02    0.192E-02
DAV:   3    -0.832058157148E+03   -0.12548E-05   -0.41122E-06  3080   0.374E-03
 124 F= -.83972462E+03 E0= -.83972462E+03  d E =0.370854E-05  mag=    -0.0000
quench:  g(F)=  0.000E+00 g(S)=  0.000E+00 dE (1.order)= 0.000E+00
 bond charge predicted
       N       E                     dE             d eps       ncg     rms          rms(c)
DAV:   1    -0.832058143248E+03    0.12646E-04   -0.11212E-02  4520   0.144E-01    0.207E-02
DAV:   2    -0.832058157442E+03   -0.14194E-04   -0.19203E-04  4425   0.174E-02    0.139E-02
DAV:   3    -0.832058157748E+03   -0.30580E-06   -0.33798E-06  2840   0.314E-03
 125 F= -.83972462E+03 E0= -.83972462E+03  d E =-.851302E-06  mag=    -0.0000
quench:  g(F)=  0.000E+00 g(S)=  0.000E+00 dE (1.order)= 0.000E+00
 bond charge predicted
       N       E                     dE             d eps       ncg     rms          rms(c)
DAV:   1    -0.832058142230E+03    0.15212E-04   -0.16656E-02  4520   0.176E-01    0.245E-02
DAV:   2    -0.832058164799E+03   -0.22569E-04   -0.29715E-04  4470   0.219E-02    0.169E-02
DAV:   3    -0.832058164563E+03    0.23602E-06   -0.48833E-06  3160   0.367E-03
 126 F= -.83972463E+03 E0= -.83972463E+03  d E =-.626328E-05  mag=    -0.0000
quench:  g(F)=  0.000E+00 g(S)=  0.000E+00 dE (1.order)= 0.000E+00
 bond charge predicted
       N       E                     dE             d eps       ncg     rms          rms(c)
DAV:   1    -0.832058131387E+03    0.33412E-04   -0.23910E-02  4520   0.213E-01    0.292E-02
DAV:   2    -0.832058162732E+03   -0.31345E-04   -0.42008E-04  4530   0.263E-02    0.202E-02
DAV:   3    -0.832058162865E+03   -0.13315E-06   -0.68804E-06  3200   0.440E-03
 127 F= -.83972462E+03 E0= -.83972462E+03  d E =0.482025E-05  mag=    -0.0000
quench:  g(F)=  0.000E+00 g(S)=  0.000E+00 dE (1.order)= 0.000E+00
 bond charge predicted
       N       E                     dE             d eps       ncg     rms          rms(c)
DAV:   1    -0.832058120537E+03    0.42196E-04   -0.32867E-02  4520   0.254E-01    0.341E-02
DAV:   2    -0.832058162394E+03   -0.41857E-04   -0.57741E-04  4560   0.315E-02    0.236E-02
DAV:   3    -0.832058162702E+03   -0.30796E-06   -0.95669E-06  3320   0.533E-03
 128 F= -.83972461E+03 E0= -.83972461E+03  d E =0.668668E-05  mag=    -0.0000
quench:  g(F)=  0.000E+00 g(S)=  0.000E+00 dE (1.order)= 0.000E+00
 bond charge predicted
       N       E                     dE             d eps       ncg     rms          rms(c)
DAV:   1    -0.832058084147E+03    0.78247E-04   -0.49061E-02  4540   0.315E-01    0.417E-02
DAV:   2    -0.832058147045E+03   -0.62897E-04   -0.86759E-04  4500   0.396E-02    0.286E-02
DAV:   3    -0.832058147497E+03   -0.45259E-06   -0.14405E-05  3540   0.656E-03
 129 F= -.83972459E+03 E0= -.83972459E+03  d E =0.229185E-04  mag=    -0.0000
quench:  g(F)=  0.000E+00 g(S)=  0.000E+00 dE (1.order)= 0.000E+00
 bond charge predicted
       N       E                     dE             d eps       ncg     rms          rms(c)
DAV:   1    -0.832058052346E+03    0.94699E-04   -0.71230E-02  4520   0.382E-01    0.500E-02
DAV:   2    -0.832058146126E+03   -0.93780E-04   -0.12703E-03  4480   0.484E-02    0.342E-02
DAV:   3    -0.832058146427E+03   -0.30108E-06   -0.20705E-05  3720   0.771E-03
 130 F= -.83972458E+03 E0= -.83972458E+03  d E =0.745368E-05  mag=    -0.0000
quench:  g(F)=  0.000E+00 g(S)=  0.000E+00 dE (1.order)= 0.000E+00
 bond charge predicted
       N       E                     dE             d eps       ncg     rms          rms(c)
DAV:   1    -0.832058007184E+03    0.13894E-03   -0.10036E-01  4540   0.458E-01    0.585E-02
DAV:   2    -0.832058136565E+03   -0.12938E-03   -0.17698E-03  4460   0.576E-02    0.402E-02
DAV:   3    -0.832058137129E+03   -0.56405E-06   -0.28507E-05  3960   0.917E-03
 131 F= -.83972456E+03 E0= -.83972456E+03  d E =0.200484E-04  mag=    -0.0000
quench:  g(F)=  0.000E+00 g(S)=  0.000E+00 dE (1.order)= 0.000E+00
 bond charge predicted
       N       E                     dE             d eps       ncg     rms          rms(c)
DAV:   1    -0.832057963235E+03    0.17333E-03   -0.14039E-01  4520   0.550E-01    0.688E-02
DAV:   2    -0.832058145255E+03   -0.18202E-03   -0.25146E-03  4460   0.700E-02    0.482E-02
DAV:   3    -0.832058145753E+03   -0.49763E-06   -0.42304E-05  4380   0.111E-02
 132 F= -.83972455E+03 E0= -.83972455E+03  d E =0.112917E-04  mag=    -0.0000
quench:  g(F)=  0.000E+00 g(S)=  0.000E+00 dE (1.order)= 0.000E+00
 bond charge predicted
       N       E                     dE             d eps       ncg     rms          rms(c)
DAV:   1    -0.832057903981E+03    0.24127E-03   -0.19656E-01  4520   0.668E-01    0.817E-02
DAV:   2    -0.832058176149E+03   -0.27217E-03   -0.36280E-03  4520   0.874E-02    0.567E-02
DAV:   3    -0.832058174451E+03    0.16982E-05   -0.58669E-05  4780   0.131E-02
 133 F= -.83972455E+03 E0= -.83972455E+03  d E =-.246871E-05  mag=    -0.0000
quench:  g(F)=  0.000E+00 g(S)=  0.000E+00 dE (1.order)= 0.000E+00
 bond charge predicted
       N       E                     dE             d eps       ncg     rms          rms(c)
DAV:   1    -0.832057850573E+03    0.32558E-03   -0.27133E-01  4520   0.808E-01    0.953E-02
DAV:   2    -0.832058225394E+03   -0.37482E-03   -0.50810E-03  4440   0.106E-01    0.673E-02
DAV:   3    -0.832058222073E+03    0.33211E-05   -0.87023E-05  5000   0.166E-02
 134 F= -.83972456E+03 E0= -.83972456E+03  d E =-.750248E-05  mag=    -0.0000
quench:  g(F)=  0.000E+00 g(S)=  0.000E+00 dE (1.order)= 0.000E+00
 bond charge predicted
       N       E                     dE             d eps       ncg     rms          rms(c)
DAV:   1    -0.832057621208E+03    0.60419E-03   -0.37678E-01  4520   0.984E-01    0.112E-01
DAV:   2    -0.832058191430E+03   -0.57022E-03   -0.74954E-03  4530   0.132E-01    0.797E-02
DAV:   3    -0.832058178657E+03    0.12774E-04   -0.12164E-04  5320   0.198E-02    0.618E-02
DAV:   4    -0.832058250340E+03   -0.71683E-04   -0.14725E-04  4430   0.237E-02    0.171E-02
DAV:   5    -0.832058263809E+03   -0.13469E-04   -0.41878E-05  4040   0.989E-03    0.109E-02
DAV:   6    -0.832058263498E+03    0.31026E-06   -0.76215E-06  3200   0.595E-03
 135 F= -.83972455E+03 E0= -.83972455E+03  d E =0.823779E-05  mag=    -0.0000
quench:  g(F)=  0.000E+00 g(S)=  0.000E+00 dE (1.order)= 0.000E+00
 bond charge predicted
       N       E                     dE             d eps       ncg     rms          rms(c)
DAV:   1    -0.832058407689E+03   -0.14388E-03   -0.11157E-02  4580   0.171E-01    0.227E-02
DAV:   2    -0.832058432454E+03   -0.24765E-04   -0.32360E-04  5040   0.266E-02    0.212E-02
DAV:   3    -0.832058429142E+03    0.33125E-05   -0.68291E-06  3240   0.485E-03
 136 F= -.83972472E+03 E0= -.83972472E+03  d E =-.163477E-03  mag=    -0.0000
quench:  g(F)=  0.000E+00 g(S)=  0.000E+00 dE (1.order)= 0.000E+00
 bond charge predicted
       N       E                     dE             d eps       ncg     rms          rms(c)
DAV:   1    -0.832058274189E+03    0.15827E-03   -0.10525E-02  4550   0.177E-01    0.262E-02
DAV:   2    -0.832058292456E+03   -0.18267E-04   -0.26701E-04  5340   0.261E-02    0.235E-02
DAV:   3    -0.832058288653E+03    0.38037E-05   -0.71832E-06  3340   0.535E-03
 137 F= -.83972457E+03 E0= -.83972457E+03  d E =0.143330E-03  mag=    -0.0000
quench:  g(F)=  0.000E+00 g(S)=  0.000E+00 dE (1.order)= 0.000E+00
 bond charge predicted
       N       E                     dE             d eps       ncg     rms          rms(c)
DAV:   1    -0.832058350349E+03   -0.57892E-04   -0.73483E-04  4500   0.437E-02    0.575E-03
DAV:   2    -0.832058353346E+03   -0.29974E-05   -0.33579E-05  3350   0.852E-03
 138 F= -.83972464E+03 E0= -.83972464E+03  d E =-.645065E-04  mag=    -0.0000
quench:  g(F)=  0.000E+00 g(S)=  0.000E+00 dE (1.order)= 0.000E+00
 bond charge predicted
       N       E                     dE             d eps       ncg     rms          rms(c)
DAV:   1    -0.832058426074E+03   -0.75725E-04   -0.19259E-03  4640   0.704E-02    0.110E-02
DAV:   2    -0.832058429123E+03   -0.30497E-05   -0.54128E-05  3720   0.112E-02
 139 F= -.83972471E+03 E0= -.83972471E+03  d E =-.753768E-04  mag=    -0.0000
quench:  g(F)=  0.000E+00 g(S)=  0.000E+00 dE (1.order)= 0.000E+00
[...]
DAV:   1    -0.832058752771E+03   -0.38193E-05   -0.26848E-04  4300   0.310E-02    0.475E-03
DAV:   2    -0.832058753130E+03   -0.35908E-06   -0.59530E-06  2530   0.436E-03
 188 F= -.83972489E+03 E0= -.83972489E+03  d E =-.229771E-05  mag=    -0.0000
quench:  g(F)=  0.000E+00 g(S)=  0.000E+00 dE (1.order)= 0.000E+00
 bond charge predicted
       N       E                     dE             d eps       ncg     rms          rms(c)
DAV:   1    -0.832058756975E+03   -0.42042E-05   -0.40262E-04  4370   0.379E-02    0.570E-03
DAV:   2    -0.832058757503E+03   -0.52775E-06   -0.87405E-06  2650   0.519E-03
 189 F= -.83972489E+03 E0= -.83972489E+03  d E =-.303612E-05  mag=    -0.0000
quench:  g(F)=  0.000E+00 g(S)=  0.000E+00 dE (1.order)= 0.000E+00
 bond charge predicted
       N       E                     dE             d eps       ncg     rms          rms(c)
DAV:   1    -0.832058762421E+03   -0.54461E-05   -0.61811E-04  4390   0.470E-02    0.699E-03
DAV:   2    -0.832058763265E+03   -0.84371E-06   -0.13597E-05  2900   0.643E-03
 190 F= -.83972489E+03 E0= -.83972489E+03  d E =-.392291E-05  mag=    -0.0000
quench:  g(F)=  0.000E+00 g(S)=  0.000E+00 dE (1.order)= 0.000E+00
 bond charge predicted
       N       E                     dE             d eps       ncg     rms          rms(c)
DAV:   1    -0.832058768500E+03   -0.60792E-05   -0.93500E-04  4410   0.579E-02    0.858E-03
DAV:   2    -0.832058769807E+03   -0.13070E-05   -0.20771E-05  3320   0.793E-03
 191 F= -.83972490E+03 E0= -.83972490E+03  d E =-.395945E-05  mag=    -0.0000
quench:  g(F)=  0.000E+00 g(S)=  0.000E+00 dE (1.order)= 0.000E+00
 bond charge predicted
       N       E                     dE             d eps       ncg     rms          rms(c)
DAV:   1    -0.832058776315E+03   -0.78153E-05   -0.12845E-03  4420   0.678E-02    0.102E-02
DAV:   2    -0.832058778021E+03   -0.17053E-05   -0.28123E-05  3770   0.922E-03
 192 F= -.83972490E+03 E0= -.83972490E+03  d E =-.467398E-05  mag=    -0.0000
quench:  g(F)=  0.000E+00 g(S)=  0.000E+00 dE (1.order)= 0.000E+00
 bond charge predicted
       N       E                     dE             d eps       ncg     rms          rms(c)
DAV:   1    -0.832058786903E+03   -0.10588E-04   -0.18163E-03  4420   0.799E-02    0.122E-02
DAV:   2    -0.832058789338E+03   -0.24341E-05   -0.39657E-05  4140   0.108E-02
 193 F= -.83972491E+03 E0= -.83972491E+03  d E =-.587782E-05  mag=    -0.0000
quench:  g(F)=  0.000E+00 g(S)=  0.000E+00 dE (1.order)= 0.000E+00
 bond charge predicted
       N       E                     dE             d eps       ncg     rms          rms(c)
DAV:   1    -0.832058798260E+03   -0.11356E-04   -0.26251E-03  4440   0.964E-02    0.147E-02
DAV:   2    -0.832058801800E+03   -0.35402E-05   -0.57217E-05  4540   0.130E-02
 194 F= -.83972491E+03 E0= -.83972491E+03  d E =-.690781E-05  mag=    -0.0000
quench:  g(F)=  0.000E+00 g(S)=  0.000E+00 dE (1.order)= 0.000E+00
 bond charge predicted
       N       E                     dE             d eps       ncg     rms          rms(c)
DAV:   1    -0.832058810574E+03   -0.12314E-04   -0.38940E-03  4480   0.117E-01    0.178E-02
DAV:   2    -0.832058815833E+03   -0.52586E-05   -0.84970E-05  4600   0.158E-02
 195 F= -.83972492E+03 E0= -.83972492E+03  d E =-.683701E-05  mag=    -0.0000
quench:  g(F)=  0.000E+00 g(S)=  0.000E+00 dE (1.order)= 0.000E+00
 bond charge predicted
       N       E                     dE             d eps       ncg     rms          rms(c)
DAV:   1    -0.832058824310E+03   -0.13735E-04   -0.53336E-03  4440   0.137E-01    0.204E-02
DAV:   2    -0.832058831616E+03   -0.73060E-05   -0.11558E-04  4780   0.183E-02    0.165E-02
DAV:   3    -0.832058831881E+03   -0.26482E-06   -0.20640E-06  2640   0.332E-03
 196 F= -.83972493E+03 E0= -.83972493E+03  d E =-.768134E-05  mag=    -0.0000
quench:  g(F)=  0.000E+00 g(S)=  0.000E+00 dE (1.order)= 0.000E+00
 bond charge predicted
       N       E                     dE             d eps       ncg     rms          rms(c)
DAV:   1    -0.832058842875E+03   -0.11259E-04   -0.69505E-03  4460   0.157E-01    0.158E-02
DAV:   2    -0.832058854678E+03   -0.11803E-04   -0.14470E-04  4570   0.207E-02    0.112E-02
DAV:   3    -0.832058854388E+03    0.29019E-06   -0.18326E-06  2500   0.300E-03
 197 F= -.83972494E+03 E0= -.83972494E+03  d E =-.119768E-04  mag=    -0.0000
quench:  g(F)=  0.000E+00 g(S)=  0.000E+00 dE (1.order)= 0.000E+00
 bond charge predicted
       N       E                     dE             d eps       ncg     rms          rms(c)
DAV:   1    -0.832058862356E+03   -0.76781E-05   -0.10146E-02  4460   0.190E-01    0.194E-02
DAV:   2    -0.832058880286E+03   -0.17929E-04   -0.22319E-04  4710   0.258E-02    0.140E-02
DAV:   3    -0.832058879560E+03    0.72601E-06   -0.29728E-06  2660   0.383E-03
 198 F= -.83972495E+03 E0= -.83972495E+03  d E =-.104843E-04  mag=    -0.0000
quench:  g(F)=  0.000E+00 g(S)=  0.000E+00 dE (1.order)= 0.000E+00
 bond charge predicted
       N       E                     dE             d eps       ncg     rms          rms(c)
DAV:   1    -0.832058886085E+03   -0.57988E-05   -0.14642E-02  4440   0.228E-01    0.227E-02
DAV:   2    -0.832058912346E+03   -0.26261E-04   -0.31898E-04  4700   0.307E-02    0.164E-02
DAV:   3    -0.832058911243E+03    0.11021E-05   -0.43908E-06  3080   0.450E-03
 199 F= -.83972497E+03 E0= -.83972497E+03  d E =-.155218E-04  mag=    -0.0000
quench:  g(F)=  0.000E+00 g(S)=  0.000E+00 dE (1.order)= 0.000E+00
 bond charge predicted
       N       E                     dE             d eps       ncg     rms          rms(c)
DAV:   1    -0.832058913893E+03   -0.15479E-05   -0.18974E-02  4440   0.264E-01    0.259E-02
DAV:   2    -0.832058946901E+03   -0.33008E-04   -0.40439E-04  4590   0.354E-02    0.195E-02
DAV:   3    -0.832058945308E+03    0.15927E-05   -0.58718E-06  3420   0.530E-03
 200 F= -.83972498E+03 E0= -.83972498E+03  d E =-.147232E-04  mag=    -0.0000
quench:  g(F)=  0.000E+00 g(S)=  0.000E+00 dE (1.order)= 0.000E+00
 bond charge predicted
       N       E                     dE             d eps       ncg     rms          rms(c)
DAV:   1    -0.832058935511E+03    0.11390E-04   -0.24093E-02  4440   0.298E-01    0.308E-02
DAV:   2    -0.832058975590E+03   -0.40079E-04   -0.51297E-04  4720   0.404E-02    0.235E-02
DAV:   3    -0.832058972768E+03    0.28221E-05   -0.10139E-05  3740   0.675E-03
 201 F= -.83972498E+03 E0= -.83972498E+03  d E =-.116118E-05  mag=    -0.0000
quench:  g(F)=  0.000E+00 g(S)=  0.000E+00 dE (1.order)= 0.000E+00
 bond charge predicted
       N       E                     dE             d eps       ncg     rms          rms(c)
DAV:   1    -0.832058992369E+03   -0.16779E-04   -0.73572E-04  4420   0.562E-02    0.801E-03
DAV:   2    -0.832058994308E+03   -0.19395E-05   -0.26968E-05  3720   0.100E-02
 202 F= -.83972500E+03 E0= -.83972500E+03  d E =-.215572E-04  mag=    -0.0000
quench:  g(F)=  0.000E+00 g(S)=  0.000E+00 dE (1.order)= 0.000E+00
 bond charge predicted
       N       E                     dE             d eps       ncg     rms          rms(c)
DAV:   1    -0.832058986013E+03    0.63554E-05   -0.12443E-03  4480   0.729E-02    0.114E-02
DAV:   2    -0.832058987450E+03   -0.14364E-05   -0.32305E-05  4360   0.111E-02
 203 F= -.83972500E+03 E0= -.83972500E+03  d E =0.649134E-05  mag=    -0.0000
quench:  g(F)=  0.000E+00 g(S)=  0.000E+00 dE (1.order)= 0.000E+00
 bond charge predicted
       N       E                     dE             d eps       ncg     rms          rms(c)
DAV:   1    -0.832058990168E+03   -0.41547E-05   -0.35865E-05  3760   0.126E-02    0.552E-03
DAV:   2    -0.832058990267E+03   -0.99062E-07   -0.22462E-06  2320   0.290E-03
 204 F= -.83972500E+03 E0= -.83972500E+03  d E =-.291898E-05  mag=    -0.0000
quench:  g(F)=  0.000E+00 g(S)=  0.000E+00 dE (1.order)= 0.000E+00
 bond charge predicted
       N       E                     dE             d eps       ncg     rms          rms(c)
DAV:   1    -0.832058995437E+03   -0.52688E-05   -0.99548E-05  4280   0.207E-02    0.225E-03
DAV:   2    -0.832058995683E+03   -0.24680E-06   -0.31975E-06  2290   0.353E-03
 205 F= -.83972501E+03 E0= -.83972501E+03  d E =-.551442E-05  mag=    -0.0000
quench:  g(F)=  0.000E+00 g(S)=  0.000E+00 dE (1.order)= 0.000E+00
 bond charge predicted
       N       E                     dE             d eps       ncg     rms          rms(c)
DAV:   1    -0.832058998810E+03   -0.33728E-05   -0.15600E-04  4660   0.259E-02    0.373E-03
DAV:   2    -0.832058999004E+03   -0.19465E-06   -0.43265E-06  2350   0.418E-03
 206 F= -.83972501E+03 E0= -.83972501E+03  d E =-.337929E-05  mag=    -0.0000
quench:  g(F)=  0.000E+00 g(S)=  0.000E+00 dE (1.order)= 0.000E+00
 bond charge predicted
       N       E                     dE             d eps       ncg     rms          rms(c)
DAV:   1    -0.832058997487E+03    0.13221E-05   -0.16005E-04  4500   0.263E-02    0.464E-03
DAV:   2    -0.832058997625E+03   -0.13744E-06   -0.42555E-06  2540   0.415E-03
 207 F= -.83972501E+03 E0= -.83972501E+03  d E =0.133335E-05  mag=    -0.0000
quench:  g(F)=  0.000E+00 g(S)=  0.000E+00 dE (1.order)= 0.000E+00
 bond charge predicted
       N       E                     dE             d eps       ncg     rms          rms(c)
DAV:   1    -0.832058997831E+03   -0.34345E-06   -0.15606E-06  2260   0.277E-03    0.235E-03
DAV:   2    -0.832058997848E+03   -0.16866E-07   -0.26245E-07  2260   0.111E-03
 208 F= -.83972501E+03 E0= -.83972501E+03  d E =-.220339E-06  mag=    -0.0000
quench:  g(F)=  0.000E+00 g(S)=  0.000E+00 dE (1.order)= 0.000E+00
 bond charge predicted
       N       E                     dE             d eps       ncg     rms          rms(c)
DAV:   1    -0.832058998473E+03   -0.64226E-06   -0.25847E-06  2260   0.341E-03    0.101E-03
DAV:   2    -0.832058998498E+03   -0.24818E-07   -0.19788E-07  2260   0.101E-03
 209 F= -.83972501E+03 E0= -.83972501E+03  d E =-.644177E-06  mag=    -0.0000
quench:  g(F)=  0.000E+00 g(S)=  0.000E+00 dE (1.order)= 0.000E+00
 bond charge predicted
       N       E                     dE             d eps       ncg     rms          rms(c)
DAV:   1    -0.832058999204E+03   -0.73089E-06   -0.45840E-06  2260   0.451E-03    0.102E-03
DAV:   2    -0.832058999234E+03   -0.30152E-07   -0.28052E-07  2260   0.121E-03
 210 F= -.83972501E+03 E0= -.83972501E+03  d E =-.728128E-06  mag=    -0.0000
quench:  g(F)=  0.000E+00 g(S)=  0.000E+00 dE (1.order)= 0.000E+00
 bond charge predicted
       N       E                     dE             d eps       ncg     rms          rms(c)
DAV:   1    -0.832059000057E+03   -0.85294E-06   -0.73418E-06  2400   0.568E-03    0.119E-03
DAV:   2    -0.832059000096E+03   -0.39108E-07   -0.42163E-07  2230   0.147E-03
 211 F= -.83972501E+03 E0= -.83972501E+03  d E =-.848218E-06  mag=    -0.0000
quench:  g(F)=  0.000E+00 g(S)=  0.000E+00 dE (1.order)= 0.000E+00
 bond charge predicted
       N       E                     dE             d eps       ncg     rms          rms(c)
DAV:   1    -0.832059000780E+03   -0.72279E-06   -0.95815E-06  2410   0.649E-03    0.138E-03
DAV:   2    -0.832059000828E+03   -0.48669E-07   -0.54403E-07  2230   0.167E-03
 212 F= -.83972501E+03 E0= -.83972501E+03  d E =-.702196E-06  mag=    -0.0000
quench:  g(F)=  0.000E+00 g(S)=  0.000E+00 dE (1.order)= 0.000E+00
 bond charge predicted
       N       E                     dE             d eps       ncg     rms          rms(c)
DAV:   1    -0.832059001177E+03   -0.39757E-06   -0.98834E-06  2410   0.657E-03    0.146E-03
DAV:   2    -0.832059001223E+03   -0.45293E-07   -0.54735E-07  2230   0.167E-03
 213 F= -.83972501E+03 E0= -.83972501E+03  d E =-.354717E-06  mag=    -0.0000
quench:  g(F)=  0.000E+00 g(S)=  0.000E+00 dE (1.order)= 0.000E+00
 bond charge predicted
       N       E                     dE             d eps       ncg     rms          rms(c)
DAV:   1    -0.832059001443E+03   -0.26522E-06   -0.10828E-05  2450   0.680E-03    0.148E-03
DAV:   2    -0.832059001487E+03   -0.44049E-07   -0.56404E-07  2230   0.168E-03
 214 F= -.83972501E+03 E0= -.83972501E+03  d E =-.198638E-06  mag=    -0.0000
quench:  g(F)=  0.000E+00 g(S)=  0.000E+00 dE (1.order)= 0.000E+00
 bond charge predicted
       N       E                     dE             d eps       ncg     rms          rms(c)
DAV:   1    -0.832059001753E+03   -0.31001E-06   -0.11508E-05  2510   0.687E-03    0.147E-03
DAV:   2    -0.832059001793E+03   -0.39967E-07   -0.55926E-07  2230   0.165E-03
 215 F= -.83972501E+03 E0= -.83972501E+03  d E =-.247771E-06  mag=    -0.0000
quench:  g(F)=  0.000E+00 g(S)=  0.000E+00 dE (1.order)= 0.000E+00
 bond charge predicted
       N       E                     dE             d eps       ncg     rms          rms(c)
DAV:   1    -0.832059002234E+03   -0.48193E-06   -0.13647E-05  2670   0.735E-03    0.148E-03
DAV:   2    -0.832059002275E+03   -0.40156E-07   -0.56767E-07  2230   0.164E-03
 216 F= -.83972501E+03 E0= -.83972501E+03  d E =-.442521E-06  mag=    -0.0000
quench:  g(F)=  0.000E+00 g(S)=  0.000E+00 dE (1.order)= 0.000E+00
 bond charge predicted
       N       E                     dE             d eps       ncg     rms          rms(c)
DAV:   1    -0.832059002918E+03   -0.68365E-06   -0.18682E-05  2910   0.856E-03    0.155E-03
DAV:   2    -0.832059002964E+03   -0.46086E-07   -0.63822E-07  2230   0.173E-03
 217 F= -.83972501E+03 E0= -.83972501E+03  d E =-.665329E-06  mag=    -0.0000
quench:  g(F)=  0.000E+00 g(S)=  0.000E+00 dE (1.order)= 0.000E+00
 bond charge predicted
       N       E                     dE             d eps       ncg     rms          rms(c)
DAV:   1    -0.832059003922E+03   -0.10036E-05   -0.26236E-05  3480   0.101E-02    0.169E-03
DAV:   2    -0.832059003967E+03   -0.45242E-07   -0.67196E-07  2230   0.172E-03
 218 F= -.83972501E+03 E0= -.83972501E+03  d E =-.993111E-06  mag=    -0.0000
quench:  g(F)=  0.000E+00 g(S)=  0.000E+00 dE (1.order)= 0.000E+00
 bond charge predicted
       N       E                     dE             d eps       ncg     rms          rms(c)
DAV:   1    -0.832059005094E+03   -0.11726E-05   -0.39259E-05  3860   0.124E-02    0.195E-03
DAV:   2    -0.832059005151E+03   -0.56985E-07   -0.94189E-07  2230   0.197E-03
 219 F= -.83972501E+03 E0= -.83972501E+03  d E =-.118561E-05  mag=    -0.0000
quench:  g(F)=  0.000E+00 g(S)=  0.000E+00 dE (1.order)= 0.000E+00
 bond charge predicted
       N       E                     dE             d eps       ncg     rms          rms(c)
DAV:   1    -0.832059006173E+03   -0.10791E-05   -0.59914E-05  4000   0.153E-02    0.236E-03
DAV:   2    -0.832059006272E+03   -0.98466E-07   -0.14161E-06  2230   0.238E-03
 220 F= -.83972502E+03 E0= -.83972502E+03  d E =-.106488E-05  mag=    -0.0000
quench:  g(F)=  0.000E+00 g(S)=  0.000E+00 dE (1.order)= 0.000E+00
 bond charge predicted
       N       E                     dE             d eps       ncg     rms          rms(c)
DAV:   1    -0.832059007356E+03   -0.11828E-05   -0.82412E-05  4060   0.178E-02    0.275E-03
DAV:   2    -0.832059007489E+03   -0.13285E-06   -0.18998E-06  2230   0.273E-03
 221 F= -.83972502E+03 E0= -.83972502E+03  d E =-.103261E-05  mag=    -0.0000
quench:  g(F)=  0.000E+00 g(S)=  0.000E+00 dE (1.order)= 0.000E+00
 bond charge predicted
       N       E                     dE             d eps       ncg     rms          rms(c)
DAV:   1    -0.832059009244E+03   -0.18883E-05   -0.11055E-04  4120   0.203E-02    0.309E-03
DAV:   2    -0.832059009394E+03   -0.14912E-06   -0.23993E-06  2290   0.297E-03
 222 F= -.83972502E+03 E0= -.83972502E+03  d E =-.161714E-05  mag=    -0.0000
quench:  g(F)=  0.000E+00 g(S)=  0.000E+00 dE (1.order)= 0.000E+00
 bond charge predicted
       N       E                     dE             d eps       ncg     rms          rms(c)
DAV:   1    -0.832059011263E+03   -0.20181E-05   -0.16867E-04  4220   0.252E-02    0.370E-03
DAV:   2    -0.832059011494E+03   -0.23187E-06   -0.36805E-06  2310   0.369E-03
 223 F= -.83972502E+03 E0= -.83972502E+03  d E =-.196634E-05  mag=    -0.0000
quench:  g(F)=  0.000E+00 g(S)=  0.000E+00 dE (1.order)= 0.000E+00
 bond charge predicted
       N       E                     dE             d eps       ncg     rms          rms(c)
DAV:   1    -0.832059013190E+03   -0.19275E-05   -0.23533E-04  4240   0.294E-02    0.441E-03
DAV:   2    -0.832059013509E+03   -0.31858E-06   -0.50898E-06  2450   0.420E-03
 224 F= -.83972502E+03 E0= -.83972502E+03  d E =-.182804E-05  mag=    -0.0000
quench:  g(F)=  0.000E+00 g(S)=  0.000E+00 dE (1.order)= 0.000E+00
 bond charge predicted
       N       E                     dE             d eps       ncg     rms          rms(c)
DAV:   1    -0.832059015874E+03   -0.26835E-05   -0.33023E-04  4300   0.346E-02    0.522E-03
DAV:   2    -0.832059016324E+03   -0.45040E-06   -0.70420E-06  2640   0.485E-03
 225 F= -.83972502E+03 E0= -.83972502E+03  d E =-.227624E-05  mag=    -0.0000
quench:  g(F)=  0.000E+00 g(S)=  0.000E+00 dE (1.order)= 0.000E+00
 bond charge predicted
       N       E                     dE             d eps       ncg     rms          rms(c)
DAV:   1    -0.832059019352E+03   -0.34781E-05   -0.42909E-04  4380   0.398E-02    0.630E-03
DAV:   2    -0.832059019847E+03   -0.49579E-06   -0.91148E-06  2650   0.566E-03
 226 F= -.83972503E+03 E0= -.83972503E+03  d E =-.254138E-05  mag=    -0.0000
quench:  g(F)=  0.000E+00 g(S)=  0.000E+00 dE (1.order)= 0.000E+00
 bond charge predicted
       N       E                     dE             d eps       ncg     rms          rms(c)
DAV:   1    -0.832059022160E+03   -0.28081E-05   -0.52843E-04  4380   0.443E-02    0.745E-03
DAV:   2    -0.832059022754E+03   -0.59445E-06   -0.10946E-05  3080   0.625E-03
 227 F= -.83972503E+03 E0= -.83972503E+03  d E =-.166149E-05  mag=    -0.0000
quench:  g(F)=  0.000E+00 g(S)=  0.000E+00 dE (1.order)= 0.000E+00
 bond charge predicted
       N       E                     dE             d eps       ncg     rms          rms(c)
DAV:   1    -0.832059027706E+03   -0.55466E-05   -0.60994E-04  4410   0.473E-02    0.786E-03
DAV:   2    -0.832059028356E+03   -0.64918E-06   -0.11839E-05  2800   0.653E-03
 228 F= -.83972503E+03 E0= -.83972503E+03  d E =-.363985E-05  mag=    -0.0000
quench:  g(F)=  0.000E+00 g(S)=  0.000E+00 dE (1.order)= 0.000E+00
 bond charge predicted
       N       E                     dE             d eps       ncg     rms          rms(c)
DAV:   1    -0.832059033709E+03   -0.60023E-05   -0.84587E-04  4410   0.562E-02    0.890E-03
DAV:   2    -0.832059034659E+03   -0.95031E-06   -0.16079E-05  3280   0.759E-03
 229 F= -.83972504E+03 E0= -.83972504E+03  d E =-.290318E-05  mag=    -0.0000
quench:  g(F)=  0.000E+00 g(S)=  0.000E+00 dE (1.order)= 0.000E+00
 bond charge predicted
       N       E                     dE             d eps       ncg     rms          rms(c)
DAV:   1    -0.832059039429E+03   -0.57202E-05   -0.13130E-03  4410   0.718E-02    0.105E-02
DAV:   2    -0.832059041287E+03   -0.18585E-05   -0.28022E-05  3860   0.101E-02
 230 F= -.83972504E+03 E0= -.83972504E+03  d E =-.296227E-05  mag=    -0.0000
quench:  g(F)=  0.000E+00 g(S)=  0.000E+00 dE (1.order)= 0.000E+00
 bond charge predicted
       N       E                     dE             d eps       ncg     rms          rms(c)
DAV:   1    -0.832059046738E+03   -0.73095E-05   -0.15878E-03  4400   0.781E-02    0.122E-02
DAV:   2    -0.832059048535E+03   -0.17963E-05   -0.32195E-05  3980   0.107E-02
 231 F= -.83972504E+03 E0= -.83972504E+03  d E =-.292456E-05  mag=    -0.0000
quench:  g(F)=  0.000E+00 g(S)=  0.000E+00 dE (1.order)= 0.000E+00
 bond charge predicted
       N       E                     dE             d eps       ncg     rms          rms(c)
DAV:   1    -0.832059051477E+03   -0.47388E-05   -0.21612E-03  4440   0.901E-02    0.140E-02
DAV:   2    -0.832059054105E+03   -0.26280E-05   -0.44053E-05  4660   0.122E-02
 232 F= -.83972504E+03 E0= -.83972504E+03  d E =-.316362E-05  mag=    -0.0000
quench:  g(F)=  0.000E+00 g(S)=  0.000E+00 dE (1.order)= 0.000E+00
 reached required accuracy - stopping structural energy minimisation
