<?xml version="1.0" encoding="ISO-8859-1"?>
<modeling>
 <generator>
  <i name="program" type="string">vasp </i>
  <i name="version" type="string">6.4.2  </i>
  <i name="subversion" type="string">20Jul23 (build Aug 26 2025 15:10:52) complex                          parallel </i>
  <i name="platform" type="string">LinuxIFC </i>
  <i name="date" type="string">2025 12 07 </i>
  <i name="time" type="string">12:58:31 </i>
 </generator>
 <incar>
  <i type="int" name="ISTART">     0</i>
  <i type="string" name="ALGO">Normal</i>
  <i type="logical" name="ADDGRID"> T  </i>
  <i type="int" name="ISPIN">     2</i>
  <i type="int" name="IMIX">     4</i>
  <i name="AMIX">      0.20000000</i>
  <i name="BMIX">      0.00010000</i>
  <i name="AMIX_MAG">      0.80000000</i>
  <i name="BMIX_MAG">      0.00010000</i>
  <i type="int" name="ICHARG">     2</i>
  <i type="int" name="NELM">   200</i>
  <i type="int" name="IBRION">     3</i>
  <i name="EDIFF">      0.00001000</i>
  <i name="EDIFFG">     -0.03000000</i>
  <i type="int" name="NSW">  1000</i>
  <i type="int" name="ISIF">     2</i>
  <i type="int" name="ISYM">     0</i>
  <i name="ENCUT">    520.00000000</i>
  <i name="POTIM">      0.00000000</i>
  <v name="MAGMOM">      0.60000000      0.60000000      0.60000000      0.60000000      0.60000000      0.60000000      0.60000000      0.60000000      0.60000000      0.60000000      0.60000000      0.60000000      0.60000000      0.60000000      0.60000000      0.60000000      0.60000000      0.60000000      0.60000000      0.60000000
      0.60000000      0.60000000      0.60000000      0.60000000      0.60000000      0.60000000      0.60000000      0.60000000      0.60000000      0.60000000      0.60000000      0.60000000      0.60000000      0.60000000      0.60000000      0.60000000      0.60000000      0.60000000      0.60000000      0.60000000
      0.60000000      0.60000000      0.60000000      0.60000000      0.60000000      0.60000000      0.60000000      0.60000000      0.60000000      0.60000000      0.60000000      0.60000000      0.60000000      0.60000000      0.60000000      0.60000000      0.60000000      0.60000000      0.60000000      0.60000000
      0.60000000      0.60000000      0.60000000      0.60000000      0.60000000      0.60000000      0.60000000      0.60000000      0.60000000      0.60000000      0.60000000      0.60000000      0.60000000      0.60000000      0.60000000      0.60000000      0.60000000      0.60000000      0.60000000      0.60000000
      0.60000000      0.60000000      0.60000000      0.60000000      0.60000000      0.60000000      0.60000000      0.60000000      0.60000000      0.60000000      0.60000000      0.60000000      0.60000000      0.60000000      0.60000000</v>
  <i type="string" name="LREAL">Auto</i>
  <i type="int" name="ISMEAR">     0</i>
  <i name="SIGMA">      0.05000000</i>
  <i type="logical" name="LWAVE"> F  </i>
  <i type="logical" name="LCHARG"> F  </i>
  <i type="logical" name="LASPH"> T  </i>
  <i type="int" name="IVDW">    12</i>
  <i name="SPRING">     -5.00000000</i>
 </incar>
 <primitive_cell>
  <structure name="primitive_cell" >
   <crystal>
    <varray name="basis" >
     <v>      17.27103806       0.00000000       0.00000000 </v>
     <v>      -8.63551903      14.95715771       0.00000000 </v>
     <v>       0.00000000       0.00000000      15.00000000 </v>
    </varray>
    <i name="volume">   3874.88459904 </i>
    <varray name="rec_basis" >
     <v>       0.05790040       0.03342881       0.00000000 </v>
     <v>       0.00000000       0.06685762       0.00000000 </v>
     <v>       0.00000000       0.00000000       0.06666667 </v>
    </varray>
   </crystal>
   <varray name="positions" >
    <v>       0.00019753       0.00011239       0.50311930 </v>
    <v>       0.99893619       0.14194761       0.50084962 </v>
    <v>       0.99889528       0.28512797       0.50009925 </v>
    <v>       0.99935218       0.42838392       0.50097823 </v>
    <v>       0.99967040       0.57153375       0.50160098 </v>
    <v>       0.00063911       0.71460958       0.50335899 </v>
    <v>       0.00173005       0.85831427       0.50395694 </v>
    <v>       0.14411281       0.00187937       0.49558999 </v>
    <v>       0.14296967       0.14387894       0.49187840 </v>
    <v>       0.14070849       0.28493035       0.48890665 </v>
    <v>       0.14161375       0.42864020       0.48941726 </v>
    <v>       0.14263281       0.57149117       0.49284504 </v>
    <v>       0.14298069       0.71472148       0.49451134 </v>
    <v>       0.14366749       0.85835852       0.49614400 </v>
    <v>       0.28682806       0.00227984       0.49486209 </v>
    <v>       0.28718389       0.14619094       0.48954694 </v>
    <v>       0.28548540       0.29094521       0.47580982 </v>
    <v>       0.28123440       0.42399357       0.46816708 </v>
    <v>       0.28605485       0.57156823       0.47511124 </v>
    <v>       0.28533570       0.71505709       0.48827506 </v>
    <v>       0.28567015       0.85844950       0.49395791 </v>
    <v>       0.42897666       0.00099668       0.49914252 </v>
    <v>       0.43034789       0.14566176       0.49824819 </v>
    <v>       0.42899305       0.28458407       0.48121975 </v>
    <v>       0.42753901       0.85692584       0.49600364 </v>
    <v>       0.57079115       0.99885641       0.50380810 </v>
    <v>       0.57174191       0.14292386       0.50558138 </v>
    <v>       0.57624285       0.29024386       0.50883097 </v>
    <v>       0.56877652       0.85352165       0.50758155 </v>
    <v>       0.71283217       0.99701716       0.51021754 </v>
    <v>       0.71392337       0.14152607       0.50793523 </v>
    <v>       0.71476319       0.28532615       0.51199021 </v>
    <v>       0.71145843       0.42535513       0.52491715 </v>
    <v>       0.72420145       0.57702295       0.55790727 </v>
    <v>       0.71312081       0.85339160       0.52299687 </v>
    <v>       0.85628435       0.99838619       0.51113432 </v>
    <v>       0.85604949       0.14142605       0.50702038 </v>
    <v>       0.85667792       0.28498095       0.50745063 </v>
    <v>       0.85707677       0.42839026       0.51082475 </v>
    <v>       0.85674458       0.57133742       0.51583091 </v>
    <v>       0.86013816       0.71572124       0.52028850 </v>
    <v>       0.85853357       0.85675341       0.51754447 </v>
    <v>       0.04759889       0.09539344       0.49851517 </v>
    <v>       0.04581824       0.23704105       0.49705273 </v>
    <v>       0.04650887       0.38066138       0.49724154 </v>
    <v>       0.04732795       0.52378795       0.49854239 </v>
    <v>       0.04778424       0.66692953       0.49923487 </v>
    <v>       0.04851641       0.81020128       0.50058388 </v>
    <v>       0.04870716       0.95340526       0.50045193 </v>
    <v>       0.19156165       0.09712034       0.49193573 </v>
    <v>       0.18957096       0.23895094       0.48554149 </v>
    <v>       0.18732022       0.37967884       0.48356734 </v>
    <v>       0.19033596       0.52407324       0.48712046 </v>
    <v>       0.19017177       0.66703034       0.49119681 </v>
    <v>       0.19076890       0.81041321       0.49423278 </v>
    <v>       0.19155800       0.95398457       0.49505481 </v>
    <v>       0.33485441       0.09831059       0.49393460 </v>
    <v>       0.33492378       0.24204519       0.48128059 </v>
    <v>       0.32531983       0.51919492       0.45731452 </v>
    <v>       0.33593694       0.67020276       0.48212834 </v>
    <v>       0.33277066       0.81014827       0.49236617 </v>
    <v>       0.33367673       0.95383066       0.49599126 </v>
    <v>       0.47679347       0.09636621       0.50183426 </v>
    <v>       0.47899829       0.24154165       0.49700353 </v>
    <v>       0.47141924       0.80524640       0.49700347 </v>
    <v>       0.47584800       0.95241436       0.49993126 </v>
    <v>       0.61862039       0.09429419       0.50601314 </v>
    <v>       0.62001421       0.23847156       0.50936375 </v>
    <v>       0.61919715       0.81040530       0.52050637 </v>
    <v>       0.61731887       0.94952554       0.50693213 </v>
    <v>       0.76082303       0.09310652       0.50837904 </v>
    <v>       0.76181656       0.23694983       0.50926131 </v>
    <v>       0.76201391       0.38046230       0.51591175 </v>
    <v>       0.76168995       0.52415454       0.53270136 </v>
    <v>       0.76725656       0.67209108       0.54152253 </v>
    <v>       0.76308442       0.80493320       0.52999973 </v>
    <v>       0.76062707       0.94927229       0.51468080 </v>
    <v>       0.90356986       0.09355081       0.50640312 </v>
    <v>       0.90378982       0.23701207       0.50506610 </v>
    <v>       0.90422632       0.38063021       0.50649999 </v>
    <v>       0.90441524       0.52390789       0.50839720 </v>
    <v>       0.90570149       0.66678253       0.51272435 </v>
    <v>       0.90691500       0.81043633       0.51339310 </v>
    <v>       0.90496815       0.95174045       0.51049050 </v>
    <v>       0.47536820       0.37178528       0.46324475 </v>
    <v>       0.40939580       0.55959309       0.42603554 </v>
    <v>       0.64824645       0.53917936       0.60360658 </v>
    <v>       0.57342829       0.72144214       0.53196000 </v>
    <v>       0.42555663       0.71530502       0.48742407 </v>
    <v>       0.72128305       0.71672616       0.54662037 </v>
    <v>       0.32814424       0.38012383       0.46424683 </v>
    <v>       0.62175774       0.38004581       0.52036309 </v>
    <v>       0.53941968       0.59617929       0.49887132 </v>
    <v>       0.47815790       0.49581154       0.47707817 </v>
    <v>       0.53687780       0.53887510       0.50000005 </v>
   </varray>
  </structure>
  <varray name="primitive_index" >
   <v type="int" >        1 </v>
   <v type="int" >        2 </v>
   <v type="int" >        3 </v>
   <v type="int" >        4 </v>
   <v type="int" >        5 </v>
   <v type="int" >        6 </v>
   <v type="int" >        7 </v>
   <v type="int" >        8 </v>
   <v type="int" >        9 </v>
   <v type="int" >       10 </v>
   <v type="int" >       11 </v>
   <v type="int" >       12 </v>
   <v type="int" >       13 </v>
   <v type="int" >       14 </v>
   <v type="int" >       15 </v>
   <v type="int" >       16 </v>
   <v type="int" >       17 </v>
   <v type="int" >       18 </v>
   <v type="int" >       19 </v>
   <v type="int" >       20 </v>
   <v type="int" >       21 </v>
   <v type="int" >       22 </v>
   <v type="int" >       23 </v>
   <v type="int" >       24 </v>
   <v type="int" >       25 </v>
   <v type="int" >       26 </v>
   <v type="int" >       27 </v>
   <v type="int" >       28 </v>
   <v type="int" >       29 </v>
   <v type="int" >       30 </v>
   <v type="int" >       31 </v>
   <v type="int" >       32 </v>
   <v type="int" >       33 </v>
   <v type="int" >       34 </v>
   <v type="int" >       35 </v>
   <v type="int" >       36 </v>
   <v type="int" >       37 </v>
   <v type="int" >       38 </v>
   <v type="int" >       39 </v>
   <v type="int" >       40 </v>
   <v type="int" >       41 </v>
   <v type="int" >       42 </v>
   <v type="int" >       43 </v>
   <v type="int" >       44 </v>
   <v type="int" >       45 </v>
   <v type="int" >       46 </v>
   <v type="int" >       47 </v>
   <v type="int" >       48 </v>
   <v type="int" >       49 </v>
   <v type="int" >       50 </v>
   <v type="int" >       51 </v>
   <v type="int" >       52 </v>
   <v type="int" >       53 </v>
   <v type="int" >       54 </v>
   <v type="int" >       55 </v>
   <v type="int" >       56 </v>
   <v type="int" >       57 </v>
   <v type="int" >       58 </v>
   <v type="int" >       59 </v>
   <v type="int" >       60 </v>
   <v type="int" >       61 </v>
   <v type="int" >       62 </v>
   <v type="int" >       63 </v>
   <v type="int" >       64 </v>
   <v type="int" >       65 </v>
   <v type="int" >       66 </v>
   <v type="int" >       67 </v>
   <v type="int" >       68 </v>
   <v type="int" >       69 </v>
   <v type="int" >       70 </v>
   <v type="int" >       71 </v>
   <v type="int" >       72 </v>
   <v type="int" >       73 </v>
   <v type="int" >       74 </v>
   <v type="int" >       75 </v>
   <v type="int" >       76 </v>
   <v type="int" >       77 </v>
   <v type="int" >       78 </v>
   <v type="int" >       79 </v>
   <v type="int" >       80 </v>
   <v type="int" >       81 </v>
   <v type="int" >       82 </v>
   <v type="int" >       83 </v>
   <v type="int" >       84 </v>
   <v type="int" >       85 </v>
   <v type="int" >       86 </v>
   <v type="int" >       87 </v>
   <v type="int" >       88 </v>
   <v type="int" >       89 </v>
   <v type="int" >       90 </v>
   <v type="int" >       91 </v>
   <v type="int" >       92 </v>
   <v type="int" >       93 </v>
   <v type="int" >       94 </v>
   <v type="int" >       95 </v>
  </varray>
 </primitive_cell>
 <kpoints>
  <generation param="Gamma">
   <v type="int" name="divisions">       2        2        1 </v>
   <v name="usershift">      0.00000000       0.00000000       0.00000000 </v>
   <v name="genvec1">      0.50000000       0.00000000       0.00000000 </v>
   <v name="genvec2">      0.00000000       0.50000000       0.00000000 </v>
   <v name="genvec3">      0.00000000       0.00000000       1.00000000 </v>
   <v name="shift">      0.00000000       0.00000000       0.00000000 </v>
  </generation>
  <varray name="kpointlist" >
   <v>       0.00000000       0.00000000       0.00000000 </v>
   <v>       0.50000000       0.00000000       0.00000000 </v>
   <v>       0.00000000       0.50000000       0.00000000 </v>
   <v>       0.50000000       0.50000000       0.00000000 </v>
  </varray>
  <varray name="weights" >
   <v>       0.25000000 </v>
   <v>       0.25000000 </v>
   <v>       0.25000000 </v>
   <v>       0.25000000 </v>
  </varray>
 </kpoints>
 <parameters>
  <separator name="general" >
   <i type="string" name="SYSTEM">unknown system</i>
   <i type="logical" name="LCOMPAT"> F  </i>
  </separator>
  <separator name="electronic" >
   <i type="string" name="PREC">normal</i>
   <i name="ENMAX">    520.00000000</i>
   <i name="ENAUG">    644.87300000</i>
   <i name="EDIFF">      0.00001000</i>
   <i type="int" name="IALGO">    38</i>
   <i type="int" name="IWAVPR">    11</i>
   <i type="int" name="NBANDS">   275</i>
   <i type="int" name="NBANDSLOW">    -1</i>
   <i type="int" name="NBANDSHIGH">    -1</i>
   <i name="NELECT">    392.00000000</i>
   <i type="int" name="TURBO">     0</i>
   <i type="int" name="IRESTART">     0</i>
   <i type="int" name="NREBOOT">     0</i>
   <i type="int" name="NMIN">     0</i>
   <i name="EREF">      0.00000000</i>
   <separator name="electronic smearing" >
    <i type="int" name="ISMEAR">     0</i>
    <i name="SIGMA">      0.05000000</i>
    <i name="KSPACING">      0.50000000</i>
    <i type="logical" name="KGAMMA"> T  </i>
    <i type="logical" name="KBLOWUP"> T  </i>
   </separator>
   <separator name="electronic projectors" >
    <i type="logical" name="LREAL"> T  </i>
    <v name="ROPT">     -0.00050000     -0.00050000     -0.00050000     -0.00050000     -0.00050000</v>
    <i type="int" name="LMAXPAW">  -100</i>
    <i type="int" name="LMAXMIX">     2</i>
    <i type="logical" name="NLSPLINE"> F  </i>
   </separator>
   <separator name="electronic startup" >
    <i type="int" name="ISTART">     0</i>
    <i type="int" name="ICHARG">     2</i>
    <i type="int" name="INIWAV">     1</i>
   </separator>
   <separator name="electronic spin" >
    <i type="int" name="ISPIN">     2</i>
    <i type="logical" name="LNONCOLLINEAR"> F  </i>
    <v name="MAGMOM">      0.60000000      0.60000000      0.60000000      0.60000000      0.60000000      0.60000000      0.60000000      0.60000000      0.60000000      0.60000000      0.60000000      0.60000000      0.60000000      0.60000000      0.60000000      0.60000000      0.60000000      0.60000000      0.60000000      0.60000000
      0.60000000      0.60000000      0.60000000      0.60000000      0.60000000      0.60000000      0.60000000      0.60000000      0.60000000      0.60000000      0.60000000      0.60000000      0.60000000      0.60000000      0.60000000      0.60000000      0.60000000      0.60000000      0.60000000      0.60000000
      0.60000000      0.60000000      0.60000000      0.60000000      0.60000000      0.60000000      0.60000000      0.60000000      0.60000000      0.60000000      0.60000000      0.60000000      0.60000000      0.60000000      0.60000000      0.60000000      0.60000000      0.60000000      0.60000000      0.60000000
      0.60000000      0.60000000      0.60000000      0.60000000      0.60000000      0.60000000      0.60000000      0.60000000      0.60000000      0.60000000      0.60000000      0.60000000      0.60000000      0.60000000      0.60000000      0.60000000      0.60000000      0.60000000      0.60000000      0.60000000
      0.60000000      0.60000000      0.60000000      0.60000000      0.60000000      0.60000000      0.60000000      0.60000000      0.60000000      0.60000000      0.60000000      0.60000000      0.60000000      0.60000000      0.60000000</v>
    <i name="NUPDOWN">     -1.00000000</i>
    <i type="logical" name="LSORBIT"> F  </i>
    <v name="SAXIS">      0.00000000      0.00000000      1.00000000</v>
    <i type="logical" name="LSPIRAL"> F  </i>
    <v name="QSPIRAL">      0.00000000      0.00000000      0.00000000</v>
    <i type="logical" name="LZEROZ"> F  </i>
   </separator>
   <separator name="electronic exchange-correlation" >
    <i type="logical" name="LASPH"> T  </i>
    <i type="logical" name="LMETAGGA"> F  </i>
   </separator>
   <separator name="electronic convergence" >
    <i type="int" name="NELM">   200</i>
    <i type="int" name="NELMDL">    -5</i>
    <i type="int" name="NELMIN">     2</i>
    <i name="ENINI">    520.00000000</i>
    <separator name="electronic convergence detail" >
     <i type="logical" name="LDIAG"> T  </i>
     <i type="logical" name="LSUBROT"> F  </i>
     <i name="WEIMIN">      0.00100000</i>
     <i name="EBREAK">      0.00000001</i>
     <i name="DEPER">      0.30000000</i>
     <i type="int" name="NRMM">     4</i>
     <i name="TIME">      0.40000000</i>
    </separator>
   </separator>
   <separator name="electronic mixer" >
    <i name="AMIX">      0.20000000</i>
    <i name="BMIX">      0.00010000</i>
    <i name="AMIN">      0.10000000</i>
    <i name="AMIX_MAG">      0.80000000</i>
    <i name="BMIX_MAG">      0.00010000</i>
    <separator name="electronic mixer details" >
     <i type="int" name="IMIX">     4</i>
     <i type="logical" name="MIXFIRST"> F  </i>
     <i type="int" name="MAXMIX">   -45</i>
     <i name="WC">    100.00000000</i>
     <i type="int" name="INIMIX">     1</i>
     <i type="int" name="MIXPRE">     1</i>
     <i type="int" name="MREMOVE">     5</i>
    </separator>
   </separator>
   <separator name="electronic dipolcorrection" >
    <i type="logical" name="LDIPOL"> F  </i>
    <i type="logical" name="LMONO"> F  </i>
    <i type="int" name="IDIPOL">     0</i>
    <i name="EPSILON">      1.00000000</i>
    <v name="DIPOL">   -100.00000000   -100.00000000   -100.00000000</v>
    <i name="EFIELD">      0.00000000</i>
   </separator>
  </separator>
  <separator name="grids" >
   <i type="int" name="NGX">    96</i>
   <i type="int" name="NGY">    96</i>
   <i type="int" name="NGZ">    84</i>
   <i type="int" name="NGXF">   192</i>
   <i type="int" name="NGYF">   192</i>
   <i type="int" name="NGZF">   168</i>
   <i type="logical" name="ADDGRID"> T  </i>
  </separator>
  <separator name="ionic" >
   <i type="int" name="NSW">  1000</i>
   <i type="int" name="IBRION">     3</i>
   <i type="int" name="MDALGO">     0</i>
   <i type="int" name="ISIF">     2</i>
   <i name="PSTRESS">      0.00000000</i>
   <i name="EDIFFG">     -0.03000000</i>
   <i type="int" name="NFREE">     0</i>
   <i name="POTIM">      0.00000000</i>
   <i name="SMASS">     -3.00000000</i>
   <i name="SCALEE">      1.00000000</i>
  </separator>
  <separator name="ionic md" >
   <i name="TEBEG">      0.00010000</i>
   <i name="TEEND">      0.00010000</i>
   <i type="int" name="NBLOCK">     1</i>
   <i type="int" name="KBLOCK">  1000</i>
   <i type="int" name="NPACO">   256</i>
   <i name="APACO">     10.00000000</i>
  </separator>
  <separator name="symmetry" >
   <i type="int" name="ISYM">     0</i>
   <i name="SYMPREC">      0.00001000</i>
  </separator>
  <separator name="dos" >
   <i type="int" name="LORBIT">     0</i>
   <v name="RWIGS">     -1.00000000     -1.00000000     -1.00000000     -1.00000000     -1.00000000</v>
   <i type="int" name="NEDOS">   301</i>
   <i name="EMIN">     10.00000000</i>
   <i name="EMAX">    -10.00000000</i>
   <i name="EFERMI">      0.00000000</i>
  </separator>
  <separator name="writing" >
   <i type="int" name="NWRITE">     2</i>
   <i type="logical" name="LWAVE"> F  </i>
   <i type="logical" name="LDOWNSAMPLE"> F  </i>
   <i type="logical" name="LCHARG"> F  </i>
   <i type="logical" name="LPARD"> F  </i>
   <i type="logical" name="LVTOT"> F  </i>
   <i type="logical" name="LVHAR"> F  </i>
   <i type="logical" name="LELF"> F  </i>
   <i type="logical" name="LOPTICS"> F  </i>
   <v name="STM">      0.00000000      0.00000000      0.00000000      0.00000000      0.00000000      0.00000000      0.00000000</v>
  </separator>
  <separator name="performance" >
   <i type="int" name="NPAR">     5</i>
   <i type="int" name="NSIM">     4</i>
   <i type="int" name="NBLK">    -1</i>
   <i type="logical" name="LPLANE"> T  </i>
   <i type="logical" name="LSCALAPACK"> T  </i>
   <i type="logical" name="LSCAAWARE"> F  </i>
   <i type="logical" name="LSCALU"> F  </i>
   <i type="logical" name="LASYNC"> F  </i>
   <i type="logical" name="LORBITALREAL"> F  </i>
  </separator>
  <separator name="miscellaneous" >
   <i type="int" name="IDIOT">     3</i>
   <i type="int" name="PHON_NSTRUCT">    -1</i>
   <i type="logical" name="LMUSIC"> F  </i>
   <v name="POMASS">     12.01100000     18.99800000     14.00100000      1.00000000     16.00000000</v>
   <v name="DARWINR">      0.00000000      0.00000000      0.00000000      0.00000000      0.00000000</v>
   <v name="DARWINV">      1.00000000      1.00000000      1.00000000      1.00000000      1.00000000</v>
   <i type="logical" name="LCORR"> T  </i>
  </separator>
  <i type="logical" name="GGA_COMPAT"> T  </i>
  <i type="logical" name="LBERRY"> F  </i>
  <i type="int" name="ICORELEVEL">     0</i>
  <i type="logical" name="LDAU"> F  </i>
  <i type="int" name="I_CONSTRAINED_M">     0</i>
  <separator name="electronic exchange-correlation" >
   <i type="string" name="GGA">--</i>
   <i type="int" name="VOSKOWN">     0</i>
   <i type="logical" name="LHFCALC"> F  </i>
   <i type="string" name="PRECFOCK"></i>
   <i type="logical" name="LSYMGRAD"> F  </i>
   <i type="logical" name="LHFONE"> F  </i>
   <i type="logical" name="LRHFCALC"> F  </i>
   <i type="logical" name="LTHOMAS"> F  </i>
   <i type="logical" name="LMODELHF"> F  </i>
   <i type="logical" name="LFOCKACE"> F  </i>
   <i name="ENCUT4O">     -1.00000000</i>
   <i type="int" name="EXXOEP">     0</i>
   <i type="int" name="FOURORBIT">     0</i>
   <i name="AEXX">      0.00000000</i>
   <i name="HFALPHA">      0.00000000</i>
   <i name="MCALPHA">      0.00000000</i>
   <i name="ALDAX">      1.00000000</i>
   <i name="AGGAX">      1.00000000</i>
   <i name="ALDAC">      1.00000000</i>
   <i name="AGGAC">      1.00000000</i>
   <i type="int" name="NKREDX">     1</i>
   <i type="int" name="NKREDY">     1</i>
   <i type="int" name="NKREDZ">     1</i>
   <i type="logical" name="SHIFTRED"> F  </i>
   <i type="logical" name="ODDONLY"> F  </i>
   <i type="logical" name="EVENONLY"> F  </i>
   <i type="int" name="LMAXFOCK">     0</i>
   <i type="int" name="NMAXFOCKAE">     0</i>
   <i type="logical" name="LFOCKAEDFT"> F  </i>
   <i name="HFSCREEN">      0.00000000</i>
   <i name="HFSCREENC">      0.00000000</i>
   <i type="int" name="NBANDSGWLOW">     0</i>
  </separator>
  <separator name="vdW DFT" >
   <i type="logical" name="LUSE_VDW"> F  </i>
   <i type="int" name="IVDW_NL">     1</i>
   <i type="logical" name="LSPIN_VDW"> F  </i>
   <i name="Zab_VDW">     -0.84910000</i>
   <i name="PARAM1">      0.12340000</i>
   <i name="PARAM2">      1.00000000</i>
   <i name="PARAM3">      0.00000000</i>
  </separator>
  <separator name="model GW" >
   <i type="int" name="MODEL_GW">     0</i>
   <i name="MODEL_EPS0">     24.47295536</i>
   <i name="MODEL_ALPHA">      1.00000000</i>
  </separator>
  <separator name="linear response parameters" >
   <i type="logical" name="LEPSILON"> F  </i>
   <i type="logical" name="LRPA"> F  </i>
   <i type="logical" name="LNABLA"> F  </i>
   <i type="logical" name="LVEL"> F  </i>
   <i name="CSHIFT">      0.10000000</i>
   <i name="OMEGAMAX">     -1.00000000</i>
   <i name="DEG_THRESHOLD">      0.00200000</i>
   <i name="RTIME">     -0.10000000</i>
   <i name="WPLASMAI">      0.00000000</i>
   <v name="DFIELD">      0.00000000      0.00000000      0.00000000</v>
   <v name="WPLASMA">      0.00000000      0.00000000      0.00000000      0.00000000      0.00000000      0.00000000      0.00000000      0.00000000      0.00000000</v>
  </separator>
  <separator name="orbital magnetization" >
   <i type="logical" name="NUCIND"> F  </i>
   <v name="MAGPOS">      0.00000000      0.00000000      0.00000000</v>
   <i type="logical" name="LNICSALL"> T  </i>
   <i type="logical" name="ORBITALMAG"> F  </i>
   <i type="logical" name="LMAGBLOCH"> F  </i>
   <i type="logical" name="LCHIMAG"> F  </i>
   <i type="logical" name="LGAUGE"> T  </i>
   <i type="int" name="MAGATOM">     0</i>
   <v name="MAGDIPOL">      0.00000000      0.00000000      0.00000000</v>
   <v name="AVECCONST">      0.00000000      0.00000000      0.00000000</v>
  </separator>
  <separator name="response functions" >
   <i type="logical" name="LALL_IN_ONE"> F  </i>
   <i type="int" name="IALL_IN_ONE">    -1</i>
   <i type="int" name="NBANDS_WAVE">    -1</i>
   <i type="logical" name="LFINITE_TEMPERATURE"> F  </i>
   <i type="logical" name="LADDER"> F  </i>
   <i type="logical" name="LRPAFORCE"> F  </i>
   <i type="logical" name="LFXC"> F  </i>
   <i type="logical" name="LHARTREE"> T  </i>
   <i type="int" name="IBSE">     0</i>
   <v type="int" name="KPOINT">    -1     0     0     0</v>
   <i type="logical" name="LTCTC"> F  </i>
   <i type="logical" name="LTCTE"> F  </i>
   <i type="logical" name="LTETE"> F  </i>
   <i type="logical" name="LTRIPLET"> F  </i>
   <i type="logical" name="LFXCEPS"> F  </i>
   <i type="logical" name="LFXHEG"> F  </i>
   <i type="int" name="NATURALO">     2</i>
   <i type="logical" name="LHOLEGF"> F  </i>
   <i type="logical" name="L2ORDER"> F  </i>
   <i type="logical" name="LDMP1"> F  </i>
   <i type="logical" name="LMP2LT"> F  </i>
   <i type="logical" name="LSMP2LT"> F  </i>
   <i type="logical" name="LGWLF"> F  </i>
   <i name="ENCUTGW">     -1.60000002</i>
   <i name="ENCUTGWSOFT">     -1.60000002</i>
   <i name="ENCUTLF">     -1.00000000</i>
   <i type="logical" name="LESF_SPLINES"> F  </i>
   <i type="int" name="LMAXMP2">    -1</i>
   <i name="SCISSOR">      0.00000000</i>
   <i type="int" name="NOMEGA">     0</i>
   <i type="int" name="NOMEGAR">     0</i>
   <i type="int" name="NBANDSGW">    -1</i>
   <i type="int" name="NBANDSO">    -1</i>
   <i type="int" name="NBANDSV">    -1</i>
   <i type="int" name="NELMGW">     1</i>
   <i type="int" name="NELMHF">     1</i>
   <i type="int" name="DIM">     3</i>
   <i type="int" name="IESPILON">     4</i>
   <i type="int" name="ANTIRES">     0</i>
   <i name="OMEGAMAX">    -30.00000000</i>
   <i name="OMEGAMIN">    -30.00000000</i>
   <i name="OMEGATL">   -200.00000000</i>
   <i type="int" name="OMEGAGRID">     0</i>
   <i name="CSHIFT">     -0.10000000</i>
   <i type="logical" name="LSELFENERGY"> F  </i>
   <i type="logical" name="LSPECTRAL"> F  </i>
   <i type="logical" name="LSPECTRALGW"> F  </i>
   <i type="logical" name="LSINGLES"> F  </i>
   <i type="logical" name="LFERMIGW"> F  </i>
   <i type="logical" name="ODDONLYGW"> F  </i>
   <i type="logical" name="EVENONLYGW"> F  </i>
   <i type="int" name="NKREDLFX">     1</i>
   <i type="int" name="NKREDLFY">     1</i>
   <i type="int" name="NKREDLFZ">     1</i>
   <i type="int" name="MAXMEM">  2800</i>
   <i type="int" name="TELESCOPE">     0</i>
   <i type="int" name="NTAUPAR">    -1</i>
   <i type="int" name="NOMEGAPAR">    -1</i>
   <i name="DAMP_NEWTON">      0.80000001</i>
   <i name="LAMBDA">      1.00000000</i>
  </separator>
  <separator name="External order field" >
   <i name="OFIELD_KAPPA">      0.00000000</i>
   <v name="OFIELD_K">      0.00000000      0.00000000      0.00000000</v>
   <i name="OFIELD_Q6_NEAR">      0.00000000</i>
   <i name="OFIELD_Q6_FAR">      0.00000000</i>
   <i name="OFIELD_A">      0.00000000</i>
  </separator>
  <separator name="optional k-points parameters" >
   <i type="int" name="KPOINTS_OPT_MODE">     1</i>
   <i type="logical" name="LKPOINTS_OPT"> F  </i>
  </separator>
 </parameters>
 <atominfo>
  <atoms>      95 </atoms>
  <types>       5 </types>
  <array name="atoms" >
   <dimension dim="1">ion</dimension>
   <field type="string">element</field>
   <field type="int">atomtype</field>
   <set>
    <rc><c>C </c><c>   1</c></rc>
    <rc><c>C </c><c>   1</c></rc>
    <rc><c>C </c><c>   1</c></rc>
    <rc><c>C </c><c>   1</c></rc>
    <rc><c>C </c><c>   1</c></rc>
    <rc><c>C </c><c>   1</c></rc>
    <rc><c>C </c><c>   1</c></rc>
    <rc><c>C </c><c>   1</c></rc>
    <rc><c>C </c><c>   1</c></rc>
    <rc><c>C </c><c>   1</c></rc>
    <rc><c>C </c><c>   1</c></rc>
    <rc><c>C </c><c>   1</c></rc>
    <rc><c>C </c><c>   1</c></rc>
    <rc><c>C </c><c>   1</c></rc>
    <rc><c>C </c><c>   1</c></rc>
    <rc><c>C </c><c>   1</c></rc>
    <rc><c>C </c><c>   1</c></rc>
    <rc><c>C </c><c>   1</c></rc>
    <rc><c>C </c><c>   1</c></rc>
    <rc><c>C </c><c>   1</c></rc>
    <rc><c>C </c><c>   1</c></rc>
    <rc><c>C </c><c>   1</c></rc>
    <rc><c>C </c><c>   1</c></rc>
    <rc><c>C </c><c>   1</c></rc>
    <rc><c>C </c><c>   1</c></rc>
    <rc><c>C </c><c>   1</c></rc>
    <rc><c>C </c><c>   1</c></rc>
    <rc><c>C </c><c>   1</c></rc>
    <rc><c>C </c><c>   1</c></rc>
    <rc><c>C </c><c>   1</c></rc>
    <rc><c>C </c><c>   1</c></rc>
    <rc><c>C </c><c>   1</c></rc>
    <rc><c>C </c><c>   1</c></rc>
    <rc><c>C </c><c>   1</c></rc>
    <rc><c>C </c><c>   1</c></rc>
    <rc><c>C </c><c>   1</c></rc>
    <rc><c>C </c><c>   1</c></rc>
    <rc><c>C </c><c>   1</c></rc>
    <rc><c>C </c><c>   1</c></rc>
    <rc><c>C </c><c>   1</c></rc>
    <rc><c>C </c><c>   1</c></rc>
    <rc><c>C </c><c>   1</c></rc>
    <rc><c>C </c><c>   1</c></rc>
    <rc><c>C </c><c>   1</c></rc>
    <rc><c>C </c><c>   1</c></rc>
    <rc><c>C </c><c>   1</c></rc>
    <rc><c>C </c><c>   1</c></rc>
    <rc><c>C </c><c>   1</c></rc>
    <rc><c>C </c><c>   1</c></rc>
    <rc><c>C </c><c>   1</c></rc>
    <rc><c>C </c><c>   1</c></rc>
    <rc><c>C </c><c>   1</c></rc>
    <rc><c>C </c><c>   1</c></rc>
    <rc><c>C </c><c>   1</c></rc>
    <rc><c>C </c><c>   1</c></rc>
    <rc><c>C </c><c>   1</c></rc>
    <rc><c>C </c><c>   1</c></rc>
    <rc><c>C </c><c>   1</c></rc>
    <rc><c>C </c><c>   1</c></rc>
    <rc><c>C </c><c>   1</c></rc>
    <rc><c>C </c><c>   1</c></rc>
    <rc><c>C </c><c>   1</c></rc>
    <rc><c>C </c><c>   1</c></rc>
    <rc><c>C </c><c>   1</c></rc>
    <rc><c>C </c><c>   1</c></rc>
    <rc><c>C </c><c>   1</c></rc>
    <rc><c>C </c><c>   1</c></rc>
    <rc><c>C </c><c>   1</c></rc>
    <rc><c>C </c><c>   1</c></rc>
    <rc><c>C </c><c>   1</c></rc>
    <rc><c>C </c><c>   1</c></rc>
    <rc><c>C </c><c>   1</c></rc>
    <rc><c>C </c><c>   1</c></rc>
    <rc><c>C </c><c>   1</c></rc>
    <rc><c>C </c><c>   1</c></rc>
    <rc><c>C </c><c>   1</c></rc>
    <rc><c>C </c><c>   1</c></rc>
    <rc><c>C </c><c>   1</c></rc>
    <rc><c>C </c><c>   1</c></rc>
    <rc><c>C </c><c>   1</c></rc>
    <rc><c>C </c><c>   1</c></rc>
    <rc><c>C </c><c>   1</c></rc>
    <rc><c>C </c><c>   1</c></rc>
    <rc><c>C </c><c>   1</c></rc>
    <rc><c>F </c><c>   2</c></rc>
    <rc><c>F </c><c>   2</c></rc>
    <rc><c>F </c><c>   2</c></rc>
    <rc><c>F </c><c>   2</c></rc>
    <rc><c>N </c><c>   3</c></rc>
    <rc><c>N </c><c>   3</c></rc>
    <rc><c>N </c><c>   3</c></rc>
    <rc><c>N </c><c>   3</c></rc>
    <rc><c>H </c><c>   4</c></rc>
    <rc><c>H </c><c>   4</c></rc>
    <rc><c>O </c><c>   5</c></rc>
   </set>
  </array>
  <array name="atomtypes" >
   <dimension dim="1">type</dimension>
   <field type="int">atomspertype</field>
   <field type="string">element</field>
   <field>mass</field>
   <field>valence</field>
   <field type="string">pseudopotential</field>
   <set>
    <rc><c>  84</c><c>C </c><c>     12.01100000</c><c>      4.00000000</c><c>  PAW_PBE C 08Apr2002                   </c></rc>
    <rc><c>   4</c><c>F </c><c>     18.99800000</c><c>      7.00000000</c><c>  PAW_PBE F 08Apr2002                   </c></rc>
    <rc><c>   4</c><c>N </c><c>     14.00100000</c><c>      5.00000000</c><c>  PAW_PBE N 08Apr2002                   </c></rc>
    <rc><c>   2</c><c>H </c><c>      1.00000000</c><c>      1.00000000</c><c>  PAW_PBE H 15Jun2001                   </c></rc>
    <rc><c>   1</c><c>O </c><c>     16.00000000</c><c>      6.00000000</c><c>  PAW_PBE O 08Apr2002                   </c></rc>
   </set>
  </array>
 </atominfo>
 <structure name="initialpos" >
  <crystal>
   <varray name="basis" >
    <v>      17.27103806       0.00000000       0.00000000 </v>
    <v>      -8.63551903      14.95715771       0.00000000 </v>
    <v>       0.00000000       0.00000000      15.00000000 </v>
   </varray>
   <i name="volume">   3874.88459904 </i>
   <varray name="rec_basis" >
    <v>       0.05790040       0.03342881       0.00000000 </v>
    <v>       0.00000000       0.06685762       0.00000000 </v>
    <v>       0.00000000       0.00000000       0.06666667 </v>
   </varray>
  </crystal>
  <varray name="positions" >
   <v>       0.00019753       0.00011239       0.50311930 </v>
   <v>       0.99893619       0.14194761       0.50084962 </v>
   <v>       0.99889528       0.28512797       0.50009925 </v>
   <v>       0.99935218       0.42838392       0.50097823 </v>
   <v>       0.99967040       0.57153375       0.50160098 </v>
   <v>       0.00063911       0.71460958       0.50335899 </v>
   <v>       0.00173005       0.85831427       0.50395694 </v>
   <v>       0.14411281       0.00187937       0.49558999 </v>
   <v>       0.14296967       0.14387894       0.49187840 </v>
   <v>       0.14070849       0.28493035       0.48890665 </v>
   <v>       0.14161375       0.42864020       0.48941726 </v>
   <v>       0.14263281       0.57149117       0.49284504 </v>
   <v>       0.14298069       0.71472148       0.49451134 </v>
   <v>       0.14366749       0.85835852       0.49614400 </v>
   <v>       0.28682806       0.00227984       0.49486209 </v>
   <v>       0.28718389       0.14619094       0.48954694 </v>
   <v>       0.28548540       0.29094521       0.47580982 </v>
   <v>       0.28123440       0.42399357       0.46816708 </v>
   <v>       0.28605485       0.57156823       0.47511124 </v>
   <v>       0.28533570       0.71505709       0.48827506 </v>
   <v>       0.28567015       0.85844950       0.49395791 </v>
   <v>       0.42897666       0.00099668       0.49914252 </v>
   <v>       0.43034789       0.14566176       0.49824819 </v>
   <v>       0.42899305       0.28458407       0.48121975 </v>
   <v>       0.42753901       0.85692584       0.49600364 </v>
   <v>       0.57079115       0.99885641       0.50380810 </v>
   <v>       0.57174191       0.14292386       0.50558138 </v>
   <v>       0.57624285       0.29024386       0.50883097 </v>
   <v>       0.56877652       0.85352165       0.50758155 </v>
   <v>       0.71283217       0.99701716       0.51021754 </v>
   <v>       0.71392337       0.14152607       0.50793523 </v>
   <v>       0.71476319       0.28532615       0.51199021 </v>
   <v>       0.71145843       0.42535513       0.52491715 </v>
   <v>       0.72420145       0.57702295       0.55790727 </v>
   <v>       0.71312081       0.85339160       0.52299687 </v>
   <v>       0.85628435       0.99838619       0.51113432 </v>
   <v>       0.85604949       0.14142605       0.50702038 </v>
   <v>       0.85667792       0.28498095       0.50745063 </v>
   <v>       0.85707677       0.42839026       0.51082475 </v>
   <v>       0.85674458       0.57133742       0.51583091 </v>
   <v>       0.86013816       0.71572124       0.52028850 </v>
   <v>       0.85853357       0.85675341       0.51754447 </v>
   <v>       0.04759889       0.09539344       0.49851517 </v>
   <v>       0.04581824       0.23704105       0.49705273 </v>
   <v>       0.04650887       0.38066138       0.49724154 </v>
   <v>       0.04732795       0.52378795       0.49854239 </v>
   <v>       0.04778424       0.66692953       0.49923487 </v>
   <v>       0.04851641       0.81020128       0.50058388 </v>
   <v>       0.04870716       0.95340526       0.50045193 </v>
   <v>       0.19156165       0.09712034       0.49193573 </v>
   <v>       0.18957096       0.23895094       0.48554149 </v>
   <v>       0.18732022       0.37967884       0.48356734 </v>
   <v>       0.19033596       0.52407324       0.48712046 </v>
   <v>       0.19017177       0.66703034       0.49119681 </v>
   <v>       0.19076890       0.81041321       0.49423278 </v>
   <v>       0.19155800       0.95398457       0.49505481 </v>
   <v>       0.33485441       0.09831059       0.49393460 </v>
   <v>       0.33492378       0.24204519       0.48128059 </v>
   <v>       0.32531983       0.51919492       0.45731452 </v>
   <v>       0.33593694       0.67020276       0.48212834 </v>
   <v>       0.33277066       0.81014827       0.49236617 </v>
   <v>       0.33367673       0.95383066       0.49599126 </v>
   <v>       0.47679347       0.09636621       0.50183426 </v>
   <v>       0.47899829       0.24154165       0.49700353 </v>
   <v>       0.47141924       0.80524640       0.49700347 </v>
   <v>       0.47584800       0.95241436       0.49993126 </v>
   <v>       0.61862039       0.09429419       0.50601314 </v>
   <v>       0.62001421       0.23847156       0.50936375 </v>
   <v>       0.61919715       0.81040530       0.52050637 </v>
   <v>       0.61731887       0.94952554       0.50693213 </v>
   <v>       0.76082303       0.09310652       0.50837904 </v>
   <v>       0.76181656       0.23694983       0.50926131 </v>
   <v>       0.76201391       0.38046230       0.51591175 </v>
   <v>       0.76168995       0.52415454       0.53270136 </v>
   <v>       0.76725656       0.67209108       0.54152253 </v>
   <v>       0.76308442       0.80493320       0.52999973 </v>
   <v>       0.76062707       0.94927229       0.51468080 </v>
   <v>       0.90356986       0.09355081       0.50640312 </v>
   <v>       0.90378982       0.23701207       0.50506610 </v>
   <v>       0.90422632       0.38063021       0.50649999 </v>
   <v>       0.90441524       0.52390789       0.50839720 </v>
   <v>       0.90570149       0.66678253       0.51272435 </v>
   <v>       0.90691500       0.81043633       0.51339310 </v>
   <v>       0.90496815       0.95174045       0.51049050 </v>
   <v>       0.47536820       0.37178528       0.46324475 </v>
   <v>       0.40939580       0.55959309       0.42603554 </v>
   <v>       0.64824645       0.53917936       0.60360658 </v>
   <v>       0.57342829       0.72144214       0.53196000 </v>
   <v>       0.42555663       0.71530502       0.48742407 </v>
   <v>       0.72128305       0.71672616       0.54662037 </v>
   <v>       0.32814424       0.38012383       0.46424683 </v>
   <v>       0.62175774       0.38004581       0.52036309 </v>
   <v>       0.53941968       0.59617929       0.49887132 </v>
   <v>       0.47815790       0.49581154       0.47707817 </v>
   <v>       0.53687780       0.53887510       0.50000005 </v>
  </varray>
  <varray name="selective"  type="logical" >
   <v type="logical" >  T  T  T </v>
   <v type="logical" >  T  T  T </v>
   <v type="logical" >  T  T  T </v>
   <v type="logical" >  T  T  T </v>
   <v type="logical" >  T  T  T </v>
   <v type="logical" >  T  T  T </v>
   <v type="logical" >  T  T  T </v>
   <v type="logical" >  T  T  T </v>
   <v type="logical" >  T  T  T </v>
   <v type="logical" >  T  T  T </v>
   <v type="logical" >  T  T  T </v>
   <v type="logical" >  T  T  T </v>
   <v type="logical" >  T  T  T </v>
   <v type="logical" >  T  T  T </v>
   <v type="logical" >  T  T  T </v>
   <v type="logical" >  T  T  T </v>
   <v type="logical" >  T  T  T </v>
   <v type="logical" >  T  T  T </v>
   <v type="logical" >  T  T  T </v>
   <v type="logical" >  T  T  T </v>
   <v type="logical" >  T  T  T </v>
   <v type="logical" >  T  T  T </v>
   <v type="logical" >  T  T  T </v>
   <v type="logical" >  T  T  T </v>
   <v type="logical" >  T  T  T </v>
   <v type="logical" >  T  T  T </v>
   <v type="logical" >  T  T  T </v>
   <v type="logical" >  T  T  T </v>
   <v type="logical" >  T  T  T </v>
   <v type="logical" >  T  T  T </v>
   <v type="logical" >  T  T  T </v>
   <v type="logical" >  T  T  T </v>
   <v type="logical" >  T  T  T </v>
   <v type="logical" >  T  T  T </v>
   <v type="logical" >  T  T  T </v>
   <v type="logical" >  T  T  T </v>
   <v type="logical" >  T  T  T </v>
   <v type="logical" >  T  T  T </v>
   <v type="logical" >  T  T  T </v>
   <v type="logical" >  T  T  T </v>
   <v type="logical" >  T  T  T </v>
   <v type="logical" >  T  T  T </v>
   <v type="logical" >  T  T  T </v>
   <v type="logical" >  T  T  T </v>
   <v type="logical" >  T  T  T </v>
   <v type="logical" >  T  T  T </v>
   <v type="logical" >  T  T  T </v>
   <v type="logical" >  T  T  T </v>
   <v type="logical" >  T  T  T </v>
   <v type="logical" >  T  T  T </v>
   <v type="logical" >  T  T  T </v>
   <v type="logical" >  T  T  T </v>
   <v type="logical" >  T  T  T </v>
   <v type="logical" >  T  T  T </v>
   <v type="logical" >  T  T  T </v>
   <v type="logical" >  T  T  T </v>
   <v type="logical" >  T  T  T </v>
   <v type="logical" >  T  T  T </v>
   <v type="logical" >  T  T  T </v>
   <v type="logical" >  T  T  T </v>
   <v type="logical" >  T  T  T </v>
   <v type="logical" >  T  T  T </v>
   <v type="logical" >  T  T  T </v>
   <v type="logical" >  T  T  T </v>
   <v type="logical" >  T  T  T </v>
   <v type="logical" >  T  T  T </v>
   <v type="logical" >  T  T  T </v>
   <v type="logical" >  T  T  T </v>
   <v type="logical" >  T  T  T </v>
   <v type="logical" >  T  T  T </v>
   <v type="logical" >  T  T  T </v>
   <v type="logical" >  T  T  T </v>
   <v type="logical" >  T  T  T </v>
   <v type="logical" >  T  T  T </v>
   <v type="logical" >  T  T  T </v>
   <v type="logical" >  T  T  T </v>
   <v type="logical" >  T  T  T </v>
   <v type="logical" >  T  T  T </v>
   <v type="logical" >  T  T  T </v>
   <v type="logical" >  T  T  T </v>
   <v type="logical" >  T  T  T </v>
   <v type="logical" >  T  T  T </v>
   <v type="logical" >  T  T  T </v>
   <v type="logical" >  T  T  T </v>
   <v type="logical" >  T  T  T </v>
   <v type="logical" >  T  T  T </v>
   <v type="logical" >  T  T  T </v>
   <v type="logical" >  T  T  T </v>
   <v type="logical" >  T  T  T </v>
   <v type="logical" >  T  T  T </v>
   <v type="logical" >  T  T  T </v>
   <v type="logical" >  T  T  T </v>
   <v type="logical" >  T  T  T </v>
   <v type="logical" >  T  T  T </v>
   <v type="logical" >  T  T  T </v>
  </varray>
  <nose>
   <v>      -3.00000000       0.00000000       0.00010000       0.00010000 </v>
  </nose>
 </structure>
 <calculation>
  <scstep>
   <time name="dav">   83.33   83.93</time>
   <time name="total">   89.05   89.74</time>
   <energy>
    <i name="alphaZ">    196.22536771 </i>
    <i name="ewald">  39331.60233464 </i>
    <i name="hartreedc"> -52072.22918737 </i>
    <i name="XCdc">   1370.92317414 </i>
    <i name="pawpsdc">  12438.68778162 </i>
    <i name="pawaedc"> -12513.22827041 </i>
    <i name="eentropy">     -0.03654653 </i>
    <i name="bandstr">  -1659.69440618 </i>
    <i name="atom">  16514.44393368 </i>
    <i name="e_fr_energy">   3606.69418131 </i>
    <i name="e_wo_entrp">   3606.73072783 </i>
    <i name="e_0_energy">   3606.71245457 </i>
   </energy>
  </scstep>
  <scstep>
   <time name="dav">  108.07  108.86</time>
   <time name="total">  108.08  108.87</time>
   <energy>
    <i name="e_fr_energy">   -184.41523928 </i>
    <i name="e_wo_entrp">   -184.40592852 </i>
    <i name="e_0_energy">   -184.41058390 </i>
   </energy>
  </scstep>
  <scstep>
   <time name="dav">   92.38   93.07</time>
   <time name="total">   92.39   93.09</time>
   <energy>
    <i name="e_fr_energy">   -851.08852851 </i>
    <i name="e_wo_entrp">   -851.08541306 </i>
    <i name="e_0_energy">   -851.08697079 </i>
   </energy>
  </scstep>
  <scstep>
   <time name="dav">   91.83   92.51</time>
   <time name="total">   91.83   92.53</time>
   <energy>
    <i name="e_fr_energy">   -873.39212365 </i>
    <i name="e_wo_entrp">   -873.38982344 </i>
    <i name="e_0_energy">   -873.39097354 </i>
   </energy>
  </scstep>
  <scstep>
   <time name="dav">  102.71  103.49</time>
   <time name="total">  108.39  109.22</time>
   <energy>
    <i name="e_fr_energy">   -874.08896142 </i>
    <i name="e_wo_entrp">   -874.08674100 </i>
    <i name="e_0_energy">   -874.08785121 </i>
   </energy>
  </scstep>
  <scstep>
   <time name="dav">   91.05   91.65</time>
   <time name="total">  103.13  103.86</time>
   <energy>
    <i name="e_fr_energy">   -857.05505881 </i>
    <i name="e_wo_entrp">   -857.05027216 </i>
    <i name="e_0_energy">   -857.05266548 </i>
   </energy>
  </scstep>
  <scstep>
   <time name="dav">   89.41   90.03</time>
   <time name="total">  101.48  102.22</time>
   <energy>
    <i name="e_fr_energy">   -836.78221850 </i>
    <i name="e_wo_entrp">   -836.78220631 </i>
    <i name="e_0_energy">   -836.78221241 </i>
   </energy>
  </scstep>
  <scstep>
   <time name="dav">   89.27   89.88</time>
   <time name="total">  101.36  102.10</time>
   <energy>
    <i name="e_fr_energy">   -832.12060516 </i>
    <i name="e_wo_entrp">   -832.12060483 </i>
    <i name="e_0_energy">   -832.12060499 </i>
   </energy>
  </scstep>
  <scstep>
   <time name="dav">   89.50   90.14</time>
   <time name="total">  101.78  102.53</time>
   <energy>
    <i name="e_fr_energy">   -832.24743133 </i>
    <i name="e_wo_entrp">   -832.24743108 </i>
    <i name="e_0_energy">   -832.24743120 </i>
   </energy>
  </scstep>
  <scstep>
   <time name="dav">   86.33   86.90</time>
   <time name="total">   98.50   99.19</time>
   <energy>
    <i name="e_fr_energy">   -832.07621625 </i>
    <i name="e_wo_entrp">   -832.07621596 </i>
    <i name="e_0_energy">   -832.07621610 </i>
   </energy>
  </scstep>
  <scstep>
   <time name="dav">   85.69   86.27</time>
   <time name="total">   97.66   98.35</time>
   <energy>
    <i name="e_fr_energy">   -832.06201569 </i>
    <i name="e_wo_entrp">   -832.06201548 </i>
    <i name="e_0_energy">   -832.06201558 </i>
   </energy>
  </scstep>
  <scstep>
   <time name="dav">   91.30   91.96</time>
   <time name="total">  103.72  104.51</time>
   <energy>
    <i name="e_fr_energy">   -832.06184408 </i>
    <i name="e_wo_entrp">   -832.06184387 </i>
    <i name="e_0_energy">   -832.06184398 </i>
   </energy>
  </scstep>
  <scstep>
   <time name="dav">   89.52   90.14</time>
   <time name="total">  101.97  102.71</time>
   <energy>
    <i name="e_fr_energy">   -832.06208132 </i>
    <i name="e_wo_entrp">   -832.06208111 </i>
    <i name="e_0_energy">   -832.06208122 </i>
   </energy>
  </scstep>
  <scstep>
   <time name="dav">   89.77   90.34</time>
   <time name="total">  102.25  102.94</time>
   <energy>
    <i name="e_fr_energy">   -832.06209849 </i>
    <i name="e_wo_entrp">   -832.06209828 </i>
    <i name="e_0_energy">   -832.06209839 </i>
   </energy>
  </scstep>
  <scstep>
   <time name="dav">   84.47   84.99</time>
   <time name="total">   96.90   97.53</time>
   <energy>
    <i name="e_fr_energy">   -832.06216443 </i>
    <i name="e_wo_entrp">   -832.06216422 </i>
    <i name="e_0_energy">   -832.06216433 </i>
   </energy>
  </scstep>
  <scstep>
   <time name="dav">   67.49   67.89</time>
   <time name="total">   73.71   74.20</time>
   <energy>
    <i name="alphaZ">    196.22536771 </i>
    <i name="ewald">  39331.60233464 </i>
    <i name="hartreedc"> -53533.50151777 </i>
    <i name="XCdc">   1419.80856901 </i>
    <i name="pawpsdc">  39590.34734303 </i>
    <i name="pawaedc"> -39676.01433608 </i>
    <i name="eentropy">     -0.00000021 </i>
    <i name="bandstr">  -4674.97385614 </i>
    <i name="atom">  16514.44393368 </i>
    <i name="e_fr_energy">   -832.06216213 </i>
    <i name="e_wo_entrp">   -832.06216192 </i>
    <i name="e_0_energy">   -832.06216203 </i>
   </energy>
  </scstep>
  <structure>
   <crystal>
    <varray name="basis" >
     <v>      17.27103806       0.00000000       0.00000000 </v>
     <v>      -8.63551903      14.95715771       0.00000000 </v>
     <v>       0.00000000       0.00000000      15.00000000 </v>
    </varray>
    <i name="volume">   3874.88459904 </i>
    <varray name="rec_basis" >
     <v>       0.05790040       0.03342881       0.00000000 </v>
     <v>       0.00000000       0.06685762       0.00000000 </v>
     <v>       0.00000000       0.00000000       0.06666667 </v>
    </varray>
   </crystal>
   <varray name="positions" >
    <v>       0.00019753       0.00011239       0.50311930 </v>
    <v>       0.99893619       0.14194761       0.50084962 </v>
    <v>       0.99889528       0.28512797       0.50009925 </v>
    <v>       0.99935218       0.42838392       0.50097823 </v>
    <v>       0.99967040       0.57153375       0.50160098 </v>
    <v>       0.00063911       0.71460958       0.50335899 </v>
    <v>       0.00173005       0.85831427       0.50395694 </v>
    <v>       0.14411281       0.00187937       0.49558999 </v>
    <v>       0.14296967       0.14387894       0.49187840 </v>
    <v>       0.14070849       0.28493035       0.48890665 </v>
    <v>       0.14161375       0.42864020       0.48941726 </v>
    <v>       0.14263281       0.57149117       0.49284504 </v>
    <v>       0.14298069       0.71472148       0.49451134 </v>
    <v>       0.14366749       0.85835852       0.49614400 </v>
    <v>       0.28682806       0.00227984       0.49486209 </v>
    <v>       0.28718389       0.14619094       0.48954694 </v>
    <v>       0.28548540       0.29094521       0.47580982 </v>
    <v>       0.28123440       0.42399357       0.46816708 </v>
    <v>       0.28605485       0.57156823       0.47511124 </v>
    <v>       0.28533570       0.71505709       0.48827506 </v>
    <v>       0.28567015       0.85844950       0.49395791 </v>
    <v>       0.42897666       0.00099668       0.49914252 </v>
    <v>       0.43034789       0.14566176       0.49824819 </v>
    <v>       0.42899305       0.28458407       0.48121975 </v>
    <v>       0.42753901       0.85692584       0.49600364 </v>
    <v>       0.57079115       0.99885641       0.50380810 </v>
    <v>       0.57174191       0.14292386       0.50558138 </v>
    <v>       0.57624285       0.29024386       0.50883097 </v>
    <v>       0.56877652       0.85352165       0.50758155 </v>
    <v>       0.71283217       0.99701716       0.51021754 </v>
    <v>       0.71392337       0.14152607       0.50793523 </v>
    <v>       0.71476319       0.28532615       0.51199021 </v>
    <v>       0.71145843       0.42535513       0.52491715 </v>
    <v>       0.72420145       0.57702295       0.55790727 </v>
    <v>       0.71312081       0.85339160       0.52299687 </v>
    <v>       0.85628435       0.99838619       0.51113432 </v>
    <v>       0.85604949       0.14142605       0.50702038 </v>
    <v>       0.85667792       0.28498095       0.50745063 </v>
    <v>       0.85707677       0.42839026       0.51082475 </v>
    <v>       0.85674458       0.57133742       0.51583091 </v>
    <v>       0.86013816       0.71572124       0.52028850 </v>
    <v>       0.85853357       0.85675341       0.51754447 </v>
    <v>       0.04759889       0.09539344       0.49851517 </v>
    <v>       0.04581824       0.23704105       0.49705273 </v>
    <v>       0.04650887       0.38066138       0.49724154 </v>
    <v>       0.04732795       0.52378795       0.49854239 </v>
    <v>       0.04778424       0.66692953       0.49923487 </v>
    <v>       0.04851641       0.81020128       0.50058388 </v>
    <v>       0.04870716       0.95340526       0.50045193 </v>
    <v>       0.19156165       0.09712034       0.49193573 </v>
    <v>       0.18957096       0.23895094       0.48554149 </v>
    <v>       0.18732022       0.37967884       0.48356734 </v>
    <v>       0.19033596       0.52407324       0.48712046 </v>
    <v>       0.19017177       0.66703034       0.49119681 </v>
    <v>       0.19076890       0.81041321       0.49423278 </v>
    <v>       0.19155800       0.95398457       0.49505481 </v>
    <v>       0.33485441       0.09831059       0.49393460 </v>
    <v>       0.33492378       0.24204519       0.48128059 </v>
    <v>       0.32531983       0.51919492       0.45731452 </v>
    <v>       0.33593694       0.67020276       0.48212834 </v>
    <v>       0.33277066       0.81014827       0.49236617 </v>
    <v>       0.33367673       0.95383066       0.49599126 </v>
    <v>       0.47679347       0.09636621       0.50183426 </v>
    <v>       0.47899829       0.24154165       0.49700353 </v>
    <v>       0.47141924       0.80524640       0.49700347 </v>
    <v>       0.47584800       0.95241436       0.49993126 </v>
    <v>       0.61862039       0.09429419       0.50601314 </v>
    <v>       0.62001421       0.23847156       0.50936375 </v>
    <v>       0.61919715       0.81040530       0.52050637 </v>
    <v>       0.61731887       0.94952554       0.50693213 </v>
    <v>       0.76082303       0.09310652       0.50837904 </v>
    <v>       0.76181656       0.23694983       0.50926131 </v>
    <v>       0.76201391       0.38046230       0.51591175 </v>
    <v>       0.76168995       0.52415454       0.53270136 </v>
    <v>       0.76725656       0.67209108       0.54152253 </v>
    <v>       0.76308442       0.80493320       0.52999973 </v>
    <v>       0.76062707       0.94927229       0.51468080 </v>
    <v>       0.90356986       0.09355081       0.50640312 </v>
    <v>       0.90378982       0.23701207       0.50506610 </v>
    <v>       0.90422632       0.38063021       0.50649999 </v>
    <v>       0.90441524       0.52390789       0.50839720 </v>
    <v>       0.90570149       0.66678253       0.51272435 </v>
    <v>       0.90691500       0.81043633       0.51339310 </v>
    <v>       0.90496815       0.95174045       0.51049050 </v>
    <v>       0.47536820       0.37178528       0.46324475 </v>
    <v>       0.40939580       0.55959309       0.42603554 </v>
    <v>       0.64824645       0.53917936       0.60360658 </v>
    <v>       0.57342829       0.72144214       0.53196000 </v>
    <v>       0.42555663       0.71530502       0.48742407 </v>
    <v>       0.72128305       0.71672616       0.54662037 </v>
    <v>       0.32814424       0.38012383       0.46424683 </v>
    <v>       0.62175774       0.38004581       0.52036309 </v>
    <v>       0.53941968       0.59617929       0.49887132 </v>
    <v>       0.47815790       0.49581154       0.47707817 </v>
    <v>       0.53687780       0.53887510       0.50000005 </v>
   </varray>
  </structure>
  <varray name="forces" >
   <v>      -0.00055937       0.00046705       0.00217619 </v>
   <v>      -0.00074397       0.00065825       0.00035126 </v>
   <v>      -0.00159426      -0.00007928      -0.00008149 </v>
   <v>      -0.00046976      -0.00251270       0.00155278 </v>
   <v>      -0.00056481      -0.00053375       0.00390350 </v>
   <v>      -0.00077344       0.00038884       0.00225108 </v>
   <v>      -0.00131331       0.00157903       0.00280702 </v>
   <v>      -0.00024477       0.00062258       0.00160875 </v>
   <v>      -0.00086126       0.00052261      -0.00093814 </v>
   <v>      -0.00158279       0.00055475      -0.00060157 </v>
   <v>      -0.00202329      -0.00025087      -0.00019769 </v>
   <v>       0.00017287      -0.00085699      -0.00001879 </v>
   <v>      -0.00026241      -0.00071634       0.00271103 </v>
   <v>      -0.00174483       0.00064362       0.00285305 </v>
   <v>      -0.00097969       0.00073484      -0.00119247 </v>
   <v>      -0.00104877       0.00042027      -0.00041678 </v>
   <v>       0.00055105       0.00061678      -0.00100082 </v>
   <v>       0.00002952       0.00111326       0.00166643 </v>
   <v>      -0.00030892       0.00103502      -0.00001653 </v>
   <v>      -0.00042136      -0.00013353       0.00081184 </v>
   <v>      -0.00036264      -0.00073869      -0.00004745 </v>
   <v>       0.00051596       0.00010837       0.00069351 </v>
   <v>       0.00109745      -0.00003474      -0.00246548 </v>
   <v>       0.00046346      -0.00159687      -0.00063725 </v>
   <v>      -0.00066970      -0.00013711       0.00004608 </v>
   <v>       0.00122751       0.00006457       0.00088640 </v>
   <v>       0.00183292       0.00050053       0.00116105 </v>
   <v>       0.00321934       0.00065364      -0.00016061 </v>
   <v>      -0.00008162      -0.00147189       0.00330556 </v>
   <v>       0.00141131       0.00000385       0.00125637 </v>
   <v>       0.00030495       0.00079163       0.00154534 </v>
   <v>       0.00225669       0.00060914       0.00213211 </v>
   <v>       0.00159587      -0.00003402       0.00284949 </v>
   <v>       0.00002310      -0.00049826       0.00489336 </v>
   <v>       0.00082573      -0.00028398       0.00325658 </v>
   <v>       0.00039633      -0.00024607       0.00075978 </v>
   <v>       0.00028496       0.00077499       0.00023769 </v>
   <v>      -0.00053803       0.00037135       0.00209008 </v>
   <v>      -0.00010669      -0.00187485       0.00365258 </v>
   <v>       0.00077346      -0.00101966       0.00365738 </v>
   <v>       0.00032750       0.00153245       0.00328254 </v>
   <v>      -0.00020589       0.00013372       0.00217272 </v>
   <v>       0.00098338      -0.00037922       0.00073887 </v>
   <v>       0.00124735      -0.00037827      -0.00089656 </v>
   <v>      -0.00021152       0.00095206       0.00021573 </v>
   <v>       0.00117738       0.00059123       0.00224677 </v>
   <v>       0.00001521       0.00071278       0.00328109 </v>
   <v>       0.00136765      -0.00048176       0.00175499 </v>
   <v>       0.00088636      -0.00017956       0.00296673 </v>
   <v>       0.00197368       0.00062250      -0.00064703 </v>
   <v>       0.00127442       0.00029004       0.00043854 </v>
   <v>       0.00105826      -0.00022931      -0.00038978 </v>
   <v>      -0.00081633       0.00009417      -0.00015755 </v>
   <v>      -0.00072324       0.00041804       0.00135689 </v>
   <v>       0.00005016       0.00054763       0.00169879 </v>
   <v>       0.00133084       0.00024800       0.00061117 </v>
   <v>       0.00146048       0.00010327      -0.00047232 </v>
   <v>       0.00040846       0.00059692      -0.00099062 </v>
   <v>      -0.00001410       0.00048073      -0.00083214 </v>
   <v>      -0.00042364      -0.00000902       0.00168795 </v>
   <v>      -0.00098907       0.00082974       0.00035623 </v>
   <v>      -0.00017027       0.00015113      -0.00059828 </v>
   <v>      -0.00153285       0.00012679       0.00017499 </v>
   <v>       0.00058132      -0.00033671      -0.00190150 </v>
   <v>      -0.00064311       0.00002185       0.00162308 </v>
   <v>      -0.00053703      -0.00011476       0.00011528 </v>
   <v>      -0.00114665      -0.00148724       0.00129002 </v>
   <v>      -0.00460329      -0.00004818       0.00048584 </v>
   <v>      -0.00150328      -0.00021696       0.00681685 </v>
   <v>      -0.00080314      -0.00104805       0.00149106 </v>
   <v>      -0.00131835      -0.00105535       0.00072302 </v>
   <v>      -0.00131324      -0.00077170       0.00263696 </v>
   <v>      -0.00152769       0.00016995       0.00263677 </v>
   <v>      -0.00135983      -0.00016139       0.00539089 </v>
   <v>       0.00047464      -0.00136454       0.00383774 </v>
   <v>      -0.00151056      -0.00154982       0.00301102 </v>
   <v>      -0.00075835      -0.00069266       0.00153206 </v>
   <v>      -0.00085698      -0.00024552       0.00085704 </v>
   <v>      -0.00082239      -0.00033888       0.00074315 </v>
   <v>      -0.00042847       0.00092982       0.00273754 </v>
   <v>      -0.00106930       0.00173573       0.00382004 </v>
   <v>      -0.00009236      -0.00104720       0.00262623 </v>
   <v>      -0.00019216      -0.00280144       0.00271301 </v>
   <v>      -0.00018297      -0.00103722       0.00156449 </v>
   <v>       0.00014353       0.00198910      -0.00577225 </v>
   <v>       0.00503506      -0.00053528      -0.00418865 </v>
   <v>      -0.00564510      -0.00135105       0.00949919 </v>
   <v>       0.00203882      -0.00390049       0.01606072 </v>
   <v>      -0.00055823      -0.00068186       0.00202825 </v>
   <v>      -0.00002206      -0.00057502       0.00423033 </v>
   <v>       0.00005009       0.00155154      -0.00047063 </v>
   <v>      -0.00223923      -0.00097648       0.00082387 </v>
   <v>       0.00105440       0.00168729       0.00046013 </v>
   <v>       0.00472136       0.00340257      -0.00180769 </v>
   <v>       0.00683349       0.00386053      -0.13095476 </v>
  </varray>
  <varray name="stress" >
   <v>      -0.72228241       0.16048728      -0.00576014 </v>
   <v>       0.16048717     -11.68525103      -0.01926060 </v>
   <v>      -0.00576084      -0.01926100      -0.33881873 </v>
  </varray>
  <energy>
   <i name="e_fr_energy">   -839.72982490 </i>
   <i name="e_wo_entrp">   -839.72982468 </i>
   <i name="e_0_energy">   -839.72982479 </i>
  </energy>
  <time name="totalsc"> 1711.08 1723.65</time>
 </calculation>
 <calculation>
  <scstep>
   <time name="dav">   82.94   83.49</time>
   <time name="total">   94.64   95.30</time>
   <energy>
    <i name="alphaZ">    196.22536771 </i>
    <i name="ewald">  39331.41139302 </i>
    <i name="hartreedc"> -53533.25067387 </i>
    <i name="XCdc">   1419.80842053 </i>
    <i name="pawpsdc">  39589.46708285 </i>
    <i name="pawaedc"> -39675.13150006 </i>
    <i name="eentropy">     -0.00000021 </i>
    <i name="bandstr">  -4675.03629141 </i>
    <i name="atom">  16514.44393368 </i>
    <i name="e_fr_energy">   -832.06226776 </i>
    <i name="e_wo_entrp">   -832.06226755 </i>
    <i name="e_0_energy">   -832.06226765 </i>
   </energy>
  </scstep>
  <scstep>
   <time name="dav">   81.97   82.59</time>
   <time name="total">   93.98   94.70</time>
   <energy>
    <i name="e_fr_energy">   -832.06228023 </i>
    <i name="e_wo_entrp">   -832.06228001 </i>
    <i name="e_0_energy">   -832.06228012 </i>
   </energy>
  </scstep>
  <scstep>
   <time name="dav">   63.13   63.55</time>
   <time name="total">   69.01   69.51</time>
   <energy>
    <i name="alphaZ">    196.22536771 </i>
    <i name="ewald">  39331.41139302 </i>
    <i name="hartreedc"> -53533.24640167 </i>
    <i name="XCdc">   1419.80987865 </i>
    <i name="pawpsdc">  39589.45569214 </i>
    <i name="pawaedc"> -39675.12080067 </i>
    <i name="eentropy">     -0.00000021 </i>
    <i name="bandstr">  -4675.04134168 </i>
    <i name="atom">  16514.44393368 </i>
    <i name="e_fr_energy">   -832.06227904 </i>
    <i name="e_wo_entrp">   -832.06227883 </i>
    <i name="e_0_energy">   -832.06227893 </i>
   </energy>
  </scstep>
  <structure>
   <crystal>
    <varray name="basis" >
     <v>      17.27103806       0.00000000       0.00000000 </v>
     <v>      -8.63551903      14.95715771       0.00000000 </v>
     <v>       0.00000000       0.00000000      15.00000000 </v>
    </varray>
    <i name="volume">   3874.88459904 </i>
    <varray name="rec_basis" >
     <v>       0.05790040       0.03342881       0.00000000 </v>
     <v>       0.00000000       0.06685762       0.00000000 </v>
     <v>       0.00000000       0.00000000       0.06666667 </v>
    </varray>
   </crystal>
   <varray name="positions" >
    <v>       0.00019832       0.00011321       0.50311944 </v>
    <v>       0.99893695       0.14194857       0.50084879 </v>
    <v>       0.99889528       0.28512838       0.50009856 </v>
    <v>       0.99935203       0.42838266       0.50097886 </v>
    <v>       0.99967089       0.57153380       0.50160320 </v>
    <v>       0.00063981       0.71461030       0.50335992 </v>
    <v>       0.00173084       0.85831585       0.50395788 </v>
    <v>       0.14411381       0.00188025       0.49558911 </v>
    <v>       0.14297022       0.14387974       0.49187487 </v>
    <v>       0.14070866       0.28493119       0.48890284 </v>
    <v>       0.14161331       0.42864041       0.48941393 </v>
    <v>       0.14263352       0.57149095       0.49284278 </v>
    <v>       0.14298121       0.71472137       0.49451163 </v>
    <v>       0.14366761       0.85835935       0.49614460 </v>
    <v>       0.28682858       0.00228071       0.49485863 </v>
    <v>       0.28718427       0.14619166       0.48954233 </v>
    <v>       0.28548649       0.29094586       0.47580160 </v>
    <v>       0.28123500       0.42399447       0.46815816 </v>
    <v>       0.28605539       0.57156914       0.47510282 </v>
    <v>       0.28533622       0.71505729       0.48827100 </v>
    <v>       0.28567055       0.85844935       0.49395520 </v>
    <v>       0.42897783       0.00099707       0.49913991 </v>
    <v>       0.43034934       0.14566209       0.49824259 </v>
    <v>       0.42899364       0.28458322       0.48121210 </v>
    <v>       0.42753942       0.85692603       0.49599908 </v>
    <v>       0.57079270       0.99885675       0.50380571 </v>
    <v>       0.57174394       0.14292449       0.50557949 </v>
    <v>       0.57624569       0.29024460       0.50882617 </v>
    <v>       0.56877677       0.85352090       0.50757811 </v>
    <v>       0.71283378       0.99701752       0.51021612 </v>
    <v>       0.71392461       0.14152694       0.50793511 </v>
    <v>       0.71476548       0.28532687       0.51198993 </v>
    <v>       0.71146000       0.42535542       0.52491484 </v>
    <v>       0.72420081       0.57702271       0.55790198 </v>
    <v>       0.71312194       0.85339173       0.52299437 </v>
    <v>       0.85628539       0.99838649       0.51113336 </v>
    <v>       0.85605081       0.14142700       0.50702011 </v>
    <v>       0.85667862       0.28498159       0.50745192 </v>
    <v>       0.85707698       0.42838938       0.51082652 </v>
    <v>       0.85674560       0.57133715       0.51583182 </v>
    <v>       0.86013981       0.71572277       0.52028835 </v>
    <v>       0.85853436       0.85675394       0.51754350 </v>
    <v>       0.04760027       0.09539369       0.49851405 </v>
    <v>       0.04581983       0.23704132       0.49705073 </v>
    <v>       0.04651003       0.38066246       0.49724058 </v>
    <v>       0.04732979       0.52378875       0.49854312 </v>
    <v>       0.04778545       0.66693042       0.49923645 </v>
    <v>       0.04851801       0.81020140       0.50058427 </v>
    <v>       0.04870860       0.95340565       0.50045262 </v>
    <v>       0.19156387       0.09712120       0.49193220 </v>
    <v>       0.18957260       0.23895152       0.48553736 </v>
    <v>       0.18732156       0.37967911       0.48356206 </v>
    <v>       0.19033633       0.52407365       0.48711627 </v>
    <v>       0.19017235       0.66703097       0.49119495 </v>
    <v>       0.19076999       0.81041395       0.49423214 </v>
    <v>       0.19155973       0.95398514       0.49505329 </v>
    <v>       0.33485612       0.09831105       0.49393064 </v>
    <v>       0.33492504       0.24204598       0.48127339 </v>
    <v>       0.32531938       0.51919526       0.45730005 </v>
    <v>       0.33593740       0.67020306       0.48212203 </v>
    <v>       0.33277118       0.81014913       0.49236247 </v>
    <v>       0.33367752       0.95383111       0.49598808 </v>
    <v>       0.47679345       0.09636663       0.50183124 </v>
    <v>       0.47899933       0.24154179       0.49699695 </v>
    <v>       0.47141968       0.80524662       0.49699822 </v>
    <v>       0.47584847       0.95241456       0.49992782 </v>
    <v>       0.61862004       0.09429349       0.50601190 </v>
    <v>       0.62001231       0.23847184       0.50936119 </v>
    <v>       0.61919699       0.81040525       0.52050413 </v>
    <v>       0.61731885       0.94952511       0.50692967 </v>
    <v>       0.76082275       0.09310620       0.50837851 </v>
    <v>       0.76181638       0.23694966       0.50926237 </v>
    <v>       0.76201389       0.38046274       0.51591160 </v>
    <v>       0.76168958       0.52415472       0.53270045 </v>
    <v>       0.76725676       0.67209043       0.54151935 </v>
    <v>       0.76308364       0.80493244       0.52999702 </v>
    <v>       0.76062724       0.94927225       0.51467925 </v>
    <v>       0.90357023       0.09355115       0.50640297 </v>
    <v>       0.90379017       0.23701228       0.50506652 </v>
    <v>       0.90422734       0.38063124       0.50650171 </v>
    <v>       0.90441617       0.52390946       0.50839922 </v>
    <v>       0.90570204       0.66678227       0.51272488 </v>
    <v>       0.90691496       0.81043498       0.51339326 </v>
    <v>       0.90496862       0.95174024       0.51048997 </v>
    <v>       0.47537001       0.37178667       0.46323097 </v>
    <v>       0.40939460       0.55959228       0.42600792 </v>
    <v>       0.64823855       0.53917788       0.60359558 </v>
    <v>       0.57342906       0.72143938       0.53196024 </v>
    <v>       0.42555687       0.71530487       0.48741713 </v>
    <v>       0.72128291       0.71672572       0.54661616 </v>
    <v>       0.32814471       0.38012468       0.46423514 </v>
    <v>       0.62175684       0.38004553       0.52035796 </v>
    <v>       0.53940593       0.59616985       0.49887789 </v>
    <v>       0.47814609       0.49580371       0.47708178 </v>
    <v>       0.53685061       0.53886833       0.49993429 </v>
   </varray>
  </structure>
  <varray name="forces" >
   <v>       0.00004362       0.00015112       0.00225696 </v>
   <v>      -0.00020710      -0.00003833       0.00038847 </v>
   <v>      -0.00060334       0.00012381      -0.00009219 </v>
   <v>       0.00005491      -0.00053743       0.00165104 </v>
   <v>      -0.00014683       0.00011178       0.00405657 </v>
   <v>      -0.00012345       0.00019713       0.00246399 </v>
   <v>      -0.00027633       0.00029224       0.00295448 </v>
   <v>       0.00055781       0.00064081       0.00156775 </v>
   <v>       0.00028878       0.00058875      -0.00089581 </v>
   <v>       0.00036107       0.00010660      -0.00076629 </v>
   <v>      -0.00066720      -0.00019130      -0.00049296 </v>
   <v>      -0.00037206       0.00008774       0.00011320 </v>
   <v>      -0.00029520       0.00005838       0.00277794 </v>
   <v>       0.00061220      -0.00024634       0.00145224 </v>
   <v>       0.00012312       0.00043546      -0.00112669 </v>
   <v>       0.00037582       0.00085122      -0.00057534 </v>
   <v>       0.00018496       0.00090056      -0.00097229 </v>
   <v>      -0.00006653       0.00150916       0.00112077 </v>
   <v>       0.00070170       0.00027459      -0.00044732 </v>
   <v>      -0.00024663       0.00009362       0.00078422 </v>
   <v>      -0.00060791       0.00024253      -0.00001414 </v>
   <v>      -0.00007480       0.00021053       0.00052468 </v>
   <v>       0.00052930       0.00040553      -0.00242547 </v>
   <v>       0.00059480       0.00081214      -0.00129244 </v>
   <v>      -0.00023068       0.00001178       0.00000376 </v>
   <v>      -0.00004901      -0.00034198       0.00083697 </v>
   <v>      -0.00024726      -0.00021869       0.00101651 </v>
   <v>       0.00084211       0.00065777      -0.00043126 </v>
   <v>      -0.00010164      -0.00143964       0.00331206 </v>
   <v>       0.00015320      -0.00038995       0.00130037 </v>
   <v>      -0.00030771      -0.00054056       0.00165310 </v>
   <v>      -0.00065367      -0.00003980       0.00219388 </v>
   <v>      -0.00076750      -0.00050817       0.00293237 </v>
   <v>      -0.00191658      -0.00108570       0.00569410 </v>
   <v>      -0.00083501      -0.00083997       0.00312494 </v>
   <v>       0.00012291      -0.00020867       0.00087479 </v>
   <v>      -0.00054283      -0.00020077       0.00042446 </v>
   <v>      -0.00065816      -0.00000143       0.00227672 </v>
   <v>      -0.00049312       0.00004321       0.00382941 </v>
   <v>      -0.00047890      -0.00027757       0.00406782 </v>
   <v>      -0.00006621      -0.00070592       0.00367927 </v>
   <v>      -0.00061820      -0.00086998       0.00239034 </v>
   <v>       0.00002513      -0.00001959       0.00077795 </v>
   <v>      -0.00031228      -0.00000952      -0.00079388 </v>
   <v>      -0.00076623      -0.00026801       0.00028585 </v>
   <v>      -0.00259476       0.00105343       0.00119719 </v>
   <v>      -0.00052863       0.00023487       0.00352587 </v>
   <v>      -0.00027986       0.00012009       0.00214430 </v>
   <v>       0.00016020       0.00050689       0.00308456 </v>
   <v>       0.00021758       0.00027936      -0.00060785 </v>
   <v>       0.00056950       0.00054972       0.00013750 </v>
   <v>      -0.00002469       0.00061980      -0.00046419 </v>
   <v>      -0.00013958      -0.00013647      -0.00039555 </v>
   <v>      -0.00033857      -0.00018772       0.00131882 </v>
   <v>      -0.00051951       0.00024135       0.00183349 </v>
   <v>       0.00010162       0.00071103       0.00075067 </v>
   <v>       0.00043001       0.00023511      -0.00082413 </v>
   <v>       0.00060843       0.00059763      -0.00103903 </v>
   <v>       0.00146564       0.00182347      -0.00176065 </v>
   <v>      -0.00074819       0.00024463       0.00144988 </v>
   <v>      -0.00037692       0.00007729       0.00022591 </v>
   <v>      -0.00037676       0.00031648      -0.00065712 </v>
   <v>       0.00043904      -0.00008628       0.00007275 </v>
   <v>       0.00052991       0.00020083      -0.00207986 </v>
   <v>      -0.00092921      -0.00022536       0.00159918 </v>
   <v>       0.00009269       0.00010532       0.00015527 </v>
   <v>       0.00005490      -0.00045452       0.00138644 </v>
   <v>      -0.00087377       0.00044175       0.00060332 </v>
   <v>      -0.00035290      -0.00163579       0.00709538 </v>
   <v>       0.00034848      -0.00094449       0.00155816 </v>
   <v>      -0.00043567      -0.00002557       0.00081779 </v>
   <v>      -0.00015815      -0.00027027       0.00269406 </v>
   <v>      -0.00061940       0.00004492       0.00276864 </v>
   <v>      -0.00129278      -0.00010710       0.00525144 </v>
   <v>      -0.00084871      -0.00116415       0.00542339 </v>
   <v>      -0.00028088      -0.00093117       0.00288828 </v>
   <v>       0.00010110      -0.00071799       0.00152204 </v>
   <v>      -0.00037492      -0.00012222       0.00084857 </v>
   <v>      -0.00072627       0.00015830       0.00083362 </v>
   <v>      -0.00048538      -0.00007491       0.00292599 </v>
   <v>       0.00004755      -0.00023524       0.00409303 </v>
   <v>      -0.00004882      -0.00025913       0.00296391 </v>
   <v>      -0.00062212      -0.00017018       0.00280863 </v>
   <v>      -0.00014885      -0.00064223       0.00166836 </v>
   <v>      -0.00005841      -0.00409600      -0.00446179 </v>
   <v>       0.00051583      -0.00643296      -0.00034922 </v>
   <v>       0.00133261      -0.00039001       0.00247894 </v>
   <v>      -0.00168183       0.00196079       0.01371041 </v>
   <v>       0.00007735      -0.00049339       0.00222878 </v>
   <v>      -0.00054915      -0.00103248       0.00405068 </v>
   <v>       0.00060140       0.00098883      -0.00001875 </v>
   <v>      -0.00030398       0.00002578       0.00097367 </v>
   <v>      -0.00493942       0.00778559      -0.00028357 </v>
   <v>      -0.01381520      -0.01124796      -0.01084559 </v>
   <v>       0.03494040       0.01293323      -0.11776253 </v>
  </varray>
  <varray name="stress" >
   <v>      -0.70837934       0.16168727      -0.00069816 </v>
   <v>       0.16168717     -11.67499972      -0.01304449 </v>
   <v>      -0.00069886      -0.01304490      -0.32312979 </v>
  </varray>
  <energy>
   <i name="e_fr_energy">   -839.72993488 </i>
   <i name="e_wo_entrp">   -839.72993467 </i>
   <i name="e_0_energy">   -839.72993478 </i>
  </energy>
  <time name="totalsc">  472.76  476.13</time>
 </calculation>
 <calculation>
  <scstep>
   <time name="dav">   81.67   82.20</time>
   <time name="total">   93.85   94.46</time>
   <energy>
    <i name="alphaZ">    196.22536771 </i>
    <i name="ewald">  39331.12516089 </i>
    <i name="hartreedc"> -53532.91502933 </i>
    <i name="XCdc">   1419.81009031 </i>
    <i name="pawpsdc">  39589.34515836 </i>
    <i name="pawaedc"> -39675.01027843 </i>
    <i name="eentropy">     -0.00000021 </i>
    <i name="bandstr">  -4675.08683086 </i>
    <i name="atom">  16514.44393368 </i>
    <i name="e_fr_energy">   -832.06242788 </i>
    <i name="e_wo_entrp">   -832.06242767 </i>
    <i name="e_0_energy">   -832.06242777 </i>
   </energy>
  </scstep>
  <scstep>
   <time name="dav">   81.43   81.97</time>
   <time name="total">   93.24   93.90</time>
   <energy>
    <i name="e_fr_energy">   -832.06246834 </i>
    <i name="e_wo_entrp">   -832.06246813 </i>
    <i name="e_0_energy">   -832.06246823 </i>
   </energy>
  </scstep>
  <scstep>
   <time name="dav">   66.12   66.58</time>
   <time name="total">   72.07   72.61</time>
   <energy>
    <i name="alphaZ">    196.22536771 </i>
    <i name="ewald">  39331.12516089 </i>
    <i name="hartreedc"> -53532.91735081 </i>
    <i name="XCdc">   1419.81094244 </i>
    <i name="pawpsdc">  39589.26138049 </i>
    <i name="pawaedc"> -39674.92645171 </i>
    <i name="eentropy">     -0.00000021 </i>
    <i name="bandstr">  -4675.08544935 </i>
    <i name="atom">  16514.44393368 </i>
    <i name="e_fr_energy">   -832.06246687 </i>
    <i name="e_wo_entrp">   -832.06246666 </i>
    <i name="e_0_energy">   -832.06246676 </i>
   </energy>
  </scstep>
  <structure>
   <crystal>
    <varray name="basis" >
     <v>      17.27103806       0.00000000       0.00000000 </v>
     <v>      -8.63551903      14.95715771       0.00000000 </v>
     <v>       0.00000000       0.00000000      15.00000000 </v>
    </varray>
    <i name="volume">   3874.88459904 </i>
    <varray name="rec_basis" >
     <v>       0.05790040       0.03342881       0.00000000 </v>
     <v>       0.00000000       0.06685762       0.00000000 </v>
     <v>       0.00000000       0.00000000       0.06666667 </v>
    </varray>
   </crystal>
   <varray name="positions" >
    <v>       0.00020029       0.00011468       0.50311964 </v>
    <v>       0.99893865       0.14195003       0.50084704 </v>
    <v>       0.99889609       0.28512940       0.50009709 </v>
    <v>       0.99935290       0.42838164       0.50098016 </v>
    <v>       0.99967247       0.57153443       0.50160772 </v>
    <v>       0.00064166       0.71461163       0.50336189 </v>
    <v>       0.00173271       0.85831811       0.50395976 </v>
    <v>       0.14411643       0.00188209       0.49558712 </v>
    <v>       0.14297215       0.14388143       0.49186750 </v>
[...]
       <r>   -18.0786     2.6083    33.5015 </r>
       <r>   -17.9553     7.5155    34.4281 </r>
       <r>   -17.8320     6.0540    35.1746 </r>
       <r>   -17.7087     8.8236    36.2625 </r>
       <r>   -17.5854    13.0699    37.8740 </r>
       <r>   -17.4621    11.5497    39.2981 </r>
       <r>   -17.3388     9.4593    40.4644 </r>
       <r>   -17.2155     3.7961    40.9324 </r>
       <r>   -17.0922     8.2488    41.9495 </r>
       <r>   -16.9689     5.1234    42.5812 </r>
       <r>   -16.8456     4.7540    43.1673 </r>
       <r>   -16.7223     6.4477    43.9623 </r>
       <r>   -16.5990    17.0518    46.0648 </r>
       <r>   -16.4757    11.1093    47.4345 </r>
       <r>   -16.3524     4.3904    47.9759 </r>
       <r>   -16.2291     0.1958    48.0000 </r>
       <r>   -16.1058     0.0047    48.0006 </r>
       <r>   -15.9825     1.5647    48.1935 </r>
       <r>   -15.8592     6.1792    48.9554 </r>
       <r>   -15.7359     3.1879    49.3484 </r>
       <r>   -15.6126     7.3297    50.2522 </r>
       <r>   -15.4893     6.5773    51.0631 </r>
       <r>   -15.3660     6.6068    51.8777 </r>
       <r>   -15.2427    14.5563    53.6725 </r>
       <r>   -15.1194     8.2012    54.6837 </r>
       <r>   -14.9961     5.2961    55.3367 </r>
       <r>   -14.8728     8.5883    56.3956 </r>
       <r>   -14.7495    10.2758    57.6626 </r>
       <r>   -14.6262     8.7780    58.7449 </r>
       <r>   -14.5029    13.7382    60.4388 </r>
       <r>   -14.3796     7.6397    61.3807 </r>
       <r>   -14.2563     6.8713    62.2280 </r>
       <r>   -14.1330     3.9981    62.7209 </r>
       <r>   -14.0097     3.8749    63.1987 </r>
       <r>   -13.8864     5.2538    63.8465 </r>
       <r>   -13.7631    12.0954    65.3378 </r>
       <r>   -13.6398    10.8565    66.6764 </r>
       <r>   -13.5165     7.6816    67.6235 </r>
       <r>   -13.3932     5.3580    68.2841 </r>
       <r>   -13.2699     2.2813    68.5654 </r>
       <r>   -13.1466     5.9159    69.2948 </r>
       <r>   -13.0233     5.0223    69.9141 </r>
       <r>   -12.9001     7.3749    70.8234 </r>
       <r>   -12.7768    15.0607    72.6803 </r>
       <r>   -12.6535    13.9628    74.4019 </r>
       <r>   -12.5302     6.4256    75.1942 </r>
       <r>   -12.4069     8.6167    76.2566 </r>
       <r>   -12.2836    10.1809    77.5119 </r>
       <r>   -12.1603     3.6367    77.9603 </r>
       <r>   -12.0370     6.6486    78.7801 </r>
       <r>   -11.9137    10.8432    80.1170 </r>
       <r>   -11.7904     9.8030    81.3257 </r>
       <r>   -11.6671    13.7132    83.0165 </r>
       <r>   -11.5438    10.5204    84.3136 </r>
       <r>   -11.4205    12.8368    85.8964 </r>
       <r>   -11.2972    10.6787    87.2130 </r>
       <r>   -11.1739    11.7751    88.6649 </r>
       <r>   -11.0506    10.3074    89.9358 </r>
       <r>   -10.9273     8.1281    90.9380 </r>
       <r>   -10.8040     4.3308    91.4719 </r>
       <r>   -10.6807     6.6909    92.2969 </r>
       <r>   -10.5574    11.7991    93.7517 </r>
       <r>   -10.4341    13.6210    95.4311 </r>
       <r>   -10.3108    15.5592    97.3496 </r>
       <r>   -10.1875    16.7291    99.4122 </r>
       <r>   -10.0642    20.9066   101.9900 </r>
       <r>    -9.9409    18.2122   104.2355 </r>
       <r>    -9.8176    18.3661   106.5000 </r>
       <r>    -9.6943    20.7234   109.0551 </r>
       <r>    -9.5710    23.0161   111.8930 </r>
       <r>    -9.4477    21.1480   114.5005 </r>
       <r>    -9.3244    22.0512   117.2193 </r>
       <r>    -9.2011    20.7761   119.7810 </r>
       <r>    -9.0778    21.8755   122.4782 </r>
       <r>    -8.9545    24.0942   125.4489 </r>
       <r>    -8.8312    24.6374   128.4867 </r>
       <r>    -8.7079    20.1342   130.9692 </r>
       <r>    -8.5846     7.4895   131.8926 </r>
       <r>    -8.4613    18.2497   134.1428 </r>
       <r>    -8.3380    23.6188   137.0549 </r>
       <r>    -8.2147    20.0820   139.5310 </r>
       <r>    -8.0914    17.6280   141.7045 </r>
       <r>    -7.9681    12.1225   143.1991 </r>
       <r>    -7.8448    12.9112   144.7911 </r>
       <r>    -7.7215     9.3889   145.9487 </r>
       <r>    -7.5982    10.0378   147.1863 </r>
       <r>    -7.4749    19.6832   149.6132 </r>
       <r>    -7.3517    26.8666   152.9258 </r>
       <r>    -7.2284    17.2485   155.0525 </r>
       <r>    -7.1051    17.4975   157.2099 </r>
       <r>    -6.9818    14.2381   158.9655 </r>
       <r>    -6.8585    11.1435   160.3394 </r>
       <r>    -6.7352     9.1696   161.4700 </r>
       <r>    -6.6119    11.6064   162.9010 </r>
       <r>    -6.4886    13.2568   164.5356 </r>
       <r>    -6.3653    14.0163   166.2638 </r>
       <r>    -6.2420    21.3091   168.8911 </r>
       <r>    -6.1187     9.2178   170.0277 </r>
       <r>    -5.9954    10.3708   171.3064 </r>
       <r>    -5.8721     8.6019   172.3670 </r>
       <r>    -5.7488    10.0802   173.6098 </r>
       <r>    -5.6255     6.8477   174.4541 </r>
       <r>    -5.5022     3.3732   174.8700 </r>
       <r>    -5.3789     8.2528   175.8876 </r>
       <r>    -5.2556    12.6351   177.4455 </r>
       <r>    -5.1323    18.7106   179.7525 </r>
       <r>    -5.0090    16.9232   181.8391 </r>
       <r>    -4.8857     8.9967   182.9483 </r>
       <r>    -4.7624     7.1342   183.8280 </r>
       <r>    -4.6391     3.3061   184.2356 </r>
       <r>    -4.5158    10.3888   185.5165 </r>
       <r>    -4.3925    10.5971   186.8231 </r>
       <r>    -4.2692    11.3262   188.2196 </r>
       <r>    -4.1459    16.5220   190.2567 </r>
       <r>    -4.0226    13.9044   191.9711 </r>
       <r>    -3.8993     7.5963   192.9077 </r>
       <r>    -3.7760     2.5689   193.2244 </r>
       <r>    -3.6527     8.5564   194.2794 </r>
       <r>    -3.5294     2.1317   194.5423 </r>
       <r>    -3.4061     4.0941   195.0471 </r>
       <r>    -3.2828     1.6681   195.2527 </r>
       <r>    -3.1595     1.7987   195.4745 </r>
       <r>    -3.0362     0.2923   195.5105 </r>
       <r>    -2.9129     1.9189   195.7471 </r>
       <r>    -2.7896     1.9330   195.9855 </r>
       <r>    -2.6663     0.1179   196.0000 </r>
       <r>    -2.5430     0.3575   196.0441 </r>
       <r>    -2.4197     3.3176   196.4531 </r>
       <r>    -2.2964     0.3803   196.5000 </r>
       <r>    -2.1731     0.6643   196.5819 </r>
       <r>    -2.0498     2.4523   196.8843 </r>
       <r>    -1.9265     2.4476   197.1861 </r>
       <r>    -1.8033     3.5986   197.6298 </r>
       <r>    -1.6800     2.9915   197.9986 </r>
       <r>    -1.5567     0.0620   198.0063 </r>
       <r>    -1.4334     4.5032   198.5615 </r>
       <r>    -1.3101     5.9313   199.2928 </r>
       <r>    -1.1868     3.6139   199.7384 </r>
       <r>    -1.0635    15.8698   201.6951 </r>
       <r>    -0.9402     8.9124   202.7940 </r>
       <r>    -0.8169     4.9493   203.4042 </r>
       <r>    -0.6936    13.5827   205.0789 </r>
       <r>    -0.5703     7.3323   205.9830 </r>
       <r>    -0.4470     4.8183   206.5771 </r>
       <r>    -0.3237     6.9553   207.4347 </r>
       <r>    -0.2004     8.1510   208.4397 </r>
       <r>    -0.0771    11.6234   209.8728 </r>
       <r>     0.0462    13.1130   211.4896 </r>
       <r>     0.1695     4.1262   211.9983 </r>
       <r>     0.2928     1.0289   212.1252 </r>
       <r>     0.4161     6.8535   212.9702 </r>
       <r>     0.5394     7.3642   213.8782 </r>
       <r>     0.6627     5.6017   214.5689 </r>
       <r>     0.7860     4.4684   215.1198 </r>
       <r>     0.9093     7.6845   216.0673 </r>
       <r>     1.0326    10.2545   217.3317 </r>
       <r>     1.1559     4.8485   217.9295 </r>
       <r>     1.2792    13.3728   219.5783 </r>
       <r>     1.4025    19.7684   222.0157 </r>
       <r>     1.5258    12.2195   223.5223 </r>
       <r>     1.6491     6.7447   224.3539 </r>
       <r>     1.7724     6.4207   225.1456 </r>
       <r>     1.8957    15.6354   227.0734 </r>
       <r>     2.0190    23.4776   229.9681 </r>
       <r>     2.1423    12.5436   231.5147 </r>
       <r>     2.2656    10.1441   232.7655 </r>
       <r>     2.3889    20.3291   235.2720 </r>
       <r>     2.5122    23.3433   238.1502 </r>
       <r>     2.6355     9.8583   239.3657 </r>
       <r>     2.7588    17.7533   241.5547 </r>
       <r>     2.8821    32.0098   245.5014 </r>
       <r>     3.0054    43.8810   250.9118 </r>
       <r>     3.1287    15.3459   252.8039 </r>
       <r>     3.2520    11.6932   254.2457 </r>
       <r>     3.3753    17.7245   256.4311 </r>
       <r>     3.4986    22.8026   259.2426 </r>
       <r>     3.6219    14.5348   261.0347 </r>
       <r>     3.7451    17.3120   263.1692 </r>
       <r>     3.8684    28.7222   266.7106 </r>
       <r>     3.9917    30.9060   270.5212 </r>
       <r>     4.1150    15.6864   272.4553 </r>
       <r>     4.2383    13.2601   274.0903 </r>
       <r>     4.3616     7.3365   274.9949 </r>
       <r>     4.4849     0.0417   275.0000 </r>
       <r>     4.6082     0.0000   275.0000 </r>
       <r>     4.7315     0.0000   275.0000 </r>
       <r>     4.8548     0.0000   275.0000 </r>
       <r>     4.9781     0.0000   275.0000 </r>
       <r>     5.1014     0.0000   275.0000 </r>
       <r>     5.2247     0.0000   275.0000 </r>
       <r>     5.3480     0.0000   275.0000 </r>
       <r>     5.4713     0.0000   275.0000 </r>
       <r>     5.5946     0.0000   275.0000 </r>
       <r>     5.7179     0.0000   275.0000 </r>
       <r>     5.8412     0.0000   275.0000 </r>
       <r>     5.9645     0.0000   275.0000 </r>
      </set>
     </set>
    </array>
   </total>
  </dos>
 </calculation>
 <structure name="finalpos" >
  <crystal>
   <varray name="basis" >
    <v>      17.27103806       0.00000000       0.00000000 </v>
    <v>      -8.63551903      14.95715771       0.00000000 </v>
    <v>       0.00000000       0.00000000      15.00000000 </v>
   </varray>
   <i name="volume">   3874.88459904 </i>
   <varray name="rec_basis" >
    <v>       0.05790040       0.03342881       0.00000000 </v>
    <v>       0.00000000       0.06685762       0.00000000 </v>
    <v>       0.00000000       0.00000000       0.06666667 </v>
   </varray>
  </crystal>
  <varray name="positions" >
   <v>       0.00084093       0.00044186       0.50246649 </v>
   <v>       0.99949392       0.14222825       0.49947782 </v>
   <v>       0.99938734       0.28536723       0.49869942 </v>
   <v>       0.99988390       0.42861868       0.50024575 </v>
   <v>       1.00026070       0.57179419       0.50164227 </v>
   <v>       0.00130222       0.71491495       0.50388975 </v>
   <v>       0.00244831       0.85866213       0.50433923 </v>
   <v>       0.14474472       0.00220289       0.49415154 </v>
   <v>       0.14349012       0.14417237       0.48915619 </v>
   <v>       0.14112126       0.28517637       0.48536152 </v>
   <v>       0.14197657       0.42881995       0.48631056 </v>
   <v>       0.14310852       0.57168922       0.49122349 </v>
   <v>       0.14355141       0.71496623       0.49371907 </v>
   <v>       0.14429006       0.85864402       0.49549163 </v>
   <v>       0.28740426       0.00256738       0.49246800 </v>
   <v>       0.28773475       0.14653057       0.48590760 </v>
   <v>       0.28580383       0.29111836       0.47033146 </v>
   <v>       0.28116700       0.42408838       0.46120850 </v>
   <v>       0.28616709       0.57166801       0.46998609 </v>
   <v>       0.28579656       0.71518485       0.48562754 </v>
   <v>       0.28623077       0.85865545       0.49192251 </v>
   <v>       0.42950006       0.00114562       0.49659770 </v>
   <v>       0.43086344       0.14589243       0.49513282 </v>
   <v>       0.42961619       0.28480093       0.47652715 </v>
   <v>       0.42803650       0.85695406       0.49355470 </v>
   <v>       0.57125568       0.99891286       0.50195411 </v>
   <v>       0.57220733       0.14302241       0.50361480 </v>
   <v>       0.57668834       0.29036114       0.50591649 </v>
   <v>       0.56920289       0.85347587       0.50559770 </v>
   <v>       0.71326297       0.99711712       0.50927667 </v>
   <v>       0.71437999       0.14165364       0.50707449 </v>
   <v>       0.71521483       0.28546967       0.51089190 </v>
   <v>       0.71181238       0.42548710       0.52287994 </v>
   <v>       0.72378415       0.57690833       0.55466027 </v>
   <v>       0.71357393       0.85354906       0.52185197 </v>
   <v>       0.85683679       0.99863270       0.51057390 </v>
   <v>       0.85654754       0.14161562       0.50644078 </v>
   <v>       0.85718138       0.28518369       0.50703027 </v>
   <v>       0.85760606       0.42861273       0.51048284 </v>
   <v>       0.85729501       0.57157542       0.51580211 </v>
   <v>       0.86081034       0.71605320       0.52048136 </v>
   <v>       0.85919073       0.85708963       0.51739721 </v>
   <v>       0.04818608       0.09570391       0.49696463 </v>
   <v>       0.04632406       0.23730412       0.49499315 </v>
   <v>       0.04699309       0.38087957       0.49562102 </v>
   <v>       0.04786712       0.52402434       0.49789268 </v>
   <v>       0.04839113       0.66720545       0.49932927 </v>
   <v>       0.04919668       0.81051864       0.50083809 </v>
   <v>       0.04938436       0.95373535       0.50001627 </v>
   <v>       0.19212972       0.09743413       0.48924824 </v>
   <v>       0.18999612       0.23918306       0.48164382 </v>
   <v>       0.18762289       0.37990357       0.47900495 </v>
   <v>       0.19069483       0.52423720       0.48401662 </v>
   <v>       0.19066593       0.66722575       0.48949655 </v>
   <v>       0.19134343       0.81065399       0.49308131 </v>
   <v>       0.19215305       0.95426795       0.49355913 </v>
   <v>       0.33539320       0.09861954       0.49080120 </v>
   <v>       0.33549756       0.24236920       0.47644296 </v>
   <v>       0.32472876       0.51922875       0.44910156 </v>
   <v>       0.33633698       0.67033104       0.47814221 </v>
   <v>       0.33327374       0.81026939       0.48998952 </v>
   <v>       0.33421656       0.95405643       0.49355950 </v>
   <v>       0.47727244       0.09653287       0.49929255 </v>
   <v>       0.47952386       0.24176090       0.49340526 </v>
   <v>       0.47186226       0.80517636       0.49430395 </v>
   <v>       0.47632694       0.95247892       0.49763394 </v>
   <v>       0.61906563       0.09436898       0.50447798 </v>
   <v>       0.62046376       0.23858014       0.50746362 </v>
   <v>       0.61960828       0.81037050       0.51887397 </v>
   <v>       0.61774042       0.94953692       0.50539890 </v>
   <v>       0.76128828       0.09323792       0.50770514 </v>
   <v>       0.76228603       0.23710258       0.50864434 </v>
   <v>       0.76247558       0.38061993       0.51488941 </v>
   <v>       0.76195672       0.52425417       0.53108451 </v>
   <v>       0.76757291       0.67225485       0.53995589 </v>
   <v>       0.76358353       0.80516078       0.52893937 </v>
   <v>       0.76113052       0.94945048       0.51385702 </v>
   <v>       0.90412953       0.09379820       0.50567602 </v>
   <v>       0.90430004       0.23722759       0.50441764 </v>
   <v>       0.90477215       0.38085934       0.50614314 </v>
   <v>       0.90498691       0.52416348       0.50844485 </v>
   <v>       0.90635638       0.66706807       0.51325309 </v>
   <v>       0.90763688       0.81080215       0.51381839 </v>
   <v>       0.90561429       0.95206743       0.51016346 </v>
   <v>       0.47612099       0.37190145       0.45785893 </v>
   <v>       0.40714204       0.55966336       0.41338014 </v>
   <v>       0.64547426       0.53835584       0.59604539 </v>
   <v>       0.57397893       0.72145402       0.53013698 </v>
   <v>       0.42598865       0.71529192       0.48358402 </v>
   <v>       0.72152115       0.71679958       0.54454640 </v>
   <v>       0.32800485       0.38008619       0.45684362 </v>
   <v>       0.62216273       0.38018894       0.51722548 </v>
   <v>       0.52493921       0.59082370       0.49619278 </v>
   <v>       0.46823616       0.48927667       0.47689637 </v>
   <v>       0.52389820       0.53463809       0.50387813 </v>
  </varray>
  <varray name="selective"  type="logical" >
   <v type="logical" >  T  T  T </v>
   <v type="logical" >  T  T  T </v>
   <v type="logical" >  T  T  T </v>
   <v type="logical" >  T  T  T </v>
   <v type="logical" >  T  T  T </v>
   <v type="logical" >  T  T  T </v>
   <v type="logical" >  T  T  T </v>
   <v type="logical" >  T  T  T </v>
   <v type="logical" >  T  T  T </v>
   <v type="logical" >  T  T  T </v>
   <v type="logical" >  T  T  T </v>
   <v type="logical" >  T  T  T </v>
   <v type="logical" >  T  T  T </v>
   <v type="logical" >  T  T  T </v>
   <v type="logical" >  T  T  T </v>
   <v type="logical" >  T  T  T </v>
   <v type="logical" >  T  T  T </v>
   <v type="logical" >  T  T  T </v>
   <v type="logical" >  T  T  T </v>
   <v type="logical" >  T  T  T </v>
   <v type="logical" >  T  T  T </v>
   <v type="logical" >  T  T  T </v>
   <v type="logical" >  T  T  T </v>
   <v type="logical" >  T  T  T </v>
   <v type="logical" >  T  T  T </v>
   <v type="logical" >  T  T  T </v>
   <v type="logical" >  T  T  T </v>
   <v type="logical" >  T  T  T </v>
   <v type="logical" >  T  T  T </v>
   <v type="logical" >  T  T  T </v>
   <v type="logical" >  T  T  T </v>
   <v type="logical" >  T  T  T </v>
   <v type="logical" >  T  T  T </v>
   <v type="logical" >  T  T  T </v>
   <v type="logical" >  T  T  T </v>
   <v type="logical" >  T  T  T </v>
   <v type="logical" >  T  T  T </v>
   <v type="logical" >  T  T  T </v>
   <v type="logical" >  T  T  T </v>
   <v type="logical" >  T  T  T </v>
   <v type="logical" >  T  T  T </v>
   <v type="logical" >  T  T  T </v>
   <v type="logical" >  T  T  T </v>
   <v type="logical" >  T  T  T </v>
   <v type="logical" >  T  T  T </v>
   <v type="logical" >  T  T  T </v>
   <v type="logical" >  T  T  T </v>
   <v type="logical" >  T  T  T </v>
   <v type="logical" >  T  T  T </v>
   <v type="logical" >  T  T  T </v>
   <v type="logical" >  T  T  T </v>
   <v type="logical" >  T  T  T </v>
   <v type="logical" >  T  T  T </v>
   <v type="logical" >  T  T  T </v>
   <v type="logical" >  T  T  T </v>
   <v type="logical" >  T  T  T </v>
   <v type="logical" >  T  T  T </v>
   <v type="logical" >  T  T  T </v>
   <v type="logical" >  T  T  T </v>
   <v type="logical" >  T  T  T </v>
   <v type="logical" >  T  T  T </v>
   <v type="logical" >  T  T  T </v>
   <v type="logical" >  T  T  T </v>
   <v type="logical" >  T  T  T </v>
   <v type="logical" >  T  T  T </v>
   <v type="logical" >  T  T  T </v>
   <v type="logical" >  T  T  T </v>
   <v type="logical" >  T  T  T </v>
   <v type="logical" >  T  T  T </v>
   <v type="logical" >  T  T  T </v>
   <v type="logical" >  T  T  T </v>
   <v type="logical" >  T  T  T </v>
   <v type="logical" >  T  T  T </v>
   <v type="logical" >  T  T  T </v>
   <v type="logical" >  T  T  T </v>
   <v type="logical" >  T  T  T </v>
   <v type="logical" >  T  T  T </v>
   <v type="logical" >  T  T  T </v>
   <v type="logical" >  T  T  T </v>
   <v type="logical" >  T  T  T </v>
   <v type="logical" >  T  T  T </v>
   <v type="logical" >  T  T  T </v>
   <v type="logical" >  T  T  T </v>
   <v type="logical" >  T  T  T </v>
   <v type="logical" >  T  T  T </v>
   <v type="logical" >  T  T  T </v>
   <v type="logical" >  T  T  T </v>
   <v type="logical" >  T  T  T </v>
   <v type="logical" >  T  T  T </v>
   <v type="logical" >  T  T  T </v>
   <v type="logical" >  T  T  T </v>
   <v type="logical" >  T  T  T </v>
   <v type="logical" >  T  T  T </v>
   <v type="logical" >  T  T  T </v>
   <v type="logical" >  T  T  T </v>
  </varray>
  <nose>
   <v>      -3.00000000       0.00000000       0.00010000       0.00010000 </v>
  </nose>
 </structure>
</modeling>
