unknown system                          
           1
    17.271038    0.000000    0.000000
    -8.635519   14.957158    0.000000
     0.000000    0.000000   15.000000
   C    F    N    H    O 
    84     4     4     2     1
Direct configuration=     1
   0.00019832  0.00011321  0.50311944
   0.99893695  0.14194857  0.50084879
   0.99889528  0.28512838  0.50009856
   0.99935203  0.42838266  0.50097886
   0.99967089  0.57153380  0.50160320
   0.00063981  0.71461030  0.50335992
   0.00173084  0.85831585  0.50395788
   0.14411381  0.00188025  0.49558911
   0.14297022  0.14387974  0.49187487
   0.14070866  0.28493119  0.48890284
   0.14161331  0.42864041  0.48941393
   0.14263352  0.57149095  0.49284278
   0.14298121  0.71472137  0.49451163
   0.14366761  0.85835935  0.49614460
   0.28682858  0.00228071  0.49485863
   0.28718427  0.14619166  0.48954233
   0.28548649  0.29094586  0.47580160
   0.28123500  0.42399447  0.46815816
   0.28605539  0.57156914  0.47510282
   0.28533622  0.71505729  0.48827100
   0.28567055  0.85844935  0.49395520
   0.42897783  0.00099707  0.49913991
   0.43034934  0.14566209  0.49824259
   0.42899364  0.28458322  0.48121210
   0.42753942  0.85692603  0.49599908
   0.57079270  0.99885675  0.50380571
   0.57174394  0.14292449  0.50557949
   0.57624569  0.29024460  0.50882617
   0.56877677  0.85352090  0.50757811
   0.71283378  0.99701752  0.51021612
   0.71392461  0.14152694  0.50793511
   0.71476548  0.28532687  0.51198993
   0.71146000  0.42535542  0.52491484
   0.72420081  0.57702271  0.55790198
   0.71312194  0.85339173  0.52299437
   0.85628539  0.99838649  0.51113336
   0.85605081  0.14142700  0.50702011
   0.85667862  0.28498159  0.50745192
   0.85707698  0.42838938  0.51082652
   0.85674560  0.57133715  0.51583182
   0.86013981  0.71572277  0.52028835
   0.85853436  0.85675394  0.51754350
   0.04760027  0.09539369  0.49851405
   0.04581983  0.23704132  0.49705073
   0.04651003  0.38066246  0.49724058
   0.04732979  0.52378875  0.49854312
   0.04778545  0.66693042  0.49923645
   0.04851801  0.81020140  0.50058427
   0.04870860  0.95340565  0.50045262
   0.19156387  0.09712120  0.49193220
   0.18957260  0.23895152  0.48553736
   0.18732156  0.37967911  0.48356206
   0.19033633  0.52407365  0.48711627
   0.19017235  0.66703097  0.49119495
   0.19076999  0.81041395  0.49423214
   0.19155973  0.95398514  0.49505329
   0.33485612  0.09831105  0.49393064
   0.33492504  0.24204598  0.48127339
   0.32531938  0.51919526  0.45730005
   0.33593740  0.67020306  0.48212203
   0.33277118  0.81014913  0.49236247
   0.33367752  0.95383111  0.49598808
   0.47679345  0.09636663  0.50183124
   0.47899933  0.24154179  0.49699695
   0.47141968  0.80524662  0.49699822
   0.47584847  0.95241456  0.49992782
   0.61862004  0.09429349  0.50601190
   0.62001231  0.23847184  0.50936119
   0.61919699  0.81040525  0.52050413
   0.61731885  0.94952511  0.50692967
   0.76082275  0.09310620  0.50837851
   0.76181638  0.23694966  0.50926237
   0.76201389  0.38046274  0.51591160
   0.76168958  0.52415472  0.53270045
   0.76725676  0.67209043  0.54151935
   0.76308364  0.80493244  0.52999702
   0.76062724  0.94927225  0.51467925
   0.90357023  0.09355115  0.50640297
   0.90379017  0.23701228  0.50506652
   0.90422734  0.38063124  0.50650171
   0.90441617  0.52390946  0.50839922
   0.90570204  0.66678227  0.51272488
   0.90691496  0.81043498  0.51339326
   0.90496862  0.95174024  0.51048997
   0.47537001  0.37178667  0.46323097
   0.40939460  0.55959228  0.42600792
   0.64823855  0.53917788  0.60359558
   0.57342906  0.72143938  0.53196024
   0.42555687  0.71530487  0.48741713
   0.72128291  0.71672572  0.54661616
   0.32814471  0.38012468  0.46423514
   0.62175684  0.38004553  0.52035796
   0.53940593  0.59616985  0.49887789
   0.47814609  0.49580371  0.47708178
   0.53685061  0.53886833  0.49993429
Direct configuration=     2
   0.00020029  0.00011468  0.50311964
   0.99893865  0.14195003  0.50084704
   0.99889609  0.28512940  0.50009709
   0.99935290  0.42838164  0.50098016
   0.99967247  0.57153443  0.50160772
   0.00064166  0.71461163  0.50336189
   0.00173271  0.85831811  0.50395976
   0.14411643  0.00188209  0.49558712
   0.14297215  0.14388143  0.49186750
   0.14071017  0.28493259  0.48889474
   0.14161341  0.42864090  0.48940671
   0.14263502  0.57149126  0.49283813
   0.14298263  0.71472177  0.49451211
   0.14366913  0.85836042  0.49614465
   0.28683031  0.00228227  0.49485146
   0.28718621  0.14619348  0.48953250
   0.28548861  0.29094739  0.47578434
   0.28123630  0.42399659  0.46813882
   0.28605689  0.57157044  0.47508475
   0.28533753  0.71505790  0.48826237
   0.28567165  0.85844979  0.49394950
   0.42897992  0.00099796  0.49913423
   0.43035213  0.14566310  0.49823097
   0.42899588  0.28458330  0.48119553
   0.42754066  0.85692654  0.49598943
   0.57079492  0.99885718  0.50380058
   0.57174652  0.14292526  0.50557533
   0.57624994  0.29024611  0.50881587
   0.56877734  0.85351944  0.50757064
   0.71283613  0.99701799  0.51021308
   0.71392631  0.14152774  0.50793482
   0.71476806  0.28532786  0.51198926
   0.71146151  0.42535569  0.52490985
   0.72419801  0.57702182  0.55789105
   0.71312300  0.85339161  0.52298878
   0.85628741  0.99838718  0.51113136
   0.85605264  0.14142823  0.50701967
   0.85667991  0.28498264  0.50745464
   0.85707796  0.42838909  0.51083012
   0.85674723  0.57133719  0.51583377
   0.86014214  0.71572425  0.52028809
   0.85853540  0.85675430  0.51754147
   0.04760267  0.09539451  0.49851167
   0.04582224  0.23704217  0.49704667
   0.04651166  0.38066377  0.49723860
   0.04733135  0.52379073  0.49854374
   0.04778746  0.66693190  0.49923972
   0.04852048  0.81020214  0.50058525
   0.04871135  0.95340698  0.50045396
   0.19156717  0.09712272  0.49192483
   0.18957561  0.23895291  0.48552838
   0.18732394  0.37968033  0.48355090
   0.19033749  0.52407436  0.48710726
   0.19017362  0.66703182  0.49119092
   0.19077180  0.81041525  0.49423075
   0.19156267  0.95398666  0.49505013
   0.33485901  0.09831212  0.49392206
   0.33492778  0.24204761  0.48125823
   0.32531986  0.51919695  0.45726888
   0.33593829  0.67020389  0.48210842
   0.33277243  0.81015031  0.49235452
   0.33367911  0.95383216  0.49598137
   0.47679469  0.09636735  0.50182478
   0.47900167  0.24154251  0.49698305
   0.47142038  0.80524689  0.49698701
   0.47584999  0.95241514  0.49992058
   0.61862056  0.09429289  0.50600927
   0.62001115  0.23847278  0.50935583
   0.61919696  0.81040411  0.52049915
   0.61731965  0.94952437  0.50692443
   0.76082321  0.09310636  0.50837741
   0.76181704  0.23694973  0.50926445
   0.76201446  0.38046355  0.51591118
   0.76168895  0.52415515  0.53269804
   0.76725644  0.67208932  0.54151352
   0.76308315  0.80493141  0.52999101
   0.76062820  0.94927219  0.51467586
   0.90357143  0.09355196  0.50640258
   0.90379123  0.23701313  0.50506742
   0.90422906  0.38063260  0.50650528
   0.90441812  0.52391120  0.50840340
   0.90570356  0.66678237  0.51272606
   0.90691566  0.81043429  0.51339347
   0.90496984  0.95174018  0.51048882
   0.47537137  0.37178497  0.46320328
   0.40938672  0.55958626  0.42595275
   0.64822711  0.53917555  0.60356654
   0.57343048  0.72143816  0.53195790
   0.42555790  0.71530474  0.48740250
   0.72128213  0.71672450  0.54660686
   0.32814578  0.38012596  0.46421083
   0.62175670  0.38004575  0.52034718
   0.53937523  0.59615431  0.49889118
   0.47810351  0.49577614  0.47708289
   0.53681404  0.53886047  0.49981466
Direct configuration=     3
   0.00020369  0.00011652  0.50311980
   0.99894165  0.14195172  0.50084423
   0.99889844  0.28513093  0.50009479
   0.99935552  0.42838285  0.50098218
   0.99967554  0.57153639  0.50161454
   0.00064486  0.71461341  0.50336506
   0.00173593  0.85832014  0.50396258
   0.14412106  0.00188477  0.49558368
   0.14297613  0.14388383  0.49185603
   0.14071399  0.28493464  0.48888179
   0.14161535  0.42864211  0.48939492
   0.14263741  0.57149274  0.49283092
   0.14298529  0.71472332  0.49451261
   0.14367276  0.85836199  0.49614396
   0.28683359  0.00228362  0.49484139
   0.28719063  0.14619645  0.48951668
   0.28549215  0.29095010  0.47575699
   0.28123835  0.42399969  0.46810695
   0.28605930  0.57157200  0.47505551
   0.28533966  0.71505935  0.48824851
   0.28567388  0.85845150  0.49394048
   0.42898263  0.00099931  0.49912483
   0.43035616  0.14566507  0.49821293
   0.42900100  0.28458601  0.48116931
   0.42754287  0.85692766  0.49597395
   0.57079719  0.99885719  0.50379224
   0.57174782  0.14292446  0.50556953
   0.57625339  0.29024811  0.50879909
   0.56877827  0.85351775  0.50755828
   0.71283826  0.99701819  0.51020811
   0.71392781  0.14152794  0.50793431
   0.71476916  0.28532867  0.51198800
   0.71146187  0.42535628  0.52490174
   0.72419367  0.57702080  0.55787287
   0.71312349  0.85339108  0.52297952
   0.85629004  0.99838810  0.51112827
   0.85605447  0.14142940  0.50701917
   0.85668174  0.28498401  0.50745898
   0.85708030  0.42839071  0.51083560
   0.85674916  0.57133812  0.51583687
   0.86014437  0.71572445  0.52028762
   0.85853650  0.85675404  0.51753816
   0.04760587  0.09539645  0.49850780
   0.04582498  0.23704413  0.49704044
   0.04651343  0.38066467  0.49723548
   0.04733254  0.52379257  0.49854434
   0.04779021  0.66693368  0.49924479
   0.04852334  0.81020423  0.50058705
   0.04871331  0.95340625  0.50045642
   0.19157088  0.09712513  0.49191323
   0.18957954  0.23895542  0.48551352
   0.18732888  0.37968405  0.48353402
   0.19033986  0.52407531  0.48709267
   0.19017585  0.66703276  0.49118428
   0.19077407  0.81041675  0.49422843
   0.19156616  0.95398912  0.49504515
   0.33486277  0.09831436  0.49390796
   0.33493174  0.24204995  0.48123400
   0.32532123  0.51919997  0.45721874
   0.33593988  0.67020525  0.48208608
   0.33277383  0.81015063  0.49234280
   0.33368173  0.95383380  0.49597068
   0.47679823  0.09636857  0.50181430
   0.47900585  0.24154411  0.49696097
   0.47142155  0.80524679  0.49696895
   0.47585298  0.95241623  0.49990909
   0.61862315  0.09429337  0.50600501
   0.62001577  0.23847276  0.50934726
   0.61919758  0.81040193  0.52049050
   0.61731998  0.94952395  0.50691610
   0.76082546  0.09310757  0.50837570
   0.76181934  0.23695068  0.50926753
   0.76201639  0.38046446  0.51591037
   0.76168890  0.52415561  0.53269311
   0.76725615  0.67208862  0.54150398
   0.76308377  0.80493034  0.52998231
   0.76063067  0.94927241  0.51467024
   0.90357401  0.09355360  0.50640181
   0.90379337  0.23701495  0.50506887
   0.90423125  0.38063365  0.50651090
   0.90441952  0.52391144  0.50840927
   0.90570621  0.66678327  0.51272800
   0.90691808  0.81043578  0.51339361
   0.90497231  0.95174088  0.51048693
   0.47537287  0.37178072  0.46315966
   0.40936969  0.55957432  0.42586889
   0.64820911  0.53917325  0.60352001
   0.57343223  0.72143790  0.53195176
   0.42555981  0.71530515  0.48737922
   0.72128078  0.71672226  0.54659164
   0.32814682  0.38012742  0.46417293
   0.62175890  0.38004733  0.52033025
   0.53932342  0.59613599  0.49891074
   0.47801277  0.49571907  0.47707582
   0.53678418  0.53885403  0.49965316
Direct configuration=     4
   0.00020833  0.00011803  0.50311982
   0.99894603  0.14195367  0.50084014
   0.99890236  0.28513273  0.50009155
   0.99935958  0.42838637  0.50098493
   0.99967751  0.57153693  0.50162268
   0.00064941  0.71461567  0.50336959
   0.00174010  0.85832110  0.50396636
   0.14412459  0.00188860  0.49557773
   0.14298197  0.14388672  0.49184031
   0.14072025  0.28493782  0.48886369
   0.14161753  0.42864168  0.48937866
   0.14263970  0.57149352  0.49282177
   0.14298930  0.71472578  0.49451291
   0.14367759  0.85836494  0.49614356
   0.28683871  0.00228536  0.49482800
   0.28719761  0.14619916  0.48949536
   0.28549898  0.29095492  0.47572130
   0.28124113  0.42400373  0.46806088
   0.28606265  0.57157384  0.47501396
   0.28534260  0.71506116  0.48822896
   0.28567764  0.85845384  0.49392923
   0.42898628  0.00100089  0.49911104
   0.43036156  0.14566782  0.49818822
   0.42900796  0.28458949  0.48113212
   0.42754607  0.85692901  0.49595216
   0.57079971  0.99885703  0.50378027
   0.57174953  0.14292291  0.50556150
   0.57625653  0.29025000  0.50877654
   0.56878113  0.85351491  0.50754341
   0.71284000  0.99701807  0.51020095
   0.71392987  0.14152813  0.50793351
   0.71477034  0.28532924  0.51198597
   0.71146214  0.42535752  0.52489016
   0.72418902  0.57702026  0.55784592
   0.71312410  0.85338994  0.52296636
   0.85629278  0.99838879  0.51112530
   0.85605685  0.14143072  0.50701865
   0.85668441  0.28498555  0.50746504
   0.85708393  0.42839356  0.51084291
   0.85675140  0.57133963  0.51584112
   0.86014519  0.71572398  0.52028800
   0.85853823  0.85675348  0.51753342
   0.04761047  0.09539956  0.49850217
   0.04582879  0.23704731  0.49703182
   0.04651622  0.38066553  0.49723093
   0.04733463  0.52379395  0.49854502
   0.04779415  0.66693577  0.49925164
   0.04852714  0.81020740  0.50058974
   0.04871839  0.95340949  0.50045897
   0.19157542  0.09712845  0.49189711
   0.18958217  0.23895688  0.48549255
   0.18733353  0.37968758  0.48351089
   0.19034393  0.52407671  0.48707179
   0.19017922  0.66703398  0.49117467
   0.19077728  0.81041833  0.49422488
   0.19157053  0.95399206  0.49503819
   0.33486698  0.09831820  0.49388852
   0.33493740  0.24205321  0.48119989
   0.32532308  0.51920514  0.45715084
   0.33594243  0.67020692  0.48205382
   0.33277608  0.81015085  0.49232655
   0.33368581  0.95383583  0.49595567
   0.47680353  0.09637000  0.50179926
   0.47901227  0.24154690  0.49693004
   0.47142384  0.80524640  0.49694354
   0.47585710  0.95241756  0.49989292
   0.61862741  0.09429434  0.50599893
   0.62002227  0.23847379  0.50933535
   0.61919925  0.81039971  0.52047739
   0.61732211  0.94952503  0.50690550
   0.76082935  0.09310909  0.50837329
   0.76182072  0.23695213  0.50927138
   0.76201948  0.38046555  0.51590916
   0.76168987  0.52415592  0.53268496
   0.76725662  0.67208846  0.54148980
   0.76308534  0.80492931  0.52997036
   0.76063313  0.94927225  0.51466302
   0.90357816  0.09355578  0.50640044
   0.90379680  0.23701737  0.50507088
   0.90423438  0.38063470  0.50651865
   0.90442136  0.52391102  0.50841706
   0.90571012  0.66678488  0.51273086
   0.90692226  0.81043875  0.51339367
   0.90497634  0.95174247  0.51048422
   0.47537609  0.37177554  0.46310692
   0.40934573  0.55956379  0.42575355
   0.64817799  0.53917059  0.60345714
   0.57343418  0.72143792  0.53194124
   0.42556248  0.71530584  0.48734690
   0.72127883  0.71671906  0.54657043
   0.32814768  0.38012901  0.46412165
   0.62176283  0.38004974  0.52030684
   0.53924712  0.59611459  0.49893521
   0.47787739  0.49563783  0.47706177
   0.53676027  0.53884330  0.49945205
Direct configuration=     5
   0.00021419  0.00012026  0.50311928
   0.99895189  0.14195669  0.50083421
   0.99890725  0.28513486  0.50008704
   0.99936217  0.42839002  0.50098783
   0.99967888  0.57153686  0.50163189
   0.00065515  0.71461872  0.50337560
   0.00174537  0.85832257  0.50397088
   0.14412876  0.00189141  0.49557065
   0.14298845  0.14389005  0.49181977
   0.14072739  0.28494406  0.48884073
   0.14162104  0.42864003  0.48935797
   0.14264283  0.57149391  0.49280998
   0.14299446  0.71472843  0.49451253
   0.14368296  0.85836933  0.49614297
   0.28684469  0.00228861  0.49481180
   0.28720550  0.14620247  0.48946691
   0.28550684  0.29095976  0.47567581
   0.28124384  0.42400905  0.46799832
   0.28606585  0.57157734  0.47495959
   0.28534679  0.71506409  0.48820356
   0.28568265  0.85845612  0.49391493
   0.42899144  0.00100261  0.49909167
   0.43036855  0.14567145  0.49815606
   0.42901670  0.28459134  0.48108345
   0.42755025  0.85693016  0.49592305
   0.57080334  0.99885767  0.50376401
   0.57175440  0.14292280  0.50555011
   0.57626122  0.29025159  0.50874700
   0.56878540  0.85351266  0.50752448
   0.71284126  0.99701804  0.51019247
   0.71393370  0.14152952  0.50793209
   0.71477398  0.28533068  0.51198273
   0.71146431  0.42535941  0.52487417
   0.72418208  0.57701945  0.55780951
   0.71312604  0.85338969  0.52294997
   0.85629642  0.99838989  0.51112185
   0.85606108  0.14143294  0.50701785
   0.85668775  0.28498724  0.50747276
   0.85708797  0.42839557  0.51085181
   0.85675473  0.57134146  0.51584608
   0.86014718  0.71572515  0.52028813
   0.85854171  0.85675418  0.51752672
   0.04761544  0.09540237  0.49849514
   0.04583506  0.23705154  0.49702022
   0.04652082  0.38066756  0.49722591
   0.04733854  0.52379547  0.49854575
   0.04779911  0.66693782  0.49926004
   0.04853261  0.81021088  0.50059329
   0.04872404  0.95341192  0.50046164
   0.19158355  0.09713152  0.49187702
   0.18958616  0.23895956  0.48546493
   0.18733868  0.37969072  0.48347972
   0.19034810  0.52407842  0.48704676
   0.19018333  0.66703566  0.49116144
   0.19078192  0.81042226  0.49422063
   0.19157570  0.95399533  0.49503028
   0.33487290  0.09832261  0.49386252
   0.33494554  0.24205758  0.48115461
   0.32532164  0.51921001  0.45706703
   0.33594729  0.67020836  0.48201210
   0.33278004  0.81015241  0.49230447
   0.33369165  0.95383823  0.49593571
   0.47680893  0.09637141  0.50177866
   0.47901978  0.24155176  0.49688950
   0.47142815  0.80524678  0.49691276
   0.47586140  0.95241881  0.49987112
   0.61863184  0.09429454  0.50599048
   0.62002655  0.23847511  0.50931952
   0.61920206  0.81039832  0.52045866
   0.61732608  0.94952570  0.50689168
   0.76083396  0.09311028  0.50837132
   0.76182195  0.23695347  0.50927570
   0.76202307  0.38046736  0.51590736
   0.76169109  0.52415637  0.53267290
   0.76725745  0.67208840  0.54146983
   0.76308693  0.80492799  0.52995410
   0.76063497  0.94927158  0.51465340
   0.90358334  0.09355800  0.50639813
   0.90380130  0.23701979  0.50507327
   0.90423858  0.38063662  0.50652706
   0.90442460  0.52391199  0.50842692
   0.90571457  0.66678698  0.51273484
   0.90692712  0.81044101  0.51339365
   0.90498138  0.95174438  0.51048051
   0.47538269  0.37177157  0.46304162
   0.40931566  0.55955200  0.42561727
   0.64813382  0.53916733  0.60337647
   0.57343872  0.72143681  0.53192683
   0.42556551  0.71530640  0.48730448
   0.72127625  0.71671574  0.54654267
   0.32814891  0.38013178  0.46405635
   0.62176645  0.38005198  0.52027617
   0.53914179  0.59607944  0.49896357
   0.47771954  0.49555151  0.47704941
   0.53672353  0.53881873  0.49920816
Direct configuration=     6
   0.00022083  0.00012355  0.50311810
   0.99895922  0.14196101  0.50082619
   0.99891286  0.28513763  0.50008129
   0.99936495  0.42839205  0.50099086
   0.99968495  0.57154007  0.50164020
   0.00065907  0.71462061  0.50338235
   0.00175174  0.85832557  0.50397624
   0.14413278  0.00189489  0.49556135
   0.14299518  0.14389346  0.49179457
   0.14073410  0.28495089  0.48881272
   0.14162472  0.42864118  0.48933421
   0.14264773  0.57149448  0.49279538
   0.14300040  0.71473105  0.49451134
   0.14368883  0.85837455  0.49614208
   0.28685134  0.00229344  0.49479208
   0.28721126  0.14620586  0.48943157
   0.28551360  0.29096319  0.47561971
   0.28124474  0.42401443  0.46791910
   0.28606797  0.57158519  0.47489552
   0.28535107  0.71506497  0.48817276
   0.28568858  0.85845848  0.49389712
   0.42899805  0.00100440  0.49906597
   0.43037751  0.14567778  0.49811693
   0.42902742  0.28459023  0.48102506
   0.42755439  0.85692889  0.49588940
   0.57080692  0.99885902  0.50374467
   0.57176248  0.14292502  0.50553445
   0.57626903  0.29025270  0.50871384
   0.56879103  0.85351339  0.50750189
   0.71284296  0.99701805  0.51018409
   0.71393954  0.14153175  0.50793015
   0.71477971  0.28533352  0.51197828
   0.71146861  0.42536140  0.52485356
   0.72416887  0.57701648  0.55776517
   0.71313006  0.85339007  0.52293026
   0.85630118  0.99839153  0.51111745
   0.85606760  0.14143569  0.50701693
   0.85669166  0.28498777  0.50748074
   0.85709185  0.42839590  0.51086223
   0.85675985  0.57134385  0.51585174
   0.86015281  0.71572903  0.52028714
   0.85854722  0.85675651  0.51751810
   0.04762196  0.09540483  0.49848627
   0.04584409  0.23705651  0.49700558
   0.04652661  0.38067100  0.49722013
   0.04734364  0.52379749  0.49854681
   0.04780450  0.66693933  0.49926987
   0.04853940  0.81021182  0.50059761
   0.04872990  0.95341320  0.50046408
   0.19159412  0.09713468  0.49185268
   0.18959547  0.23896611  0.48543066
   0.18734599  0.37969449  0.48343910
   0.19035242  0.52407971  0.48701652
   0.19018827  0.66703790  0.49114453
   0.19078822  0.81042777  0.49421558
   0.19158207  0.95399944  0.49502142
   0.33488171  0.09832651  0.49382935
   0.33495587  0.24206267  0.48109953
   0.32531357  0.51921183  0.45696774
   0.33595290  0.67021030  0.48195973
   0.33278617  0.81015449  0.49227729
   0.33369613  0.95383668  0.49591113
   0.47681275  0.09637308  0.50175474
   0.47902703  0.24155384  0.49684343
   0.47143634  0.80524845  0.49687667
   0.47586589  0.95241966  0.49984323
   0.61863629  0.09429392  0.50597951
   0.62002813  0.23847602  0.50929978
   0.61920495  0.81039699  0.52043567
   0.61733059  0.94952446  0.50687415
   0.76083847  0.09311116  0.50836960
   0.76182514  0.23695464  0.50928043
   0.76202708  0.38046971  0.51590504
   0.76169113  0.52415699  0.53265719
   0.76725865  0.67208899  0.54144499
   0.76309163  0.80493004  0.52993495
   0.76063680  0.94927110  0.51464122
   0.90358925  0.09356013  0.50639485
   0.90380650  0.23702199  0.50507607
   0.90424328  0.38063899  0.50653500
   0.90442916  0.52391475  0.50843920
   0.90571920  0.66678954  0.51274045
   0.90693211  0.81044173  0.51339384
   0.90498688  0.95174619  0.51047604
   0.47539285  0.37177483  0.46297210
   0.40928229  0.55954293  0.42545730
   0.64807812  0.53916476  0.60327170
   0.57344347  0.72143430  0.53191170
   0.42557000  0.71530707  0.48725246
   0.72127326  0.71671295  0.54650877
   0.32815099  0.38013654  0.46397797
   0.62176917  0.38005355  0.52023850
   0.53900561  0.59601426  0.49899452
   0.47755958  0.49547660  0.47704525
   0.53666634  0.53878183  0.49891867
Direct configuration=     7
   0.00022882  0.00012751  0.50311617
   0.99896937  0.14196669  0.50081483
   0.99892094  0.28514198  0.50007363
   0.99937102  0.42839306  0.50099456
   0.99969252  0.57154482  0.50164828
   0.00065864  0.71462289  0.50338956
   0.00175918  0.85832691  0.50398215
   0.14414338  0.00189775  0.49554965
   0.14300551  0.14389894  0.49176329
   0.14074359  0.28495753  0.48877500
   0.14163119  0.42864701  0.48930335
   0.14265455  0.57149813  0.49277787
   0.14300807  0.71473525  0.49450914
   0.14369705  0.85837991  0.49614094
   0.28686045  0.00229861  0.49476519
   0.28721828  0.14621195  0.48938447
   0.28552212  0.29096910  0.47554540
   0.28124255  0.42401725  0.46781391
   0.28606833  0.57159447  0.47481390
   0.28535610  0.71506327  0.48813300
   0.28569600  0.85846049  0.49387270
   0.42900270  0.00100545  0.49903041
   0.43038881  0.14568527  0.49806745
   0.42904207  0.28459237  0.48094613
   0.42756169  0.85692718  0.49584648
   0.57081172  0.99885929  0.50371922
   0.57177077  0.14292809  0.50551113
   0.57627855  0.29025432  0.50867123
   0.56879798  0.85351598  0.50747120
   0.71284766  0.99701862  0.51017443
   0.71394730  0.14153340  0.50792772
   0.71478566  0.28533709  0.51197193
   0.71147471  0.42536290  0.52482851
   0.72414640  0.57701087  0.55770954
   0.71313636  0.85339073  0.52290427
   0.85630303  0.99839022  0.51111186
   0.85607628  0.14143800  0.50701623
   0.85669742  0.28498823  0.50749014
   0.85709743  0.42839691  0.51087547
   0.85676710  0.57134758  0.51585944
   0.86016291  0.71573478  0.52028461
   0.85855302  0.85675904  0.51750664
   0.04763245  0.09540868  0.49847372
   0.04585602  0.23706382  0.49698804
   0.04653338  0.38067578  0.49721270
   0.04735093  0.52380060  0.49854856
   0.04781158  0.66694073  0.49928017
   0.04854804  0.81021466  0.50060441
   0.04873683  0.95341530  0.50046613
   0.19160409  0.09713890  0.49182036
   0.18960947  0.23897747  0.48538522
   0.18735367  0.37969969  0.48338359
   0.19035808  0.52408227  0.48697582
   0.19019408  0.66704000  0.49112348
   0.19079646  0.81043330  0.49420895
   0.19158839  0.95400443  0.49501205
   0.33489401  0.09832972  0.49378535
   0.33496837  0.24206649  0.48102981
   0.32529744  0.51921317  0.45683786
   0.33595738  0.67021333  0.48189205
   0.33279204  0.81015230  0.49224191
   0.33370180  0.95383461  0.49588049
   0.47681921  0.09637679  0.50172321
   0.47903798  0.24155407  0.49678505
   0.47144701  0.80524971  0.49682924
   0.47587193  0.95241984  0.49980496
   0.61864304  0.09429439  0.50596433
   0.62003302  0.23847761  0.50927388
   0.61921007  0.81039578  0.52040727
   0.61733525  0.94952289  0.50685020
   0.76084441  0.09311287  0.50836798
   0.76183286  0.23695654  0.50928616
   0.76203263  0.38047188  0.51590190
   0.76168841  0.52415774  0.53263590
   0.76725556  0.67209094  0.54141268
   0.76309668  0.80493423  0.52990991
   0.76064119  0.94927254  0.51462488
   0.90359704  0.09356436  0.50639160
   0.90381386  0.23702448  0.50507974
   0.90424822  0.38064054  0.50654431
   0.90443337  0.52391466  0.50845532
   0.90572493  0.66679290  0.51274907
   0.90693962  0.81044357  0.51339442
   0.90499431  0.95174924  0.51047046
   0.47540362  0.37178103  0.46289149
   0.40924262  0.55953519  0.42525168
   0.64800661  0.53916592  0.60311757
   0.57344933  0.72143090  0.53189298
   0.42557936  0.71530945  0.48718437
   0.72127138  0.71671191  0.54646454
   0.32815393  0.38014304  0.46387644
   0.62177338  0.38005500  0.52018946
   0.53881831  0.59589814  0.49903112
   0.47737446  0.49540332  0.47704694
   0.53659119  0.53874173  0.49855071
Direct configuration=     8
   0.00023999  0.00013224  0.50311227
   0.99898316  0.14197338  0.50079929
   0.99893304  0.28514833  0.50006357
   0.99938131  0.42839588  0.50099857
   0.99970026  0.57154720  0.50165696
   0.00066434  0.71462598  0.50339744
   0.00177011  0.85832921  0.50398833
   0.14415406  0.00190390  0.49553326
   0.14302247  0.14390984  0.49172427
   0.14075655  0.28496441  0.48872648
   0.14164330  0.42865614  0.48926425
   0.14266255  0.57150409  0.49275625
   0.14301754  0.71474129  0.49450485
   0.14370846  0.85838413  0.49613931
   0.28686908  0.00229734  0.49473487
   0.28723436  0.14621940  0.48932371
   0.28553916  0.29097970  0.47544701
   0.28123732  0.42401483  0.46767707
   0.28606633  0.57159771  0.47471339
   0.28536375  0.71506332  0.48808365
   0.28570554  0.85845816  0.49384202
   0.42900724  0.00100557  0.49898475
   0.43040130  0.14568823  0.49800556
   0.42905852  0.28460553  0.48084473
   0.42757312  0.85693058  0.49579733
   0.57081980  0.99885826  0.50368504
   0.57177454  0.14292845  0.50547908
   0.57628678  0.29025822  0.50861575
   0.56880696  0.85351620  0.50742874
   0.71285670  0.99702135  0.51016138
   0.71395633  0.14153431  0.50792425
   0.71479211  0.28533861  0.51196241
   0.71147883  0.42536403  0.52479586
   0.72411737  0.57700604  0.55763606
   0.71314313  0.85339178  0.52286987
   0.85630809  0.99839119  0.51110299
   0.85608586  0.14144004  0.50701580
   0.85670757  0.28499084  0.50750047
   0.85710631  0.42839950  0.51089063
   0.85677273  0.57135013  0.51587001
   0.86017023  0.71573881  0.52028080
   0.85855940  0.85676267  0.51749326
   0.04764867  0.09541694  0.49845562
   0.04586541  0.23706899  0.49696887
   0.04654340  0.38068158  0.49720226
   0.04736075  0.52380494  0.49855020
   0.04781922  0.66694695  0.49928923
   0.04855318  0.81021706  0.50061115
   0.04874811  0.95342001  0.50046613
   0.19161443  0.09714643  0.49177963
   0.18962495  0.23898772  0.48532415
   0.18735771  0.37970520  0.48331264
   0.19036567  0.52409020  0.48692191
   0.19020117  0.66704243  0.49109714
   0.19080622  0.81043691  0.49419922
   0.19159962  0.95401046  0.49500058
   0.33490649  0.09833527  0.49372706
   0.33498354  0.24207130  0.48094322
   0.32527617  0.51921670  0.45666517
   0.33596495  0.67022021  0.48180349
   0.33279779  0.81014462  0.49220202
   0.33370777  0.95383633  0.49584298
   0.47682629  0.09637779  0.50168143
   0.47905056  0.24155640  0.49671641
   0.47145752  0.80524744  0.49676997
   0.47588044  0.95241953  0.49975646
   0.61865385  0.09429803  0.50594551
   0.62004754  0.23848114  0.50924054
   0.61921797  0.81039288  0.52037154
   0.61734182  0.94952499  0.50681822
   0.76085440  0.09311515  0.50836578
   0.76184148  0.23696076  0.50928952
   0.76204070  0.38047306  0.51589706
   0.76168323  0.52415959  0.53260805
   0.76725311  0.67209476  0.54136811
   0.76310245  0.80493934  0.52987527
   0.76064715  0.94927377  0.51460572
   0.90360852  0.09356851  0.50638753
   0.90382592  0.23702788  0.50508339
   0.90425545  0.38064067  0.50655545
   0.90444011  0.52391541  0.50847240
   0.90573087  0.66679584  0.51276024
   0.90694856  0.81044926  0.51339642
   0.90500323  0.95175393  0.51046307
   0.47540614  0.37178245  0.46280451
   0.40919710  0.55952742  0.42497613
   0.64790113  0.53916608  0.60288714
   0.57345824  0.72143019  0.53186528
   0.42559265  0.71531200  0.48709807
   0.72127194  0.71671514  0.54640865
   0.32815828  0.38014999  0.46374733
   0.62178290  0.38005723  0.52012824
   0.53856836  0.59574329  0.49907099
   0.47712635  0.49530608  0.47703878
   0.53653153  0.53870523  0.49811554
Direct configuration=     9
   0.00025717  0.00014115  0.50310511
   0.99899928  0.14197858  0.50077965
   0.99894885  0.28515546  0.50005175
   0.99939465  0.42840185  0.50100366
   0.99970958  0.57154943  0.50166885
   0.00067819  0.71463169  0.50340343
   0.00178297  0.85833734  0.50399640
   0.14416635  0.00191572  0.49551084
   0.14304035  0.14392235  0.49167938
   0.14076489  0.28496842  0.48866399
   0.14165607  0.42866657  0.48921145
   0.14267177  0.57151125  0.49272792
   0.14302697  0.71474483  0.49449741
   0.14371910  0.85838660  0.49613755
   0.28687945  0.00229818  0.49469679
   0.28725552  0.14622646  0.48924444