  95  95   0   0
  0.4078826E+02  0.1727104E-08  0.1727104E-08  0.1500000E-08  0.5000000E-15
  1.000000000000000E-004
  CAR 
 unknown system                          
      5.86917398    -24.09708532  301     -2.76173299      1.00000000
    -24.097  0.0000E+00  0.0000E+00  0.0000E+00  0.0000E+00
    -23.997  0.0000E+00  0.0000E+00  0.0000E+00  0.0000E+00
    -23.897  0.0000E+00  0.0000E+00  0.0000E+00  0.0000E+00
    -23.797  0.0000E+00  0.0000E+00  0.0000E+00  0.0000E+00
    -23.698  0.0000E+00  0.0000E+00  0.0000E+00  0.0000E+00
    -23.598  0.0000E+00  0.0000E+00  0.0000E+00  0.0000E+00
    -23.498  0.0000E+00  0.0000E+00  0.0000E+00  0.0000E+00
    -23.398  0.0000E+00  0.0000E+00  0.0000E+00  0.0000E+00
    -23.298  0.0000E+00  0.0000E+00  0.0000E+00  0.0000E+00
    -23.198  0.0000E+00  0.0000E+00  0.0000E+00  0.0000E+00
    -23.098  0.0000E+00  0.0000E+00  0.0000E+00  0.0000E+00
    -22.998  0.4082E-15  0.4071E-15  0.4077E-16  0.4066E-16
    -22.898  0.1721E-07  0.1718E-07  0.1719E-08  0.1716E-08
    -22.799  0.3459E-03  0.3456E-03  0.3456E-04  0.3453E-04
    -22.699  0.8095E-02  0.8094E-02  0.8431E-03  0.8430E-03
    -22.599  0.1570E-02  0.1571E-02  0.9999E-03  0.9999E-03
    -22.499  0.6428E-04  0.6421E-04  0.1006E-02  0.1006E-02
    -22.399  0.7367E-02  0.7365E-02  0.1742E-02  0.1742E-02
    -22.299  0.1205E-01  0.1205E-01  0.2946E-02  0.2945E-02
    -22.199  0.6828E-03  0.6834E-03  0.3014E-02  0.3014E-02
    -22.099  0.7194E-02  0.7195E-02  0.3732E-02  0.3732E-02
    -21.999  0.2677E-02  0.2676E-02  0.4000E-02  0.4000E-02
    -21.900  0.4098E-04  0.4094E-04  0.4004E-02  0.4004E-02
    -21.800  0.5058E-02  0.5056E-02  0.4509E-02  0.4509E-02
    -21.700  0.9682E-02  0.9683E-02  0.5476E-02  0.5476E-02
    -21.600  0.8470E-02  0.8471E-02  0.6322E-02  0.6322E-02
    -21.500  0.3248E-02  0.3248E-02  0.6647E-02  0.6647E-02
    -21.400  0.1014E-01  0.1014E-01  0.7660E-02  0.7660E-02
    -21.300  0.1732E-02  0.1732E-02  0.7833E-02  0.7833E-02
    -21.200  0.9613E-02  0.9613E-02  0.8793E-02  0.8793E-02
    -21.100  0.3779E-02  0.3779E-02  0.9170E-02  0.9170E-02
    -21.001  0.7760E-02  0.7761E-02  0.9946E-02  0.9946E-02
    -20.901  0.5208E-02  0.5208E-02  0.1047E-01  0.1047E-01
    -20.801  0.9085E-02  0.9085E-02  0.1137E-01  0.1137E-01
    -20.701  0.4292E-02  0.4293E-02  0.1180E-01  0.1180E-01
    -20.601  0.5121E-02  0.5121E-02  0.1231E-01  0.1231E-01
    -20.501  0.3907E-02  0.3906E-02  0.1270E-01  0.1270E-01
    -20.401  0.1003E-01  0.1003E-01  0.1371E-01  0.1371E-01
    -20.301  0.9119E-02  0.9118E-02  0.1462E-01  0.1462E-01
    -20.201  0.8222E-02  0.8223E-02  0.1544E-01  0.1544E-01
    -20.102  0.2826E-02  0.2826E-02  0.1572E-01  0.1572E-01
    -20.002  0.7173E-02  0.7173E-02  0.1644E-01  0.1644E-01
    -19.902  0.7411E-03  0.7414E-03  0.1651E-01  0.1651E-01
    -19.802  0.6344E-02  0.6342E-02  0.1714E-01  0.1714E-01
    -19.702  0.1225E-01  0.1225E-01  0.1837E-01  0.1837E-01
    -19.602  0.1252E-01  0.1252E-01  0.1962E-01  0.1962E-01
    -19.502  0.3650E-02  0.3650E-02  0.1998E-01  0.1998E-01
    -19.402  0.5076E-02  0.5077E-02  0.2049E-01  0.2049E-01
    -19.302  0.4723E-02  0.4722E-02  0.2096E-01  0.2096E-01
    -19.203  0.1192E-01  0.1192E-01  0.2215E-01  0.2215E-01
    -19.103  0.3456E-02  0.3458E-02  0.2250E-01  0.2250E-01
    -19.003  0.6953E-04  0.6952E-04  0.2250E-01  0.2250E-01
    -18.903  0.4244E-02  0.4243E-02  0.2293E-01  0.2293E-01
    -18.803  0.1403E-01  0.1403E-01  0.2433E-01  0.2433E-01
    -18.703  0.1167E-01  0.1167E-01  0.2550E-01  0.2550E-01
    -18.603  0.7992E-02  0.7993E-02  0.2629E-01  0.2629E-01
    -18.503  0.6836E-02  0.6836E-02  0.2698E-01  0.2698E-01
    -18.403  0.9726E-02  0.9726E-02  0.2795E-01  0.2795E-01
    -18.304  0.4277E-02  0.4278E-02  0.2838E-01  0.2838E-01
    -18.204  0.2255E-02  0.2254E-02  0.2860E-01  0.2860E-01
    -18.104  0.7010E-02  0.7009E-02  0.2930E-01  0.2930E-01
    -18.004  0.8009E-02  0.8009E-02  0.3010E-01  0.3010E-01
    -17.904  0.5342E-02  0.5342E-02  0.3063E-01  0.3063E-01
    -17.804  0.7791E-02  0.7790E-02  0.3141E-01  0.3141E-01
    -17.704  0.4909E-02  0.4909E-02  0.3190E-01  0.3190E-01
    -17.604  0.1717E-01  0.1717E-01  0.3362E-01  0.3362E-01
    -17.505  0.1563E-01  0.1563E-01  0.3518E-01  0.3518E-01
    -17.405  0.5582E-02  0.5583E-02  0.3574E-01  0.3574E-01
    -17.305  0.2373E-02  0.2372E-02  0.3597E-01  0.3597E-01
    -17.205  0.6392E-02  0.6392E-02  0.3661E-01  0.3661E-01
    -17.105  0.6798E-02  0.6798E-02  0.3729E-01  0.3729E-01
    -17.005  0.9478E-02  0.9478E-02  0.3824E-01  0.3824E-01
    -16.905  0.7033E-02  0.7034E-02  0.3894E-01  0.3894E-01
    -16.805  0.6254E-02  0.6253E-02  0.3956E-01  0.3956E-01
    -16.705  0.5387E-02  0.5387E-02  0.4010E-01  0.4010E-01
    -16.606  0.1120E-01  0.1120E-01  0.4122E-01  0.4122E-01
    -16.506  0.2006E-01  0.2006E-01  0.4323E-01  0.4323E-01
    -16.406  0.2744E-02  0.2746E-02  0.4350E-01  0.4350E-01
    -16.306  0.1875E-05  0.1878E-05  0.4350E-01  0.4350E-01
    -16.206  0.8141E-05  0.8132E-05  0.4350E-01  0.4350E-01
    -16.106  0.1775E-02  0.1775E-02  0.4368E-01  0.4368E-01
    -16.006  0.5371E-02  0.5371E-02  0.4421E-01  0.4421E-01
    -15.906  0.2171E-02  0.2171E-02  0.4443E-01  0.4443E-01
    -15.806  0.5258E-02  0.5258E-02  0.4496E-01  0.4496E-01
    -15.707  0.3492E-02  0.3492E-02  0.4531E-01  0.4531E-01
    -15.607  0.7603E-02  0.7603E-02  0.4606E-01  0.4606E-01
    -15.507  0.5326E-02  0.5326E-02  0.4660E-01  0.4660E-01
    -15.407  0.8043E-02  0.8043E-02  0.4740E-01  0.4740E-01
    -15.307  0.7780E-02  0.7781E-02  0.4818E-01  0.4818E-01
    -15.207  0.1366E-01  0.1366E-01  0.4954E-01  0.4954E-01
    -15.107  0.9722E-02  0.9723E-02  0.5051E-01  0.5051E-01
    -15.007  0.6950E-02  0.6951E-02  0.5121E-01  0.5121E-01
    -14.907  0.5529E-02  0.5528E-02  0.5176E-01  0.5176E-01
    -14.808  0.9078E-02  0.9078E-02  0.5267E-01  0.5267E-01
    -14.708  0.6920E-02  0.6919E-02  0.5336E-01  0.5336E-01
    -14.608  0.8438E-02  0.8439E-02  0.5420E-01  0.5420E-01
    -14.508  0.1496E-01  0.1496E-01  0.5570E-01  0.5570E-01
    -14.408  0.6215E-02  0.6215E-02  0.5632E-01  0.5632E-01
    -14.308  0.1245E-01  0.1245E-01  0.5756E-01  0.5756E-01
    -14.208  0.4528E-02  0.4528E-02  0.5801E-01  0.5801E-01
    -14.108  0.5241E-02  0.5241E-02  0.5854E-01  0.5854E-01
    -14.008  0.3545E-02  0.3545E-02  0.5889E-01  0.5889E-01
    -13.909  0.5490E-02  0.5490E-02  0.5944E-01  0.5944E-01
    -13.809  0.5632E-02  0.5632E-02  0.6000E-01  0.6000E-01
    -13.709  0.9309E-02  0.9307E-02  0.6093E-01  0.6093E-01
    -13.609  0.9593E-02  0.9594E-02  0.6189E-01  0.6189E-01
    -13.509  0.1117E-01  0.1117E-01  0.6300E-01  0.6300E-01
    -13.409  0.4243E-02  0.4244E-02  0.6343E-01  0.6343E-01
    -13.309  0.7244E-02  0.7243E-02  0.6415E-01  0.6415E-01
    -13.209  0.3481E-02  0.3483E-02  0.6450E-01  0.6450E-01
    -13.109  0.1055E-02  0.1055E-02  0.6460E-01  0.6460E-01
    -13.010  0.7235E-02  0.7234E-02  0.6533E-01  0.6533E-01
    -12.910  0.6391E-02  0.6392E-02  0.6597E-01  0.6597E-01
    -12.810  0.6261E-02  0.6260E-02  0.6659E-01  0.6659E-01
    -12.710  0.1425E-01  0.1425E-01  0.6801E-01  0.6801E-01
    -12.610  0.1244E-01  0.1244E-01  0.6926E-01  0.6926E-01
    -12.510  0.1067E-01  0.1067E-01  0.7032E-01  0.7032E-01
    -12.410  0.1048E-01  0.1048E-01  0.7137E-01  0.7137E-01
    -12.310  0.5340E-02  0.5341E-02  0.7190E-01  0.7190E-01
    -12.210  0.1585E-02  0.1585E-02  0.7206E-01  0.7206E-01
    -12.111  0.1068E-01  0.1068E-01  0.7313E-01  0.7313E-01
    -12.011  0.3868E-02  0.3869E-02  0.7351E-01  0.7351E-01
    -11.911  0.4120E-02  0.4119E-02  0.7393E-01  0.7393E-01
    -11.811  0.7283E-02  0.7283E-02  0.7465E-01  0.7465E-01
    -11.711  0.1241E-01  0.1241E-01  0.7589E-01  0.7589E-01
    -11.611  0.9561E-02  0.9561E-02  0.7685E-01  0.7685E-01
    -11.511  0.1245E-01  0.1245E-01  0.7809E-01  0.7809E-01
    -11.411  0.1177E-01  0.1177E-01  0.7927E-01  0.7927E-01
    -11.311  0.1415E-01  0.1415E-01  0.8068E-01  0.8068E-01
    -11.212  0.7645E-02  0.7645E-02  0.8144E-01  0.8144E-01
    -11.112  0.1041E-01  0.1041E-01  0.8248E-01  0.8248E-01
    -11.012  0.7942E-02  0.7943E-02  0.8328E-01  0.8328E-01
    -10.912  0.8651E-02  0.8651E-02  0.8414E-01  0.8414E-01
    -10.812  0.7291E-02  0.7291E-02  0.8487E-01  0.8487E-01
    -10.712  0.1028E-01  0.1029E-01  0.8590E-01  0.8590E-01
    -10.612  0.1550E-02  0.1550E-02  0.8605E-01  0.8605E-01
    -10.512  0.3045E-02  0.3045E-02  0.8636E-01  0.8636E-01
    -10.412  0.1156E-01  0.1156E-01  0.8751E-01  0.8751E-01
    -10.313  0.1419E-01  0.1419E-01  0.8893E-01  0.8893E-01
    -10.213  0.1722E-01  0.1722E-01  0.9065E-01  0.9065E-01
    -10.113  0.1629E-01  0.1628E-01  0.9228E-01  0.9228E-01
    -10.013  0.1903E-01  0.1903E-01  0.9418E-01  0.9418E-01
     -9.913  0.1285E-01  0.1285E-01  0.9546E-01  0.9546E-01
     -9.813  0.1744E-01  0.1744E-01  0.9720E-01  0.9720E-01
     -9.713  0.1734E-01  0.1734E-01  0.9893E-01  0.9893E-01
     -9.613  0.2072E-01  0.2072E-01  0.1010E+00  0.1010E+00
     -9.514  0.2100E-01  0.2100E-01  0.1031E+00  0.1031E+00
     -9.414  0.1814E-01  0.1813E-01  0.1049E+00  0.1049E+00
     -9.314  0.1540E-01  0.1540E-01  0.1065E+00  0.1065E+00
     -9.214  0.2065E-01  0.2065E-01  0.1085E+00  0.1085E+00
     -9.114  0.2194E-01  0.2194E-01  0.1107E+00  0.1107E+00
     -9.014  0.2775E-01  0.2775E-01  0.1135E+00  0.1135E+00
     -8.914  0.2337E-01  0.2337E-01  0.1158E+00  0.1158E+00
     -8.814  0.1611E-01  0.1611E-01  0.1174E+00  0.1174E+00
     -8.714  0.2079E-01  0.2079E-01  0.1195E+00  0.1195E+00
     -8.615  0.1648E-01  0.1648E-01  0.1211E+00  0.1211E+00
     -8.515  0.1148E-01  0.1147E-01  0.1223E+00  0.1223E+00
     -8.415  0.2234E-01  0.2234E-01  0.1245E+00  0.1245E+00
     -8.315  0.2471E-01  0.2471E-01  0.1270E+00  0.1270E+00
     -8.215  0.1979E-01  0.1979E-01  0.1290E+00  0.1290E+00
     -8.115  0.1383E-01  0.1383E-01  0.1303E+00  0.1303E+00
     -8.015  0.1608E-01  0.1608E-01  0.1320E+00  0.1320E+00
     -7.915  0.1233E-01  0.1233E-01  0.1332E+00  0.1332E+00
     -7.815  0.1799E-01  0.1799E-01  0.1350E+00  0.1350E+00
     -7.716  0.6743E-02  0.6744E-02  0.1357E+00  0.1357E+00
     -7.616  0.9439E-02  0.9438E-02  0.1366E+00  0.1366E+00
     -7.516  0.1971E-01  0.1971E-01  0.1386E+00  0.1386E+00
     -7.416  0.1592E-01  0.1592E-01  0.1402E+00  0.1402E+00
     -7.316  0.2030E-01  0.2030E-01  0.1422E+00  0.1422E+00
     -7.216  0.1793E-01  0.1793E-01  0.1440E+00  0.1440E+00
     -7.116  0.1935E-01  0.1935E-01  0.1459E+00  0.1459E+00
     -7.016  0.1381E-01  0.1381E-01  0.1473E+00  0.1473E+00
     -6.916  0.7234E-02  0.7234E-02  0.1480E+00  0.1480E+00
     -6.817  0.1094E-01  0.1094E-01  0.1491E+00  0.1491E+00
     -6.717  0.1414E-01  0.1414E-01  0.1505E+00  0.1505E+00
     -6.617  0.1032E-01  0.1032E-01  0.1516E+00  0.1516E+00
     -6.517  0.7346E-02  0.7346E-02  0.1523E+00  0.1523E+00
     -6.417  0.1443E-01  0.1443E-01  0.1537E+00  0.1537E+00
     -6.317  0.2904E-01  0.2904E-01  0.1566E+00  0.1566E+00
     -6.217  0.1265E-01  0.1266E-01  0.1579E+00  0.1579E+00
     -6.117  0.1052E-01  0.1053E-01  0.1589E+00  0.1589E+00
     -6.017  0.9020E-02  0.9019E-02  0.1598E+00  0.1598E+00
     -5.918  0.1951E-01  0.1951E-01  0.1618E+00  0.1618E+00
     -5.818  0.6805E-02  0.6807E-02  0.1625E+00  0.1625E+00
     -5.718  0.5044E-02  0.5043E-02  0.1630E+00  0.1630E+00
     -5.618  0.6684E-02  0.6685E-02  0.1636E+00  0.1636E+00
     -5.518  0.3058E-02  0.3058E-02  0.1639E+00  0.1639E+00
     -5.418  0.7139E-02  0.7138E-02  0.1647E+00  0.1647E+00
     -5.318  0.3868E-02  0.3868E-02  0.1650E+00  0.1650E+00
     -5.218  0.1795E-01  0.1795E-01  0.1668E+00  0.1668E+00
     -5.118  0.2034E-01  0.2034E-01  0.1689E+00  0.1689E+00
     -5.019  0.2100E-01  0.2100E-01  0.1710E+00  0.1710E+00
     -4.919  0.1519E-01  0.1519E-01  0.1725E+00  0.1725E+00
     -4.819  0.7204E-02  0.7206E-02  0.1732E+00  0.1732E+00
     -4.719  0.4285E-03  0.4288E-03  0.1733E+00  0.1733E+00
     -4.619  0.3526E-02  0.3524E-02  0.1736E+00  0.1736E+00
     -4.519  0.1656E-01  0.1656E-01  0.1753E+00  0.1753E+00
     -4.419  0.1374E-01  0.1374E-01  0.1766E+00  0.1766E+00
     -4.319  0.1180E-01  0.1180E-01  0.1778E+00  0.1778E+00
     -4.219  0.2066E-01  0.2066E-01  0.1799E+00  0.1799E+00
     -4.120  0.1140E-01  0.1140E-01  0.1810E+00  0.1810E+00
     -4.020  0.8265E-02  0.8265E-02  0.1818E+00  0.1818E+00
     -3.920  0.2053E-02  0.2053E-02  0.1820E+00  0.1820E+00
     -3.820  0.2017E-02  0.2017E-02  0.1822E+00  0.1822E+00
     -3.720  0.1207E-03  0.1207E-03  0.1823E+00  0.1823E+00
     -3.620  0.1869E-02  0.1868E-02  0.1824E+00  0.1824E+00
     -3.520  0.4680E-02  0.4680E-02  0.1829E+00  0.1829E+00
     -3.420  0.3408E-02  0.3409E-02  0.1832E+00  0.1832E+00
     -3.320  0.9131E-03  0.9127E-03  0.1833E+00  0.1833E+00
     -3.221  0.1589E-02  0.1589E-02  0.1835E+00  0.1835E+00
     -3.121  0.2054E-04  0.2056E-04  0.1835E+00  0.1835E+00
     -3.021  0.1739E-02  0.1738E-02  0.1837E+00  0.1837E+00
     -2.921  0.3226E-02  0.3227E-02  0.1840E+00  0.1840E+00
     -2.821  0.3729E-04  0.3735E-04  0.1840E+00  0.1840E+00
     -2.721  0.3694E-09  0.3703E-09  0.1840E+00  0.1840E+00
     -2.621  0.5168E-05  0.5159E-05  0.1840E+00  0.1840E+00
     -2.521  0.1993E-02  0.1992E-02  0.1842E+00  0.1842E+00
     -2.421  0.2982E-02  0.2983E-02  0.1845E+00  0.1845E+00
     -2.322  0.2548E-04  0.2552E-04  0.1845E+00  0.1845E+00
     -2.222  0.6005E-06  0.5993E-06  0.1845E+00  0.1845E+00
     -2.122  0.9393E-03  0.9387E-03  0.1846E+00  0.1846E+00
     -2.022  0.5359E-02  0.5359E-02  0.1851E+00  0.1851E+00
     -1.922  0.1824E-02  0.1824E-02  0.1853E+00  0.1853E+00
     -1.822  0.5099E-02  0.5099E-02  0.1858E+00  0.1858E+00
     -1.722  0.1781E-02  0.1781E-02  0.1860E+00  0.1860E+00
     -1.622  0.1978E-03  0.1977E-03  0.1860E+00  0.1860E+00
     -1.523  0.6190E-02  0.6190E-02  0.1866E+00  0.1866E+00
     -1.423  0.4590E-02  0.4591E-02  0.1871E+00  0.1871E+00
     -1.323  0.3942E-02  0.3943E-02  0.1875E+00  0.1875E+00
     -1.223  0.7316E-03  0.7313E-03  0.1876E+00  0.1876E+00
     -1.123  0.6603E-02  0.6601E-02  0.1882E+00  0.1882E+00
     -1.023  0.1748E-01  0.1748E-01  0.1900E+00  0.1900E+00
     -0.923  0.9311E-02  0.9313E-02  0.1909E+00  0.1909E+00
     -0.823  0.9615E-02  0.9614E-02  0.1919E+00  0.1919E+00
     -0.723  0.9268E-02  0.9268E-02  0.1928E+00  0.1928E+00
     -0.624  0.6992E-02  0.6993E-02  0.1935E+00  0.1935E+00
     -0.524  0.6839E-02  0.6839E-02  0.1942E+00  0.1942E+00
     -0.424  0.4504E-02  0.4504E-02  0.1946E+00  0.1946E+00
     -0.324  0.7595E-02  0.7595E-02  0.1954E+00  0.1954E+00
     -0.224  0.1047E-01  0.1047E-01  0.1964E+00  0.1964E+00
     -0.124  0.1068E-01  0.1068E-01  0.1975E+00  0.1975E+00
     -0.024  0.1021E-01  0.1021E-01  0.1985E+00  0.1985E+00
      0.076  0.1063E-01  0.1063E-01  0.1996E+00  0.1996E+00
      0.176  0.3922E-02  0.3923E-02  0.2000E+00  0.2000E+00
      0.275  0.4937E-03  0.4938E-03  0.2000E+00  0.2000E+00
      0.375  0.4129E-02  0.4128E-02  0.2004E+00  0.2004E+00
      0.475  0.6997E-02  0.6997E-02  0.2011E+00  0.2011E+00
      0.575  0.1017E-01  0.1017E-01  0.2021E+00  0.2021E+00
      0.675  0.5586E-02  0.5587E-02  0.2027E+00  0.2027E+00
      0.775  0.3574E-02  0.3574E-02  0.2031E+00  0.2031E+00
      0.875  0.6930E-02  0.6930E-02  0.2037E+00  0.2037E+00
      0.975  0.9191E-02  0.9191E-02  0.2047E+00  0.2047E+00
      1.075  0.1020E-01  0.1020E-01  0.2057E+00  0.2057E+00
      1.174  0.3275E-02  0.3274E-02  0.2060E+00  0.2060E+00
      1.274  0.1236E-01  0.1236E-01  0.2072E+00  0.2072E+00
      1.374  0.1908E-01  0.1908E-01  0.2091E+00  0.2091E+00
      1.474  0.1805E-01  0.1805E-01  0.2109E+00  0.2109E+00
      1.574  0.8976E-02  0.8976E-02  0.2118E+00  0.2118E+00
      1.674  0.5665E-02  0.5665E-02  0.2124E+00  0.2124E+00
      1.774  0.6647E-02  0.6647E-02  0.2131E+00  0.2131E+00
      1.874  0.1175E-01  0.1175E-01  0.2143E+00  0.2143E+00
      1.974  0.1998E-01  0.1998E-01  0.2162E+00  0.2162E+00
      2.073  0.2820E-01  0.2820E-01  0.2191E+00  0.2191E+00
      2.173  0.5669E-02  0.5671E-02  0.2196E+00  0.2196E+00
      2.273  0.1448E-01  0.1448E-01  0.2211E+00  0.2211E+00
      2.373  0.2342E-01  0.2342E-01  0.2234E+00  0.2234E+00
      2.473  0.2213E-01  0.2213E-01  0.2256E+00  0.2256E+00
      2.573  0.7586E-02  0.7587E-02  0.2264E+00  0.2264E+00
      2.673  0.1043E-01  0.1043E-01  0.2274E+00  0.2274E+00
      2.773  0.1934E-01  0.1934E-01  0.2294E+00  0.2294E+00
      2.873  0.4136E-01  0.4136E-01  0.2335E+00  0.2335E+00
      2.972  0.4510E-01  0.4510E-01  0.2380E+00  0.2380E+00
      3.072  0.1560E-01  0.1561E-01  0.2396E+00  0.2396E+00
      3.172  0.1038E-01  0.1038E-01  0.2406E+00  0.2406E+00
      3.272  0.1467E-01  0.1467E-01  0.2421E+00  0.2421E+00
      3.372  0.1468E-01  0.1468E-01  0.2435E+00  0.2435E+00
      3.472  0.3078E-01  0.3078E-01  0.2466E+00  0.2466E+00
      3.572  0.1287E-01  0.1287E-01  0.2479E+00  0.2479E+00
      3.672  0.9605E-02  0.9605E-02  0.2488E+00  0.2488E+00
      3.772  0.2245E-01  0.2245E-01  0.2511E+00  0.2511E+00
      3.871  0.3070E-01  0.3070E-01  0.2541E+00  0.2541E+00
      3.971  0.2750E-01  0.2750E-01  0.2569E+00  0.2569E+00
      4.071  0.1155E-01  0.1154E-01  0.2580E+00  0.2580E+00
      4.171  0.1676E-01  0.1663E-01  0.2597E+00  0.2597E+00
      4.271  0.2242E-01  0.2294E-01  0.2620E+00  0.2620E+00
      4.371  0.2243E-01  0.2212E-01  0.2642E+00  0.2642E+00
      4.471  0.6061E-02  0.5652E-02  0.2648E+00  0.2648E+00
      4.571  0.1883E-02  0.2172E-02  0.2650E+00  0.2650E+00
      4.671  0.4223E-04  0.9035E-04  0.2650E+00  0.2650E+00
      4.770  0.9368E-09  0.4730E-08  0.2650E+00  0.2650E+00
      4.870  0.9448E-17  0.1184E-15  0.2650E+00  0.2650E+00
      4.970  0.0000E+00  0.0000E+00  0.2650E+00  0.2650E+00
      5.070  0.0000E+00  0.0000E+00  0.2650E+00  0.2650E+00
      5.170  0.0000E+00  0.0000E+00  0.2650E+00  0.2650E+00
      5.270  0.0000E+00  0.0000E+00  0.2650E+00  0.2650E+00
      5.370  0.0000E+00  0.0000E+00  0.2650E+00  0.2650E+00
      5.470  0.0000E+00  0.0000E+00  0.2650E+00  0.2650E+00
      5.570  0.0000E+00  0.0000E+00  0.2650E+00  0.2650E+00
      5.669  0.0000E+00  0.0000E+00  0.2650E+00  0.2650E+00
      5.769  0.0000E+00  0.0000E+00  0.2650E+00  0.2650E+00
      5.869  0.0000E+00  0.0000E+00  0.2650E+00  0.2650E+00
