 vasp.6.4.2 20Jul23 (build Aug 26 2025 15:10:52) complex                        
  
 executed on             LinuxIFC date 2025.12.02  12:58:02
 running   50 mpi-ranks, on    1 nodes
 each image running on   10 cores
 distrk:  each k-point on    5 cores,    2 groups
 distr:  one band on NCORE=   1 cores,    5 groups


--------------------------------------------------------------------------------------------------------


 INCAR:
   ENCUT = 520
   EDIFF = 1E-6
   NELM = 200
   ALGO = Normal
   ISMEAR = 0
   SIGMA = 0.05
   LASPH = .TRUE.
   ADDGRID = .TRUE.
   LREAL = Auto
   ISYM = 0
   ISPIN = 2
   MAGMOM = 95*0.6
   IMIX = 4
   AMIX = 0.20
   BMIX = 1E-4
   AMIX_MAG = 0.80
   BMIX_MAG = 1E-4
   IBRION = 3
   IOPT = 7
   IMAGES = 5
   SPRING = -5
   LCLIMB = .TRUE.
   ISIF = 2
   EDIFFG = -0.03
   NSW = 1000
   IVDW = 12
   ISTART = 0
   ICHARG = 2
   LWAVE = .FALSE.
   LCHARG = .FALSE.
   KPAR = 2

 POTCAR:    PAW_PBE C 08Apr2002                   
 POTCAR:    PAW_PBE H 15Jun2001                   
 POTCAR:    PAW_PBE N 08Apr2002                   
 POTCAR:    PAW_PBE O 08Apr2002                   
 -----------------------------------------------------------------------------
|                                                                             |
|           W    W    AA    RRRRR   N    N  II  N    N   GGGG   !!!           |
|           W    W   A  A   R    R  NN   N  II  NN   N  G    G  !!!           |
|           W    W  A    A  R    R  N N  N  II  N N  N  G       !!!           |
|           W WW W  AAAAAA  RRRRR   N  N N  II  N  N N  G  GGG   !            |
|           WW  WW  A    A  R   R   N   NN  II  N   NN  G    G                |
|           W    W  A    A  R    R  N    N  II  N    N   GGGG   !!!           |
|                                                                             |
|     For optimal performance we recommend to set                             |
|       NCORE = 2 up to number-of-cores-per-socket                            |
|     NCORE specifies how many cores store one orbital (NPAR=cpu/NCORE).      |
|     This setting can greatly improve the performance of VASP for DFT.       |
|     The default, NCORE=1 might be grossly inefficient on modern             |
|     multi-core architectures or massively parallel machines. Do your        |
|     own testing! More info at https://www.vasp.at/wiki/index.php/NCORE      |
|     Unfortunately you need to use the default for GW and RPA                |
|     calculations (for HF NCORE is supported but not extensively tested      |
|     yet).                                                                   |
|                                                                             |
 -----------------------------------------------------------------------------

 POTCAR:    PAW_PBE C 08Apr2002                   
   SHA256 =  253f7b50bb8d59471dbedb8285d89021f4a42ed1a2c5d38a03a736e69125dd95 C/POTCAR              
   COPYR  = (c) Copyright 08Apr2002 Georg Kresse                                                    
   COPYR  = This file is part of the software VASP. Any use, copying, and all other rights are regul
   COPYR  = If you do not have a valid VASP license, you may not use, copy or distribute this file. 
   VRHFIN =C: s2p2                                                                                  
   LEXCH  = PE                                                                                      
   EATOM  =   147.1560 eV,   10.8157 Ry                                                             
                                                                                                    
   TITEL  = PAW_PBE C 08Apr2002                                                                     
   LULTRA =        F    use ultrasoft PP ?                                                          
   IUNSCR =        1    unscreen: 0-lin 1-nonlin 2-no                                               
   RPACOR =    1.200    partial core radius                                                         
   POMASS =   12.011; ZVAL   =    4.000    mass and valenz                                          
   RCORE  =    1.500    outmost cutoff radius                                                       
   RWIGS  =    1.630; RWIGS  =    0.863    wigner-seitz radius (au A)                               
   ENMAX  =  400.000; ENMIN  =  300.000 eV                                                          
   ICORE  =        2    local potential                                                             
   LCOR   =        T    correct aug charges                                                         
   LPAW   =        T    paw PP                                                                      
   EAUG   =  644.873                                                                                
   DEXC   =    0.000                                                                                
   RMAX   =    1.529    core radius for proj-oper                                                   
   RAUG   =    1.300    factor for augmentation sphere                                              
   RDEP   =    1.501    radius for radial grids                                                     
   RDEPT  =    1.300    core radius for aug-charge                                                  
                                                                                                    
   Atomic configuration                                                                             
    4 entries                                                                                       
     n  l   j            E        occ.                                                              
     1  0  0.50      -273.3789   2.0000                                                             
     2  0  0.50       -13.7508   2.0000                                                             
     2  1  0.50        -5.2854   2.0000                                                             
     3  2  1.50        -5.4423   0.0000                                                             
   Description                                                                                      
     l       E           TYP  RCUT    TYP  RCUT                                                     
     0    -13.7508458     23  1.200                                                                 
     0     -8.2022199     23  1.200                                                                 
     1     -5.2854383     23  1.500                                                                 
     1     34.0145650     23  1.500                                                                 
     2     -5.4423304      7  1.500                                                                 
  local pseudopotential read in
  partial core-charges read in
  partial kinetic energy density read in
  atomic valenz-charges read in
  non local Contribution for L=           0  read in
    real space projection operators read in
  non local Contribution for L=           0  read in
    real space projection operators read in
  non local Contribution for L=           1  read in
    real space projection operators read in
  non local Contribution for L=           1  read in
    real space projection operators read in
    PAW grid and wavefunctions read in
 
   number of l-projection  operators is LMAX  =           4
   number of lm-projection operators is LMMAX =           8
 
 POTCAR:    PAW_PBE H 15Jun2001                   
   SHA256 =  030f79b5d3ab3cf0e668861823c8fb652ff669f3e15e46930bd03bfd63a607b6 H/POTCAR              
   COPYR  = (c) Copyright 15Jun2001 Georg Kresse                                                    
   COPYR  = This file is part of the software VASP. Any use, copying, and all other rights are regul
   COPYR  = If you do not have a valid VASP license, you may not use, copy or distribute this file. 
   VRHFIN =H: ultrasoft test                                                                        
   LEXCH  = PE                                                                                      
   EATOM  =    12.4884 eV,    0.9179 Ry                                                             
                                                                                                    
   TITEL  = PAW_PBE H 15Jun2001                                                                     
   LULTRA =        F    use ultrasoft PP ?                                                          
   IUNSCR =        0    unscreen: 0-lin 1-nonlin 2-no                                               
   RPACOR =    0.000    partial core radius                                                         
   POMASS =    1.000; ZVAL   =    1.000    mass and valenz                                          
   RCORE  =    1.100    outmost cutoff radius                                                       
   RWIGS  =    0.700; RWIGS  =    0.370    wigner-seitz radius (au A)                               
   ENMAX  =  250.000; ENMIN  =  200.000 eV                                                          
   RCLOC  =    0.701    cutoff for local pot                                                        
   LCOR   =        T    correct aug charges                                                         
   LPAW   =        T    paw PP                                                                      
   EAUG   =  400.000                                                                                
   RMAX   =    1.123    core radius for proj-oper                                                   
   RAUG   =    1.200    factor for augmentation sphere                                              
   RDEP   =    1.112    radius for radial grids                                                     
   RDEPT  =    0.926    core radius for aug-charge                                                  
                                                                                                    
   Atomic configuration                                                                             
    2 entries                                                                                       
     n  l   j            E        occ.                                                              
     1  0  0.50        -6.4927   1.0000                                                             
     2  1  0.50        -3.4015   0.0000                                                             
   Description                                                                                      
     l       E           TYP  RCUT    TYP  RCUT                                                     
     0     -6.4927494     23  1.100                                                                 
     0      6.8029130     23  1.100                                                                 
     1     -4.0817478     23  1.100                                                                 
  local pseudopotential read in
  atomic valenz-charges read in
  non local Contribution for L=           0  read in
    real space projection operators read in
  non local Contribution for L=           0  read in
    real space projection operators read in
  non local Contribution for L=           1  read in
    real space projection operators read in
    PAW grid and wavefunctions read in
 
   number of l-projection  operators is LMAX  =           3
   number of lm-projection operators is LMMAX =           5
 
 POTCAR:    PAW_PBE N 08Apr2002                   
   SHA256 =  e053789ff3a61a86a1b75d8a110fcc91f86041011e7b0817c7c99e4e8a6349d7 N/POTCAR              
   COPYR  = (c) Copyright 08Apr2002 Georg Kresse                                                    
   COPYR  = This file is part of the software VASP. Any use, copying, and all other rights are regul
   COPYR  = If you do not have a valid VASP license, you may not use, copy or distribute this file. 
   VRHFIN =N: s2p3                                                                                  
   LEXCH  = PE                                                                                      
   EATOM  =   264.5486 eV,   19.4438 Ry                                                             
                                                                                                    
   TITEL  = PAW_PBE N 08Apr2002                                                                     
   LULTRA =        F    use ultrasoft PP ?                                                          
   IUNSCR =        1    unscreen: 0-lin 1-nonlin 2-no                                               
   RPACOR =    1.200    partial core radius                                                         
   POMASS =   14.001; ZVAL   =    5.000    mass and valenz                                          
   RCORE  =    1.500    outmost cutoff radius                                                       
   RWIGS  =    1.400; RWIGS  =    0.741    wigner-seitz radius (au A)                               
   ENMAX  =  400.000; ENMIN  =  300.000 eV                                                          
   ICORE  =        2    local potential                                                             
   LCOR   =        T    correct aug charges                                                         
   LPAW   =        T    paw PP                                                                      
   EAUG   =  627.112                                                                                
   DEXC   =    0.000                                                                                
   RMAX   =    1.529    core radius for proj-oper                                                   
   RAUG   =    1.300    factor for augmentation sphere                                              
   RDEP   =    1.514    radius for radial grids                                                     
   RDEPT  =    1.338    core radius for aug-charge                                                  
                                                                                                    
   Atomic configuration                                                                             
    4 entries                                                                                       
     n  l   j            E        occ.                                                              
     1  0  0.50      -384.7179   2.0000                                                             
     2  0  0.50       -18.5828   2.0000                                                             
     2  1  0.50        -7.0898   3.0000                                                             
     3  2  1.50        -6.8029   0.0000                                                             
   Description                                                                                      
     l       E           TYP  RCUT    TYP  RCUT                                                     
     0    -18.5828119     23  1.200                                                                 
     0    -13.5018863     23  1.200                                                                 
     1     -7.0897853     23  1.500                                                                 
     1      9.5240782     23  1.500                                                                 
     2     -6.8029130      7  1.500                                                                 
  local pseudopotential read in
  partial core-charges read in
  partial kinetic energy density read in
  atomic valenz-charges read in
  non local Contribution for L=           0  read in
    real space projection operators read in
  non local Contribution for L=           0  read in
    real space projection operators read in
  non local Contribution for L=           1  read in
    real space projection operators read in
  non local Contribution for L=           1  read in
    real space projection operators read in
    PAW grid and wavefunctions read in
 
   number of l-projection  operators is LMAX  =           4
   number of lm-projection operators is LMMAX =           8
 
 POTCAR:    PAW_PBE O 08Apr2002                   
   SHA256 =  818f92134a0a090dccd8ba1447fa70422a3b330e708bb4f08108d8ae51209ddf O/POTCAR              
   COPYR  = (c) Copyright 08Apr2002 Georg Kresse                                                    
   COPYR  = This file is part of the software VASP. Any use, copying, and all other rights are regul
   COPYR  = If you do not have a valid VASP license, you may not use, copy or distribute this file. 
   VRHFIN =O: s2p4                                                                                  
   LEXCH  = PE                                                                                      
   EATOM  =   432.3788 eV,   31.7789 Ry                                                             
                                                                                                    
   TITEL  = PAW_PBE O 08Apr2002                                                                     
   LULTRA =        F    use ultrasoft PP ?                                                          
   IUNSCR =        1    unscreen: 0-lin 1-nonlin 2-no                                               
   RPACOR =    1.200    partial core radius                                                         
   POMASS =   16.000; ZVAL   =    6.000    mass and valenz                                          
   RCORE  =    1.520    outmost cutoff radius                                                       
   RWIGS  =    1.550; RWIGS  =    0.820    wigner-seitz radius (au A)                               
   ENMAX  =  400.000; ENMIN  =  300.000 eV                                                          
   ICORE  =        2    local potential                                                             
   LCOR   =        T    correct aug charges                                                         
   LPAW   =        T    paw PP                                                                      
   EAUG   =  605.392                                                                                
   DEXC   =    0.000                                                                                
   RMAX   =    1.553    core radius for proj-oper                                                   
   RAUG   =    1.300    factor for augmentation sphere                                              
   RDEP   =    1.550    radius for radial grids                                                     
   RDEPT  =    1.329    core radius for aug-charge                                                  
                                                                                                    
   Atomic configuration                                                                             
    4 entries                                                                                       
     n  l   j            E        occ.                                                              
     1  0  0.50      -514.6923   2.0000                                                             
     2  0  0.50       -23.9615   2.0000                                                             
     2  1  0.50        -9.0305   4.0000                                                             
     3  2  1.50        -9.5241   0.0000                                                             
   Description                                                                                      
     l       E           TYP  RCUT    TYP  RCUT                                                     
     0    -23.9615318     23  1.200                                                                 
     0     -9.5240782     23  1.200                                                                 
     1     -9.0304911     23  1.520                                                                 
     1      8.1634956     23  1.520                                                                 
     2     -9.5240782      7  1.500                                                                 
  local pseudopotential read in
  partial core-charges read in
  partial kinetic energy density read in
  kinetic energy density of atom read in
  atomic valenz-charges read in
  non local Contribution for L=           0  read in
    real space projection operators read in
  non local Contribution for L=           0  read in
    real space projection operators read in
  non local Contribution for L=           1  read in
    real space projection operators read in
  non local Contribution for L=           1  read in
    real space projection operators read in
    PAW grid and wavefunctions read in
 
   number of l-projection  operators is LMAX  =           4
   number of lm-projection operators is LMMAX =           8
 
 Optimization of the real space projectors (new method)

 maximal supplied QI-value         = 25.13
 optimisation between [QCUT,QGAM] = [ 11.56, 23.12] = [ 37.43,149.72] Ry 
 Optimized for a Real-space Cutoff    1.04 Angstroem

   l    n(q)    QCUT    max X(q) W(low)/X(q) W(high)/X(q)  e(spline) 
   0      7    11.561   115.676    0.20E-03    0.60E-03    0.21E-06
   0      7    11.561    87.132    0.20E-03    0.59E-03    0.21E-06
   1      7    11.561     4.429    0.23E-03    0.35E-03    0.15E-06
   1      7    11.561     2.733    0.18E-03    0.25E-03    0.12E-06
 Optimization of the real space projectors (new method)

 maximal supplied QI-value         = 34.20
 optimisation between [QCUT,QGAM] = [ 11.63, 23.26] = [ 37.87,151.49] Ry 
 Optimized for a Real-space Cutoff    1.14 Angstroem

   l    n(q)    QCUT    max X(q) W(low)/X(q) W(high)/X(q)  e(spline) 
   0      8    11.629    19.460    0.27E-03    0.65E-03    0.17E-06
   0      8    11.629    12.209    0.25E-03    0.62E-03    0.16E-06
   1      7    11.629     4.655    0.29E-03    0.85E-04    0.19E-06
 Optimization of the real space projectors (new method)

 maximal supplied QI-value         = 25.13
 optimisation between [QCUT,QGAM] = [ 11.56, 23.12] = [ 37.43,149.72] Ry 
 Optimized for a Real-space Cutoff    1.25 Angstroem

   l    n(q)    QCUT    max X(q) W(low)/X(q) W(high)/X(q)  e(spline) 
   0      9    11.561    79.467    0.52E-04    0.16E-03    0.37E-06
   0      9    11.561    66.151    0.51E-04    0.16E-03    0.37E-06
   1      8    11.561    18.886    0.46E-03    0.28E-03    0.80E-06
   1      8    11.561    13.488    0.47E-03    0.29E-03    0.82E-06
 Optimization of the real space projectors (new method)

 maximal supplied QI-value         = 24.76
 optimisation between [QCUT,QGAM] = [ 11.64, 23.27] = [ 37.91,151.63] Ry 
 Optimized for a Real-space Cutoff    1.04 Angstroem

   l    n(q)    QCUT    max X(q) W(low)/X(q) W(high)/X(q)  e(spline) 
   0      7    11.635    20.381    0.14E-03    0.49E-03    0.18E-06
   0      7    11.635    15.268    0.16E-03    0.52E-03    0.19E-06
   1      7    11.635     5.964    0.30E-03    0.44E-03    0.22E-06
   1      7    11.635     5.382    0.27E-03    0.34E-03    0.19E-06
  PAW_PBE C 08Apr2002                   :
 energy of atom  1       EATOM= -147.1560
 kinetic energy error for atom=    0.0071 (will be added to EATOM!!)
  PAW_PBE H 15Jun2001                   :
 energy of atom  2       EATOM=  -12.4884
 kinetic energy error for atom=    0.0014 (will be added to EATOM!!)
  PAW_PBE N 08Apr2002                   :
 energy of atom  3       EATOM= -264.5486
 kinetic energy error for atom=    0.0125 (will be added to EATOM!!)
  PAW_PBE O 08Apr2002                   :
 energy of atom  4       EATOM= -432.3788
 kinetic energy error for atom=    0.0208 (will be added to EATOM!!)
 
 
 POSCAR: C    H    N    O
  positions in direct lattice
  velocities in cartesian coordinates
 exchange correlation table for  LEXCH =        8
   RHO(1)=    0.500       N(1)  =     2000
   RHO(2)=  100.500       N(2)  =     4000

 VTST: version 4.1, (05/19/21)

 CHAIN: initializing optimizer
 
 OPT: Using FIRE optimizer
 OPT: FIRE, Init
 OPT: FIRE, MAXMOVE       0.20000
 OPT: FIRE, TIMESTEP      0.10000
 OPT: FIRE, FTIMEMAX      1.00000
 OPT: FIRE, FTIMEINC      1.10000
 OPT: FIRE, FTIMEDEC      0.50000
 OPT: FIRE, FALPHADEC     0.99000
 OPT: FIRE, FALPHA        0.10000
 OPT: FIRE, FNMIN         5
 
 CHAIN: Read ICHAIN            0
 CHAIN: Running the NEB
 NEB:          SPRING     -5.000000
 NEB:          LCLIMB      T
 NEB:     LTANGENTOLD      F
 NEB:           LDNEB      F
 NEB:        LDNEBORG      F
 NEB:        LNEBCELL      F
 NEB:          EFIRST      0.000000
 NEB:           ELAST      0.000000
 
 POSCAR: C    H    N    O
  positions in direct lattice
  No initial velocities read in
 
 POSCAR: C    H    N    O
  positions in direct lattice
  No initial velocities read in
 
 POSCAR: C    H    N    O
  positions in direct lattice
  No initial velocities read in
 
 POSCAR: C    H    N    O
  positions in direct lattice
  No initial velocities read in
 


--------------------------------------------------------------------------------------------------------


 ion  position               nearest neighbor table
   1  0.001  0.001  0.500-  51 1.43  45 1.43  84 1.43
   2  0.001  0.143  0.500-  46 1.42  78 1.42  45 1.43
   3  0.001  0.286  0.500-  79 1.42  46 1.42  47 1.42
   4  0.001  0.429  0.500-  47 1.42  80 1.42  48 1.43
   5  0.001  0.572  0.500-  49 1.43  48 1.43  81 1.43
   6  0.002  0.715  0.500-  49 1.43  50 1.43  82 1.43
   7  0.002  0.858  0.500-  51 1.43  50 1.43  83 1.43
   8  0.145  0.002  0.500-  52 1.43  58 1.43  51 1.43
   9  0.145  0.144  0.500-  52 1.43  53 1.43  45 1.43
  10  0.143  0.286  0.499-  54 1.42  53 1.42  46 1.42
  11  0.143  0.428  0.499-  54 1.42  55 1.42  47 1.42
  12  0.145  0.572  0.500-  56 1.43  55 1.43  48 1.43
  13  0.145  0.715  0.500-  56 1.43  49 1.43  57 1.43
  14  0.145  0.858  0.500-  58 1.43  57 1.43  50 1.43
  15  0.288  0.002  0.500-  58 1.42  63 1.43  59 1.44
  16  0.288  0.147  0.499-  52 1.43  59 1.43  60 1.44
  17  0.288  0.293  0.498-  91 1.35  53 1.44  60 1.48
  18  0.285  0.428  0.498-  91 1.37  92 1.37  54 1.43
  19  0.288  0.566  0.498-  92 1.35  55 1.44  61 1.48
  20  0.288  0.713  0.499-  56 1.43  62 1.43  61 1.44
  21  0.288  0.858  0.500-  57 1.43  63 1.43  62 1.44
  22  0.431  0.001  0.500-  63 1.43  67 1.43  64 1.43
  23  0.431  0.146  0.500-  59 1.43  64 1.43  65 1.44
  24  0.430  0.287  0.500-  85 1.09  60 1.40  65 1.40
  25  0.430  0.715  0.500-  88 1.09  61 1.40  66 1.40
  26  0.431  0.857  0.500-  62 1.43  67 1.43  66 1.44
  27  0.573  0.001  0.500-  67 1.42  68 1.42  70 1.43
  28  0.573  0.144  0.500-  64 1.42  68 1.42  69 1.43
  29  0.577  0.290  0.500-  93 1.35  69 1.43  65 1.46
  30  0.577  0.858  0.500-  94 1.35  70 1.43  66 1.46
  31  0.716  0.001  0.500-  70 1.42  77 1.42  71 1.42
  32  0.716  0.143  0.500-  71 1.42  72 1.42  68 1.43
  33  0.716  0.286  0.500-  69 1.42  73 1.42  72 1.42
  34  0.712  0.426  0.500-  93 1.35  73 1.43  74 1.47
  35  0.716  0.572  0.499-  87 1.09  74 1.39  75 1.42
  36  0.716  0.715  0.499-  86 1.09  76 1.39  75 1.42
  37  0.712  0.858  0.500-  94 1.35  77 1.43  76 1.47
  38  0.858  0.000  0.501-  78 1.42  84 1.43  77 1.43
  39  0.858  0.143  0.500-  71 1.42  79 1.42  78 1.43
  40  0.858  0.286  0.500-  72 1.42  79 1.42  80 1.43
  41  0.858  0.429  0.500-  80 1.42  81 1.43  73 1.43
  42  0.857  0.572  0.500-  81 1.43  82 1.43  74 1.44
  43  0.859  0.715  0.500-  82 1.42  83 1.42  75 1.43
  44  0.857  0.857  0.500-  84 1.43  83 1.43  76 1.44
  45  0.049  0.096  0.500-   2 1.43   1 1.43   9 1.43
  46  0.048  0.238  0.500-   2 1.42   3 1.42  10 1.42
  47  0.048  0.381  0.500-   4 1.42   3 1.42  11 1.42
  48  0.049  0.524  0.500-   4 1.43   5 1.43  12 1.43
  49  0.050  0.667  0.500-   6 1.43   5 1.43  13 1.43
  50  0.049  0.810  0.500-   6 1.43   7 1.43  14 1.43
  51  0.050  0.953  0.500-   7 1.43   1 1.43   8 1.43
  52  0.193  0.097  0.500-   9 1.43   8 1.43  16 1.43
  53  0.192  0.240  0.499-  10 1.42   9 1.43  17 1.44
  54  0.190  0.381  0.499-  10 1.42  11 1.42  18 1.43
  55  0.192  0.523  0.499-  11 1.42  12 1.43  19 1.44
  56  0.193  0.667  0.499-  12 1.43  13 1.43  20 1.43
  57  0.193  0.810  0.500-  21 1.43  14 1.43  13 1.43
  58  0.193  0.954  0.500-  15 1.42  14 1.43   8 1.43
  59  0.336  0.098  0.500-  23 1.43  16 1.43  15 1.44
  60  0.337  0.243  0.499-  24 1.40  16 1.44  17 1.48
  61  0.337  0.665  0.499-  25 1.40  20 1.44  19 1.48
  62  0.336  0.809  0.500-  26 1.43  20 1.43  21 1.44
  63  0.335  0.953  0.500-  22 1.43  15 1.43  21 1.43
  64  0.478  0.097  0.500-  28 1.42  22 1.43  23 1.43
  65  0.479  0.242  0.500-  24 1.40  23 1.44  29 1.46
  66  0.479  0.808  0.500-  25 1.40  26 1.44  30 1.46
  67  0.478  0.953  0.500-  27 1.42  22 1.43  26 1.43
  68  0.620  0.096  0.500-  27 1.42  28 1.42  32 1.43
  69  0.621  0.239  0.500-  33 1.42  29 1.43  28 1.43
  70  0.621  0.953  0.500-  31 1.42  30 1.43  27 1.43
  71  0.763  0.096  0.500-  39 1.42  32 1.42  31 1.42
  72  0.763  0.238  0.500-  40 1.42  32 1.42  33 1.42
  73  0.763  0.381  0.500-  33 1.42  41 1.43  34 1.43
  74  0.761  0.524  0.500-  35 1.39  42 1.44  34 1.47
  75  0.763  0.667  0.499-  36 1.42  35 1.42  43 1.43
  76  0.761  0.808  0.500-  36 1.39  44 1.44  37 1.47
  77  0.763  0.953  0.500-  31 1.42  38 1.43  37 1.43
  78  0.906  0.095  0.500-  38 1.42   2 1.42  39 1.43
  79  0.905  0.238  0.500-   3 1.42  39 1.42  40 1.42
  80  0.906  0.382  0.500-  41 1.42   4 1.42  40 1.43
  81  0.906  0.525  0.500-  42 1.43  41 1.43   5 1.43
  82  0.906  0.667  0.500-  43 1.42  42 1.43   6 1.43
  83  0.906  0.810  0.500-  43 1.42  44 1.43   7 1.43
  84  0.906  0.953  0.501-  44 1.43  38 1.43   1 1.43
  85  0.469  0.360  0.500-  24 1.09
  86  0.643  0.677  0.498-  36 1.09
  87  0.643  0.537  0.498-  35 1.09
  88  0.469  0.680  0.500-  25 1.09
  89  0.463  0.560  0.473-  95 0.98
  90  0.463  0.474  0.473-  95 0.98
  91  0.332  0.383  0.497-  17 1.35  18 1.37
  92  0.332  0.520  0.497-  19 1.35  18 1.37
  93  0.622  0.381  0.500-  34 1.35  29 1.35
  94  0.622  0.813  0.500-  37 1.35  30 1.35
  95  0.506  0.538  0.465-  89 0.98  90 0.98
 

IMPORTANT INFORMATION: All symmetrisations will be switched off!
NOSYMM: (Re-)initialisation of all symmetry stuff for point group C_1.


----------------------------------------------------------------------------------------

                                     Primitive cell                                     

  volume of cell :    3874.8846

  direct lattice vectors                    reciprocal lattice vectors
    17.271038055  0.000000000  0.000000000     0.057900399  0.033428811  0.000000000
    -8.635519028 14.957157706  0.000000000     0.000000000  0.066857622  0.000000000
     0.000000000  0.000000000 15.000000000     0.000000000  0.000000000  0.066666667

  length of vectors
    17.271038055 17.271038055 15.000000000     0.066857622  0.066857622  0.066666667

  position of ions in fractional coordinates (direct lattice)
     0.001417526  0.000639155  0.500447544
     0.000880747  0.143098622  0.500211288
     0.000529507  0.285940950  0.500017145
     0.000882337  0.429127898  0.500056670
     0.001386791  0.572103289  0.500221085
     0.001772938  0.714966247  0.500315342
     0.001796972  0.858205427  0.500373957
     0.145202959  0.001814769  0.499938345
     0.144735810  0.144492449  0.499734986
     0.142855158  0.285928899  0.499392285
     0.142835463  0.428294577  0.499370272
     0.144738855  0.571587113  0.499560910
     0.145177859  0.714721793  0.499863305
     0.145107043  0.858237252  0.500028734
     0.288082457  0.001856704  0.499700672
     0.288367560  0.146540104  0.499255399
     0.287609983  0.292653226  0.498397880
     0.285396652  0.428382086  0.497837787
     0.287647582  0.566340350  0.498379379
     0.288384186  0.713246939  0.499220508
     0.288083649  0.857636235  0.499775089
     0.430612160  0.000992002  0.499699701
     0.431255456  0.145637860  0.499584121
     0.430487594  0.287239019  0.499547293
     0.430468536  0.714601163  0.499541517
     0.431291221  0.857016918  0.499586185
     0.572919695  0.000552429  0.499927026
     0.572910239  0.143724940  0.499963216
     0.576591652  0.290234598  0.500047842
     0.576613567  0.857695546  0.499983834
     0.715811528  0.000957949  0.500259400
     0.715648813  0.143477746  0.500229518
     0.715834418  0.286186607  0.500258854
     0.711856191  0.425676055  0.500069848
     0.716138934  0.572402590  0.499107046
     0.716153202  0.715052345  0.499061974
     0.711887034  0.857523402  0.500083845
     0.858191797  0.000246946  0.500512223
     0.858182041  0.143312081  0.500366796
     0.858184143  0.286180529  0.500281819
     0.858182524  0.429263918  0.500307577
     0.857401465  0.571514312  0.500316955
     0.858815804  0.715084393  0.500157071
     0.857433632  0.857258977  0.500359102
     0.049204478  0.096090340  0.500200359
     0.047732504  0.238109016  0.499897215
     0.047745338  0.380992952  0.499838499
     0.049190301  0.524451234  0.499985487
     0.049561478  0.667443328  0.500158122
     0.049451959  0.810404976  0.500245806
     0.049596877  0.953491849  0.500314327
     0.192815022  0.097256023  0.499590665
     0.191700572  0.239999651  0.499259879
     0.189752596  0.380563361  0.499031720
     0.191718217  0.523065149  0.499188418
     0.192806607  0.666915472  0.499461049
     0.192801113  0.810340705  0.499889834
     0.192817968  0.953826629  0.499870416
     0.335887309  0.098266549  0.499500105
     0.336907074  0.243106089  0.498913768
     0.336892542  0.665188424  0.498914300
     0.335889801  0.809039953  0.499522026
     0.335222067  0.953317116  0.499733399
     0.477924989  0.096508289  0.499726494
     0.478732696  0.241608108  0.499761195
     0.478743201  0.808480699  0.499706239
     0.477942448  0.952818043  0.499731969
     0.620221436  0.095789754  0.500049259
     0.621060510  0.239299842  0.500111413
     0.621071618  0.953103576  0.500054509
     0.763315527  0.096185570  0.500299036
     0.763337987  0.238445471  0.500296868
     0.762701784  0.381026953  0.500240149
     0.760860718  0.523967341  0.499933013
     0.762947928  0.667133059  0.499442830
     0.760889439  0.808232658  0.499913039
     0.762724012  0.953012707  0.500341029
     0.905632188  0.095282394  0.500426180
     0.905496460  0.238389398  0.500258114
     0.905630459  0.381664339  0.500257931
     0.905849327  0.524629680  0.500361527
     0.905890056  0.667035936  0.500347259
     0.905915090  0.810234467  0.500344370
     0.905884016  0.952595584  0.500561110
     0.468625322  0.359947289  0.500336239
     0.643227731  0.677312570  0.497684737
     0.643209112  0.537240876  0.497701838
     0.468557957  0.679979468  0.500344459
     0.463461911  0.559916586  0.473002259
     0.462841454  0.474273118  0.473209446
     0.331687766  0.382972319  0.497165369
     0.331718822  0.520093162  0.497175520
     0.621867631  0.380568591  0.500087007
     0.621887970  0.812637745  0.500029829
     0.505948502  0.538256465  0.465112091

  ion indices of the primitive-cell ions
   primitive index   ion index
                 1           1
                 2           2
                 3           3
                 4           4
                 5           5
                 6           6
                 7           7
                 8           8
                 9           9
                10          10
                11          11
                12          12
                13          13
                14          14
                15          15
                16          16
                17          17
                18          18
                19          19
                20          20
                21          21
                22          22
                23          23
                24          24
                25          25
                26          26
                27          27
                28          28
                29          29
                30          30
                31          31
                32          32
                33          33
                34          34
                35          35
                36          36
                37          37
                38          38
                39          39
                40          40
                41          41
                42          42
                43          43
                44          44
                45          45
                46          46
                47          47
                48          48
                49          49
                50          50
                51          51
                52          52
                53          53
                54          54
                55          55
                56          56
                57          57
                58          58
                59          59
                60          60
                61          61
                62          62
                63          63
                64          64
                65          65
                66          66
                67          67
                68          68
                69          69
                70          70
                71          71
                72          72
                73          73
                74          74
                75          75
                76          76
                77          77
                78          78
                79          79
                80          80
                81          81
                82          82
                83          83
                84          84
                85          85
                86          86
                87          87
                88          88
                89          89
                90          90
                91          91
                92          92
                93          93
                94          94
                95          95

----------------------------------------------------------------------------------------

 
 
 KPOINTS: Automatic mesh                          

Automatic generation of k-mesh.
 Grid dimensions read from file:
 generate k-points for:    2    2    1

 Generating k-lattice:

  Cartesian coordinates                     Fractional coordinates (reciprocal lattice)
     0.028950200  0.016714406  0.000000000     0.500000000  0.000000000  0.000000000
     0.000000000  0.033428811  0.000000000     0.000000000  0.500000000  0.000000000
     0.000000000  0.000000000  0.066666667     0.000000000  0.000000000  1.000000000

  Length of vectors
     0.033428811  0.033428811  0.066666667

  Shift w.r.t. Gamma in fractional coordinates (k-lattice)
     0.000000000  0.000000000  0.000000000

 
 Subroutine IBZKPT returns following result:
 ===========================================
 
 Found      4 irreducible k-points:
 
 Following reciprocal coordinates:
            Coordinates               Weight
  0.000000  0.000000  0.000000      1.000000
  0.500000  0.000000  0.000000      1.000000
  0.000000  0.500000  0.000000      1.000000
  0.500000  0.500000  0.000000      1.000000
 
 Following cartesian coordinates:
            Coordinates               Weight
  0.000000  0.000000  0.000000      1.000000
  0.028950  0.016714  0.000000      1.000000
  0.000000  0.033429  0.000000      1.000000
  0.028950  0.050143  0.000000      1.000000
 


--------------------------------------------------------------------------------------------------------




 Dimension of arrays:
   k-points           NKPTS =      4   k-points in BZ     NKDIM =      4   number of bands    NBANDS=    265
   number of dos      NEDOS =    301   number of ions     NIONS =     95
   non local maximal  LDIM  =      4   non local SUM 2l+1 LMDIM =      8
   total plane-waves  NPLWV = 774144
   max r-space proj   IRMAX =   1673   max aug-charges    IRDMAX=  20933
   dimension x,y,z NGX =    96 NGY =   96 NGZ =   84
   dimension x,y,z NGXF=   192 NGYF=  192 NGZF=  168
   support grid    NGXF=   384 NGYF=  384 NGZF=  336
   ions per type =              84   6   4   1
   NGX,Y,Z   is equivalent  to a cutoff of   9.24,  9.24,  9.31 a.u.
   NGXF,Y,Z  is equivalent  to a cutoff of  18.48, 18.48, 18.62 a.u.

 SYSTEM =  unknown system                          
 POSCAR =  C    H    N    O                        

 Startparameter for this run:
   NWRITE =      2    write-flag & timer
   PREC   = normal    normal or accurate (medium, high low for compatibility)
   ISTART =      0    job   : 0-new  1-cont  2-samecut
   ICHARG =      2    charge: 1-file 2-atom 10-const
   ISPIN  =      2    spin polarized calculation?
   LNONCOLLINEAR =      F non collinear calculations
   LSORBIT =      F    spin-orbit coupling
   INIWAV =      1    electr: 0-lowe 1-rand  2-diag
   LASPH  =      T    aspherical Exc in radial PAW
 Electronic Relaxation 1
   ENCUT  =  520.0 eV  38.22 Ry    6.18 a.u.  32.11 32.11 27.89*2*pi/ulx,y,z
   ENINI  =  520.0     initial cutoff
   ENAUG  =  644.9 eV  augmentation charge cutoff
   NELM   =    200;   NELMIN=  2; NELMDL= -5     # of ELM steps 
   EDIFF  = 0.1E-05   stopping-criterion for ELM
   LREAL  =      T    real-space projection
   NLSPLINE    = F    spline interpolate recip. space projectors
   LCOMPAT=      F    compatible to vasp.4.4
   GGA_COMPAT  = T    GGA compatible to vasp.4.4-vasp.4.6
   LMAXPAW     = -100 max onsite density
   LMAXMIX     =    2 max onsite mixed and CHGCAR
   VOSKOWN=      0    Vosko Wilk Nusair interpolation
   ROPT   =   -0.00050  -0.00050  -0.00050  -0.00050
 Ionic relaxation
   EDIFFG = -.3E-01   stopping-criterion for IOM
   NSW    =   1000    number of steps for IOM
   NBLOCK =      1;   KBLOCK =   1000    inner block; outer block 
   IBRION =      3    ionic relax: 0-MD 1-quasi-New 2-CG
   NFREE  =      0    steps in history (QN), initial steepest desc. (CG)
   ISIF   =      2    stress and relaxation
   IWAVPR =     11    prediction:  0-non 1-charg 2-wave 3-comb
   ISYM   =      0    0-nonsym 1-usesym 2-fastsym
   LCORR  =      T    Harris-Foulkes like correction to forces

   POTIM  = 0.5000    time-step for ionic-motion
   TEIN   =    0.0    initial temperature
   TEBEG  =    0.0;   TEEND  =   0.0 temperature during run
   SMASS  =  -3.00    Nose mass-parameter (am)
   estimated Nose-frequenzy (Omega)   =  0.10E-29 period in steps = 0.13E+47 mass=  -0.682E-26a.u.
   SCALEE = 1.0000    scale energy and forces
   NPACO  =    256;   APACO  = 10.0  distance and # of slots for P.C.
   PSTRESS=    0.0 pullay stress

  Mass of Ions in am
   POMASS =  12.01  1.00 14.00 16.00
  Ionic Valenz
   ZVAL   =   4.00  1.00  5.00  6.00
  Atomic Wigner-Seitz radii
   RWIGS  =  -1.00 -1.00 -1.00 -1.00
  virtual crystal weights 
   VCA    =   1.00  1.00  1.00  1.00
   NELECT =     368.0000    total number of electrons
   NUPDOWN=      -1.0000    fix difference up-down

 DOS related values:
   EMIN   =  10.00;   EMAX   =-10.00  energy-range for DOS
   EFERMI =   0.00;   METHOD = LEGACY      
   ISMEAR =     0;   SIGMA  =   0.05  broadening in eV -4-tet -1-fermi 0-gaus

 Electronic relaxation 2 (details)
   IALGO  =     38    algorithm
   LDIAG  =      T    sub-space diagonalisation (order eigenvalues)
   LSUBROT=      F    optimize rotation matrix (better conditioning)
   TURBO    =      0    0=normal 1=particle mesh
   IRESTART =      0    0=no restart 2=restart with 2 vectors
   NREBOOT  =      0    no. of reboots
   NMIN     =      0    reboot dimension
   EREF     =   0.00    reference energy to select bands
   IMIX   =      4    mixing-type and parameters
     AMIX     =   0.20;   BMIX     =  0.00
     AMIX_MAG =   0.80;   BMIX_MAG =  0.00
     AMIN     =   0.10
     WC   =   100.;   INIMIX=   1;  MIXPRE=   1;  MAXMIX= -45

 Intra band minimization:
   WEIMIN = 0.0010     energy-eigenvalue tresh-hold
   EBREAK =  0.94E-09  absolut break condition
   DEPER  =   0.30     relativ break condition  

   TIME   =   0.40     timestep for ELM

  volume/ion in A,a.u.               =      40.79       275.25
  Fermi-wavevector in a.u.,A,eV,Ry     =   0.746915  1.411465  7.590446  0.557882
  Thomas-Fermi vector in A             =   1.842848
 
 Write flags
   LWAVE        =      F    write WAVECAR
   LDOWNSAMPLE  =      F    k-point downsampling of WAVECAR
   LCHARG       =      F    write CHGCAR
   LVTOT        =      F    write LOCPOT, total local potential
   LVHAR        =      F    write LOCPOT, Hartree potential only
   LELF         =      F    write electronic localiz. function (ELF)
   LORBIT       =      0    0 simple, 1 ext, 2 COOP (PROOUT), +10 PAW based schemes


 Dipole corrections
   LMONO  =      F    monopole corrections only (constant potential shift)
   LDIPOL =      F    correct potential (dipole corrections)
   IDIPOL =      0    1-x, 2-y, 3-z, 4-all directions 
   EPSILON=  1.0000000 bulk dielectric constant

 Exchange correlation treatment:
   GGA     =    --    GGA type
   LEXCH   =     8    internal setting for exchange type
   LIBXC   =     F    Libxc                    
   VOSKOWN =     0    Vosko Wilk Nusair interpolation
   LHFCALC =     F    Hartree Fock is set to
   LHFONE  =     F    Hartree Fock one center treatment
   AEXX    =    0.0000 exact exchange contribution

 Linear response parameters
   LEPSILON=     F    determine dielectric tensor
   LRPA    =     F    only Hartree local field effects (RPA)
   LNABLA  =     F    use nabla operator in PAW spheres
   LVEL    =     F    velocity operator in full k-point grid
   CSHIFT  =0.1000    complex shift for real part using Kramers Kronig
   OMEGAMAX=  -1.0    maximum frequency
   DEG_THRESHOLD= 0.2000000E-02 threshold for treating states as degnerate
   RTIME   =   -0.100 relaxation time in fs
  (WPLASMAI=    0.000 imaginary part of plasma frequency in eV, 0.658/RTIME)
   DFIELD  = 0.0000000 0.0000000 0.0000000 field for delta impulse in time
 
  Optional k-point grid parameters
   LKPOINTS_OPT  =     F    use optional k-point grid
   KPOINTS_OPT_MODE=     1    mode for optional k-point grid
 
 Orbital magnetization related:
   ORBITALMAG=     F  switch on orbital magnetization
   LCHIMAG   =     F  perturbation theory with respect to B field
   DQ        =  0.001000  dq finite difference perturbation B field
   LLRAUG    =     F  two centre corrections for induced B field
   LBONE     =     F  B-component reconstruction in AE one-centre
   LVGVCALC  =     T  calculate vGv susceptibility
   LVGVAPPL  =     F  apply vGv susceptibility instead of pGv for G=0

 Random number generation:
   RANDOM_GENERATOR = DEFAULT
   PCG_SEED         = not used


--------------------------------------------------------------------------------------------------------


 quickmin algorithm: (dynamic with friction)
   using selective dynamics as specified on POSCAR
 charge density and potential will be updated during run
 spin polarized calculation
 Variant of blocked Davidson
 Davidson routine will perform the subspace rotation
 perform sub-space diagonalisation
    after iterative eigenvector-optimisation
 modified Broyden-mixing scheme, WC =      100.0
 initial mixing is a Kerker type mixing with AMIX =  0.2000 and BMIX =      0.0001
 Hartree-type preconditioning will be used
 using additional bands           81
 real space projection scheme for non local part
 use partial core corrections
 calculate Harris-corrections to forces 
   (improved forces if not selfconsistent)
 use gradient corrections 
 use of overlap-Matrix (Vanderbilt PP)
 Gauss-broadening in eV      SIGMA  =   0.05


--------------------------------------------------------------------------------------------------------


  energy-cutoff  :      520.00
  volume of cell :     3874.88
      direct lattice vectors                 reciprocal lattice vectors
    17.271038055  0.000000000  0.000000000     0.057900399  0.033428811  0.000000000
    -8.635519028 14.957157706  0.000000000     0.000000000  0.066857622  0.000000000
     0.000000000  0.000000000 15.000000000     0.000000000  0.000000000  0.066666667

  length of vectors
    17.271038055 17.271038055 15.000000000     0.066857622  0.066857622  0.066666667


 
 k-points in units of 2pi/SCALE and weight: Automatic mesh                          
   0.00000000  0.00000000  0.00000000       0.250
   0.02895020  0.01671441  0.00000000       0.250
   0.00000000  0.03342881  0.00000000       0.250
   0.02895020  0.05014322  0.00000000       0.250
 
 k-points in reciprocal lattice and weights: Automatic mesh                          
   0.00000000  0.00000000  0.00000000       0.250
   0.50000000  0.00000000  0.00000000       0.250
   0.00000000  0.50000000  0.00000000       0.250
   0.50000000  0.50000000  0.00000000       0.250
 
 position of ions in fractional coordinates (direct lattice) 
   0.00141753  0.00063915  0.50044754
   0.00088075  0.14309862  0.50021129
   0.00052951  0.28594095  0.50001714
   0.00088234  0.42912790  0.50005667
   0.00138679  0.57210329  0.50022108
   0.00177294  0.71496625  0.50031534
   0.00179697  0.85820543  0.50037396
   0.14520296  0.00181477  0.49993835
   0.14473581  0.14449245  0.49973499
   0.14285516  0.28592890  0.49939228
   0.14283546  0.42829458  0.49937027
   0.14473886  0.57158711  0.49956091
   0.14517786  0.71472179  0.49986330
   0.14510704  0.85823725  0.50002873
   0.28808246  0.00185670  0.49970067
   0.28836756  0.14654010  0.49925540
   0.28760998  0.29265323  0.49839788
   0.28539665  0.42838209  0.49783779
   0.28764758  0.56634035  0.49837938
   0.28838419  0.71324694  0.49922051
   0.28808365  0.85763623  0.49977509
   0.43061216  0.00099200  0.49969970
   0.43125546  0.14563786  0.49958412
   0.43048759  0.28723902  0.49954729
   0.43046854  0.71460116  0.49954152
   0.43129122  0.85701692  0.49958619
   0.57291970  0.00055243  0.49992703
   0.57291024  0.14372494  0.49996322
   0.57659165  0.29023460  0.50004784
   0.57661357  0.85769555  0.49998383
   0.71581153  0.00095795  0.50025940
   0.71564881  0.14347775  0.50022952
   0.71583442  0.28618661  0.50025885
   0.71185619  0.42567605  0.50006985
   0.71613893  0.57240259  0.49910705
   0.71615320  0.71505235  0.49906197
   0.71188703  0.85752340  0.50008384
   0.85819180  0.00024695  0.50051222
   0.85818204  0.14331208  0.50036680
   0.85818414  0.28618053  0.50028182
   0.85818252  0.42926392  0.50030758
   0.85740147  0.57151431  0.50031696
   0.85881580  0.71508439  0.50015707
   0.85743363  0.85725898  0.50035910
   0.04920448  0.09609034  0.50020036
   0.04773250  0.23810902  0.49989722
   0.04774534  0.38099295  0.49983850
   0.04919030  0.52445123  0.49998549
   0.04956148  0.66744333  0.50015812
   0.04945196  0.81040498  0.50024581
   0.04959688  0.95349185  0.50031433
   0.19281502  0.09725602  0.49959067
   0.19170057  0.23999965  0.49925988
   0.18975260  0.38056336  0.49903172
   0.19171822  0.52306515  0.49918842
   0.19280661  0.66691547  0.49946105
   0.19280111  0.81034071  0.49988983
   0.19281797  0.95382663  0.49987042
   0.33588731  0.09826655  0.49950011
   0.33690707  0.24310609  0.49891377
   0.33689254  0.66518842  0.49891430
   0.33588980  0.80903995  0.49952203
   0.33522207  0.95331712  0.49973340
   0.47792499  0.09650829  0.49972649
   0.47873270  0.24160811  0.49976119
   0.47874320  0.80848070  0.49970624
   0.47794245  0.95281804  0.49973197
   0.62022144  0.09578975  0.50004926
   0.62106051  0.23929984  0.50011141
   0.62107162  0.95310358  0.50005451
   0.76331553  0.09618557  0.50029904
   0.76333799  0.23844547  0.50029687
   0.76270178  0.38102695  0.50024015
   0.76086072  0.52396734  0.49993301
   0.76294793  0.66713306  0.49944283
   0.76088944  0.80823266  0.49991304
   0.76272401  0.95301271  0.50034103
   0.90563219  0.09528239  0.50042618
   0.90549646  0.23838940  0.50025811
   0.90563046  0.38166434  0.50025793
   0.90584933  0.52462968  0.50036153
   0.90589006  0.66703594  0.50034726
   0.90591509  0.81023447  0.50034437
   0.90588402  0.95259558  0.50056111
   0.46862532  0.35994729  0.50033624
   0.64322773  0.67731257  0.49768474
   0.64320911  0.53724088  0.49770184
   0.46855796  0.67997947  0.50034446
   0.46346191  0.55991659  0.47300226
   0.46284145  0.47427312  0.47320945
   0.33168777  0.38297232  0.49716537
   0.33171882  0.52009316  0.49717552
   0.62186763  0.38056859  0.50008701
   0.62188797  0.81263775  0.50002983
   0.50594850  0.53825646  0.46511209
 
 position of ions in cartesian coordinates  (Angst):
   0.01896272  0.00955994  7.50671316
  -1.22051945  2.14034866  7.50316931
  -2.46010339  4.27686389  7.50025717
  -3.69050326  6.41853365  7.50085005
  -4.91645752  8.55703912  7.50331627
  -6.14348416 10.69386291  7.50473012
  -7.38001373 12.83631392  7.50560935
   2.49213436  0.02714379  7.49907518
   1.25197040  2.16119635  7.49602479
  -0.00188757  4.27668363  7.49088427
  -1.23162924  6.40606953  7.49055408
  -2.43616112  8.54931860  7.49341364
  -3.66462130 10.69020657  7.49794957
  -4.90517486 12.83678993  7.50043100
   4.95944947  0.02777102  7.49551008
   3.71495725  2.19182345  7.48883099
   2.44011046  4.37726046  7.47596820
   1.22979479  6.40737841  7.46756680
   0.07732947  8.47084193  7.47569068
  -1.17856326 10.66814694  7.48830761
  -2.43063036 12.82780042  7.49662633
   7.42855255  0.01483753  7.49549551
   6.19057087  2.17832844  7.49376182
   4.95450961  4.29627930  7.49320940
   1.26368653 10.68840229  7.49312276
   0.04806118 12.81853719  7.49379278
   9.89014734  0.00826277  7.49890539
   8.65361509  2.14971659  7.49944825
   7.45200998  4.34108465  7.50071763
   2.55206865 12.82868754  7.49975750
  12.35453576  0.01432819  7.50389099
  11.12099307  2.14601927  7.50344276
   9.89183359  4.28053822  7.50388281
   8.61856170  6.36690388  7.50104772
   7.42546933  8.56151582  7.48660569
   6.19386107 10.69515070  7.48592960
   4.88986840 12.82611277  7.50125767
  14.81973068  0.00369361  7.50768335
  13.58412048  2.14354140  7.50550194
  12.35041359  4.28044731  7.50422728
  11.11478630  6.42056812  7.50461366
   9.87289062  8.54822969  7.50475433
   8.65751555 10.69563003  7.50235606
   7.40589268 12.82215771  7.50538653
   0.02002246  1.43723837  7.50300539
  -1.23180504  3.56143410  7.49845823
  -2.46546033  5.69857166  7.49757749
  -3.67934105  7.84429981  7.49978230
  -4.90774139  9.98305512  7.50237184
  -6.14418092 12.12135504  7.50368708
  -7.37730746 14.26152796  7.50471491
   2.49025933  1.45467368  7.49385998
   1.23834633  3.58971262  7.48889819
  -0.00913784  5.69214621  7.48547581
  -1.20576643  7.82356793  7.48782628
  -2.42919100  9.97515989  7.49191574
  -3.66783723 12.12039373  7.49834751
  -4.90662155 14.26653531  7.49805624
   4.95253984  1.46978827  7.49250158
   3.71938764  3.63617611  7.48370651
   0.07423663  9.94932817  7.48371451
  -1.18531437 12.10093817  7.49283039
  -2.44275501 14.25891445  7.49600099
   7.42086151  1.44348970  7.49589741
   6.18179920  3.61377058  7.49641792
   1.28674158 12.09257332  7.49559359
   0.02648387 14.25144974  7.49597953
   9.88467378  1.43274246  7.50073888
   8.65988136  3.57924548  7.50167120
   2.49600749 14.25572050  7.50081764
  12.35263920  1.43866274  7.50448554
  11.12453901  3.56646651  7.50445302
   9.88228604  5.69908022  7.50360223
   8.61612447  7.83706215  7.49899519
   7.41586247  9.97841438  7.49164244
   6.16184197 12.08886333  7.49869558
   4.94327607 14.25436135  7.50511544
  14.81839506  1.42515380  7.50639270
  13.58024763  3.56562781  7.50387171
  12.34530845  5.70861371  7.50386896
  11.11450862  7.84696886  7.50542290
   9.88546012  9.97696169  7.50520888
   8.64929884 12.11880471  7.50516555
   7.41940002 14.24812238  7.50841664
   4.98531411  5.38378837  7.50504358
   5.26026504 10.13067092  7.46527105
   6.46953524  8.03559650  7.46552756
   2.22050668 10.17056014  7.50516689
   3.16929796  8.37476069  7.09503388
   3.89815783  7.09377782  7.09814169
   2.42142728  5.72817737  7.45748053
   1.23785400  7.77911544  7.45763281
   7.45389222  5.69222443  7.50130511
   3.72310208 12.15475091  7.50044743
   4.09013189  8.05078683  6.97668137
 


--------------------------------------------------------------------------------------------------------


 k-point   1 :   0.0000 0.0000 0.0000  plane waves:  104449
 k-point   2 :   0.5000 0.0000 0.0000  plane waves:  104264
 k-point   3 :   0.0000 0.5000 0.0000  plane waves:  104264
 k-point   4 :   0.5000 0.5000 0.0000  plane waves:  104264

 maximum and minimum number of plane-waves per node :    104449   104264

 maximum number of plane-waves:    104449
 maximum index in each direction: 
   IXMAX=   32   IYMAX=   32   IZMAX=   27
   IXMIN=  -32   IYMIN=  -32   IZMIN=  -27


 serial   3D FFT for wavefunctions
 parallel 3D FFT for charge:
    minimum data exchange during FFTs selected (reduces bandwidth)


 total amount of memory used by VASP MPI-rank0  1122562. kBytes
=======================================================================

   base      :      30000. kBytes
   nonlr-proj:       8935. kBytes
   fftplans  :     185212. kBytes
   grid      :     184190. kBytes
   one-center:        583. kBytes
   wavefun   :     713642. kBytes
 
     INWAV:  cpu time      0.0000: real time      0.0000
 Broyden mixing: mesh for mixing (old mesh)
   NGX = 65   NGY = 65   NGZ = 55
  (NGX  =192   NGY  =192   NGZ  =168)
  gives a total of 232375 points

 initial charge density was supplied:
 charge density of overlapping atoms calculated
 number of electron     368.0000000 magnetization      57.0000000
 keeping initial charge density in first step


--------------------------------------------------------------------------------------------------------


 Maximum index for non-local projection operator         1579
 Maximum index for augmentation-charges         4020 (set IRDMAX)


--------------------------------------------------------------------------------------------------------


 First call to EWALD:  gamma=   0.113
 Maximum number of real-space cells 3x 3x 3
 Maximum number of reciprocal cells 3x 3x 3

    FEWALD:  cpu time      0.0102: real time      0.0103


--------------------------------------- Ionic step        1  -------------------------------------------




--------------------------------------- Iteration      1(   1)  ---------------------------------------


    POTLOK:  cpu time      2.8735: real time      2.9000
    SETDIJ:  cpu time      3.3795: real time      3.4011
     EDDAV:  cpu time     98.9933: real time     99.6758
       DOS:  cpu time      0.0009: real time      0.0057
    --------------------------------------------
      LOOP:  cpu time    105.2473: real time    105.9828

 eigenvalue-minimisations  :  4580
 total energy-change (2. order) : 0.3288254E+04  (-0.1374755E+05)
 number of electron     368.0000000 magnetization      57.0000000
 augmentation part      368.0000000 magnetization      57.0000000

 Free energy of the ion-electron system (eV)
  ---------------------------------------------------
  alpha Z        PSCENC =       175.60570339
  Ewald energy   TEWEN  =     36594.71575799
  -Hartree energ DENC   =    -47004.97081887
  -exchange      EXHF   =         0.00000000
  -V(xc)+E(xc)   XCENC  =      1231.30842708
  PAW double counting   =     10290.17603344   -10344.35078173
  entropy T*S    EENTRO =        -0.03831925
  eigenvalues    EBANDS =     -1580.12348542
  atomic energy  EATOM  =     13925.93113153
  Solvation  Ediel_sol  =         0.00000000
  ---------------------------------------------------
  free energy    TOTEN  =      3288.25364815 eV

  energy without entropy =     3288.29196740  energy(sigma->0) =     3288.27280778


--------------------------------------------------------------------------------------------------------




--------------------------------------- Iteration      1(   2)  ---------------------------------------


     EDDAV:  cpu time    128.2255: real time    129.1365
       DOS:  cpu time      0.0008: real time      0.0052
    --------------------------------------------
      LOOP:  cpu time    128.2263: real time    129.1417

 eigenvalue-minimisations  :  6410
 total energy-change (2. order) :-0.3520861E+04  (-0.3315152E+04)
 number of electron     368.0000000 magnetization      57.0000000
 augmentation part      368.0000000 magnetization      57.0000000

 Free energy of the ion-electron system (eV)
  ---------------------------------------------------
  alpha Z        PSCENC =       175.60570339
  Ewald energy   TEWEN  =     36594.71575799
  -Hartree energ DENC   =    -47004.97081887
  -exchange      EXHF   =         0.00000000
  -V(xc)+E(xc)   XCENC  =      1231.30842708
  PAW double counting   =     10290.17603344   -10344.35078173
  entropy T*S    EENTRO =        -0.00005113
  eigenvalues    EBANDS =     -5101.02251526
  atomic energy  EATOM  =     13925.93113153
  Solvation  Ediel_sol  =         0.00000000
  ---------------------------------------------------
  free energy    TOTEN  =      -232.60711356 eV

  energy without entropy =     -232.60706244  energy(sigma->0) =     -232.60708800


--------------------------------------------------------------------------------------------------------




--------------------------------------- Iteration      1(   3)  ---------------------------------------


     EDDAV:  cpu time    110.9643: real time    111.7819
       DOS:  cpu time      0.0013: real time      0.0374
    --------------------------------------------
      LOOP:  cpu time    110.9657: real time    111.8194

 eigenvalue-minimisations  :  5350
 total energy-change (2. order) :-0.6205548E+03  (-0.6177235E+03)
 number of electron     368.0000000 magnetization      57.0000000
 augmentation part      368.0000000 magnetization      57.0000000

 Free energy of the ion-electron system (eV)
  ---------------------------------------------------
  alpha Z        PSCENC =       175.60570339
  Ewald energy   TEWEN  =     36594.71575799
  -Hartree energ DENC   =    -47004.97081887
  -exchange      EXHF   =         0.00000000
  -V(xc)+E(xc)   XCENC  =      1231.30842708
  PAW double counting   =     10290.17603344   -10344.35078173
  entropy T*S    EENTRO =        -0.00002067
  eigenvalues    EBANDS =     -5721.57738915
  atomic energy  EATOM  =     13925.93113153
  Solvation  Ediel_sol  =         0.00000000
  ---------------------------------------------------
  free energy    TOTEN  =      -853.16195700 eV

  energy without entropy =     -853.16193633  energy(sigma->0) =     -853.16194667


--------------------------------------------------------------------------------------------------------




--------------------------------------- Iteration      1(   4)  ---------------------------------------


     EDDAV:  cpu time    111.2477: real time    112.0647
       DOS:  cpu time      0.0010: real time      0.0055
    --------------------------------------------
      LOOP:  cpu time    111.2486: real time    112.0702

 eigenvalue-minimisations  :  5370
 total energy-change (2. order) :-0.2208994E+02  (-0.2200479E+02)
 number of electron     368.0000000 magnetization      57.0000000
 augmentation part      368.0000000 magnetization      57.0000000

 Free energy of the ion-electron system (eV)
  ---------------------------------------------------
  alpha Z        PSCENC =       175.60570339
  Ewald energy   TEWEN  =     36594.71575799
  -Hartree energ DENC   =    -47004.97081887
  -exchange      EXHF   =         0.00000000
  -V(xc)+E(xc)   XCENC  =      1231.30842708
  PAW double counting   =     10290.17603344   -10344.35078173
  entropy T*S    EENTRO =        -0.00006952
  eigenvalues    EBANDS =     -5743.66727786
  atomic energy  EATOM  =     13925.93113153
  Solvation  Ediel_sol  =         0.00000000
  ---------------------------------------------------
  free energy    TOTEN  =      -875.25189455 eV

  energy without entropy =     -875.25182503  energy(sigma->0) =     -875.25185979


--------------------------------------------------------------------------------------------------------




--------------------------------------- Iteration      1(   5)  ---------------------------------------


     EDDAV:  cpu time    121.7859: real time    122.6491
       DOS:  cpu time      0.0010: real time      0.0106
    CHARGE:  cpu time      7.8078: real time      7.8839
    MIXING:  cpu time      0.0604: real time      0.0608
    --------------------------------------------
      LOOP:  cpu time    129.6553: real time    130.6045

 eigenvalue-minimisations  :  5970
 total energy-change (2. order) :-0.6510585E+00  (-0.6501661E+00)
 number of electron     367.9999997 magnetization      12.2005102
 augmentation part       10.7774357 magnetization      11.2814293

 Broyden mixing:
  rms(total) = 0.51336E+01    rms(broyden)= 0.51330E+01
  rms(prec ) = 0.55808E+01
  weight for this iteration     100.00

 Free energy of the ion-electron system (eV)
  ---------------------------------------------------
  alpha Z        PSCENC =       175.60570339
  Ewald energy   TEWEN  =     36594.71575799
  -Hartree energ DENC   =    -47004.97081887
  -exchange      EXHF   =         0.00000000
  -V(xc)+E(xc)   XCENC  =      1231.30842708
  PAW double counting   =     10290.17603344   -10344.35078173
  entropy T*S    EENTRO =        -0.00007537
  eigenvalues    EBANDS =     -5744.31833047
  atomic energy  EATOM  =     13925.93113153
  Solvation  Ediel_sol  =         0.00000000
  ---------------------------------------------------
  free energy    TOTEN  =      -875.90295301 eV

  energy without entropy =     -875.90287764  energy(sigma->0) =     -875.90291533


--------------------------------------------------------------------------------------------------------




--------------------------------------- Iteration      1(   6)  ---------------------------------------


    POTLOK:  cpu time      3.0903: real time      3.1147
    SETDIJ:  cpu time      3.6676: real time      3.6876
     EDDAV:  cpu time    107.5351: real time    108.2524
       DOS:  cpu time      0.0009: real time      0.0054
    CHARGE:  cpu time      7.8374: real time      7.8937
    MIXING:  cpu time      0.0846: real time      0.0853
    --------------------------------------------
      LOOP:  cpu time    122.2161: real time    123.0392

 eigenvalue-minimisations  :  5160
 total energy-change (2. order) : 0.1635254E+02  (-0.2108869E+01)
 number of electron     367.9999998 magnetization      -5.7421414
 augmentation part       10.3957311 magnetization      -5.7328320

 Broyden mixing:
  rms(total) = 0.33407E+01    rms(broyden)= 0.33407E+01
  rms(prec ) = 0.36710E+01
  weight for this iteration     100.00

 eigenvalues of (default mixing * dielectric matrix)
  average eigenvalue GAMMA=   1.4251
  1.4251

 Free energy of the ion-electron system (eV)
  ---------------------------------------------------
  alpha Z        PSCENC =       175.60570339
  Ewald energy   TEWEN  =     36594.71575799
  -Hartree energ DENC   =    -47450.51293523
  -exchange      EXHF   =         0.00000000
  -V(xc)+E(xc)   XCENC  =      1241.40363622
  PAW double counting   =     13979.60369583   -14037.57384551
  entropy T*S    EENTRO =        -0.00000218
  eigenvalues    EBANDS =     -5288.72355713
  atomic energy  EATOM  =     13925.93113153
  Solvation  Ediel_sol  =         0.00000000
  ---------------------------------------------------
  free energy    TOTEN  =      -859.55041510 eV

  energy without entropy =     -859.55041292  energy(sigma->0) =     -859.55041401


--------------------------------------------------------------------------------------------------------




--------------------------------------- Iteration      1(   7)  ---------------------------------------


    POTLOK:  cpu time      3.1330: real time      3.1584
    SETDIJ:  cpu time      3.6970: real time      3.7173
     EDDAV:  cpu time    103.9465: real time    104.7183
       DOS:  cpu time      0.0009: real time      0.0075
    CHARGE:  cpu time      7.7845: real time      7.8394
    MIXING:  cpu time      0.0813: real time      0.0818
    --------------------------------------------
      LOOP:  cpu time    118.6431: real time    119.5225

 eigenvalue-minimisations  :  4990
 total energy-change (2. order) : 0.2107811E+02  (-0.3152468E+01)
 number of electron     367.9999998 magnetization       1.2693627
 augmentation part        9.9329404 magnetization       1.2707397

 Broyden mixing:
  rms(total) = 0.20232E+01    rms(broyden)= 0.20231E+01
  rms(prec ) = 0.21429E+01
  weight for this iteration     100.00

 eigenvalues of (default mixing * dielectric matrix)
  average eigenvalue GAMMA=   2.4606
  1.2990  3.6222

 Free energy of the ion-electron system (eV)
  ---------------------------------------------------
  alpha Z        PSCENC =       175.60570339
  Ewald energy   TEWEN  =     36594.71575799
  -Hartree energ DENC   =    -48034.99142308
  -exchange      EXHF   =         0.00000000
  -V(xc)+E(xc)   XCENC  =      1262.35592548
  PAW double counting   =     20734.15354343   -20796.46231415
  entropy T*S    EENTRO =        -0.00000002
  eigenvalues    EBANDS =     -4699.78062979
  atomic energy  EATOM  =     13925.93113153
  Solvation  Ediel_sol  =         0.00000000
  ---------------------------------------------------
  free energy    TOTEN  =      -838.47230522 eV

  energy without entropy =     -838.47230520  energy(sigma->0) =     -838.47230521


--------------------------------------------------------------------------------------------------------




--------------------------------------- Iteration      1(   8)  ---------------------------------------


    POTLOK:  cpu time      3.0590: real time      3.0848
    SETDIJ:  cpu time      3.5221: real time      3.5412
     EDDAV:  cpu time    105.7842: real time    106.5113
       DOS:  cpu time      0.0009: real time      0.0072
    CHARGE:  cpu time      7.9674: real time      8.0244
    MIXING:  cpu time      0.0787: real time      0.0791
    --------------------------------------------
      LOOP:  cpu time    120.4123: real time    121.2481

 eigenvalue-minimisations  :  5090
 total energy-change (2. order) : 0.4723780E+01  (-0.2215612E+01)
 number of electron     367.9999998 magnetization      -0.3216447
 augmentation part        9.5866023 magnetization      -0.3228986

 Broyden mixing:
  rms(total) = 0.81936E+00    rms(broyden)= 0.81925E+00
  rms(prec ) = 0.83972E+00
  weight for this iteration     100.00

 eigenvalues of (default mixing * dielectric matrix)
  average eigenvalue GAMMA=   2.4010
  4.3552  1.3542  1.4934

 Free energy of the ion-electron system (eV)
  ---------------------------------------------------
  alpha Z        PSCENC =       175.60570339
  Ewald energy   TEWEN  =     36594.71575799
  -Hartree energ DENC   =    -48551.33141592
  -exchange      EXHF   =         0.00000000
  -V(xc)+E(xc)   XCENC  =      1282.10026253
  PAW double counting   =     30919.00024285   -30984.89994166
  entropy T*S    EENTRO =        -0.00000000
  eigenvalues    EBANDS =     -4194.87026614
  atomic energy  EATOM  =     13925.93113153
  Solvation  Ediel_sol  =         0.00000000
  ---------------------------------------------------
  free energy    TOTEN  =      -833.74852543 eV

  energy without entropy =     -833.74852543  energy(sigma->0) =     -833.74852543


--------------------------------------------------------------------------------------------------------




--------------------------------------- Iteration      1(   9)  ---------------------------------------


    POTLOK:  cpu time      3.0642: real time      3.0895
    SETDIJ:  cpu time      3.5246: real time      3.5437
     EDDAV:  cpu time    105.6820: real time    106.3993
       DOS:  cpu time      0.0007: real time      0.0056
    CHARGE:  cpu time      7.8311: real time      7.8854
    MIXING:  cpu time      0.1048: real time      0.1056
    --------------------------------------------
      LOOP:  cpu time    120.2073: real time    121.0292

 eigenvalue-minimisations  :  5090
 total energy-change (2. order) :-0.1321577E-01  (-0.9345404E-01)
 number of electron     367.9999998 magnetization      -0.0134603
 augmentation part        9.5737802 magnetization      -0.0134016

 Broyden mixing:
  rms(total) = 0.38821E+00    rms(broyden)= 0.38819E+00
  rms(prec ) = 0.40785E+00
  weight for this iteration     100.00

 eigenvalues of (default mixing * dielectric matrix)
  average eigenvalue GAMMA=   2.4032
  4.6976  1.0862  1.2296  2.5994

 Free energy of the ion-electron system (eV)
  ---------------------------------------------------
  alpha Z        PSCENC =       175.60570339
  Ewald energy   TEWEN  =     36594.71575799
  -Hartree energ DENC   =    -48553.00364845
  -exchange      EXHF   =         0.00000000
  -V(xc)+E(xc)   XCENC  =      1282.83305208
  PAW double counting   =     34693.83273889   -34759.68035653
  entropy T*S    EENTRO =        -0.00000000
  eigenvalues    EBANDS =     -4193.99612010
  atomic energy  EATOM  =     13925.93113153
  Solvation  Ediel_sol  =         0.00000000
  ---------------------------------------------------
  free energy    TOTEN  =      -833.76174120 eV

  energy without entropy =     -833.76174120  energy(sigma->0) =     -833.76174120


--------------------------------------------------------------------------------------------------------




--------------------------------------- Iteration      1(  10)  ---------------------------------------


    POTLOK:  cpu time      2.9400: real time      2.9639
    SETDIJ:  cpu time      3.6775: real time      3.6977
     EDDAV:  cpu time    103.0468: real time    103.7633
       DOS:  cpu time      0.0009: real time      0.0056
    CHARGE:  cpu time      7.6939: real time      7.7474
    MIXING:  cpu time      0.1062: real time      0.1070
    --------------------------------------------
      LOOP:  cpu time    117.4652: real time    118.2848

 eigenvalue-minimisations  :  4900
 total energy-change (2. order) : 0.1336069E+00  (-0.4125374E-01)
 number of electron     367.9999998 magnetization       0.0177168
 augmentation part        9.6078218 magnetization       0.0177782

 Broyden mixing:
  rms(total) = 0.11592E+00    rms(broyden)= 0.11591E+00
  rms(prec ) = 0.12700E+00
  weight for this iteration     100.00

 eigenvalues of (default mixing * dielectric matrix)
  average eigenvalue GAMMA=   2.3312
  4.7528  3.1549  0.9762  1.2608  1.5114

 Free energy of the ion-electron system (eV)
  ---------------------------------------------------
  alpha Z        PSCENC =       175.60570339
  Ewald energy   TEWEN  =     36594.71575799
  -Hartree energ DENC   =    -48488.21443467
  -exchange      EXHF   =         0.00000000
  -V(xc)+E(xc)   XCENC  =      1280.92969582
  PAW double counting   =     36699.23275936   -36764.54045620
  entropy T*S    EENTRO =        -0.00000000
  eigenvalues    EBANDS =     -4257.28829153
  atomic energy  EATOM  =     13925.93113153
  Solvation  Ediel_sol  =         0.00000000
  ---------------------------------------------------
  free energy    TOTEN  =      -833.62813433 eV

  energy without entropy =     -833.62813433  energy(sigma->0) =     -833.62813433


--------------------------------------------------------------------------------------------------------




--------------------------------------- Iteration      1(  11)  ---------------------------------------


    POTLOK:  cpu time      3.1181: real time      3.1452
    SETDIJ:  cpu time      3.4222: real time      3.4404
     EDDAV:  cpu time    103.3872: real time    104.0906
       DOS:  cpu time      0.0008: real time      0.0039
    CHARGE:  cpu time      7.7447: real time      7.8014
    MIXING:  cpu time      0.1266: real time      0.1275
    --------------------------------------------
      LOOP:  cpu time    117.7995: real time    118.6090

 eigenvalue-minimisations  :  4900
 total energy-change (2. order) : 0.2085746E-01  (-0.1006737E-01)
 number of electron     367.9999998 magnetization       0.0056492
 augmentation part        9.6126331 magnetization       0.0054043

 Broyden mixing:
  rms(total) = 0.26931E-01    rms(broyden)= 0.26911E-01
  rms(prec ) = 0.30623E-01
  weight for this iteration     100.00

 eigenvalues of (default mixing * dielectric matrix)
  average eigenvalue GAMMA=   2.1916
  4.7481  3.1994  1.7476  1.0011  1.1856  1.2677

 Free energy of the ion-electron system (eV)
  ---------------------------------------------------
  alpha Z        PSCENC =       175.60570339
  Ewald energy   TEWEN  =     36594.71575799
  -Hartree energ DENC   =    -48464.82500526
  -exchange      EXHF   =         0.00000000
  -V(xc)+E(xc)   XCENC  =      1280.20535708
  PAW double counting   =     37126.14197436   -37191.23639920
  entropy T*S    EENTRO =        -0.00000000
  eigenvalues    EBANDS =     -4280.14579675
  atomic energy  EATOM  =     13925.93113153
  Solvation  Ediel_sol  =         0.00000000
  ---------------------------------------------------
  free energy    TOTEN  =      -833.60727687 eV

  energy without entropy =     -833.60727687  energy(sigma->0) =     -833.60727687


--------------------------------------------------------------------------------------------------------




--------------------------------------- Iteration      1(  12)  ---------------------------------------


    POTLOK:  cpu time      3.2771: real time      3.3111
    SETDIJ:  cpu time      3.3925: real time      3.4206
     EDDAV:  cpu time    105.7402: real time    106.4849
       DOS:  cpu time      0.0007: real time      0.0046
    CHARGE:  cpu time      7.6221: real time      7.6818
    MIXING:  cpu time      0.1266: real time      0.1275
    --------------------------------------------
      LOOP:  cpu time    120.1590: real time    121.0304

 eigenvalue-minimisations  :  5070
 total energy-change (2. order) : 0.2758722E-03  (-0.1006970E-02)
 number of electron     367.9999998 magnetization      -0.0078772
 augmentation part        9.6132102 magnetization      -0.0079832

 Broyden mixing:
  rms(total) = 0.14929E-01    rms(broyden)= 0.14925E-01
  rms(prec ) = 0.16715E-01
  weight for this iteration     100.00

 eigenvalues of (default mixing * dielectric matrix)
  average eigenvalue GAMMA=   2.1207
  4.6852  3.2232  2.0243  1.4803  1.0343  1.1034  1.2943

 Free energy of the ion-electron system (eV)
  ---------------------------------------------------
  alpha Z        PSCENC =       175.60570339
  Ewald energy   TEWEN  =     36594.71575799
  -Hartree energ DENC   =    -48464.63554050
  -exchange      EXHF   =         0.00000000
  -V(xc)+E(xc)   XCENC  =      1280.19979203
  PAW double counting   =     37161.02035365   -37226.09459212
  entropy T*S    EENTRO =        -0.00000000
  eigenvalues    EBANDS =     -4280.34960695
  atomic energy  EATOM  =     13925.93113153
  Solvation  Ediel_sol  =         0.00000000
  ---------------------------------------------------
  free energy    TOTEN  =      -833.60700099 eV

  energy without entropy =     -833.60700099  energy(sigma->0) =     -833.60700099


--------------------------------------------------------------------------------------------------------




--------------------------------------- Iteration      1(  13)  ---------------------------------------


    POTLOK:  cpu time      3.2846: real time      3.3376
    SETDIJ:  cpu time      3.5369: real time      3.5570
     EDDAV:  cpu time    108.5359: real time    109.2795
       DOS:  cpu time      0.0007: real time      0.0050
[...]
   0.840E+00 -.200E+02 -.476E-01   -.909E+00 0.202E+02 0.537E-01   0.682E-01 -.188E+00 -.686E-02   0.436E-03 -.285E-03 -.349E-05
   -.155E+02 -.661E+02 -.552E+00   0.157E+02 0.668E+02 0.530E+00   -.220E+00 -.712E+00 0.227E-01   -.125E-02 0.157E-02 -.417E-04
   -.649E+02 0.197E+02 -.701E+00   0.656E+02 -.198E+02 0.679E+00   -.724E+00 0.164E+00 0.226E-01   0.743E-03 -.187E-02 -.485E-04
   -.170E+02 0.107E+02 -.230E+00   0.171E+02 -.109E+02 0.235E+00   -.139E+00 0.146E+00 -.490E-02   -.423E-04 0.517E-03 -.593E-05
   -.239E+01 -.134E+01 -.363E+00   0.234E+01 0.131E+01 0.362E+00   0.475E-01 0.347E-01 0.126E-03   -.269E-03 -.156E-03 -.176E-06
   0.101E+02 -.115E+02 -.127E+00   -.103E+02 0.114E+02 0.126E+00   0.172E+00 0.673E-01 0.643E-03   -.111E-03 0.600E-03 -.201E-05
   0.191E+02 -.657E+02 -.211E+01   -.194E+02 0.664E+02 0.212E+01   0.259E+00 -.748E+00 -.685E-02   0.178E-02 0.680E-03 -.357E-05
   -.473E+02 0.494E+02 -.186E+01   0.479E+02 -.500E+02 0.186E+01   -.518E+00 0.597E+00 -.333E-02   0.152E-02 0.119E-02 -.274E-05
   -.490E+01 0.146E+02 -.221E+00   0.476E+01 -.147E+02 0.221E+00   0.138E+00 0.125E+00 -.825E-03   0.458E-03 -.385E-03 -.215E-05
   0.511E+01 0.292E+01 -.648E+00   -.529E+01 -.302E+01 0.649E+00   0.176E+00 0.102E+00 -.183E-02   -.261E-03 -.137E-03 0.188E-05
   0.255E+02 -.963E+01 -.135E+01   -.260E+02 0.959E+01 0.134E+01   0.516E+00 0.464E-01 0.581E-02   -.497E-03 0.655E-05 0.603E-05
   0.457E+01 0.270E+02 -.105E+01   -.488E+01 -.274E+02 0.104E+01   0.314E+00 0.431E+00 0.552E-02   -.224E-03 -.441E-03 0.300E-06
   0.239E+01 0.103E+02 -.106E+01   -.241E+01 -.102E+02 0.106E+01   0.203E-01 -.622E-01 -.191E-02   0.423E-03 -.611E-03 0.791E-05
   0.102E+02 -.306E+01 -.121E+01   -.102E+02 0.301E+01 0.122E+01   -.378E-01 0.518E-01 -.343E-02   -.326E-03 0.693E-03 -.125E-06
   0.241E+02 -.195E+02 -.149E+01   -.243E+02 0.199E+02 0.149E+01   0.264E+00 -.441E+00 -.132E-03   -.639E-04 0.539E-03 0.162E-04
   0.727E+02 0.935E+01 -.250E+01   -.737E+02 -.944E+01 0.249E+01   0.974E+00 0.981E-01 0.249E-02   0.669E-03 -.169E-02 0.485E-04
   0.839E+02 0.484E+02 -.215E+01   -.845E+02 -.488E+02 0.210E+01   0.608E+00 0.357E+00 0.465E-01   -.730E-03 -.427E-03 0.578E-04
   0.445E+02 0.584E+02 -.225E+01   -.451E+02 -.592E+02 0.225E+01   0.570E+00 0.801E+00 0.313E-02   -.117E-02 0.139E-02 0.526E-04
   -.474E+01 0.306E+02 -.182E+01   0.498E+01 -.310E+02 0.182E+01   -.242E+00 0.453E+00 -.316E-03   0.420E-03 -.350E-03 0.116E-04
   -.258E+00 0.831E+01 -.174E+01   0.327E+00 -.844E+01 0.174E+01   -.700E-01 0.125E+00 -.235E-02   -.308E-03 -.333E-03 0.149E-04
   0.329E+00 0.143E+00 -.121E+01   -.329E+00 -.133E+00 0.122E+01   -.103E-02 -.101E-01 -.204E-02   0.885E-04 0.649E-04 0.109E-04
   0.708E+01 -.440E+01 -.130E+01   -.716E+01 0.452E+01 0.130E+01   0.742E-01 -.125E+00 -.246E-02   -.462E-03 -.915E-04 0.115E-04
   0.207E+02 -.289E+01 -.194E+01   -.208E+02 0.313E+01 0.195E+01   0.777E-01 -.238E+00 -.557E-02   -.781E-03 -.828E-04 0.105E-04
   0.272E+02 0.107E+02 -.228E+01   -.273E+02 -.108E+02 0.228E+01   0.162E+00 0.426E-01 0.859E-02   0.451E-03 -.281E-03 0.217E-04
   0.228E+02 0.183E+02 -.204E+01   -.230E+02 -.184E+02 0.203E+01   0.116E+00 0.127E+00 0.943E-02   -.111E-04 0.511E-03 0.269E-04
   0.785E+01 0.194E+02 -.253E+01   -.768E+01 -.196E+02 0.254E+01   -.169E+00 0.200E+00 -.589E-02   -.450E-03 -.632E-03 0.147E-04
   -.179E+01 -.647E+02 -.387E+01   0.203E+01 0.707E+02 0.395E+01   -.238E+00 -.597E+01 -.824E-01   -.956E-04 -.161E-03 0.303E-04
   0.491E+02 0.379E+02 -.111E+01   -.542E+02 -.410E+02 0.963E+00   0.516E+01 0.312E+01 0.142E+00   0.248E-03 0.109E-03 0.875E-04
   0.573E+02 0.235E+02 -.113E+01   -.626E+02 -.264E+02 0.981E+00   0.528E+01 0.291E+01 0.145E+00   0.217E-03 0.170E-03 0.890E-04
   -.570E+02 0.309E+02 -.387E+01   0.623E+02 -.336E+02 0.396E+01   -.528E+01 0.278E+01 -.838E-01   -.177E-03 -.361E-05 0.296E-04
   0.462E+02 -.373E+02 0.667E+01   -.536E+02 0.400E+02 -.572E+01   0.745E+01 -.268E+01 -.945E+00   -.114E-02 0.194E-03 0.307E-03
   -.842E+01 0.582E+02 0.634E+01   0.693E+01 -.659E+02 -.536E+01   0.151E+01 0.776E+01 -.968E+00   -.418E-03 -.107E-02 0.309E-03
   -.180E+03 -.114E+03 -.318E+01   0.207E+03 0.131E+03 0.273E+01   -.262E+02 -.165E+02 0.456E+00   -.157E-02 0.773E-03 0.247E-04
   -.189E+03 -.995E+02 -.326E+01   0.217E+03 0.114E+03 0.281E+01   -.274E+02 -.145E+02 0.447E+00   -.133E-03 -.173E-02 0.222E-04
   0.196E+03 -.119E+03 -.472E+01   -.225E+03 0.136E+03 0.471E+01   0.285E+02 -.163E+02 0.132E-01   0.165E-02 -.879E-03 0.274E-04
   -.532E+01 0.230E+03 -.439E+01   0.520E+01 -.262E+03 0.435E+01   0.119E+00 0.328E+02 0.346E-01   0.840E-04 0.183E-02 0.329E-04
   -.103E+03 -.598E+02 0.118E+03   0.142E+03 0.816E+02 -.127E+03   -.383E+02 -.217E+02 0.893E+01   -.131E-02 -.738E-03 0.233E-02
 -----------------------------------------------------------------------------------------------
   0.419E+02 0.239E+02 -.826E+01   0.284E-13 -.441E-12 0.426E-13   -.419E+02 -.238E+02 0.824E+01   0.237E-03 0.285E-05 0.390E-02
 
 
 POSITION                                       TOTAL-FORCE (eV/Angst)
 -----------------------------------------------------------------------------------
      0.01896      0.00956      7.50671        -0.000868     -0.000331      0.000154
     -1.22052      2.14035      7.50317        -0.000775     -0.000233      0.000021
     -2.46010      4.27686      7.50026        -0.001335      0.002914      0.000875
     -3.69050      6.41853      7.50085        -0.000178      0.000984      0.000092
     -4.91646      8.55704      7.50332         0.006766     -0.001095     -0.001664
     -6.14348     10.69386      7.50473         0.005125     -0.000867     -0.000649
     -7.38001     12.83631      7.50561         0.001757      0.000584      0.001062
      2.49213      0.02714      7.49908        -0.001048     -0.000798     -0.000248
      1.25197      2.16120      7.49602        -0.000687     -0.000126      0.000106
     -0.00189      4.27668      7.49088        -0.000712      0.000895     -0.000027
     -1.23163      6.40607      7.49055        -0.001051      0.001302      0.000230
     -2.43616      8.54932      7.49341        -0.000612     -0.000573      0.000001
     -3.66462     10.69021      7.49795        -0.000026     -0.001148     -0.000227
     -4.90517     12.83679      7.50043         0.001238     -0.002987      0.000589
      4.95945      0.02777      7.49551        -0.001212     -0.002579     -0.000686
      3.71496      2.19182      7.48883        -0.001418      0.000331     -0.000969
      2.44011      4.37726      7.47597        -0.000480     -0.000240     -0.000079
      1.22979      6.40738      7.46757        -0.000570      0.000368     -0.000186
      0.07733      8.47084      7.47569        -0.001936     -0.000315      0.001065
     -1.17856     10.66815      7.48831        -0.001538     -0.000856      0.000328
     -2.43063     12.82780      7.49663        -0.001076     -0.003448     -0.000107
      7.42855      0.01484      7.49550        -0.001847     -0.002270     -0.000582
      6.19057      2.17833      7.49376        -0.000893     -0.000361     -0.000450
      4.95451      4.29628      7.49321        -0.000789     -0.001001      0.000627
      1.26369     10.68840      7.49312        -0.001840     -0.000166      0.000857
      0.04806     12.81854      7.49379        -0.002770     -0.002700     -0.000460
      9.89015      0.00826      7.49891        -0.000752     -0.000293     -0.000610
      8.65362      2.14972      7.49945        -0.000344     -0.000362     -0.000135
      7.45201      4.34108      7.50072        -0.000284     -0.000766     -0.000018
      2.55207     12.82869      7.49976        -0.001072     -0.000102     -0.000623
     12.35454      0.01433      7.50389        -0.001174     -0.000255     -0.000623
     11.12099      2.14602      7.50344        -0.000885     -0.000476     -0.000540
      9.89183      4.28054      7.50388        -0.000254     -0.000858     -0.000320
      8.61856      6.36690      7.50105         0.000533     -0.001525     -0.000301
      7.42547      8.56152      7.48661         0.001002     -0.001060     -0.001221
      6.19386     10.69515      7.48593        -0.000526      0.000619     -0.001891
      4.88987     12.82611      7.50126         0.000235      0.001815      0.000591
     14.81973      0.00369      7.50768        -0.001039     -0.000374     -0.000096
     13.58412      2.14354      7.50550        -0.001471     -0.000402     -0.000401
     12.35041      4.28045      7.50423        -0.001062     -0.000003      0.000541
     11.11479      6.42057      7.50461         0.001296     -0.000931     -0.000298
      9.87289      8.54823      7.50475         0.006558     -0.005826      0.001819
      8.65752     10.69563      7.50236         0.000852      0.000095     -0.000676
      7.40589     12.82216      7.50539        -0.001054      0.001789     -0.001504
      0.02002      1.43724      7.50301        -0.000730     -0.000127      0.000179
     -1.23181      3.56143      7.49846         0.000023     -0.000946     -0.000071
     -2.46546      5.69857      7.49758        -0.000382     -0.003640     -0.000681
     -3.67934      7.84430      7.49978        -0.002262     -0.000351      0.000031
     -4.90774      9.98306      7.50237        -0.003514      0.000889     -0.000579
     -6.14418     12.12136      7.50369        -0.002862      0.000340     -0.000760
     -7.37731     14.26153      7.50471        -0.001116     -0.000574     -0.000023
      2.49026      1.45467      7.49386        -0.000421     -0.000274     -0.000038
      1.23835      3.58971      7.48890        -0.000226     -0.000025     -0.000046
     -0.00914      5.69215      7.48548         0.002242     -0.001156      0.000869
     -1.20577      7.82357      7.48783         0.001006     -0.000740      0.000080
     -2.42919      9.97516      7.49192        -0.000025      0.000069     -0.000025
     -3.66784     12.12039      7.49835        -0.000554      0.001287      0.000191
     -4.90662     14.26654      7.49806        -0.000805      0.001251     -0.000570
      4.95254      1.46979      7.49250        -0.000211     -0.000322     -0.000490
      3.71939      3.63618      7.48371        -0.000282     -0.000804      0.000268
      0.07424      9.94933      7.48371        -0.000071      0.000170      0.000625
     -1.18531     12.10094      7.49283         0.000705      0.001017      0.000303
     -2.44276     14.25891      7.49600         0.000409      0.008100     -0.000236
      7.42086      1.44349      7.49590        -0.001248     -0.000268     -0.000393
      6.18180      3.61377      7.49642        -0.000827     -0.000782     -0.000019
      1.28674     12.09257      7.49559        -0.000738      0.000096      0.000139
      0.02648     14.25145      7.49598        -0.001069      0.001173     -0.000453
      9.88467      1.43274      7.50074        -0.001105     -0.000351     -0.000492
      8.65988      3.57925      7.50167        -0.001155     -0.000283     -0.000145
      2.49601     14.25572      7.50082        -0.000886     -0.000216     -0.000517
     12.35264      1.43866      7.50449         0.000063      0.000147     -0.000666
     11.12454      3.56647      7.50445        -0.000127     -0.000146     -0.000183
      9.88229      5.69908      7.50360        -0.001747     -0.000151     -0.000447
      8.61612      7.83706      7.49900        -0.003669      0.001407     -0.001455
      7.41586      9.97841      7.49164        -0.000140     -0.000666     -0.001530
      6.16184     12.08886      7.49870        -0.000551     -0.001653     -0.001080
      4.94328     14.25436      7.50512        -0.000609     -0.000282     -0.000381
     14.81840      1.42515      7.50639        -0.000121      0.000133     -0.000146
     13.58025      3.56563      7.50387         0.000201     -0.000476     -0.000142
     12.34531      5.70861      7.50387        -0.001246     -0.000848     -0.000039
     11.11451      7.84697      7.50542        -0.009938      0.001611     -0.000384
      9.88546      9.97696      7.50521        -0.004831      0.000427      0.000672
      8.64930     12.11880      7.50517        -0.001768     -0.003121      0.000201
      7.41940     14.24812      7.50842        -0.000860     -0.001233      0.000032
      4.98531      5.38379      7.50504        -0.000712     -0.000831      0.001559
      5.26027     10.13067      7.46527         0.000154     -0.000869     -0.002150
      6.46954      8.03560      7.46553        -0.000457     -0.000002     -0.001401
      2.22051     10.17056      7.50517        -0.001116     -0.000042      0.001612
      3.16930      8.37476      7.09503         0.018236      0.009751      0.008809
      3.89816      7.09378      7.09814         0.015868      0.008805      0.009621
      2.42143      5.72818      7.45748         0.000577      0.000234     -0.000240
      1.23785      7.77912      7.45763         0.001202     -0.000049     -0.000000
      7.45389      5.69222      7.50131        -0.000472     -0.000329     -0.000099
      3.72310     12.15475      7.50045        -0.000761      0.000194     -0.001086
      4.09013      8.05079      6.97668         0.017138      0.008089     -0.001597
 -----------------------------------------------------------------------------------
    total drift:                                0.023233      0.049780     -0.020968


--------------------------------------------------------------------------------------------------------



  FREE ENERGIE OF THE ION-ELECTRON SYSTEM (eV)
  ---------------------------------------------------
  free  energy   TOTEN  =      -841.24333003 eV

  energy  without entropy=     -841.24333003  energy(sigma->0) =     -841.24333003
 


--------------------------------------------------------------------------------------------------------


    POTLOK:  cpu time      5.7461: real time      5.7932


--------------------------------------------------------------------------------------------------------


 NEB: the previous image is higher in energy: F
 NEB: the next image is higher in energy    : T
 NEB: only next energy greater

 NEB: Tangent
 ----------------------------------------------
      0.00137      0.00094      0.00216
      0.00189      0.00130      0.00348
      0.00201      0.00114      0.00545
      0.00174      0.00068      0.00334
      0.00127      0.00051      0.00132
      0.00099      0.00046      0.00217
      0.00122      0.00033      0.00241
      0.00137      0.00026     -0.00318
      0.00190      0.00081     -0.00672
      0.00241      0.00082     -0.00750
      0.00275      0.00082     -0.00872
      0.00208      0.00026     -0.00791
      0.00153      0.00025     -0.00348
      0.00142      0.00035     -0.00063
      0.00153      0.00046     -0.00490
      0.00137      0.00037     -0.01417
      0.00225      0.00177     -0.02711
      0.00351      0.00117     -0.03443
      0.00285      0.00021     -0.02779
      0.00205      0.00036     -0.01287
      0.00181      0.00022     -0.00407
      0.00179      0.00048     -0.00259
      0.00152      0.00112     -0.00715
      0.00036      0.00152     -0.01424
      0.00299     -0.00104     -0.01338
      0.00250     -0.00006     -0.00539
      0.00182      0.00058      0.00128
      0.00147      0.00070      0.00045
      0.00086      0.00074     -0.00373
      0.00201      0.00049     -0.00217
      0.00151      0.00124      0.00440
      0.00120      0.00105      0.00698
      0.00114      0.00079      0.00460
      0.00099      0.00044     -0.00295
      0.00120      0.00065     -0.02628
      0.00112      0.00237     -0.02519
      0.00156      0.00130     -0.00287
      0.00126      0.00129      0.00318
      0.00162      0.00112      0.00815
      0.00147      0.00093      0.01066
      0.00103      0.00076      0.00532
      0.00086      0.00073      0.00020
      0.00006      0.00037     -0.00372
      0.00159      0.00133      0.00004
      0.00169      0.00107      0.00024
      0.00202      0.00120      0.00171
      0.00216      0.00104      0.00103
      0.00170      0.00062     -0.00101
      0.00108      0.00046      0.00060
      0.00120      0.00045      0.00155
      0.00118      0.00026      0.00082
      0.00144      0.00014     -0.00878
      0.00228      0.00092     -0.01244
      0.00322      0.00113     -0.01399
      0.00233      0.00048     -0.01368
      0.00182      0.00035     -0.00871
      0.00154      0.00021     -0.00281
      0.00148      0.00036     -0.00302
      0.00161      0.00060     -0.00878
      0.00148      0.00021     -0.02094
      0.00217      0.00057     -0.02055
      0.00217      0.00042     -0.00711
      0.00167      0.00040     -0.00358
      0.00141      0.00077     -0.00270
      0.00094      0.00147     -0.00840
      0.00287     -0.00054     -0.00664
      0.00201      0.00024     -0.00215
      0.00158      0.00067      0.00311
      0.00113      0.00081      0.00044
      0.00178      0.00067      0.00180
      0.00159      0.00123      0.00734
      0.00127      0.00100      0.00856
      0.00111      0.00087      0.00338
      0.00071      0.00057     -0.00818
     -0.00031      0.00025     -0.01973
      0.00148      0.00168     -0.00805
      0.00144      0.00117      0.00198
      0.00171      0.00120      0.00545
      0.00180      0.00121      0.01031
      0.00128      0.00081      0.00720
      0.00079      0.00076      0.00347
      0.00044      0.00063      0.00043
      0.00083      0.00042      0.00047
      0.00121      0.00119      0.00289
     -0.00719      0.00242     -0.01020
     -0.00251      0.00935     -0.04688
      0.00536     -0.00569     -0.04812
      0.00023     -0.00763     -0.00979
     -0.03613     -0.01184     -0.51261
     -0.02482     -0.01479     -0.51314
      0.00400      0.00187     -0.04620
      0.00368      0.00138     -0.04656
      0.00102      0.00091     -0.00474
      0.00226      0.00078     -0.00340
     -0.07847     -0.03709     -0.66792

 NEB: forces: par spring, perp REAL, dneb     0.008631    0.041975    0.000000
 NEB: distance to prev, next image, angle between     0.781778    0.783504  175.097137
 NEB: projections on to tangent (spring, REAL)     0.008631   -0.012272

 stress matrix after NEB project (eV)
    -14.41428      4.38206     -0.03456
      4.38206    -19.56849     -0.01886
     -0.03456     -0.01886     -0.66682
  FORCES: max atom, RMS     0.019988    0.004157
  FORCE total and by dimension    0.040515    0.017481
  Stress total and by dimension   25.090833   19.568486
 OPT: skip step - force has converged


--------------------------------------------------------------------------------------------------------


  
 reached required accuracy - stopping structural energy minimisation
     LOOP+:  cpu time   2274.4482: real time   2290.3845
    4ORBIT:  cpu time      0.0000: real time      0.0000

 total amount of memory used by VASP MPI-rank0  1122562. kBytes
=======================================================================

   base      :      30000. kBytes
   nonlr-proj:       8935. kBytes
   fftplans  :     185212. kBytes
   grid      :     184190. kBytes
   one-center:        583. kBytes
   wavefun   :     713642. kBytes
 
  
  
 General timing and accounting informations for this job:
 ========================================================
  
                  Total CPU time used (sec):     2309.280
                            User time (sec):     2242.967
                          System time (sec):       66.313
                         Elapsed time (sec):     2326.548
  
                   Maximum memory used (kb):     1555500.
                   Average memory used (kb):          N/A
  
                          Minor page faults:       119983
                          Major page faults:           56
                 Voluntary context switches:         2452
