 vasp.6.4.2 20Jul23 (build Aug 26 2025 15:10:52) complex                        
  
 POSCAR found type information on POSCAR C H N O 
 04/POSCAR found :  4 types and      95 ions
 Reading from existing POTCAR
 scaLAPACK will be used
 -----------------------------------------------------------------------------
|                                                                             |
|           W    W    AA    RRRRR   N    N  II  N    N   GGGG   !!!           |
|           W    W   A  A   R    R  NN   N  II  NN   N  G    G  !!!           |
|           W    W  A    A  R    R  N N  N  II  N N  N  G       !!!           |
|           W WW W  AAAAAA  RRRRR   N  N N  II  N  N N  G  GGG   !            |
|           WW  WW  A    A  R   R   N   NN  II  N   NN  G    G                |
|           W    W  A    A  R    R  N    N  II  N    N   GGGG   !!!           |
|                                                                             |
|     For optimal performance we recommend to set                             |
|       NCORE = 2 up to number-of-cores-per-socket                            |
|     NCORE specifies how many cores store one orbital (NPAR=cpu/NCORE).      |
|     This setting can greatly improve the performance of VASP for DFT.       |
|     The default, NCORE=1 might be grossly inefficient on modern             |
|     multi-core architectures or massively parallel machines. Do your        |
|     own testing! More info at https://www.vasp.at/wiki/index.php/NCORE      |
|     Unfortunately you need to use the default for GW and RPA                |
|     calculations (for HF NCORE is supported but not extensively tested      |
|     yet).                                                                   |
|                                                                             |
 -----------------------------------------------------------------------------

 Reading from existing POTCAR
 LDA part: xc-table for Pade appr. of Perdew
 POSCAR found type information on POSCAR C H N O 
 00/POSCAR found :  4 types and      95 ions
 POSCAR found type information on POSCAR C H N O 
 06/POSCAR found :  4 types and      95 ions
 Jacobian:    33.5511073471780     
 POSCAR found type information on POSCAR C H N O 
 00/POSCAR found :  4 types and      95 ions
 POSCAR found type information on POSCAR C H N O 
 06/POSCAR found :  4 types and      95 ions
 POSCAR, INCAR and KPOINTS ok, starting setup
 FFT: planning ... GRIDC
 FFT: planning ... GRID_SOFT
 FFT: planning ... GRID
 WAVECAR not read
 entering main loop
       N       E                     dE             d eps       ncg     rms          rms(c)
DAV:   1     0.328825364815E+04    0.32883E+04   -0.13748E+05  4580   0.105E+03
DAV:   2    -0.232607113563E+03   -0.35209E+04   -0.33152E+04  6410   0.258E+02
DAV:   3    -0.853161957000E+03   -0.62055E+03   -0.61772E+03  5350   0.112E+02
DAV:   4    -0.875251894553E+03   -0.22090E+02   -0.22005E+02  5370   0.265E+01
DAV:   5    -0.875902953009E+03   -0.65106E+00   -0.65017E+00  5970   0.387E+00    0.513E+01
DAV:   6    -0.859550415099E+03    0.16353E+02   -0.21089E+01  5160   0.723E+00    0.334E+01
DAV:   7    -0.838472305224E+03    0.21078E+02   -0.31525E+01  4990   0.844E+00    0.202E+01
DAV:   8    -0.833748525428E+03    0.47238E+01   -0.22156E+01  5090   0.692E+00    0.819E+00
DAV:   9    -0.833761741197E+03   -0.13216E-01   -0.93454E-01  5090   0.175E+00    0.388E+00
DAV:  10    -0.833628134327E+03    0.13361E+00   -0.41254E-01  4900   0.105E+00    0.116E+00
DAV:  11    -0.833607276865E+03    0.20857E-01   -0.10067E-01  4900   0.571E-01    0.269E-01
DAV:  12    -0.833607000993E+03    0.27587E-03   -0.10070E-02  5070   0.200E-01    0.149E-01
DAV:  13    -0.833606799073E+03    0.20192E-03   -0.24073E-03  5150   0.992E-02    0.757E-02
DAV:  14    -0.833606871673E+03   -0.72600E-04   -0.37001E-04  5150   0.389E-02    0.521E-02
DAV:  15    -0.833606912589E+03   -0.40916E-04   -0.10001E-04  4830   0.188E-02    0.247E-02
DAV:  16    -0.833606917497E+03   -0.49086E-05   -0.22166E-05  4960   0.926E-03    0.120E-02
DAV:  17    -0.833606916583E+03    0.91417E-06   -0.86788E-06  5180   0.597E-03
   1 F= -.84124333E+03 E0= -.84124333E+03  d E =-.841243E+03  mag=     0.0000
quench:  g(F)=  0.384E-03 g(S)=  0.000E+00 dE (1.order)=-0.768E-03
 reached required accuracy - stopping structural energy minimisation
