<?xml version="1.0" encoding="ISO-8859-1"?>
<modeling>
 <generator>
  <i name="program" type="string">vasp </i>
  <i name="version" type="string">6.4.2  </i>
  <i name="subversion" type="string">20Jul23 (build Aug 26 2025 15:10:52) complex                          parallel </i>
  <i name="platform" type="string">LinuxIFC </i>
  <i name="date" type="string">2025 12 02 </i>
  <i name="time" type="string">12:58:02 </i>
 </generator>
 <incar>
  <i type="int" name="ISTART">     0</i>
  <i type="string" name="ALGO">Normal</i>
  <i type="logical" name="ADDGRID"> T  </i>
  <i type="int" name="ISPIN">     2</i>
  <i type="int" name="IMIX">     4</i>
  <i name="AMIX">      0.20000000</i>
  <i name="BMIX">      0.00010000</i>
  <i name="AMIX_MAG">      0.80000000</i>
  <i name="BMIX_MAG">      0.00010000</i>
  <i type="int" name="ICHARG">     2</i>
  <i type="int" name="NELM">   200</i>
  <i type="int" name="IBRION">     3</i>
  <i name="EDIFF">      0.00000100</i>
  <i name="EDIFFG">     -0.03000000</i>
  <i type="int" name="NSW">  1000</i>
  <i type="int" name="ISIF">     2</i>
  <i type="int" name="ISYM">     0</i>
  <i name="ENCUT">    520.00000000</i>
  <v name="MAGMOM">      0.60000000      0.60000000      0.60000000      0.60000000      0.60000000      0.60000000      0.60000000      0.60000000      0.60000000      0.60000000      0.60000000      0.60000000      0.60000000      0.60000000      0.60000000      0.60000000      0.60000000      0.60000000      0.60000000      0.60000000
      0.60000000      0.60000000      0.60000000      0.60000000      0.60000000      0.60000000      0.60000000      0.60000000      0.60000000      0.60000000      0.60000000      0.60000000      0.60000000      0.60000000      0.60000000      0.60000000      0.60000000      0.60000000      0.60000000      0.60000000
      0.60000000      0.60000000      0.60000000      0.60000000      0.60000000      0.60000000      0.60000000      0.60000000      0.60000000      0.60000000      0.60000000      0.60000000      0.60000000      0.60000000      0.60000000      0.60000000      0.60000000      0.60000000      0.60000000      0.60000000
      0.60000000      0.60000000      0.60000000      0.60000000      0.60000000      0.60000000      0.60000000      0.60000000      0.60000000      0.60000000      0.60000000      0.60000000      0.60000000      0.60000000      0.60000000      0.60000000      0.60000000      0.60000000      0.60000000      0.60000000
      0.60000000      0.60000000      0.60000000      0.60000000      0.60000000      0.60000000      0.60000000      0.60000000      0.60000000      0.60000000      0.60000000      0.60000000      0.60000000      0.60000000      0.60000000</v>
  <i type="string" name="LREAL">Auto</i>
  <i type="int" name="ISMEAR">     0</i>
  <i name="SIGMA">      0.05000000</i>
  <i type="logical" name="LWAVE"> F  </i>
  <i type="logical" name="LCHARG"> F  </i>
  <i type="logical" name="LASPH"> T  </i>
  <i type="int" name="IVDW">    12</i>
  <i name="SPRING">     -5.00000000</i>
 </incar>
 <primitive_cell>
  <structure name="primitive_cell" >
   <crystal>
    <varray name="basis" >
     <v>      17.27103806       0.00000000       0.00000000 </v>
     <v>      -8.63551903      14.95715771       0.00000000 </v>
     <v>       0.00000000       0.00000000      15.00000000 </v>
    </varray>
    <i name="volume">   3874.88459904 </i>
    <varray name="rec_basis" >
     <v>       0.05790040       0.03342881       0.00000000 </v>
     <v>       0.00000000       0.06685762       0.00000000 </v>
     <v>       0.00000000       0.00000000       0.06666667 </v>
    </varray>
   </crystal>
   <varray name="positions" >
    <v>       0.00141753       0.00063915       0.50044754 </v>
    <v>       0.00088075       0.14309862       0.50021129 </v>
    <v>       0.00052951       0.28594095       0.50001714 </v>
    <v>       0.00088234       0.42912790       0.50005667 </v>
    <v>       0.00138679       0.57210329       0.50022108 </v>
    <v>       0.00177294       0.71496625       0.50031534 </v>
    <v>       0.00179697       0.85820543       0.50037396 </v>
    <v>       0.14520296       0.00181477       0.49993835 </v>
    <v>       0.14473581       0.14449245       0.49973499 </v>
    <v>       0.14285516       0.28592890       0.49939228 </v>
    <v>       0.14283546       0.42829458       0.49937027 </v>
    <v>       0.14473886       0.57158711       0.49956091 </v>
    <v>       0.14517786       0.71472179       0.49986330 </v>
    <v>       0.14510704       0.85823725       0.50002873 </v>
    <v>       0.28808246       0.00185670       0.49970067 </v>
    <v>       0.28836756       0.14654010       0.49925540 </v>
    <v>       0.28760998       0.29265323       0.49839788 </v>
    <v>       0.28539665       0.42838209       0.49783779 </v>
    <v>       0.28764758       0.56634035       0.49837938 </v>
    <v>       0.28838419       0.71324694       0.49922051 </v>
    <v>       0.28808365       0.85763623       0.49977509 </v>
    <v>       0.43061216       0.00099200       0.49969970 </v>
    <v>       0.43125546       0.14563786       0.49958412 </v>
    <v>       0.43048759       0.28723902       0.49954729 </v>
    <v>       0.43046854       0.71460116       0.49954152 </v>
    <v>       0.43129122       0.85701692       0.49958619 </v>
    <v>       0.57291970       0.00055243       0.49992703 </v>
    <v>       0.57291024       0.14372494       0.49996322 </v>
    <v>       0.57659165       0.29023460       0.50004784 </v>
    <v>       0.57661357       0.85769555       0.49998383 </v>
    <v>       0.71581153       0.00095795       0.50025940 </v>
    <v>       0.71564881       0.14347775       0.50022952 </v>
    <v>       0.71583442       0.28618661       0.50025885 </v>
    <v>       0.71185619       0.42567605       0.50006985 </v>
    <v>       0.71613893       0.57240259       0.49910705 </v>
    <v>       0.71615320       0.71505235       0.49906197 </v>
    <v>       0.71188703       0.85752340       0.50008384 </v>
    <v>       0.85819180       0.00024695       0.50051222 </v>
    <v>       0.85818204       0.14331208       0.50036680 </v>
    <v>       0.85818414       0.28618053       0.50028182 </v>
    <v>       0.85818252       0.42926392       0.50030758 </v>
    <v>       0.85740147       0.57151431       0.50031696 </v>
    <v>       0.85881580       0.71508439       0.50015707 </v>
    <v>       0.85743363       0.85725898       0.50035910 </v>
    <v>       0.04920448       0.09609034       0.50020036 </v>
    <v>       0.04773250       0.23810902       0.49989722 </v>
    <v>       0.04774534       0.38099295       0.49983850 </v>
    <v>       0.04919030       0.52445123       0.49998549 </v>
    <v>       0.04956148       0.66744333       0.50015812 </v>
    <v>       0.04945196       0.81040498       0.50024581 </v>
    <v>       0.04959688       0.95349185       0.50031433 </v>
    <v>       0.19281502       0.09725602       0.49959067 </v>
    <v>       0.19170057       0.23999965       0.49925988 </v>
    <v>       0.18975260       0.38056336       0.49903172 </v>
    <v>       0.19171822       0.52306515       0.49918842 </v>
    <v>       0.19280661       0.66691547       0.49946105 </v>
    <v>       0.19280111       0.81034071       0.49988983 </v>
    <v>       0.19281797       0.95382663       0.49987042 </v>
    <v>       0.33588731       0.09826655       0.49950011 </v>
    <v>       0.33690707       0.24310609       0.49891377 </v>
    <v>       0.33689254       0.66518842       0.49891430 </v>
    <v>       0.33588980       0.80903995       0.49952203 </v>
    <v>       0.33522207       0.95331712       0.49973340 </v>
    <v>       0.47792499       0.09650829       0.49972649 </v>
    <v>       0.47873270       0.24160811       0.49976119 </v>
    <v>       0.47874320       0.80848070       0.49970624 </v>
    <v>       0.47794245       0.95281804       0.49973197 </v>
    <v>       0.62022144       0.09578975       0.50004926 </v>
    <v>       0.62106051       0.23929984       0.50011141 </v>
    <v>       0.62107162       0.95310358       0.50005451 </v>
    <v>       0.76331553       0.09618557       0.50029904 </v>
    <v>       0.76333799       0.23844547       0.50029687 </v>
    <v>       0.76270178       0.38102695       0.50024015 </v>
    <v>       0.76086072       0.52396734       0.49993301 </v>
    <v>       0.76294793       0.66713306       0.49944283 </v>
    <v>       0.76088944       0.80823266       0.49991304 </v>
    <v>       0.76272401       0.95301271       0.50034103 </v>
    <v>       0.90563219       0.09528239       0.50042618 </v>
    <v>       0.90549646       0.23838940       0.50025811 </v>
    <v>       0.90563046       0.38166434       0.50025793 </v>
    <v>       0.90584933       0.52462968       0.50036153 </v>
    <v>       0.90589006       0.66703594       0.50034726 </v>
    <v>       0.90591509       0.81023447       0.50034437 </v>
    <v>       0.90588402       0.95259558       0.50056111 </v>
    <v>       0.46862532       0.35994729       0.50033624 </v>
    <v>       0.64322773       0.67731257       0.49768474 </v>
    <v>       0.64320911       0.53724088       0.49770184 </v>
    <v>       0.46855796       0.67997947       0.50034446 </v>
    <v>       0.46346191       0.55991659       0.47300226 </v>
    <v>       0.46284145       0.47427312       0.47320945 </v>
    <v>       0.33168777       0.38297232       0.49716537 </v>
    <v>       0.33171882       0.52009316       0.49717552 </v>
    <v>       0.62186763       0.38056859       0.50008701 </v>
    <v>       0.62188797       0.81263775       0.50002983 </v>
    <v>       0.50594850       0.53825646       0.46511209 </v>
   </varray>
  </structure>
  <varray name="primitive_index" >
   <v type="int" >        1 </v>
   <v type="int" >        2 </v>
   <v type="int" >        3 </v>
   <v type="int" >        4 </v>
   <v type="int" >        5 </v>
   <v type="int" >        6 </v>
   <v type="int" >        7 </v>
   <v type="int" >        8 </v>
   <v type="int" >        9 </v>
   <v type="int" >       10 </v>
   <v type="int" >       11 </v>
   <v type="int" >       12 </v>
   <v type="int" >       13 </v>
   <v type="int" >       14 </v>
   <v type="int" >       15 </v>
   <v type="int" >       16 </v>
   <v type="int" >       17 </v>
   <v type="int" >       18 </v>
   <v type="int" >       19 </v>
   <v type="int" >       20 </v>
   <v type="int" >       21 </v>
   <v type="int" >       22 </v>
   <v type="int" >       23 </v>
   <v type="int" >       24 </v>
   <v type="int" >       25 </v>
   <v type="int" >       26 </v>
   <v type="int" >       27 </v>
   <v type="int" >       28 </v>
   <v type="int" >       29 </v>
   <v type="int" >       30 </v>
   <v type="int" >       31 </v>
   <v type="int" >       32 </v>
   <v type="int" >       33 </v>
   <v type="int" >       34 </v>
   <v type="int" >       35 </v>
   <v type="int" >       36 </v>
   <v type="int" >       37 </v>
   <v type="int" >       38 </v>
   <v type="int" >       39 </v>
   <v type="int" >       40 </v>
   <v type="int" >       41 </v>
   <v type="int" >       42 </v>
   <v type="int" >       43 </v>
   <v type="int" >       44 </v>
   <v type="int" >       45 </v>
   <v type="int" >       46 </v>
   <v type="int" >       47 </v>
   <v type="int" >       48 </v>
   <v type="int" >       49 </v>
   <v type="int" >       50 </v>
   <v type="int" >       51 </v>
   <v type="int" >       52 </v>
   <v type="int" >       53 </v>
   <v type="int" >       54 </v>
   <v type="int" >       55 </v>
   <v type="int" >       56 </v>
   <v type="int" >       57 </v>
   <v type="int" >       58 </v>
   <v type="int" >       59 </v>
   <v type="int" >       60 </v>
   <v type="int" >       61 </v>
   <v type="int" >       62 </v>
   <v type="int" >       63 </v>
   <v type="int" >       64 </v>
   <v type="int" >       65 </v>
   <v type="int" >       66 </v>
   <v type="int" >       67 </v>
   <v type="int" >       68 </v>
   <v type="int" >       69 </v>
   <v type="int" >       70 </v>
   <v type="int" >       71 </v>
   <v type="int" >       72 </v>
   <v type="int" >       73 </v>
   <v type="int" >       74 </v>
   <v type="int" >       75 </v>
   <v type="int" >       76 </v>
   <v type="int" >       77 </v>
   <v type="int" >       78 </v>
   <v type="int" >       79 </v>
   <v type="int" >       80 </v>
   <v type="int" >       81 </v>
   <v type="int" >       82 </v>
   <v type="int" >       83 </v>
   <v type="int" >       84 </v>
   <v type="int" >       85 </v>
   <v type="int" >       86 </v>
   <v type="int" >       87 </v>
   <v type="int" >       88 </v>
   <v type="int" >       89 </v>
   <v type="int" >       90 </v>
   <v type="int" >       91 </v>
   <v type="int" >       92 </v>
   <v type="int" >       93 </v>
   <v type="int" >       94 </v>
   <v type="int" >       95 </v>
  </varray>
 </primitive_cell>
 <kpoints>
  <generation param="Gamma">
   <v type="int" name="divisions">       2        2        1 </v>
   <v name="usershift">      0.00000000       0.00000000       0.00000000 </v>
   <v name="genvec1">      0.50000000       0.00000000       0.00000000 </v>
   <v name="genvec2">      0.00000000       0.50000000       0.00000000 </v>
   <v name="genvec3">      0.00000000       0.00000000       1.00000000 </v>
   <v name="shift">      0.00000000       0.00000000       0.00000000 </v>
  </generation>
  <varray name="kpointlist" >
   <v>       0.00000000       0.00000000       0.00000000 </v>
   <v>       0.50000000       0.00000000       0.00000000 </v>
   <v>       0.00000000       0.50000000       0.00000000 </v>
   <v>       0.50000000       0.50000000       0.00000000 </v>
  </varray>
  <varray name="weights" >
   <v>       0.25000000 </v>
   <v>       0.25000000 </v>
   <v>       0.25000000 </v>
   <v>       0.25000000 </v>
  </varray>
 </kpoints>
 <parameters>
  <separator name="general" >
   <i type="string" name="SYSTEM">unknown system</i>
   <i type="logical" name="LCOMPAT"> F  </i>
  </separator>
  <separator name="electronic" >
   <i type="string" name="PREC">normal</i>
   <i name="ENMAX">    520.00000000</i>
   <i name="ENAUG">    644.87300000</i>
   <i name="EDIFF">      0.00000100</i>
   <i type="int" name="IALGO">    38</i>
   <i type="int" name="IWAVPR">    11</i>
   <i type="int" name="NBANDS">   265</i>
   <i type="int" name="NBANDSLOW">    -1</i>
   <i type="int" name="NBANDSHIGH">    -1</i>
   <i name="NELECT">    368.00000000</i>
   <i type="int" name="TURBO">     0</i>
   <i type="int" name="IRESTART">     0</i>
   <i type="int" name="NREBOOT">     0</i>
   <i type="int" name="NMIN">     0</i>
   <i name="EREF">      0.00000000</i>
   <separator name="electronic smearing" >
    <i type="int" name="ISMEAR">     0</i>
    <i name="SIGMA">      0.05000000</i>
    <i name="KSPACING">      0.50000000</i>
    <i type="logical" name="KGAMMA"> T  </i>
    <i type="logical" name="KBLOWUP"> T  </i>
   </separator>
   <separator name="electronic projectors" >
    <i type="logical" name="LREAL"> T  </i>
    <v name="ROPT">     -0.00050000     -0.00050000     -0.00050000     -0.00050000</v>
    <i type="int" name="LMAXPAW">  -100</i>
    <i type="int" name="LMAXMIX">     2</i>
    <i type="logical" name="NLSPLINE"> F  </i>
   </separator>
   <separator name="electronic startup" >
    <i type="int" name="ISTART">     0</i>
    <i type="int" name="ICHARG">     2</i>
    <i type="int" name="INIWAV">     1</i>
   </separator>
   <separator name="electronic spin" >
    <i type="int" name="ISPIN">     2</i>
    <i type="logical" name="LNONCOLLINEAR"> F  </i>
    <v name="MAGMOM">      0.60000000      0.60000000      0.60000000      0.60000000      0.60000000      0.60000000      0.60000000      0.60000000      0.60000000      0.60000000      0.60000000      0.60000000      0.60000000      0.60000000      0.60000000      0.60000000      0.60000000      0.60000000      0.60000000      0.60000000
      0.60000000      0.60000000      0.60000000      0.60000000      0.60000000      0.60000000      0.60000000      0.60000000      0.60000000      0.60000000      0.60000000      0.60000000      0.60000000      0.60000000      0.60000000      0.60000000      0.60000000      0.60000000      0.60000000      0.60000000
      0.60000000      0.60000000      0.60000000      0.60000000      0.60000000      0.60000000      0.60000000      0.60000000      0.60000000      0.60000000      0.60000000      0.60000000      0.60000000      0.60000000      0.60000000      0.60000000      0.60000000      0.60000000      0.60000000      0.60000000
      0.60000000      0.60000000      0.60000000      0.60000000      0.60000000      0.60000000      0.60000000      0.60000000      0.60000000      0.60000000      0.60000000      0.60000000      0.60000000      0.60000000      0.60000000      0.60000000      0.60000000      0.60000000      0.60000000      0.60000000
      0.60000000      0.60000000      0.60000000      0.60000000      0.60000000      0.60000000      0.60000000      0.60000000      0.60000000      0.60000000      0.60000000      0.60000000      0.60000000      0.60000000      0.60000000</v>
    <i name="NUPDOWN">     -1.00000000</i>
    <i type="logical" name="LSORBIT"> F  </i>
    <v name="SAXIS">      0.00000000      0.00000000      1.00000000</v>
    <i type="logical" name="LSPIRAL"> F  </i>
    <v name="QSPIRAL">      0.00000000      0.00000000      0.00000000</v>
    <i type="logical" name="LZEROZ"> F  </i>
   </separator>
   <separator name="electronic exchange-correlation" >
    <i type="logical" name="LASPH"> T  </i>
    <i type="logical" name="LMETAGGA"> F  </i>
   </separator>
   <separator name="electronic convergence" >
    <i type="int" name="NELM">   200</i>
    <i type="int" name="NELMDL">    -5</i>
    <i type="int" name="NELMIN">     2</i>
    <i name="ENINI">    520.00000000</i>
    <separator name="electronic convergence detail" >
     <i type="logical" name="LDIAG"> T  </i>
     <i type="logical" name="LSUBROT"> F  </i>
     <i name="WEIMIN">      0.00100000</i>
     <i name="EBREAK">      0.00000000</i>
     <i name="DEPER">      0.30000000</i>
     <i type="int" name="NRMM">     4</i>
     <i name="TIME">      0.40000000</i>
    </separator>
   </separator>
   <separator name="electronic mixer" >
    <i name="AMIX">      0.20000000</i>
    <i name="BMIX">      0.00010000</i>
    <i name="AMIN">      0.10000000</i>
    <i name="AMIX_MAG">      0.80000000</i>
    <i name="BMIX_MAG">      0.00010000</i>
    <separator name="electronic mixer details" >
     <i type="int" name="IMIX">     4</i>
     <i type="logical" name="MIXFIRST"> F  </i>
     <i type="int" name="MAXMIX">   -45</i>
     <i name="WC">    100.00000000</i>
     <i type="int" name="INIMIX">     1</i>
     <i type="int" name="MIXPRE">     1</i>
     <i type="int" name="MREMOVE">     5</i>
    </separator>
   </separator>
   <separator name="electronic dipolcorrection" >
    <i type="logical" name="LDIPOL"> F  </i>
    <i type="logical" name="LMONO"> F  </i>
    <i type="int" name="IDIPOL">     0</i>
    <i name="EPSILON">      1.00000000</i>
    <v name="DIPOL">   -100.00000000   -100.00000000   -100.00000000</v>
    <i name="EFIELD">      0.00000000</i>
   </separator>
  </separator>
  <separator name="grids" >
   <i type="int" name="NGX">    96</i>
   <i type="int" name="NGY">    96</i>
   <i type="int" name="NGZ">    84</i>
   <i type="int" name="NGXF">   192</i>
   <i type="int" name="NGYF">   192</i>
   <i type="int" name="NGZF">   168</i>
   <i type="logical" name="ADDGRID"> T  </i>
  </separator>
  <separator name="ionic" >
   <i type="int" name="NSW">  1000</i>
   <i type="int" name="IBRION">     3</i>
   <i type="int" name="MDALGO">     0</i>
   <i type="int" name="ISIF">     2</i>
   <i name="PSTRESS">      0.00000000</i>
   <i name="EDIFFG">     -0.03000000</i>
   <i type="int" name="NFREE">     0</i>
   <i name="POTIM">      0.50000000</i>
   <i name="SMASS">     -3.00000000</i>
   <i name="SCALEE">      1.00000000</i>
  </separator>
  <separator name="ionic md" >
   <i name="TEBEG">      0.00010000</i>
   <i name="TEEND">      0.00010000</i>
   <i type="int" name="NBLOCK">     1</i>
   <i type="int" name="KBLOCK">  1000</i>
   <i type="int" name="NPACO">   256</i>
   <i name="APACO">     10.00000000</i>
  </separator>
  <separator name="symmetry" >
   <i type="int" name="ISYM">     0</i>
   <i name="SYMPREC">      0.00001000</i>
  </separator>
  <separator name="dos" >
   <i type="int" name="LORBIT">     0</i>
   <v name="RWIGS">     -1.00000000     -1.00000000     -1.00000000     -1.00000000</v>
   <i type="int" name="NEDOS">   301</i>
   <i name="EMIN">     10.00000000</i>
   <i name="EMAX">    -10.00000000</i>
   <i name="EFERMI">      0.00000000</i>
  </separator>
  <separator name="writing" >
   <i type="int" name="NWRITE">     2</i>
   <i type="logical" name="LWAVE"> F  </i>
   <i type="logical" name="LDOWNSAMPLE"> F  </i>
   <i type="logical" name="LCHARG"> F  </i>
   <i type="logical" name="LPARD"> F  </i>
   <i type="logical" name="LVTOT"> F  </i>
   <i type="logical" name="LVHAR"> F  </i>
   <i type="logical" name="LELF"> F  </i>
   <i type="logical" name="LOPTICS"> F  </i>
   <v name="STM">      0.00000000      0.00000000      0.00000000      0.00000000      0.00000000      0.00000000      0.00000000</v>
  </separator>
  <separator name="performance" >
   <i type="int" name="NPAR">     5</i>
   <i type="int" name="NSIM">     4</i>
   <i type="int" name="NBLK">    -1</i>
   <i type="logical" name="LPLANE"> T  </i>
   <i type="logical" name="LSCALAPACK"> T  </i>
   <i type="logical" name="LSCAAWARE"> F  </i>
   <i type="logical" name="LSCALU"> F  </i>
   <i type="logical" name="LASYNC"> F  </i>
   <i type="logical" name="LORBITALREAL"> F  </i>
  </separator>
  <separator name="miscellaneous" >
   <i type="int" name="IDIOT">     3</i>
   <i type="int" name="PHON_NSTRUCT">    -1</i>
   <i type="logical" name="LMUSIC"> F  </i>
   <v name="POMASS">     12.01100000      1.00000000     14.00100000     16.00000000</v>
   <v name="DARWINR">      0.00000000      0.00000000      0.00000000      0.00000000</v>
   <v name="DARWINV">      1.00000000      1.00000000      1.00000000      1.00000000</v>
   <i type="logical" name="LCORR"> T  </i>
  </separator>
  <i type="logical" name="GGA_COMPAT"> T  </i>
  <i type="logical" name="LBERRY"> F  </i>
  <i type="int" name="ICORELEVEL">     0</i>
  <i type="logical" name="LDAU"> F  </i>
  <i type="int" name="I_CONSTRAINED_M">     0</i>
  <separator name="electronic exchange-correlation" >
   <i type="string" name="GGA">--</i>
   <i type="int" name="VOSKOWN">     0</i>
   <i type="logical" name="LHFCALC"> F  </i>
   <i type="string" name="PRECFOCK"></i>
   <i type="logical" name="LSYMGRAD"> F  </i>
   <i type="logical" name="LHFONE"> F  </i>
   <i type="logical" name="LRHFCALC"> F  </i>
   <i type="logical" name="LTHOMAS"> F  </i>
   <i type="logical" name="LMODELHF"> F  </i>
   <i type="logical" name="LFOCKACE"> F  </i>
   <i name="ENCUT4O">     -1.00000000</i>
   <i type="int" name="EXXOEP">     0</i>
   <i type="int" name="FOURORBIT">     0</i>
   <i name="AEXX">      0.00000000</i>
   <i name="HFALPHA">      0.00000000</i>
   <i name="MCALPHA">      0.00000000</i>
   <i name="ALDAX">      1.00000000</i>
   <i name="AGGAX">      1.00000000</i>
   <i name="ALDAC">      1.00000000</i>
   <i name="AGGAC">      1.00000000</i>
   <i type="int" name="NKREDX">     1</i>
   <i type="int" name="NKREDY">     1</i>
   <i type="int" name="NKREDZ">     1</i>
   <i type="logical" name="SHIFTRED"> F  </i>
   <i type="logical" name="ODDONLY"> F  </i>
   <i type="logical" name="EVENONLY"> F  </i>
   <i type="int" name="LMAXFOCK">     0</i>
   <i type="int" name="NMAXFOCKAE">     0</i>
   <i type="logical" name="LFOCKAEDFT"> F  </i>
   <i name="HFSCREEN">      0.00000000</i>
   <i name="HFSCREENC">      0.00000000</i>
   <i type="int" name="NBANDSGWLOW">     0</i>
  </separator>
  <separator name="vdW DFT" >
   <i type="logical" name="LUSE_VDW"> F  </i>
   <i type="int" name="IVDW_NL">     1</i>
   <i type="logical" name="LSPIN_VDW"> F  </i>
   <i name="Zab_VDW">     -0.84910000</i>
   <i name="PARAM1">      0.12340000</i>
   <i name="PARAM2">      1.00000000</i>
   <i name="PARAM3">      0.00000000</i>
  </separator>
  <separator name="model GW" >
   <i type="int" name="MODEL_GW">     0</i>
   <i name="MODEL_EPS0">     24.47295536</i>
   <i name="MODEL_ALPHA">      1.00000000</i>
  </separator>
  <separator name="linear response parameters" >
   <i type="logical" name="LEPSILON"> F  </i>
   <i type="logical" name="LRPA"> F  </i>
   <i type="logical" name="LNABLA"> F  </i>
   <i type="logical" name="LVEL"> F  </i>
   <i name="CSHIFT">      0.10000000</i>
   <i name="OMEGAMAX">     -1.00000000</i>
   <i name="DEG_THRESHOLD">      0.00200000</i>
   <i name="RTIME">     -0.10000000</i>
   <i name="WPLASMAI">      0.00000000</i>
   <v name="DFIELD">      0.00000000      0.00000000      0.00000000</v>
   <v name="WPLASMA">      0.00000000      0.00000000      0.00000000      0.00000000      0.00000000      0.00000000      0.00000000      0.00000000      0.00000000</v>
  </separator>
  <separator name="orbital magnetization" >
   <i type="logical" name="NUCIND"> F  </i>
   <v name="MAGPOS">      0.00000000      0.00000000      0.00000000</v>
   <i type="logical" name="LNICSALL"> T  </i>
   <i type="logical" name="ORBITALMAG"> F  </i>
   <i type="logical" name="LMAGBLOCH"> F  </i>
   <i type="logical" name="LCHIMAG"> F  </i>
   <i type="logical" name="LGAUGE"> T  </i>
   <i type="int" name="MAGATOM">     0</i>
   <v name="MAGDIPOL">      0.00000000      0.00000000      0.00000000</v>
   <v name="AVECCONST">      0.00000000      0.00000000      0.00000000</v>
  </separator>
  <separator name="response functions" >
   <i type="logical" name="LALL_IN_ONE"> F  </i>
   <i type="int" name="IALL_IN_ONE">    -1</i>
   <i type="int" name="NBANDS_WAVE">    -1</i>
   <i type="logical" name="LFINITE_TEMPERATURE"> F  </i>
   <i type="logical" name="LADDER"> F  </i>
   <i type="logical" name="LRPAFORCE"> F  </i>
   <i type="logical" name="LFXC"> F  </i>
   <i type="logical" name="LHARTREE"> T  </i>
   <i type="int" name="IBSE">     0</i>
   <v type="int" name="KPOINT">    -1     0     0     0</v>
   <i type="logical" name="LTCTC"> F  </i>
   <i type="logical" name="LTCTE"> F  </i>
   <i type="logical" name="LTETE"> F  </i>
   <i type="logical" name="LTRIPLET"> F  </i>
   <i type="logical" name="LFXCEPS"> F  </i>
   <i type="logical" name="LFXHEG"> F  </i>
   <i type="int" name="NATURALO">     2</i>
   <i type="logical" name="LHOLEGF"> F  </i>
   <i type="logical" name="L2ORDER"> F  </i>
   <i type="logical" name="LDMP1"> F  </i>
   <i type="logical" name="LMP2LT"> F  </i>
   <i type="logical" name="LSMP2LT"> F  </i>
   <i type="logical" name="LGWLF"> F  </i>
   <i name="ENCUTGW">     -1.60000002</i>
   <i name="ENCUTGWSOFT">     -1.60000002</i>
   <i name="ENCUTLF">     -1.00000000</i>
   <i type="logical" name="LESF_SPLINES"> F  </i>
   <i type="int" name="LMAXMP2">    -1</i>
   <i name="SCISSOR">      0.00000000</i>
   <i type="int" name="NOMEGA">     0</i>
   <i type="int" name="NOMEGAR">     0</i>
   <i type="int" name="NBANDSGW">    -1</i>
   <i type="int" name="NBANDSO">    -1</i>
   <i type="int" name="NBANDSV">    -1</i>
   <i type="int" name="NELMGW">     1</i>
   <i type="int" name="NELMHF">     1</i>
   <i type="int" name="DIM">     3</i>
   <i type="int" name="IESPILON">     4</i>
   <i type="int" name="ANTIRES">     0</i>
   <i name="OMEGAMAX">    -30.00000000</i>
   <i name="OMEGAMIN">    -30.00000000</i>
   <i name="OMEGATL">   -200.00000000</i>
   <i type="int" name="OMEGAGRID">     0</i>
   <i name="CSHIFT">     -0.10000000</i>
   <i type="logical" name="LSELFENERGY"> F  </i>
   <i type="logical" name="LSPECTRAL"> F  </i>
   <i type="logical" name="LSPECTRALGW"> F  </i>
   <i type="logical" name="LSINGLES"> F  </i>
   <i type="logical" name="LFERMIGW"> F  </i>
   <i type="logical" name="ODDONLYGW"> F  </i>
   <i type="logical" name="EVENONLYGW"> F  </i>
   <i type="int" name="NKREDLFX">     1</i>
   <i type="int" name="NKREDLFY">     1</i>
   <i type="int" name="NKREDLFZ">     1</i>
   <i type="int" name="MAXMEM">  2800</i>
   <i type="int" name="TELESCOPE">     0</i>
   <i type="int" name="NTAUPAR">    -1</i>
   <i type="int" name="NOMEGAPAR">    -1</i>
   <i name="DAMP_NEWTON">      0.80000001</i>
   <i name="LAMBDA">      1.00000000</i>
  </separator>
  <separator name="External order field" >
   <i name="OFIELD_KAPPA">      0.00000000</i>
   <v name="OFIELD_K">      0.00000000      0.00000000      0.00000000</v>
   <i name="OFIELD_Q6_NEAR">      0.00000000</i>
   <i name="OFIELD_Q6_FAR">      0.00000000</i>
   <i name="OFIELD_A">      0.00000000</i>
  </separator>
  <separator name="optional k-points parameters" >
   <i type="int" name="KPOINTS_OPT_MODE">     1</i>
   <i type="logical" name="LKPOINTS_OPT"> F  </i>
  </separator>
 </parameters>
 <atominfo>
  <atoms>      95 </atoms>
  <types>       4 </types>
  <array name="atoms" >
   <dimension dim="1">ion</dimension>
   <field type="string">element</field>
   <field type="int">atomtype</field>
   <set>
    <rc><c>C </c><c>   1</c></rc>
    <rc><c>C </c><c>   1</c></rc>
    <rc><c>C </c><c>   1</c></rc>
    <rc><c>C </c><c>   1</c></rc>
    <rc><c>C </c><c>   1</c></rc>
    <rc><c>C </c><c>   1</c></rc>
    <rc><c>C </c><c>   1</c></rc>
    <rc><c>C </c><c>   1</c></rc>
    <rc><c>C </c><c>   1</c></rc>
    <rc><c>C </c><c>   1</c></rc>
    <rc><c>C </c><c>   1</c></rc>
    <rc><c>C </c><c>   1</c></rc>
    <rc><c>C </c><c>   1</c></rc>
    <rc><c>C </c><c>   1</c></rc>
    <rc><c>C </c><c>   1</c></rc>
    <rc><c>C </c><c>   1</c></rc>
    <rc><c>C </c><c>   1</c></rc>
    <rc><c>C </c><c>   1</c></rc>
    <rc><c>C </c><c>   1</c></rc>
    <rc><c>C </c><c>   1</c></rc>
    <rc><c>C </c><c>   1</c></rc>
    <rc><c>C </c><c>   1</c></rc>
    <rc><c>C </c><c>   1</c></rc>
    <rc><c>C </c><c>   1</c></rc>
    <rc><c>C </c><c>   1</c></rc>
    <rc><c>C </c><c>   1</c></rc>
    <rc><c>C </c><c>   1</c></rc>
    <rc><c>C </c><c>   1</c></rc>
    <rc><c>C </c><c>   1</c></rc>
    <rc><c>C </c><c>   1</c></rc>
    <rc><c>C </c><c>   1</c></rc>
    <rc><c>C </c><c>   1</c></rc>
    <rc><c>C </c><c>   1</c></rc>
    <rc><c>C </c><c>   1</c></rc>
    <rc><c>C </c><c>   1</c></rc>
    <rc><c>C </c><c>   1</c></rc>
    <rc><c>C </c><c>   1</c></rc>
    <rc><c>C </c><c>   1</c></rc>
    <rc><c>C </c><c>   1</c></rc>
    <rc><c>C </c><c>   1</c></rc>
    <rc><c>C </c><c>   1</c></rc>
    <rc><c>C </c><c>   1</c></rc>
    <rc><c>C </c><c>   1</c></rc>
    <rc><c>C </c><c>   1</c></rc>
    <rc><c>C </c><c>   1</c></rc>
    <rc><c>C </c><c>   1</c></rc>
    <rc><c>C </c><c>   1</c></rc>
    <rc><c>C </c><c>   1</c></rc>
    <rc><c>C </c><c>   1</c></rc>
    <rc><c>C </c><c>   1</c></rc>
    <rc><c>C </c><c>   1</c></rc>
    <rc><c>C </c><c>   1</c></rc>
    <rc><c>C </c><c>   1</c></rc>
    <rc><c>C </c><c>   1</c></rc>
    <rc><c>C </c><c>   1</c></rc>
    <rc><c>C </c><c>   1</c></rc>
    <rc><c>C </c><c>   1</c></rc>
    <rc><c>C </c><c>   1</c></rc>
    <rc><c>C </c><c>   1</c></rc>
    <rc><c>C </c><c>   1</c></rc>
    <rc><c>C </c><c>   1</c></rc>
    <rc><c>C </c><c>   1</c></rc>
    <rc><c>C </c><c>   1</c></rc>
    <rc><c>C </c><c>   1</c></rc>
    <rc><c>C </c><c>   1</c></rc>
    <rc><c>C </c><c>   1</c></rc>
    <rc><c>C </c><c>   1</c></rc>
    <rc><c>C </c><c>   1</c></rc>
    <rc><c>C </c><c>   1</c></rc>
    <rc><c>C </c><c>   1</c></rc>
    <rc><c>C </c><c>   1</c></rc>
    <rc><c>C </c><c>   1</c></rc>
    <rc><c>C </c><c>   1</c></rc>
    <rc><c>C </c><c>   1</c></rc>
    <rc><c>C </c><c>   1</c></rc>
    <rc><c>C </c><c>   1</c></rc>
    <rc><c>C </c><c>   1</c></rc>
    <rc><c>C </c><c>   1</c></rc>
    <rc><c>C </c><c>   1</c></rc>
    <rc><c>C </c><c>   1</c></rc>
    <rc><c>C </c><c>   1</c></rc>
    <rc><c>C </c><c>   1</c></rc>
    <rc><c>C </c><c>   1</c></rc>
    <rc><c>C </c><c>   1</c></rc>
    <rc><c>H </c><c>   2</c></rc>
    <rc><c>H </c><c>   2</c></rc>
    <rc><c>H </c><c>   2</c></rc>
    <rc><c>H </c><c>   2</c></rc>
    <rc><c>H </c><c>   2</c></rc>
    <rc><c>H </c><c>   2</c></rc>
    <rc><c>N </c><c>   3</c></rc>
    <rc><c>N </c><c>   3</c></rc>
    <rc><c>N </c><c>   3</c></rc>
    <rc><c>N </c><c>   3</c></rc>
    <rc><c>O </c><c>   4</c></rc>
   </set>
  </array>
  <array name="atomtypes" >
   <dimension dim="1">type</dimension>
   <field type="int">atomspertype</field>
   <field type="string">element</field>
   <field>mass</field>
   <field>valence</field>
   <field type="string">pseudopotential</field>
   <set>
    <rc><c>  84</c><c>C </c><c>     12.01100000</c><c>      4.00000000</c><c>  PAW_PBE C 08Apr2002                   </c></rc>
    <rc><c>   6</c><c>H </c><c>      1.00000000</c><c>      1.00000000</c><c>  PAW_PBE H 15Jun2001                   </c></rc>
    <rc><c>   4</c><c>N </c><c>     14.00100000</c><c>      5.00000000</c><c>  PAW_PBE N 08Apr2002                   </c></rc>
    <rc><c>   1</c><c>O </c><c>     16.00000000</c><c>      6.00000000</c><c>  PAW_PBE O 08Apr2002                   </c></rc>
   </set>
  </array>
 </atominfo>
 <structure name="initialpos" >
  <crystal>
   <varray name="basis" >
    <v>      17.27103806       0.00000000       0.00000000 </v>
    <v>      -8.63551903      14.95715771       0.00000000 </v>
    <v>       0.00000000       0.00000000      15.00000000 </v>
   </varray>
   <i name="volume">   3874.88459904 </i>
   <varray name="rec_basis" >
    <v>       0.05790040       0.03342881       0.00000000 </v>
    <v>       0.00000000       0.06685762       0.00000000 </v>
    <v>       0.00000000       0.00000000       0.06666667 </v>
   </varray>
  </crystal>
  <varray name="positions" >
   <v>       0.00141753       0.00063915       0.50044754 </v>
   <v>       0.00088075       0.14309862       0.50021129 </v>
   <v>       0.00052951       0.28594095       0.50001714 </v>
   <v>       0.00088234       0.42912790       0.50005667 </v>
   <v>       0.00138679       0.57210329       0.50022108 </v>
   <v>       0.00177294       0.71496625       0.50031534 </v>
   <v>       0.00179697       0.85820543       0.50037396 </v>
   <v>       0.14520296       0.00181477       0.49993835 </v>
   <v>       0.14473581       0.14449245       0.49973499 </v>
   <v>       0.14285516       0.28592890       0.49939228 </v>
   <v>       0.14283546       0.42829458       0.49937027 </v>
   <v>       0.14473886       0.57158711       0.49956091 </v>
   <v>       0.14517786       0.71472179       0.49986330 </v>
   <v>       0.14510704       0.85823725       0.50002873 </v>
   <v>       0.28808246       0.00185670       0.49970067 </v>
   <v>       0.28836756       0.14654010       0.49925540 </v>
   <v>       0.28760998       0.29265323       0.49839788 </v>
   <v>       0.28539665       0.42838209       0.49783779 </v>
   <v>       0.28764758       0.56634035       0.49837938 </v>
   <v>       0.28838419       0.71324694       0.49922051 </v>
   <v>       0.28808365       0.85763623       0.49977509 </v>
   <v>       0.43061216       0.00099200       0.49969970 </v>
   <v>       0.43125546       0.14563786       0.49958412 </v>
   <v>       0.43048759       0.28723902       0.49954729 </v>
   <v>       0.43046854       0.71460116       0.49954152 </v>
   <v>       0.43129122       0.85701692       0.49958619 </v>
   <v>       0.57291970       0.00055243       0.49992703 </v>
   <v>       0.57291024       0.14372494       0.49996322 </v>
   <v>       0.57659165       0.29023460       0.50004784 </v>
   <v>       0.57661357       0.85769555       0.49998383 </v>
   <v>       0.71581153       0.00095795       0.50025940 </v>
   <v>       0.71564881       0.14347775       0.50022952 </v>
   <v>       0.71583442       0.28618661       0.50025885 </v>
   <v>       0.71185619       0.42567605       0.50006985 </v>
   <v>       0.71613893       0.57240259       0.49910705 </v>
   <v>       0.71615320       0.71505235       0.49906197 </v>
   <v>       0.71188703       0.85752340       0.50008384 </v>
   <v>       0.85819180       0.00024695       0.50051222 </v>
   <v>       0.85818204       0.14331208       0.50036680 </v>
   <v>       0.85818414       0.28618053       0.50028182 </v>
   <v>       0.85818252       0.42926392       0.50030758 </v>
   <v>       0.85740147       0.57151431       0.50031696 </v>
   <v>       0.85881580       0.71508439       0.50015707 </v>
   <v>       0.85743363       0.85725898       0.50035910 </v>
   <v>       0.04920448       0.09609034       0.50020036 </v>
   <v>       0.04773250       0.23810902       0.49989722 </v>
   <v>       0.04774534       0.38099295       0.49983850 </v>
   <v>       0.04919030       0.52445123       0.49998549 </v>
   <v>       0.04956148       0.66744333       0.50015812 </v>
   <v>       0.04945196       0.81040498       0.50024581 </v>
   <v>       0.04959688       0.95349185       0.50031433 </v>
   <v>       0.19281502       0.09725602       0.49959067 </v>
   <v>       0.19170057       0.23999965       0.49925988 </v>
   <v>       0.18975260       0.38056336       0.49903172 </v>
   <v>       0.19171822       0.52306515       0.49918842 </v>
   <v>       0.19280661       0.66691547       0.49946105 </v>
   <v>       0.19280111       0.81034071       0.49988983 </v>
   <v>       0.19281797       0.95382663       0.49987042 </v>
   <v>       0.33588731       0.09826655       0.49950011 </v>
   <v>       0.33690707       0.24310609       0.49891377 </v>
   <v>       0.33689254       0.66518842       0.49891430 </v>
   <v>       0.33588980       0.80903995       0.49952203 </v>
   <v>       0.33522207       0.95331712       0.49973340 </v>
   <v>       0.47792499       0.09650829       0.49972649 </v>
   <v>       0.47873270       0.24160811       0.49976119 </v>
   <v>       0.47874320       0.80848070       0.49970624 </v>
   <v>       0.47794245       0.95281804       0.49973197 </v>
   <v>       0.62022144       0.09578975       0.50004926 </v>
   <v>       0.62106051       0.23929984       0.50011141 </v>
   <v>       0.62107162       0.95310358       0.50005451 </v>
   <v>       0.76331553       0.09618557       0.50029904 </v>
   <v>       0.76333799       0.23844547       0.50029687 </v>
   <v>       0.76270178       0.38102695       0.50024015 </v>
   <v>       0.76086072       0.52396734       0.49993301 </v>
   <v>       0.76294793       0.66713306       0.49944283 </v>
   <v>       0.76088944       0.80823266       0.49991304 </v>
   <v>       0.76272401       0.95301271       0.50034103 </v>
   <v>       0.90563219       0.09528239       0.50042618 </v>
   <v>       0.90549646       0.23838940       0.50025811 </v>
   <v>       0.90563046       0.38166434       0.50025793 </v>
   <v>       0.90584933       0.52462968       0.50036153 </v>
   <v>       0.90589006       0.66703594       0.50034726 </v>
   <v>       0.90591509       0.81023447       0.50034437 </v>
   <v>       0.90588402       0.95259558       0.50056111 </v>
   <v>       0.46862532       0.35994729       0.50033624 </v>
   <v>       0.64322773       0.67731257       0.49768474 </v>
   <v>       0.64320911       0.53724088       0.49770184 </v>
   <v>       0.46855796       0.67997947       0.50034446 </v>
   <v>       0.46346191       0.55991659       0.47300226 </v>
   <v>       0.46284145       0.47427312       0.47320945 </v>
   <v>       0.33168777       0.38297232       0.49716537 </v>
   <v>       0.33171882       0.52009316       0.49717552 </v>
   <v>       0.62186763       0.38056859       0.50008701 </v>
   <v>       0.62188797       0.81263775       0.50002983 </v>
   <v>       0.50594850       0.53825646       0.46511209 </v>
  </varray>
  <varray name="selective"  type="logical" >
   <v type="logical" >  T  T  T </v>
   <v type="logical" >  T  T  T </v>
   <v type="logical" >  T  T  T </v>
   <v type="logical" >  T  T  T </v>
   <v type="logical" >  T  T  T </v>
   <v type="logical" >  T  T  T </v>
   <v type="logical" >  T  T  T </v>
   <v type="logical" >  T  T  T </v>
   <v type="logical" >  T  T  T </v>
   <v type="logical" >  T  T  T </v>
   <v type="logical" >  T  T  T </v>
   <v type="logical" >  T  T  T </v>
   <v type="logical" >  T  T  T </v>
   <v type="logical" >  T  T  T </v>
   <v type="logical" >  T  T  T </v>
   <v type="logical" >  T  T  T </v>
   <v type="logical" >  T  T  T </v>
   <v type="logical" >  T  T  T </v>
   <v type="logical" >  T  T  T </v>
   <v type="logical" >  T  T  T </v>
   <v type="logical" >  T  T  T </v>
   <v type="logical" >  T  T  T </v>
   <v type="logical" >  T  T  T </v>
   <v type="logical" >  T  T  T </v>
   <v type="logical" >  T  T  T </v>
   <v type="logical" >  T  T  T </v>
   <v type="logical" >  T  T  T </v>
   <v type="logical" >  T  T  T </v>
   <v type="logical" >  T  T  T </v>
   <v type="logical" >  T  T  T </v>
   <v type="logical" >  T  T  T </v>
   <v type="logical" >  T  T  T </v>
   <v type="logical" >  T  T  T </v>
   <v type="logical" >  T  T  T </v>
   <v type="logical" >  T  T  T </v>
   <v type="logical" >  T  T  T </v>
   <v type="logical" >  T  T  T </v>
   <v type="logical" >  T  T  T </v>
   <v type="logical" >  T  T  T </v>
   <v type="logical" >  T  T  T </v>
   <v type="logical" >  T  T  T </v>
   <v type="logical" >  T  T  T </v>
   <v type="logical" >  T  T  T </v>
   <v type="logical" >  T  T  T </v>
   <v type="logical" >  T  T  T </v>
   <v type="logical" >  T  T  T </v>
   <v type="logical" >  T  T  T </v>
   <v type="logical" >  T  T  T </v>
   <v type="logical" >  T  T  T </v>
   <v type="logical" >  T  T  T </v>
   <v type="logical" >  T  T  T </v>
   <v type="logical" >  T  T  T </v>
   <v type="logical" >  T  T  T </v>
   <v type="logical" >  T  T  T </v>
   <v type="logical" >  T  T  T </v>
   <v type="logical" >  T  T  T </v>
   <v type="logical" >  T  T  T </v>
   <v type="logical" >  T  T  T </v>
   <v type="logical" >  T  T  T </v>
   <v type="logical" >  T  T  T </v>
   <v type="logical" >  T  T  T </v>
   <v type="logical" >  T  T  T </v>
   <v type="logical" >  T  T  T </v>
   <v type="logical" >  T  T  T </v>
   <v type="logical" >  T  T  T </v>
   <v type="logical" >  T  T  T </v>
   <v type="logical" >  T  T  T </v>
   <v type="logical" >  T  T  T </v>
   <v type="logical" >  T  T  T </v>
   <v type="logical" >  T  T  T </v>
   <v type="logical" >  T  T  T </v>
   <v type="logical" >  T  T  T </v>
   <v type="logical" >  T  T  T </v>
   <v type="logical" >  T  T  T </v>
   <v type="logical" >  T  T  T </v>
   <v type="logical" >  T  T  T </v>
   <v type="logical" >  T  T  T </v>
   <v type="logical" >  T  T  T </v>
   <v type="logical" >  T  T  T </v>
   <v type="logical" >  T  T  T </v>
   <v type="logical" >  T  T  T </v>
   <v type="logical" >  T  T  T </v>
   <v type="logical" >  T  T  T </v>
   <v type="logical" >  T  T  T </v>
   <v type="logical" >  T  T  T </v>
   <v type="logical" >  T  T  T </v>
   <v type="logical" >  T  T  T </v>
   <v type="logical" >  T  T  T </v>
   <v type="logical" >  T  T  T </v>
   <v type="logical" >  T  T  T </v>
   <v type="logical" >  T  T  T </v>
   <v type="logical" >  T  T  T </v>
   <v type="logical" >  T  T  T </v>
   <v type="logical" >  T  T  T </v>
   <v type="logical" >  T  T  F </v>
  </varray>
  <nose>
   <v>      -3.00000000       0.00000000       0.00010000       0.00010000 </v>
  </nose>
 </structure>
 <calculation>
  <scstep>
   <time name="dav">   98.99   99.68</time>
   <time name="total">  105.25  105.98</time>
   <energy>
    <i name="alphaZ">    175.60570339 </i>
    <i name="ewald">  36594.71575799 </i>
    <i name="hartreedc"> -47004.97081887 </i>
    <i name="XCdc">   1231.30842708 </i>
    <i name="pawpsdc">  10290.17603344 </i>
    <i name="pawaedc"> -10344.35078173 </i>
    <i name="eentropy">     -0.03831925 </i>
    <i name="bandstr">  -1580.12348542 </i>
    <i name="atom">  13925.93113153 </i>
    <i name="e_fr_energy">   3288.25364815 </i>
    <i name="e_wo_entrp">   3288.29196740 </i>
    <i name="e_0_energy">   3288.27280778 </i>
   </energy>
  </scstep>
  <scstep>
   <time name="dav">  128.23  129.14</time>
   <time name="total">  128.23  129.14</time>
   <energy>
    <i name="e_fr_energy">   -232.60711356 </i>
    <i name="e_wo_entrp">   -232.60706244 </i>
    <i name="e_0_energy">   -232.60708800 </i>
   </energy>
  </scstep>
  <scstep>
   <time name="dav">  110.96  111.78</time>
   <time name="total">  110.97  111.82</time>
   <energy>
    <i name="e_fr_energy">   -853.16195700 </i>
    <i name="e_wo_entrp">   -853.16193633 </i>
    <i name="e_0_energy">   -853.16194667 </i>
   </energy>
  </scstep>
  <scstep>
   <time name="dav">  111.25  112.06</time>
   <time name="total">  111.25  112.07</time>
   <energy>
    <i name="e_fr_energy">   -875.25189455 </i>
    <i name="e_wo_entrp">   -875.25182503 </i>
    <i name="e_0_energy">   -875.25185979 </i>
   </energy>
  </scstep>
  <scstep>
   <time name="dav">  121.79  122.65</time>
   <time name="total">  129.66  130.60</time>
   <energy>
    <i name="e_fr_energy">   -875.90295301 </i>
    <i name="e_wo_entrp">   -875.90287764 </i>
    <i name="e_0_energy">   -875.90291533 </i>
   </energy>
  </scstep>
  <scstep>
   <time name="dav">  107.54  108.25</time>
   <time name="total">  122.22  123.04</time>
   <energy>
    <i name="e_fr_energy">   -859.55041510 </i>
    <i name="e_wo_entrp">   -859.55041292 </i>
    <i name="e_0_energy">   -859.55041401 </i>
   </energy>
  </scstep>
  <scstep>
   <time name="dav">  103.95  104.72</time>
   <time name="total">  118.64  119.52</time>
   <energy>
    <i name="e_fr_energy">   -838.47230522 </i>
    <i name="e_wo_entrp">   -838.47230520 </i>
    <i name="e_0_energy">   -838.47230521 </i>
   </energy>
  </scstep>
  <scstep>
   <time name="dav">  105.78  106.51</time>
   <time name="total">  120.41  121.25</time>
   <energy>
    <i name="e_fr_energy">   -833.74852543 </i>
    <i name="e_wo_entrp">   -833.74852543 </i>
    <i name="e_0_energy">   -833.74852543 </i>
   </energy>
  </scstep>
  <scstep>
   <time name="dav">  105.68  106.40</time>
   <time name="total">  120.21  121.03</time>
   <energy>
    <i name="e_fr_energy">   -833.76174120 </i>
    <i name="e_wo_entrp">   -833.76174120 </i>
    <i name="e_0_energy">   -833.76174120 </i>
   </energy>
  </scstep>
  <scstep>
   <time name="dav">  103.05  103.76</time>
   <time name="total">  117.47  118.28</time>
   <energy>
    <i name="e_fr_energy">   -833.62813433 </i>
    <i name="e_wo_entrp">   -833.62813433 </i>
    <i name="e_0_energy">   -833.62813433 </i>
   </energy>
  </scstep>
  <scstep>
   <time name="dav">  103.39  104.09</time>
   <time name="total">  117.80  118.61</time>
   <energy>
    <i name="e_fr_energy">   -833.60727687 </i>
    <i name="e_wo_entrp">   -833.60727687 </i>
    <i name="e_0_energy">   -833.60727687 </i>
   </energy>
  </scstep>
  <scstep>
   <time name="dav">  105.74  106.48</time>
   <time name="total">  120.16  121.03</time>
   <energy>
    <i name="e_fr_energy">   -833.60700099 </i>
    <i name="e_wo_entrp">   -833.60700099 </i>
    <i name="e_0_energy">   -833.60700099 </i>
   </energy>
  </scstep>
  <scstep>
   <time name="dav">  108.54  109.28</time>
   <time name="total">  123.05  123.93</time>
   <energy>
    <i name="e_fr_energy">   -833.60679907 </i>
    <i name="e_wo_entrp">   -833.60679907 </i>
    <i name="e_0_energy">   -833.60679907 </i>
   </energy>
  </scstep>
  <scstep>
   <time name="dav">  107.93  108.66</time>
   <time name="total">  122.54  123.37</time>
   <energy>
    <i name="e_fr_energy">   -833.60687167 </i>
    <i name="e_wo_entrp">   -833.60687167 </i>
    <i name="e_0_energy">   -833.60687167 </i>
   </energy>
  </scstep>
  <scstep>
   <time name="dav">  102.11  102.80</time>
   <time name="total">  116.60  117.41</time>
   <energy>
    <i name="e_fr_energy">   -833.60691259 </i>
    <i name="e_wo_entrp">   -833.60691259 </i>
    <i name="e_0_energy">   -833.60691259 </i>
   </energy>
  </scstep>
  <scstep>
   <time name="dav">  104.19  104.92</time>
   <time name="total">  118.80  119.64</time>
   <energy>
    <i name="e_fr_energy">   -833.60691750 </i>
    <i name="e_wo_entrp">   -833.60691750 </i>
    <i name="e_0_energy">   -833.60691750 </i>
   </energy>
  </scstep>
  <scstep>
   <time name="dav">  108.85  109.60</time>
   <time name="total">  116.05  116.86</time>
   <energy>
    <i name="alphaZ">    175.60570339 </i>
    <i name="ewald">  36594.71575799 </i>
    <i name="hartreedc"> -48465.10836954 </i>
    <i name="XCdc">   1280.22161745 </i>
    <i name="pawpsdc">  37175.98104641 </i>
    <i name="pawaedc"> -37241.02916046 </i>
    <i name="eentropy">     -0.00000000 </i>
    <i name="bandstr">  -4279.92464334 </i>
    <i name="atom">  13925.93113153 </i>
    <i name="e_fr_energy">   -833.60691658 </i>
    <i name="e_wo_entrp">   -833.60691658 </i>
    <i name="e_0_energy">   -833.60691658 </i>
   </energy>
  </scstep>
  <structure>
   <crystal>
    <varray name="basis" >
     <v>      17.27103806       0.00000000       0.00000000 </v>
     <v>      -8.63551903      14.95715771       0.00000000 </v>
     <v>       0.00000000       0.00000000      15.00000000 </v>
    </varray>
    <i name="volume">   3874.88459904 </i>
    <varray name="rec_basis" >
     <v>       0.05790040       0.03342881       0.00000000 </v>
     <v>       0.00000000       0.06685762       0.00000000 </v>
     <v>       0.00000000       0.00000000       0.06666667 </v>
    </varray>
   </crystal>
   <varray name="positions" >
    <v>       0.00141753       0.00063915       0.50044754 </v>
    <v>       0.00088075       0.14309862       0.50021129 </v>
    <v>       0.00052951       0.28594095       0.50001714 </v>
    <v>       0.00088234       0.42912790       0.50005667 </v>
    <v>       0.00138679       0.57210329       0.50022108 </v>
    <v>       0.00177294       0.71496625       0.50031534 </v>
    <v>       0.00179697       0.85820543       0.50037396 </v>
    <v>       0.14520296       0.00181477       0.49993835 </v>
    <v>       0.14473581       0.14449245       0.49973499 </v>
    <v>       0.14285516       0.28592890       0.49939228 </v>
    <v>       0.14283546       0.42829458       0.49937027 </v>
    <v>       0.14473886       0.57158711       0.49956091 </v>
    <v>       0.14517786       0.71472179       0.49986330 </v>
    <v>       0.14510704       0.85823725       0.50002873 </v>
    <v>       0.28808246       0.00185670       0.49970067 </v>
    <v>       0.28836756       0.14654010       0.49925540 </v>
    <v>       0.28760998       0.29265323       0.49839788 </v>
    <v>       0.28539665       0.42838209       0.49783779 </v>
    <v>       0.28764758       0.56634035       0.49837938 </v>
    <v>       0.28838419       0.71324694       0.49922051 </v>
    <v>       0.28808365       0.85763623       0.49977509 </v>
    <v>       0.43061216       0.00099200       0.49969970 </v>
    <v>       0.43125546       0.14563786       0.49958412 </v>
    <v>       0.43048759       0.28723902       0.49954729 </v>
    <v>       0.43046854       0.71460116       0.49954152 </v>
    <v>       0.43129122       0.85701692       0.49958619 </v>
    <v>       0.57291970       0.00055243       0.49992703 </v>
    <v>       0.57291024       0.14372494       0.49996322 </v>
    <v>       0.57659165       0.29023460       0.50004784 </v>
    <v>       0.57661357       0.85769555       0.49998383 </v>
    <v>       0.71581153       0.00095795       0.50025940 </v>
    <v>       0.71564881       0.14347775       0.50022952 </v>
    <v>       0.71583442       0.28618661       0.50025885 </v>
    <v>       0.71185619       0.42567605       0.50006985 </v>
    <v>       0.71613893       0.57240259       0.49910705 </v>
    <v>       0.71615320       0.71505235       0.49906197 </v>
    <v>       0.71188703       0.85752340       0.50008384 </v>
    <v>       0.85819180       0.00024695       0.50051222 </v>
    <v>       0.85818204       0.14331208       0.50036680 </v>
    <v>       0.85818414       0.28618053       0.50028182 </v>
    <v>       0.85818252       0.42926392       0.50030758 </v>
    <v>       0.85740147       0.57151431       0.50031696 </v>
    <v>       0.85881580       0.71508439       0.50015707 </v>
    <v>       0.85743363       0.85725898       0.50035910 </v>
    <v>       0.04920448       0.09609034       0.50020036 </v>
    <v>       0.04773250       0.23810902       0.49989722 </v>
    <v>       0.04774534       0.38099295       0.49983850 </v>
    <v>       0.04919030       0.52445123       0.49998549 </v>
    <v>       0.04956148       0.66744333       0.50015812 </v>
    <v>       0.04945196       0.81040498       0.50024581 </v>
    <v>       0.04959688       0.95349185       0.50031433 </v>
    <v>       0.19281502       0.09725602       0.49959067 </v>
    <v>       0.19170057       0.23999965       0.49925988 </v>
    <v>       0.18975260       0.38056336       0.49903172 </v>
    <v>       0.19171822       0.52306515       0.49918842 </v>
    <v>       0.19280661       0.66691547       0.49946105 </v>
    <v>       0.19280111       0.81034071       0.49988983 </v>
    <v>       0.19281797       0.95382663       0.49987042 </v>
    <v>       0.33588731       0.09826655       0.49950011 </v>
    <v>       0.33690707       0.24310609       0.49891377 </v>
    <v>       0.33689254       0.66518842       0.49891430 </v>
    <v>       0.33588980       0.80903995       0.49952203 </v>
    <v>       0.33522207       0.95331712       0.49973340 </v>
    <v>       0.47792499       0.09650829       0.49972649 </v>
    <v>       0.47873270       0.24160811       0.49976119 </v>
    <v>       0.47874320       0.80848070       0.49970624 </v>
    <v>       0.47794245       0.95281804       0.49973197 </v>
    <v>       0.62022144       0.09578975       0.50004926 </v>
    <v>       0.62106051       0.23929984       0.50011141 </v>
    <v>       0.62107162       0.95310358       0.50005451 </v>
    <v>       0.76331553       0.09618557       0.50029904 </v>
    <v>       0.76333799       0.23844547       0.50029687 </v>
    <v>       0.76270178       0.38102695       0.50024015 </v>
    <v>       0.76086072       0.52396734       0.49993301 </v>
    <v>       0.76294793       0.66713306       0.49944283 </v>
    <v>       0.76088944       0.80823266       0.49991304 </v>
    <v>       0.76272401       0.95301271       0.50034103 </v>
    <v>       0.90563219       0.09528239       0.50042618 </v>
    <v>       0.90549646       0.23838940       0.50025811 </v>
    <v>       0.90563046       0.38166434       0.50025793 </v>
    <v>       0.90584933       0.52462968       0.50036153 </v>
    <v>       0.90589006       0.66703594       0.50034726 </v>
    <v>       0.90591509       0.81023447       0.50034437 </v>
    <v>       0.90588402       0.95259558       0.50056111 </v>
    <v>       0.46862532       0.35994729       0.50033624 </v>
    <v>       0.64322773       0.67731257       0.49768474 </v>
    <v>       0.64320911       0.53724088       0.49770184 </v>
    <v>       0.46855796       0.67997947       0.50034446 </v>
    <v>       0.46346191       0.55991659       0.47300226 </v>
    <v>       0.46284145       0.47427312       0.47320945 </v>
    <v>       0.33168777       0.38297232       0.49716537 </v>
    <v>       0.33171882       0.52009316       0.49717552 </v>
    <v>       0.62186763       0.38056859       0.50008701 </v>
    <v>       0.62188797       0.81263775       0.50002983 </v>
    <v>       0.50594850       0.53825646       0.46511209 </v>
   </varray>
  </structure>
  <varray name="forces" >
   <v>      -0.00086781      -0.00033137       0.00015441 </v>
   <v>      -0.00077521      -0.00023317       0.00002079 </v>
   <v>      -0.00133485       0.00291432       0.00087541 </v>
   <v>      -0.00017798       0.00098356       0.00009221 </v>
   <v>       0.00676619      -0.00109455      -0.00166354 </v>
   <v>       0.00512515      -0.00086671      -0.00064867 </v>
   <v>       0.00175748       0.00058387       0.00106248 </v>
   <v>      -0.00104778      -0.00079784      -0.00024847 </v>
   <v>      -0.00068693      -0.00012633       0.00010625 </v>
   <v>      -0.00071219       0.00089476      -0.00002706 </v>
   <v>      -0.00105126       0.00130242       0.00023024 </v>
   <v>      -0.00061167      -0.00057295       0.00000131 </v>
   <v>      -0.00002579      -0.00114768      -0.00022727 </v>
   <v>       0.00123823      -0.00298655       0.00058882 </v>
   <v>      -0.00121186      -0.00257916      -0.00068647 </v>
   <v>      -0.00141762       0.00033132      -0.00096868 </v>
   <v>      -0.00048039      -0.00024021      -0.00007861 </v>
   <v>      -0.00056981       0.00036793      -0.00018558 </v>
   <v>      -0.00193573      -0.00031530       0.00106494 </v>
   <v>      -0.00153767      -0.00085577       0.00032826 </v>
   <v>      -0.00107598      -0.00344807      -0.00010741 </v>
   <v>      -0.00184688      -0.00227003      -0.00058249 </v>
   <v>      -0.00089345      -0.00036100      -0.00045049 </v>
   <v>      -0.00078882      -0.00100118       0.00062701 </v>
   <v>      -0.00183966      -0.00016629       0.00085739 </v>
   <v>      -0.00277014      -0.00270004      -0.00045954 </v>
   <v>      -0.00075187      -0.00029331      -0.00060955 </v>
   <v>      -0.00034377      -0.00036152      -0.00013457 </v>
   <v>      -0.00028375      -0.00076619      -0.00001842 </v>
   <v>      -0.00107182      -0.00010171      -0.00062282 </v>
   <v>      -0.00117407      -0.00025531      -0.00062265 </v>
   <v>      -0.00088466      -0.00047604      -0.00054031 </v>
   <v>      -0.00025368      -0.00085760      -0.00032050 </v>
   <v>       0.00053314      -0.00152517      -0.00030140 </v>
   <v>       0.00100154      -0.00106032      -0.00122053 </v>
   <v>      -0.00052647       0.00061941      -0.00189114 </v>
   <v>       0.00023525       0.00181496       0.00059092 </v>
   <v>      -0.00103903      -0.00037409      -0.00009609 </v>
   <v>      -0.00147088      -0.00040194      -0.00040113 </v>
   <v>      -0.00106242      -0.00000271       0.00054125 </v>
   <v>       0.00129569      -0.00093079      -0.00029826 </v>
   <v>       0.00655836      -0.00582644       0.00181859 </v>
   <v>       0.00085164       0.00009523      -0.00067555 </v>
   <v>      -0.00105413       0.00178945      -0.00150394 </v>
   <v>      -0.00073045      -0.00012661       0.00017880 </v>
   <v>       0.00002251      -0.00094554      -0.00007112 </v>
   <v>      -0.00038173      -0.00364018      -0.00068055 </v>
   <v>      -0.00226217      -0.00035090       0.00003110 </v>
   <v>      -0.00351379       0.00088910      -0.00057881 </v>
   <v>      -0.00286225       0.00034036      -0.00075955 </v>
   <v>      -0.00111593      -0.00057379      -0.00002339 </v>
   <v>      -0.00042073      -0.00027437      -0.00003814 </v>
   <v>      -0.00022580      -0.00002463      -0.00004595 </v>
   <v>       0.00224225      -0.00115638       0.00086889 </v>
   <v>       0.00100559      -0.00074026       0.00008032 </v>
   <v>      -0.00002493       0.00006924      -0.00002482 </v>
   <v>      -0.00055449       0.00128707       0.00019093 </v>
   <v>      -0.00080469       0.00125053      -0.00056968 </v>
   <v>      -0.00021134      -0.00032241      -0.00049026 </v>
   <v>      -0.00028173      -0.00080385       0.00026807 </v>
   <v>      -0.00007143       0.00017029       0.00062530 </v>
   <v>       0.00070529       0.00101719       0.00030302 </v>
   <v>       0.00040929       0.00809972      -0.00023560 </v>
   <v>      -0.00124813      -0.00026770      -0.00039328 </v>
   <v>      -0.00082683      -0.00078179      -0.00001905 </v>
   <v>      -0.00073751       0.00009581       0.00013861 </v>
   <v>      -0.00106890       0.00117287      -0.00045252 </v>
   <v>      -0.00110459      -0.00035126      -0.00049163 </v>
   <v>      -0.00115511      -0.00028329      -0.00014521 </v>
   <v>      -0.00088591      -0.00021591      -0.00051687 </v>
   <v>       0.00006325       0.00014734      -0.00066565 </v>
   <v>      -0.00012703      -0.00014637      -0.00018266 </v>
   <v>      -0.00174687      -0.00015128      -0.00044687 </v>
   <v>      -0.00366915       0.00140682      -0.00145508 </v>
   <v>      -0.00013966      -0.00066619      -0.00153025 </v>
   <v>      -0.00055139      -0.00165300      -0.00108046 </v>
   <v>      -0.00060879      -0.00028244      -0.00038085 </v>
   <v>      -0.00012118       0.00013280      -0.00014602 </v>
   <v>       0.00020077      -0.00047638      -0.00014218 </v>
   <v>      -0.00124575      -0.00084838      -0.00003851 </v>
   <v>      -0.00993762       0.00161067      -0.00038385 </v>
   <v>      -0.00483108       0.00042707       0.00067241 </v>
   <v>      -0.00176797      -0.00312116       0.00020112 </v>
   <v>      -0.00085954      -0.00123298       0.00003184 </v>
   <v>      -0.00071237      -0.00083135       0.00155877 </v>
   <v>       0.00015439      -0.00086903      -0.00214981 </v>
   <v>      -0.00045738      -0.00000202      -0.00140146 </v>
   <v>      -0.00111579      -0.00004226       0.00161229 </v>
   <v>       0.01823638       0.00975081       0.00880943 </v>
   <v>       0.01586821       0.00880540       0.00962090 </v>
   <v>       0.00057672       0.00023366      -0.00023962 </v>
   <v>       0.00120242      -0.00004925      -0.00000018 </v>
   <v>      -0.00047157      -0.00032921      -0.00009853 </v>
   <v>      -0.00076052       0.00019450      -0.00108580 </v>
   <v>       0.01713838       0.00808899      -0.00159672 </v>
  </varray>
  <varray name="stress" >
   <v>      -5.95998123       1.81188298      -0.01428971 </v>
   <v>       1.81188290      -8.09112745      -0.00779941 </v>
   <v>      -0.01428944      -0.00779927      -0.27571702 </v>
  </varray>
  <energy>
   <i name="e_fr_energy">   -841.24333003 </i>
   <i name="e_wo_entrp">   -841.24333003 </i>
   <i name="e_0_energy">   -841.24333003 </i>
  </energy>
  <time name="totalsc"> 2274.45 2290.38</time>
  <eigenvalues>
   <array>
    <dimension dim="1">band</dimension>
    <dimension dim="2">kpoint</dimension>
    <dimension dim="3">spin</dimension>
    <field>eigene</field>
    <field>occ</field>
    <set>
     <set comment="spin 1">
      <set comment="kpoint 1">
       <r>  -22.7350    1.0000 </r>
       <r>  -22.4127    1.0000 </r>
       <r>  -22.3524    1.0000 </r>
       <r>  -22.1215    1.0000 </r>
       <r>  -21.7734    1.0000 </r>
       <r>  -21.6817    1.0000 </r>
       <r>  -21.5959    1.0000 </r>
       <r>  -21.4660    1.0000 </r>
       <r>  -21.2438    1.0000 </r>
       <r>  -21.0629    1.0000 </r>
       <r>  -20.7975    1.0000 </r>
       <r>  -20.5890    1.0000 </r>
       <r>  -20.4572    1.0000 </r>
       <r>  -20.4514    1.0000 </r>
       <r>  -20.3343    1.0000 </r>
       <r>  -20.3304    1.0000 </r>
       <r>  -20.1115    1.0000 </r>
       <r>  -20.0382    1.0000 </r>
       <r>  -19.8114    1.0000 </r>
       <r>  -19.3162    1.0000 </r>
       <r>  -19.2872    1.0000 </r>
       <r>  -18.8707    1.0000 </r>
       <r>  -18.8648    1.0000 </r>
       <r>  -18.7792    1.0000 </r>
       <r>  -18.7733    1.0000 </r>
       <r>  -18.7460    1.0000 </r>
       <r>  -18.7254    1.0000 </r>
       <r>  -18.4591    1.0000 </r>
       <r>  -18.4205    1.0000 </r>
       <r>  -18.3038    1.0000 </r>
       <r>  -18.0620    1.0000 </r>
       <r>  -17.9675    1.0000 </r>
       <r>  -17.8847    1.0000 </r>
       <r>  -17.8466    1.0000 </r>
       <r>  -17.5433    1.0000 </r>
       <r>  -17.0646    1.0000 </r>
       <r>  -16.9317    1.0000 </r>
       <r>  -16.6898    1.0000 </r>
       <r>  -16.6485    1.0000 </r>
       <r>  -16.6329    1.0000 </r>
       <r>  -16.5740    1.0000 </r>
       <r>  -16.5673    1.0000 </r>
       <r>  -16.5607    1.0000 </r>
       <r>  -16.5366    1.0000 </r>
       <r>  -16.5326    1.0000 </r>
       <r>  -15.7096    1.0000 </r>
       <r>  -15.5894    1.0000 </r>
       <r>  -15.5333    1.0000 </r>
       <r>  -15.3141    1.0000 </r>
       <r>  -15.2325    1.0000 </r>
       <r>  -15.1834    1.0000 </r>
       <r>  -14.8850    1.0000 </r>
       <r>  -14.7454    1.0000 </r>
       <r>  -14.6798    1.0000 </r>
       <r>  -14.5822    1.0000 </r>
       <r>  -14.5278    1.0000 </r>
       <r>  -14.4103    1.0000 </r>
       <r>  -14.3240    1.0000 </r>
       <r>  -14.2083    1.0000 </r>
       <r>  -13.9645    1.0000 </r>
       <r>  -13.7265    1.0000 </r>
       <r>  -13.4261    1.0000 </r>
       <r>  -13.3298    1.0000 </r>
       <r>  -12.9994    1.0000 </r>
       <r>  -12.9584    1.0000 </r>
       <r>  -12.7812    1.0000 </r>
       <r>  -12.7702    1.0000 </r>
       <r>  -12.6853    1.0000 </r>
       <r>  -12.6794    1.0000 </r>
       <r>  -12.6220    1.0000 </r>
       <r>  -12.5986    1.0000 </r>
       <r>  -12.4841    1.0000 </r>
       <r>  -12.4474    1.0000 </r>
       <r>  -12.4117    1.0000 </r>
       <r>  -12.3818    1.0000 </r>
       <r>  -11.9620    1.0000 </r>
       <r>  -11.8312    1.0000 </r>
       <r>  -11.7482    1.0000 </r>
       <r>  -11.5620    1.0000 </r>
       <r>  -11.4164    1.0000 </r>
       <r>  -11.2600    1.0000 </r>
       <r>  -11.0468    1.0000 </r>
       <r>  -10.7634    1.0000 </r>
       <r>  -10.5837    1.0000 </r>
       <r>  -10.4684    1.0000 </r>
       <r>  -10.4554    1.0000 </r>
       <r>  -10.4181    1.0000 </r>
       <r>  -10.3029    1.0000 </r>
       <r>  -10.2474    1.0000 </r>
       <r>  -10.2115    1.0000 </r>
       <r>  -10.1290    1.0000 </r>
       <r>  -10.1258    1.0000 </r>
       <r>  -10.0712    1.0000 </r>
       <r>  -10.0704    1.0000 </r>
       <r>   -9.9361    1.0000 </r>
       <r>   -9.8995    1.0000 </r>
       <r>   -9.8827    1.0000 </r>
       <r>   -9.8608    1.0000 </r>
       <r>   -9.7877    1.0000 </r>
       <r>   -9.7357    1.0000 </r>
       <r>   -9.7001    1.0000 </r>
       <r>   -9.6427    1.0000 </r>
       <r>   -9.6193    1.0000 </r>
       <r>   -9.6183    1.0000 </r>
       <r>   -9.6161    1.0000 </r>
       <r>   -9.6088    1.0000 </r>
       <r>   -9.5604    1.0000 </r>
       <r>   -9.4689    1.0000 </r>
       <r>   -9.4115    1.0000 </r>
       <r>   -9.4078    1.0000 </r>
       <r>   -9.4041    1.0000 </r>
       <r>   -9.1917    1.0000 </r>
       <r>   -9.0159    1.0000 </r>
       <r>   -8.9862    1.0000 </r>
       <r>   -8.8997    1.0000 </r>
       <r>   -8.8728    1.0000 </r>
       <r>   -8.6923    1.0000 </r>
       <r>   -8.6882    1.0000 </r>
       <r>   -8.6438    1.0000 </r>
       <r>   -8.5151    1.0000 </r>
       <r>   -8.5021    1.0000 </r>
       <r>   -8.4970    1.0000 </r>
       <r>   -8.3959    1.0000 </r>
       <r>   -8.3649    1.0000 </r>
       <r>   -8.3453    1.0000 </r>
       <r>   -8.2980    1.0000 </r>
       <r>   -8.2478    1.0000 </r>
       <r>   -8.2136    1.0000 </r>
       <r>   -8.1575    1.0000 </r>
       <r>   -8.1430    1.0000 </r>
       <r>   -8.1317    1.0000 </r>
       <r>   -7.9977    1.0000 </r>
       <r>   -7.9787    1.0000 </r>
       <r>   -7.9328    1.0000 </r>
       <r>   -7.8704    1.0000 </r>
       <r>   -7.8365    1.0000 </r>
       <r>   -7.8333    1.0000 </r>
       <r>   -7.7824    1.0000 </r>
       <r>   -7.6752    1.0000 </r>
       <r>   -7.5652    1.0000 </r>
       <r>   -7.5288    1.0000 </r>
       <r>   -7.5274    1.0000 </r>
       <r>   -7.3084    1.0000 </r>
       <r>   -7.2346    1.0000 </r>
       <r>   -7.1892    1.0000 </r>
       <r>   -7.1552    1.0000 </r>
       <r>   -6.8105    1.0000 </r>
       <r>   -6.7233    1.0000 </r>
       <r>   -6.7034    1.0000 </r>
       <r>   -6.6899    1.0000 </r>
       <r>   -6.5520    1.0000 </r>
       <r>   -6.4828    1.0000 </r>
       <r>   -6.4175    1.0000 </r>
       <r>   -6.3890    1.0000 </r>
       <r>   -6.3870    1.0000 </r>
       <r>   -6.3775    1.0000 </r>
       <r>   -6.3668    1.0000 </r>
       <r>   -6.3214    1.0000 </r>
       <r>   -6.3144    1.0000 </r>
       <r>   -6.0238    1.0000 </r>
       <r>   -5.9653    1.0000 </r>
       <r>   -5.9423    1.0000 </r>
       <r>   -5.9181    1.0000 </r>
       <r>   -5.8565    1.0000 </r>
       <r>   -5.7075    1.0000 </r>
       <r>   -5.6333    1.0000 </r>
       <r>   -5.5317    1.0000 </r>
       <r>   -5.3003    1.0000 </r>
       <r>   -5.1072    1.0000 </r>
       <r>   -5.1035    1.0000 </r>
       <r>   -4.8539    1.0000 </r>
       <r>   -4.6017    1.0000 </r>
       <r>   -4.5119    1.0000 </r>
       <r>   -4.4832    1.0000 </r>
       <r>   -4.4709    1.0000 </r>
       <r>   -4.4241    1.0000 </r>
       <r>   -4.3196    1.0000 </r>
       <r>   -4.3065    1.0000 </r>
       <r>   -4.2411    1.0000 </r>
       <r>   -4.2203    1.0000 </r>
       <r>   -4.1496    1.0000 </r>
       <r>   -4.0929    1.0000 </r>
       <r>   -4.0587    1.0000 </r>
       <r>   -3.6434    1.0000 </r>
       <r>   -2.0964    0.0000 </r>
       <r>   -1.5589    0.0000 </r>
       <r>   -1.4872    0.0000 </r>
       <r>   -1.1897    0.0000 </r>
       <r>   -1.1125    0.0000 </r>
       <r>   -1.0923    0.0000 </r>
       <r>   -1.0723    0.0000 </r>
       <r>   -1.0408    0.0000 </r>
       <r>   -0.9895    0.0000 </r>
       <r>   -0.7659    0.0000 </r>
       <r>   -0.5729    0.0000 </r>
       <r>   -0.4189    0.0000 </r>
       <r>   -0.2796    0.0000 </r>
       <r>   -0.0910    0.0000 </r>
       <r>    0.0451    0.0000 </r>
       <r>    0.4155    0.0000 </r>
       <r>    0.5312    0.0000 </r>
       <r>    0.6459    0.0000 </r>
       <r>    0.8148    0.0000 </r>
       <r>    0.9915    0.0000 </r>
       <r>    1.1608    0.0000 </r>
       <r>    1.2901    0.0000 </r>
       <r>    1.3075    0.0000 </r>
       <r>    1.3610    0.0000 </r>
       <r>    1.3740    0.0000 </r>
       <r>    1.3743    0.0000 </r>
       <r>    1.3842    0.0000 </r>
       <r>    1.4064    0.0000 </r>
       <r>    1.4067    0.0000 </r>
       <r>    1.4600    0.0000 </r>
       <r>    1.5292    0.0000 </r>
       <r>    1.5820    0.0000 </r>
       <r>    1.7192    0.0000 </r>
       <r>    1.8050    0.0000 </r>
       <r>    2.2434    0.0000 </r>
       <r>    2.2860    0.0000 </r>
       <r>    2.3018    0.0000 </r>
       <r>    2.3304    0.0000 </r>
       <r>    2.3311    0.0000 </r>
       <r>    2.4127    0.0000 </r>
       <r>    2.4561    0.0000 </r>
       <r>    2.5118    0.0000 </r>
       <r>    2.7350    0.0000 </r>
       <r>    2.7583    0.0000 </r>
       <r>    2.7850    0.0000 </r>
       <r>    2.7899    0.0000 </r>
       <r>    2.8002    0.0000 </r>
       <r>    2.8237    0.0000 </r>
       <r>    2.8398    0.0000 </r>
       <r>    2.8534    0.0000 </r>
       <r>    2.8766    0.0000 </r>
       <r>    2.8767    0.0000 </r>
       <r>    2.9306    0.0000 </r>
       <r>    2.9569    0.0000 </r>
       <r>    2.9632    0.0000 </r>
       <r>    3.1324    0.0000 </r>
       <r>    3.2832    0.0000 </r>
       <r>    3.2880    0.0000 </r>
       <r>    3.4142    0.0000 </r>
       <r>    3.4439    0.0000 </r>
       <r>    3.4587    0.0000 </r>
       <r>    3.4896    0.0000 </r>
       <r>    3.5109    0.0000 </r>
       <r>    3.5735    0.0000 </r>
       <r>    3.6751    0.0000 </r>
       <r>    3.6803    0.0000 </r>
       <r>    3.6805    0.0000 </r>
       <r>    3.6950    0.0000 </r>
       <r>    3.6958    0.0000 </r>
       <r>    3.7452    0.0000 </r>
       <r>    3.8164    0.0000 </r>
       <r>    4.0611    0.0000 </r>
       <r>    4.0917    0.0000 </r>
       <r>    4.0940    0.0000 </r>
       <r>    4.1825    0.0000 </r>
       <r>    4.2368    0.0000 </r>
       <r>    4.2389    0.0000 </r>
       <r>    4.2725    0.0000 </r>
       <r>    4.2839    0.0000 </r>
       <r>    4.3734    0.0000 </r>
       <r>    4.4956    0.0000 </r>
      </set>
      <set comment="kpoint 2">
       <r>  -22.7340    1.0000 </r>
       <r>  -22.4127    1.0000 </r>
       <r>  -22.3543    1.0000 </r>
       <r>  -22.1215    1.0000 </r>
       <r>  -21.8032    1.0000 </r>
       <r>  -21.6593    1.0000 </r>
       <r>  -21.6434    1.0000 </r>
       <r>  -21.2681    1.0000 </r>
       <r>  -21.2490    1.0000 </r>
       <r>  -21.0927    1.0000 </r>
       <r>  -20.8812    1.0000 </r>
       <r>  -20.8648    1.0000 </r>
       <r>  -20.4925    1.0000 </r>
       <r>  -20.4747    1.0000 </r>
       <r>  -20.2638    1.0000 </r>
       <r>  -20.2311    1.0000 </r>
       <r>  -19.8351    1.0000 </r>
       <r>  -19.7210    1.0000 </r>
       <r>  -19.6427    1.0000 </r>
       <r>  -19.6163    1.0000 </r>
       <r>  -19.4640    1.0000 </r>
       <r>  -19.2189    1.0000 </r>
       <r>  -19.1854    1.0000 </r>
       <r>  -18.9267    1.0000 </r>
       <r>  -18.8980    1.0000 </r>
       <r>  -18.6630    1.0000 </r>
       <r>  -18.5733    1.0000 </r>
       <r>  -18.4142    1.0000 </r>
       <r>  -18.1587    1.0000 </r>
       <r>  -17.9962    1.0000 </r>
       <r>  -17.8781    1.0000 </r>
       <r>  -17.6592    1.0000 </r>
       <r>  -17.6280    1.0000 </r>
       <r>  -17.6239    1.0000 </r>
       <r>  -17.5438    1.0000 </r>
       <r>  -17.5339    1.0000 </r>
       <r>  -17.2615    1.0000 </r>
       <r>  -17.1724    1.0000 </r>
       <r>  -17.0373    1.0000 </r>
       <r>  -16.8341    1.0000 </r>
       <r>  -16.8231    1.0000 </r>
       <r>  -16.5741    1.0000 </r>
       <r>  -16.5720    1.0000 </r>
       <r>  -16.1097    1.0000 </r>
       <r>  -15.9139    1.0000 </r>
       <r>  -15.6934    1.0000 </r>
       <r>  -15.4408    1.0000 </r>
       <r>  -15.3799    1.0000 </r>
       <r>  -15.2537    1.0000 </r>
       <r>  -15.1893    1.0000 </r>
       <r>  -15.0882    1.0000 </r>
       <r>  -15.0401    1.0000 </r>
       <r>  -14.8278    1.0000 </r>
       <r>  -14.7251    1.0000 </r>
       <r>  -14.5843    1.0000 </r>
       <r>  -14.5661    1.0000 </r>
       <r>  -14.3866    1.0000 </r>
       <r>  -14.2117    1.0000 </r>
       <r>  -14.0042    1.0000 </r>
       <r>  -13.9040    1.0000 </r>
       <r>  -13.7171    1.0000 </r>
       <r>  -13.6980    1.0000 </r>
       <r>  -13.5883    1.0000 </r>
       <r>  -13.4989    1.0000 </r>
       <r>  -13.3127    1.0000 </r>
       <r>  -13.0891    1.0000 </r>
       <r>  -12.9489    1.0000 </r>
       <r>  -12.7685    1.0000 </r>
       <r>  -12.7482    1.0000 </r>
       <r>  -12.5419    1.0000 </r>
       <r>  -12.3227    1.0000 </r>
       <r>  -12.1428    1.0000 </r>
       <r>  -12.0726    1.0000 </r>
       <r>  -11.9329    1.0000 </r>
       <r>  -11.7908    1.0000 </r>
       <r>  -11.7180    1.0000 </r>
       <r>  -11.6317    1.0000 </r>
       <r>  -11.6070    1.0000 </r>
       <r>  -11.4485    1.0000 </r>
       <r>  -11.3913    1.0000 </r>
       <r>  -11.3486    1.0000 </r>
       <r>  -11.2580    1.0000 </r>
       <r>  -11.1226    1.0000 </r>
       <r>  -10.9816    1.0000 </r>
       <r>  -10.9050    1.0000 </r>
       <r>  -10.7572    1.0000 </r>
       <r>  -10.7447    1.0000 </r>
       <r>  -10.4008    1.0000 </r>
       <r>  -10.3946    1.0000 </r>
       <r>  -10.2727    1.0000 </r>
       <r>  -10.2699    1.0000 </r>
       <r>  -10.1624    1.0000 </r>
       <r>  -10.1256    1.0000 </r>
       <r>  -10.0722    1.0000 </r>
       <r>  -10.0576    1.0000 </r>
       <r>   -9.9237    1.0000 </r>
       <r>   -9.9045    1.0000 </r>
       <r>   -9.8340    1.0000 </r>
       <r>   -9.6770    1.0000 </r>
       <r>   -9.6196    1.0000 </r>
       <r>   -9.5939    1.0000 </r>
       <r>   -9.5542    1.0000 </r>
       <r>   -9.4431    1.0000 </r>
       <r>   -9.4071    1.0000 </r>
       <r>   -9.3122    1.0000 </r>
       <r>   -9.2851    1.0000 </r>
       <r>   -9.2509    1.0000 </r>
       <r>   -9.2355    1.0000 </r>
       <r>   -9.1955    1.0000 </r>
       <r>   -9.1741    1.0000 </r>
       <r>   -9.1662    1.0000 </r>
       <r>   -9.1138    1.0000 </r>
       <r>   -9.0213    1.0000 </r>
       <r>   -9.0060    1.0000 </r>
       <r>   -8.9573    1.0000 </r>
       <r>   -8.9550    1.0000 </r>
       <r>   -8.9060    1.0000 </r>
       <r>   -8.7848    1.0000 </r>
       <r>   -8.7771    1.0000 </r>
       <r>   -8.7322    1.0000 </r>
       <r>   -8.7140    1.0000 </r>
       <r>   -8.6710    1.0000 </r>
       <r>   -8.5791    1.0000 </r>
       <r>   -8.4654    1.0000 </r>
       <r>   -8.4324    1.0000 </r>
       <r>   -8.3899    1.0000 </r>
       <r>   -8.3396    1.0000 </r>
       <r>   -8.3033    1.0000 </r>
       <r>   -8.2967    1.0000 </r>
       <r>   -8.2537    1.0000 </r>
       <r>   -8.0070    1.0000 </r>
       <r>   -7.9896    1.0000 </r>
       <r>   -7.9297    1.0000 </r>
       <r>   -7.8734    1.0000 </r>
       <r>   -7.8691    1.0000 </r>
       <r>   -7.8366    1.0000 </r>
       <r>   -7.6019    1.0000 </r>
       <r>   -7.5284    1.0000 </r>
       <r>   -7.4172    1.0000 </r>
       <r>   -7.3933    1.0000 </r>
       <r>   -7.3298    1.0000 </r>
       <r>   -7.3215    1.0000 </r>
       <r>   -7.2877    1.0000 </r>
       <r>   -7.2486    1.0000 </r>
       <r>   -7.2343    1.0000 </r>
       <r>   -7.1235    1.0000 </r>
       <r>   -7.1161    1.0000 </r>
       <r>   -7.0964    1.0000 </r>
       <r>   -7.0255    1.0000 </r>
       <r>   -6.8077    1.0000 </r>
       <r>   -6.7134    1.0000 </r>
       <r>   -6.6395    1.0000 </r>
       <r>   -6.4806    1.0000 </r>
       <r>   -6.4289    1.0000 </r>
       <r>   -6.4074    1.0000 </r>
       <r>   -6.3440    1.0000 </r>
       <r>   -6.3248    1.0000 </r>
       <r>   -6.2627    1.0000 </r>
       <r>   -6.1592    1.0000 </r>
       <r>   -6.0336    1.0000 </r>
       <r>   -5.9884    1.0000 </r>
       <r>   -5.9685    1.0000 </r>
       <r>   -5.6637    1.0000 </r>
       <r>   -5.4532    1.0000 </r>
       <r>   -5.3494    1.0000 </r>
       <r>   -5.2229    1.0000 </r>
       <r>   -5.2090    1.0000 </r>
       <r>   -5.2043    1.0000 </r>
       <r>   -5.1897    1.0000 </r>
       <r>   -5.1025    1.0000 </r>
       <r>   -5.0751    1.0000 </r>
       <r>   -5.0064    1.0000 </r>
       <r>   -4.9698    1.0000 </r>
       <r>   -4.9110    1.0000 </r>
       <r>   -4.6056    1.0000 </r>
       <r>   -4.5305    1.0000 </r>
       <r>   -4.4853    1.0000 </r>
       <r>   -4.3487    1.0000 </r>
       <r>   -4.2953    1.0000 </r>
       <r>   -4.2342    1.0000 </r>
       <r>   -4.1760    1.0000 </r>
       <r>   -3.8849    1.0000 </r>
       <r>   -3.5424    1.0000 </r>
       <r>   -3.3076    1.0000 </r>
       <r>   -2.0829    0.0000 </r>
       <r>   -2.0288    0.0000 </r>
       <r>   -1.8112    0.0000 </r>
       <r>   -1.1714    0.0000 </r>
       <r>   -1.0896    0.0000 </r>
       <r>   -1.0020    0.0000 </r>
       <r>   -0.9302    0.0000 </r>
       <r>   -0.8484    0.0000 </r>
       <r>   -0.7204    0.0000 </r>
       <r>   -0.6505    0.0000 </r>
       <r>   -0.3858    0.0000 </r>
       <r>   -0.2817    0.0000 </r>
       <r>   -0.1991    0.0000 </r>
       <r>   -0.0789    0.0000 </r>
       <r>    0.0058    0.0000 </r>
       <r>    0.0725    0.0000 </r>
       <r>    0.1403    0.0000 </r>
       <r>    0.5430    0.0000 </r>
       <r>    0.6052    0.0000 </r>
       <r>    0.8554    0.0000 </r>
       <r>    0.9136    0.0000 </r>
       <r>    0.9950    0.0000 </r>
       <r>    1.0352    0.0000 </r>
       <r>    1.3059    0.0000 </r>
       <r>    1.3153    0.0000 </r>
       <r>    1.4025    0.0000 </r>
       <r>    1.6143    0.0000 </r>
       <r>    1.6656    0.0000 </r>
       <r>    1.8335    0.0000 </r>
       <r>    1.9034    0.0000 </r>
       <r>    1.9556    0.0000 </r>
[...]
       <r>   -13.6089     9.5944    61.8884 </r>
       <r>   -13.5090    11.1685    63.0040 </r>
       <r>   -13.4091     4.2439    63.4279 </r>
       <r>   -13.3092     7.2434    64.1514 </r>
       <r>   -13.2093     3.4829    64.4993 </r>
       <r>   -13.1095     1.0549    64.6047 </r>
       <r>   -13.0096     7.2342    65.3273 </r>
       <r>   -12.9097     6.3916    65.9657 </r>
       <r>   -12.8098     6.2598    66.5910 </r>
       <r>   -12.7099    14.2452    68.0139 </r>
       <r>   -12.6100    12.4360    69.2561 </r>
       <r>   -12.5101    10.6750    70.3224 </r>
       <r>   -12.4102    10.4837    71.3696 </r>
       <r>   -12.3104     5.3406    71.9031 </r>
       <r>   -12.2105     1.5851    72.0614 </r>
       <r>   -12.1106    10.6778    73.1280 </r>
       <r>   -12.0107     3.8692    73.5145 </r>
       <r>   -11.9108     4.1193    73.9259 </r>
       <r>   -11.8109     7.2825    74.6534 </r>
       <r>   -11.7110    12.4077    75.8927 </r>
       <r>   -11.6111     9.5609    76.8478 </r>
       <r>   -11.5113    12.4522    78.0916 </r>
       <r>   -11.4114    11.7742    79.2677 </r>
       <r>   -11.3115    14.1475    80.6808 </r>
       <r>   -11.2116     7.6449    81.4445 </r>
       <r>   -11.1117    10.4115    82.4844 </r>
       <r>   -11.0118     7.9428    83.2778 </r>
       <r>   -10.9119     8.6507    84.1419 </r>
       <r>   -10.8120     7.2913    84.8702 </r>
       <r>   -10.7122    10.2852    85.8976 </r>
       <r>   -10.6123     1.5502    86.0524 </r>
       <r>   -10.5124     3.0446    86.3566 </r>
       <r>   -10.4125    11.5630    87.5116 </r>
       <r>   -10.3126    14.1923    88.9292 </r>
       <r>   -10.2127    17.2157    90.6488 </r>
       <r>   -10.1128    16.2848    92.2755 </r>
       <r>   -10.0129    19.0273    94.1761 </r>
       <r>    -9.9131    12.8498    95.4596 </r>
       <r>    -9.8132    17.4450    97.2021 </r>
       <r>    -9.7133    17.3423    98.9344 </r>
       <r>    -9.6134    20.7154   101.0036 </r>
       <r>    -9.5135    21.0020   103.1015 </r>
       <r>    -9.4136    18.1337   104.9128 </r>
       <r>    -9.3137    15.4000   106.4511 </r>
       <r>    -9.2138    20.6485   108.5136 </r>
       <r>    -9.1140    21.9419   110.7053 </r>
       <r>    -9.0141    27.7518   113.4774 </r>
       <r>    -8.9142    23.3669   115.8114 </r>
       <r>    -8.8143    16.1137   117.4210 </r>
       <r>    -8.7144    20.7935   119.4980 </r>
       <r>    -8.6145    16.4835   121.1445 </r>
       <r>    -8.5146    11.4744   122.2906 </r>
       <r>    -8.4147    22.3421   124.5223 </r>
       <r>    -8.3149    24.7070   126.9903 </r>
       <r>    -8.2150    19.7947   128.9675 </r>
       <r>    -8.1151    13.8323   130.3492 </r>
       <r>    -8.0152    16.0823   131.9556 </r>
       <r>    -7.9153    12.3272   133.1869 </r>
       <r>    -7.8154    17.9879   134.9837 </r>
       <r>    -7.7155     6.7443   135.6574 </r>
       <r>    -7.6156     9.4384   136.6001 </r>
       <r>    -7.5158    19.7142   138.5693 </r>
       <r>    -7.4159    15.9227   140.1598 </r>
       <r>    -7.3160    20.2973   142.1873 </r>
       <r>    -7.2161    17.9280   143.9781 </r>
       <r>    -7.1162    19.3531   145.9112 </r>
       <r>    -7.0163    13.8149   147.2911 </r>
       <r>    -6.9164     7.2339   148.0137 </r>
       <r>    -6.8165    10.9421   149.1067 </r>
       <r>    -6.7167    14.1408   150.5192 </r>
       <r>    -6.6168    10.3214   151.5502 </r>
       <r>    -6.5169     7.3463   152.2840 </r>
       <r>    -6.4170    14.4291   153.7252 </r>
       <r>    -6.3171    29.0433   156.6263 </r>
       <r>    -6.2172    12.6551   157.8904 </r>
       <r>    -6.1173    10.5253   158.9417 </r>
       <r>    -6.0174     9.0186   159.8426 </r>
       <r>    -5.9176    19.5104   161.7914 </r>
       <r>    -5.8177     6.8066   162.4713 </r>
       <r>    -5.7178     5.0429   162.9751 </r>
       <r>    -5.6179     6.6850   163.6428 </r>
       <r>    -5.5180     3.0580   163.9483 </r>
       <r>    -5.4181     7.1385   164.6613 </r>
       <r>    -5.3182     3.8681   165.0477 </r>
       <r>    -5.2183    17.9513   166.8408 </r>
       <r>    -5.1185    20.3370   168.8722 </r>
       <r>    -5.0186    21.0049   170.9704 </r>
       <r>    -4.9187    15.1912   172.4878 </r>
       <r>    -4.8188     7.2058   173.2075 </r>
       <r>    -4.7189     0.4288   173.2504 </r>
       <r>    -4.6190     3.5245   173.6024 </r>
       <r>    -4.5191    16.5610   175.2567 </r>
       <r>    -4.4192    13.7370   176.6288 </r>
       <r>    -4.3194    11.8041   177.8079 </r>
       <r>    -4.2195    20.6556   179.8711 </r>
       <r>    -4.1196    11.3966   181.0095 </r>
       <r>    -4.0197     8.2654   181.8351 </r>
       <r>    -3.9198     2.0533   182.0402 </r>
       <r>    -3.8199     2.0173   182.2417 </r>
       <r>    -3.7200     0.1207   182.2538 </r>
       <r>    -3.6201     1.8685   182.4404 </r>
       <r>    -3.5203     4.6796   182.9078 </r>
       <r>    -3.4204     3.4090   183.2484 </r>
       <r>    -3.3205     0.9127   183.3395 </r>
       <r>    -3.2206     1.5893   183.4983 </r>
       <r>    -3.1207     0.0206   183.5003 </r>
       <r>    -3.0208     1.7383   183.6740 </r>
       <r>    -2.9209     3.2267   183.9963 </r>
       <r>    -2.8210     0.0373   184.0000 </r>
       <r>    -2.7212     0.0000   184.0000 </r>
       <r>    -2.6213     0.0052   184.0005 </r>
       <r>    -2.5214     1.9918   184.1995 </r>
       <r>    -2.4215     2.9832   184.4975 </r>
       <r>    -2.3216     0.0255   184.5000 </r>
       <r>    -2.2217     0.0006   184.5001 </r>
       <r>    -2.1218     0.9387   184.5938 </r>
       <r>    -2.0219     5.3592   185.1291 </r>
       <r>    -1.9221     1.8238   185.3113 </r>
       <r>    -1.8222     5.0987   185.8206 </r>
       <r>    -1.7223     1.7812   185.9985 </r>
       <r>    -1.6224     0.1977   186.0183 </r>
       <r>    -1.5225     6.1895   186.6365 </r>
       <r>    -1.4226     4.5909   187.0951 </r>
       <r>    -1.3227     3.9426   187.4889 </r>
       <r>    -1.2228     0.7313   187.5620 </r>
       <r>    -1.1230     6.6014   188.2214 </r>
       <r>    -1.0231    17.4754   189.9669 </r>
       <r>    -0.9232     9.3125   190.8971 </r>
       <r>    -0.8233     9.6143   191.8575 </r>
       <r>    -0.7234     9.2683   192.7833 </r>
       <r>    -0.6235     6.9928   193.4818 </r>
       <r>    -0.5236     6.8388   194.1649 </r>
       <r>    -0.4237     4.5036   194.6147 </r>
       <r>    -0.3239     7.5955   195.3734 </r>
       <r>    -0.2240    10.4712   196.4194 </r>
       <r>    -0.1241    10.6826   197.4864 </r>
       <r>    -0.0242    10.2087   198.5062 </r>
       <r>     0.0757    10.6299   199.5680 </r>
       <r>     0.1756     3.9228   199.9598 </r>
       <r>     0.2755     0.4938   200.0091 </r>
       <r>     0.3754     4.1284   200.4215 </r>
       <r>     0.4752     6.9965   201.1204 </r>
       <r>     0.5751    10.1678   202.1360 </r>
       <r>     0.6750     5.5866   202.6940 </r>
       <r>     0.7749     3.5738   203.0510 </r>
       <r>     0.8748     6.9299   203.7432 </r>
       <r>     0.9747     9.1906   204.6613 </r>
       <r>     1.0746    10.1970   205.6798 </r>
       <r>     1.1745     3.2742   206.0069 </r>
       <r>     1.2743    12.3603   207.2415 </r>
       <r>     1.3742    19.0779   209.1471 </r>
       <r>     1.4741    18.0458   210.9497 </r>
       <r>     1.5740     8.9764   211.8463 </r>
       <r>     1.6739     5.6647   212.4122 </r>
       <r>     1.7738     6.6469   213.0761 </r>
       <r>     1.8737    11.7536   214.2501 </r>
       <r>     1.9736    19.9763   216.2455 </r>
       <r>     2.0734    28.2013   219.0625 </r>
       <r>     2.1733     5.6708   219.6289 </r>
       <r>     2.2732    14.4829   221.0756 </r>
       <r>     2.3731    23.4239   223.4153 </r>
       <r>     2.4730    22.1260   225.6254 </r>
       <r>     2.5729     7.5867   226.3833 </r>
       <r>     2.6728    10.4292   227.4250 </r>
       <r>     2.7727    19.3413   229.3570 </r>
       <r>     2.8725    41.3563   233.4879 </r>
       <r>     2.9724    45.0985   237.9927 </r>
       <r>     3.0723    15.6055   239.5515 </r>
       <r>     3.1722    10.3802   240.5883 </r>
       <r>     3.2721    14.6663   242.0533 </r>
       <r>     3.3720    14.6766   243.5193 </r>
       <r>     3.4719    30.7760   246.5935 </r>
       <r>     3.5718    12.8720   247.8792 </r>
       <r>     3.6716     9.6048   248.8386 </r>
       <r>     3.7715    22.4511   251.0812 </r>
       <r>     3.8714    30.6986   254.1476 </r>
       <r>     3.9713    27.4985   256.8944 </r>
       <r>     4.0712    11.5405   258.0471 </r>
       <r>     4.1711    16.6282   259.7081 </r>
       <r>     4.2710    22.9405   261.9995 </r>
       <r>     4.3709    22.1241   264.2095 </r>
       <r>     4.4707     5.6517   264.7740 </r>
       <r>     4.5706     2.1723   264.9910 </r>
       <r>     4.6705     0.0904   265.0000 </r>
       <r>     4.7704     0.0000   265.0000 </r>
       <r>     4.8703     0.0000   265.0000 </r>
       <r>     4.9702     0.0000   265.0000 </r>
       <r>     5.0701     0.0000   265.0000 </r>
       <r>     5.1700     0.0000   265.0000 </r>
       <r>     5.2698     0.0000   265.0000 </r>
       <r>     5.3697     0.0000   265.0000 </r>
       <r>     5.4696     0.0000   265.0000 </r>
       <r>     5.5695     0.0000   265.0000 </r>
       <r>     5.6694     0.0000   265.0000 </r>
       <r>     5.7693     0.0000   265.0000 </r>
       <r>     5.8692     0.0000   265.0000 </r>
      </set>
     </set>
    </array>
   </total>
  </dos>
 </calculation>
 <structure name="finalpos" >
  <crystal>
   <varray name="basis" >
    <v>      17.27103806       0.00000000       0.00000000 </v>
    <v>      -8.63551903      14.95715771       0.00000000 </v>
    <v>       0.00000000       0.00000000      15.00000000 </v>
   </varray>
   <i name="volume">   3874.88459904 </i>
   <varray name="rec_basis" >
    <v>       0.05790040       0.03342881       0.00000000 </v>
    <v>       0.00000000       0.06685762       0.00000000 </v>
    <v>       0.00000000       0.00000000       0.06666667 </v>
   </varray>
  </crystal>
  <varray name="positions" >
   <v>       0.00141753       0.00063915       0.50044754 </v>
   <v>       0.00088075       0.14309862       0.50021129 </v>
   <v>       0.00052951       0.28594095       0.50001714 </v>
   <v>       0.00088234       0.42912790       0.50005667 </v>
   <v>       0.00138679       0.57210329       0.50022108 </v>
   <v>       0.00177294       0.71496625       0.50031534 </v>
   <v>       0.00179697       0.85820543       0.50037396 </v>
   <v>       0.14520296       0.00181477       0.49993835 </v>
   <v>       0.14473581       0.14449245       0.49973499 </v>
   <v>       0.14285516       0.28592890       0.49939228 </v>
   <v>       0.14283546       0.42829458       0.49937027 </v>
   <v>       0.14473886       0.57158711       0.49956091 </v>
   <v>       0.14517786       0.71472179       0.49986330 </v>
   <v>       0.14510704       0.85823725       0.50002873 </v>
   <v>       0.28808246       0.00185670       0.49970067 </v>
   <v>       0.28836756       0.14654010       0.49925540 </v>
   <v>       0.28760998       0.29265323       0.49839788 </v>
   <v>       0.28539665       0.42838209       0.49783779 </v>
   <v>       0.28764758       0.56634035       0.49837938 </v>
   <v>       0.28838419       0.71324694       0.49922051 </v>
   <v>       0.28808365       0.85763623       0.49977509 </v>
   <v>       0.43061216       0.00099200       0.49969970 </v>
   <v>       0.43125546       0.14563786       0.49958412 </v>
   <v>       0.43048759       0.28723902       0.49954729 </v>
   <v>       0.43046854       0.71460116       0.49954152 </v>
   <v>       0.43129122       0.85701692       0.49958619 </v>
   <v>       0.57291970       0.00055243       0.49992703 </v>
   <v>       0.57291024       0.14372494       0.49996322 </v>
   <v>       0.57659165       0.29023460       0.50004784 </v>
   <v>       0.57661357       0.85769555       0.49998383 </v>
   <v>       0.71581153       0.00095795       0.50025940 </v>
   <v>       0.71564881       0.14347775       0.50022952 </v>
   <v>       0.71583442       0.28618661       0.50025885 </v>
   <v>       0.71185619       0.42567605       0.50006985 </v>
   <v>       0.71613893       0.57240259       0.49910705 </v>
   <v>       0.71615320       0.71505235       0.49906197 </v>
   <v>       0.71188703       0.85752340       0.50008384 </v>
   <v>       0.85819180       0.00024695       0.50051222 </v>
   <v>       0.85818204       0.14331208       0.50036680 </v>
   <v>       0.85818414       0.28618053       0.50028182 </v>
   <v>       0.85818252       0.42926392       0.50030758 </v>
   <v>       0.85740147       0.57151431       0.50031696 </v>
   <v>       0.85881580       0.71508439       0.50015707 </v>
   <v>       0.85743363       0.85725898       0.50035910 </v>
   <v>       0.04920448       0.09609034       0.50020036 </v>
   <v>       0.04773250       0.23810902       0.49989722 </v>
   <v>       0.04774534       0.38099295       0.49983850 </v>
   <v>       0.04919030       0.52445123       0.49998549 </v>
   <v>       0.04956148       0.66744333       0.50015812 </v>
   <v>       0.04945196       0.81040498       0.50024581 </v>
   <v>       0.04959688       0.95349185       0.50031433 </v>
   <v>       0.19281502       0.09725602       0.49959067 </v>
   <v>       0.19170057       0.23999965       0.49925988 </v>
   <v>       0.18975260       0.38056336       0.49903172 </v>
   <v>       0.19171822       0.52306515       0.49918842 </v>
   <v>       0.19280661       0.66691547       0.49946105 </v>
   <v>       0.19280111       0.81034071       0.49988983 </v>
   <v>       0.19281797       0.95382663       0.49987042 </v>
   <v>       0.33588731       0.09826655       0.49950011 </v>
   <v>       0.33690707       0.24310609       0.49891377 </v>
   <v>       0.33689254       0.66518842       0.49891430 </v>
   <v>       0.33588980       0.80903995       0.49952203 </v>
   <v>       0.33522207       0.95331712       0.49973340 </v>
   <v>       0.47792499       0.09650829       0.49972649 </v>
   <v>       0.47873270       0.24160811       0.49976119 </v>
   <v>       0.47874320       0.80848070       0.49970624 </v>
   <v>       0.47794245       0.95281804       0.49973197 </v>
   <v>       0.62022144       0.09578975       0.50004926 </v>
   <v>       0.62106051       0.23929984       0.50011141 </v>
   <v>       0.62107162       0.95310358       0.50005451 </v>
   <v>       0.76331553       0.09618557       0.50029904 </v>
   <v>       0.76333799       0.23844547       0.50029687 </v>
   <v>       0.76270178       0.38102695       0.50024015 </v>
   <v>       0.76086072       0.52396734       0.49993301 </v>
   <v>       0.76294793       0.66713306       0.49944283 </v>
   <v>       0.76088944       0.80823266       0.49991304 </v>
   <v>       0.76272401       0.95301271       0.50034103 </v>
   <v>       0.90563219       0.09528239       0.50042618 </v>
   <v>       0.90549646       0.23838940       0.50025811 </v>
   <v>       0.90563046       0.38166434       0.50025793 </v>
   <v>       0.90584933       0.52462968       0.50036153 </v>
   <v>       0.90589006       0.66703594       0.50034726 </v>
   <v>       0.90591509       0.81023447       0.50034437 </v>
   <v>       0.90588402       0.95259558       0.50056111 </v>
   <v>       0.46862532       0.35994729       0.50033624 </v>
   <v>       0.64322773       0.67731257       0.49768474 </v>
   <v>       0.64320911       0.53724088       0.49770184 </v>
   <v>       0.46855796       0.67997947       0.50034446 </v>
   <v>       0.46346191       0.55991659       0.47300226 </v>
   <v>       0.46284145       0.47427312       0.47320945 </v>
   <v>       0.33168777       0.38297232       0.49716537 </v>
   <v>       0.33171882       0.52009316       0.49717552 </v>
   <v>       0.62186763       0.38056859       0.50008701 </v>
   <v>       0.62188797       0.81263775       0.50002983 </v>
   <v>       0.50594850       0.53825646       0.46511209 </v>
  </varray>
  <varray name="selective"  type="logical" >
   <v type="logical" >  T  T  T </v>
   <v type="logical" >  T  T  T </v>
   <v type="logical" >  T  T  T </v>
   <v type="logical" >  T  T  T </v>
   <v type="logical" >  T  T  T </v>
   <v type="logical" >  T  T  T </v>
   <v type="logical" >  T  T  T </v>
   <v type="logical" >  T  T  T </v>
   <v type="logical" >  T  T  T </v>
   <v type="logical" >  T  T  T </v>
   <v type="logical" >  T  T  T </v>
   <v type="logical" >  T  T  T </v>
   <v type="logical" >  T  T  T </v>
   <v type="logical" >  T  T  T </v>
   <v type="logical" >  T  T  T </v>
   <v type="logical" >  T  T  T </v>
   <v type="logical" >  T  T  T </v>
   <v type="logical" >  T  T  T </v>
   <v type="logical" >  T  T  T </v>
   <v type="logical" >  T  T  T </v>
   <v type="logical" >  T  T  T </v>
   <v type="logical" >  T  T  T </v>
   <v type="logical" >  T  T  T </v>
   <v type="logical" >  T  T  T </v>
   <v type="logical" >  T  T  T </v>
   <v type="logical" >  T  T  T </v>
   <v type="logical" >  T  T  T </v>
   <v type="logical" >  T  T  T </v>
   <v type="logical" >  T  T  T </v>
   <v type="logical" >  T  T  T </v>
   <v type="logical" >  T  T  T </v>
   <v type="logical" >  T  T  T </v>
   <v type="logical" >  T  T  T </v>
   <v type="logical" >  T  T  T </v>
   <v type="logical" >  T  T  T </v>
   <v type="logical" >  T  T  T </v>
   <v type="logical" >  T  T  T </v>
   <v type="logical" >  T  T  T </v>
   <v type="logical" >  T  T  T </v>
   <v type="logical" >  T  T  T </v>
   <v type="logical" >  T  T  T </v>
   <v type="logical" >  T  T  T </v>
   <v type="logical" >  T  T  T </v>
   <v type="logical" >  T  T  T </v>
   <v type="logical" >  T  T  T </v>
   <v type="logical" >  T  T  T </v>
   <v type="logical" >  T  T  T </v>
   <v type="logical" >  T  T  T </v>
   <v type="logical" >  T  T  T </v>
   <v type="logical" >  T  T  T </v>
   <v type="logical" >  T  T  T </v>
   <v type="logical" >  T  T  T </v>
   <v type="logical" >  T  T  T </v>
   <v type="logical" >  T  T  T </v>
   <v type="logical" >  T  T  T </v>
   <v type="logical" >  T  T  T </v>
   <v type="logical" >  T  T  T </v>
   <v type="logical" >  T  T  T </v>
   <v type="logical" >  T  T  T </v>
   <v type="logical" >  T  T  T </v>
   <v type="logical" >  T  T  T </v>
   <v type="logical" >  T  T  T </v>
   <v type="logical" >  T  T  T </v>
   <v type="logical" >  T  T  T </v>
   <v type="logical" >  T  T  T </v>
   <v type="logical" >  T  T  T </v>
   <v type="logical" >  T  T  T </v>
   <v type="logical" >  T  T  T </v>
   <v type="logical" >  T  T  T </v>
   <v type="logical" >  T  T  T </v>
   <v type="logical" >  T  T  T </v>
   <v type="logical" >  T  T  T </v>
   <v type="logical" >  T  T  T </v>
   <v type="logical" >  T  T  T </v>
   <v type="logical" >  T  T  T </v>
   <v type="logical" >  T  T  T </v>
   <v type="logical" >  T  T  T </v>
   <v type="logical" >  T  T  T </v>
   <v type="logical" >  T  T  T </v>
   <v type="logical" >  T  T  T </v>
   <v type="logical" >  T  T  T </v>
   <v type="logical" >  T  T  T </v>
   <v type="logical" >  T  T  T </v>
   <v type="logical" >  T  T  T </v>
   <v type="logical" >  T  T  T </v>
   <v type="logical" >  T  T  T </v>
   <v type="logical" >  T  T  T </v>
   <v type="logical" >  T  T  T </v>
   <v type="logical" >  T  T  T </v>
   <v type="logical" >  T  T  T </v>
   <v type="logical" >  T  T  T </v>
   <v type="logical" >  T  T  T </v>
   <v type="logical" >  T  T  T </v>
   <v type="logical" >  T  T  T </v>
   <v type="logical" >  T  T  F </v>
  </varray>
  <nose>
   <v>      -3.00000000       0.00000000       0.00010000       0.00010000 </v>
  </nose>
 </structure>
</modeling>
