unknown system                          
           1
    17.271038    0.000000    0.000000
    -8.635519   14.957158    0.000000
     0.000000    0.000000   15.000000
   C    H    N    O 
    84     6     4     1
Direct configuration=     1
   0.00141753  0.00063915  0.50044754
   0.00088075  0.14309862  0.50021129
   0.00052951  0.28594095  0.50001714
   0.00088234  0.42912790  0.50005667
   0.00138679  0.57210329  0.50022108
   0.00177294  0.71496625  0.50031534
   0.00179697  0.85820543  0.50037396
   0.14520296  0.00181477  0.49993835
   0.14473581  0.14449245  0.49973499
   0.14285516  0.28592890  0.49939228
   0.14283546  0.42829458  0.49937027
   0.14473886  0.57158711  0.49956091
   0.14517786  0.71472179  0.49986330
   0.14510704  0.85823725  0.50002873
   0.28808246  0.00185670  0.49970067
   0.28836756  0.14654010  0.49925540
   0.28760998  0.29265323  0.49839788
   0.28539665  0.42838209  0.49783779
   0.28764758  0.56634035  0.49837938
   0.28838419  0.71324694  0.49922051
   0.28808365  0.85763623  0.49977509
   0.43061216  0.00099200  0.49969970
   0.43125546  0.14563786  0.49958412
   0.43048759  0.28723902  0.49954729
   0.43046854  0.71460116  0.49954152
   0.43129122  0.85701692  0.49958619
   0.57291970  0.00055243  0.49992703
   0.57291024  0.14372494  0.49996322
   0.57659165  0.29023460  0.50004784
   0.57661357  0.85769555  0.49998383
   0.71581153  0.00095795  0.50025940
   0.71564881  0.14347775  0.50022952
   0.71583442  0.28618661  0.50025885
   0.71185619  0.42567605  0.50006985
   0.71613893  0.57240259  0.49910705
   0.71615320  0.71505235  0.49906197
   0.71188703  0.85752340  0.50008384
   0.85819180  0.00024695  0.50051222
   0.85818204  0.14331208  0.50036680
   0.85818414  0.28618053  0.50028182
   0.85818252  0.42926392  0.50030758
   0.85740147  0.57151431  0.50031696
   0.85881580  0.71508439  0.50015707
   0.85743363  0.85725898  0.50035910
   0.04920448  0.09609034  0.50020036
   0.04773250  0.23810902  0.49989722
   0.04774534  0.38099295  0.49983850
   0.04919030  0.52445123  0.49998549
   0.04956148  0.66744333  0.50015812
   0.04945196  0.81040498  0.50024581
   0.04959688  0.95349185  0.50031433
   0.19281502  0.09725602  0.49959067
   0.19170057  0.23999965  0.49925988
   0.18975260  0.38056336  0.49903172
   0.19171822  0.52306515  0.49918842
   0.19280661  0.66691547  0.49946105
   0.19280111  0.81034071  0.49988983
   0.19281797  0.95382663  0.49987042
   0.33588731  0.09826655  0.49950011
   0.33690707  0.24310609  0.49891377
   0.33689254  0.66518842  0.49891430
   0.33588980  0.80903995  0.49952203
   0.33522207  0.95331712  0.49973340
   0.47792499  0.09650829  0.49972649
   0.47873270  0.24160811  0.49976119
   0.47874320  0.80848070  0.49970624
   0.47794245  0.95281804  0.49973197
   0.62022144  0.09578975  0.50004926
   0.62106051  0.23929984  0.50011141
   0.62107162  0.95310358  0.50005451
   0.76331553  0.09618557  0.50029904
   0.76333799  0.23844547  0.50029687
   0.76270178  0.38102695  0.50024015
   0.76086072  0.52396734  0.49993301
   0.76294793  0.66713306  0.49944283
   0.76088944  0.80823266  0.49991304
   0.76272401  0.95301271  0.50034103
   0.90563219  0.09528239  0.50042618
   0.90549646  0.23838940  0.50025811
   0.90563046  0.38166434  0.50025793
   0.90584933  0.52462968  0.50036153
   0.90589006  0.66703594  0.50034726
   0.90591509  0.81023447  0.50034437
   0.90588402  0.95259558  0.50056111
   0.46862532  0.35994729  0.50033624
   0.64322773  0.67731257  0.49768474
   0.64320911  0.53724088  0.49770184
   0.46855796  0.67997947  0.50034446
   0.46346191  0.55991659  0.47300226
   0.46284145  0.47427312  0.47320945
   0.33168777  0.38297232  0.49716537
   0.33171882  0.52009316  0.49717552
   0.62186763  0.38056859  0.50008701
   0.62188797  0.81263775  0.50002983
   0.50594850  0.53825646  0.46511209
