  97  97   0   0
  0.3994726E+02  0.1727104E-08  0.1727104E-08  0.1500000E-08  0.0000000E+00
  1.000000000000000E-004
  CAR 
 unknown system                          
      5.78919481    -25.51507733  301     -2.50716814      1.00000000
    -25.515  0.0000E+00  0.0000E+00  0.0000E+00  0.0000E+00
    -25.411  0.0000E+00  0.0000E+00  0.0000E+00  0.0000E+00
    -25.306  0.0000E+00  0.0000E+00  0.0000E+00  0.0000E+00
    -25.202  0.0000E+00  0.0000E+00  0.0000E+00  0.0000E+00
    -25.098  0.0000E+00  0.0000E+00  0.0000E+00  0.0000E+00
    -24.993  0.0000E+00  0.0000E+00  0.0000E+00  0.0000E+00
    -24.889  0.0000E+00  0.0000E+00  0.0000E+00  0.0000E+00
    -24.785  0.0000E+00  0.0000E+00  0.0000E+00  0.0000E+00
    -24.680  0.0000E+00  0.0000E+00  0.0000E+00  0.0000E+00
    -24.576  0.0000E+00  0.0000E+00  0.0000E+00  0.0000E+00
    -24.472  0.0000E+00  0.0000E+00  0.0000E+00  0.0000E+00
    -24.367  0.1139E-15  0.1139E-15  0.1189E-16  0.1189E-16
    -24.263  0.2178E-07  0.2178E-07  0.2272E-08  0.2272E-08
    -24.159  0.9625E-03  0.9625E-03  0.1004E-03  0.1004E-03
    -24.054  0.2645E-01  0.2645E-01  0.2861E-02  0.2861E-02
    -23.950  0.4527E-02  0.4527E-02  0.3333E-02  0.3333E-02
    -23.846  0.9142E-06  0.9142E-06  0.3333E-02  0.3333E-02
    -23.741  0.4875E-13  0.4875E-13  0.3333E-02  0.3333E-02
    -23.637  0.0000E+00  0.0000E+00  0.3333E-02  0.3333E-02
    -23.532  0.0000E+00  0.0000E+00  0.3333E-02  0.3333E-02
    -23.428  0.0000E+00  0.0000E+00  0.3333E-02  0.3333E-02
    -23.324  0.0000E+00  0.0000E+00  0.3333E-02  0.3333E-02
    -23.219  0.0000E+00  0.0000E+00  0.3333E-02  0.3333E-02
    -23.115  0.0000E+00  0.0000E+00  0.3333E-02  0.3333E-02
    -23.011  0.0000E+00  0.0000E+00  0.3333E-02  0.3333E-02
    -22.906  0.0000E+00  0.0000E+00  0.3333E-02  0.3333E-02
    -22.802  0.0000E+00  0.0000E+00  0.3333E-02  0.3333E-02
    -22.698  0.0000E+00  0.0000E+00  0.3333E-02  0.3333E-02
    -22.593  0.1537E-11  0.1537E-11  0.3333E-02  0.3333E-02
    -22.489  0.6507E-05  0.6507E-05  0.3334E-02  0.3334E-02
    -22.385  0.9718E-02  0.9718E-02  0.4348E-02  0.4348E-02
    -22.280  0.4920E-01  0.4920E-01  0.9482E-02  0.9482E-02
    -22.176  0.4965E-02  0.4965E-02  0.1000E-01  0.1000E-01
    -22.072  0.1062E-05  0.1062E-05  0.1000E-01  0.1000E-01
    -21.967  0.8656E-10  0.8656E-10  0.1000E-01  0.1000E-01
    -21.863  0.3310E-04  0.3310E-04  0.1000E-01  0.1000E-01
    -21.759  0.6919E-02  0.6919E-02  0.1073E-01  0.1073E-01
    -21.654  0.3135E-01  0.3135E-01  0.1400E-01  0.1400E-01
    -21.550  0.1301E-01  0.1301E-01  0.1535E-01  0.1535E-01
    -21.446  0.1354E-01  0.1354E-01  0.1677E-01  0.1677E-01
    -21.341  0.3326E-01  0.3326E-01  0.2024E-01  0.2024E-01
    -21.237  0.1269E-01  0.1269E-01  0.2156E-01  0.2156E-01
    -21.132  0.2370E-01  0.2370E-01  0.2403E-01  0.2403E-01
    -21.028  0.8928E-02  0.8928E-02  0.2497E-01  0.2497E-01
    -20.924  0.4403E-01  0.4403E-01  0.2956E-01  0.2956E-01
    -20.819  0.2406E-01  0.2406E-01  0.3207E-01  0.3207E-01
    -20.715  0.4332E-02  0.4332E-02  0.3252E-01  0.3252E-01
    -20.611  0.1216E-01  0.1216E-01  0.3379E-01  0.3379E-01
    -20.506  0.1846E-01  0.1846E-01  0.3572E-01  0.3572E-01
    -20.402  0.3134E-01  0.3134E-01  0.3899E-01  0.3899E-01
    -20.298  0.4661E-01  0.4661E-01  0.4385E-01  0.4385E-01
    -20.193  0.1271E-01  0.1271E-01  0.4518E-01  0.4518E-01
    -20.089  0.2055E-01  0.2055E-01  0.4732E-01  0.4732E-01
    -19.985  0.1478E-01  0.1478E-01  0.4887E-01  0.4887E-01
    -19.880  0.1573E-01  0.1573E-01  0.5051E-01  0.5051E-01
    -19.776  0.1989E-01  0.1989E-01  0.5258E-01  0.5258E-01
    -19.672  0.2879E-01  0.2879E-01  0.5559E-01  0.5559E-01
    -19.567  0.4070E-01  0.4070E-01  0.5983E-01  0.5983E-01
    -19.463  0.2836E-01  0.2836E-01  0.6279E-01  0.6279E-01
    -19.359  0.1673E-01  0.1673E-01  0.6454E-01  0.6454E-01
    -19.254  0.1921E-01  0.1921E-01  0.6654E-01  0.6654E-01
    -19.150  0.4594E-02  0.4594E-02  0.6702E-01  0.6702E-01
    -19.046  0.2718E-01  0.2718E-01  0.6986E-01  0.6986E-01
    -18.941  0.2662E-01  0.2662E-01  0.7264E-01  0.7264E-01
    -18.837  0.1945E-01  0.1945E-01  0.7466E-01  0.7466E-01
    -18.732  0.1963E-01  0.1963E-01  0.7671E-01  0.7671E-01
    -18.628  0.4190E-01  0.4190E-01  0.8108E-01  0.8108E-01
    -18.524  0.3178E-01  0.3178E-01  0.8440E-01  0.8440E-01
    -18.419  0.2472E-01  0.2472E-01  0.8698E-01  0.8698E-01
    -18.315  0.2207E-01  0.2207E-01  0.8928E-01  0.8928E-01
    -18.211  0.2181E-01  0.2181E-01  0.9156E-01  0.9156E-01
    -18.106  0.1565E-01  0.1565E-01  0.9319E-01  0.9319E-01
    -18.002  0.3350E-01  0.3350E-01  0.9669E-01  0.9669E-01
    -17.898  0.1133E-01  0.1133E-01  0.9787E-01  0.9787E-01
    -17.793  0.1744E-01  0.1744E-01  0.9969E-01  0.9969E-01
    -17.689  0.1431E-01  0.1431E-01  0.1012E+00  0.1012E+00
    -17.585  0.3130E-01  0.3130E-01  0.1044E+00  0.1044E+00
    -17.480  0.5651E-01  0.5651E-01  0.1103E+00  0.1103E+00
    -17.376  0.2529E-01  0.2529E-01  0.1130E+00  0.1130E+00
    -17.272  0.4070E-01  0.4070E-01  0.1172E+00  0.1172E+00
    -17.167  0.1948E-01  0.1948E-01  0.1193E+00  0.1193E+00
    -17.063  0.1578E-01  0.1578E-01  0.1209E+00  0.1209E+00
    -16.959  0.3605E-01  0.3605E-01  0.1247E+00  0.1247E+00
    -16.854  0.2674E-01  0.2674E-01  0.1275E+00  0.1275E+00
    -16.750  0.3435E-02  0.3435E-02  0.1278E+00  0.1278E+00
    -16.646  0.1786E-01  0.1786E-01  0.1297E+00  0.1297E+00
    -16.541  0.2274E-01  0.2274E-01  0.1321E+00  0.1321E+00
    -16.437  0.5821E-01  0.5821E-01  0.1381E+00  0.1381E+00
    -16.332  0.4693E-01  0.4693E-01  0.1430E+00  0.1430E+00
    -16.228  0.2925E-02  0.2925E-02  0.1433E+00  0.1433E+00
    -16.124  0.2821E-02  0.2821E-02  0.1436E+00  0.1436E+00
    -16.019  0.6867E-02  0.6867E-02  0.1443E+00  0.1443E+00
    -15.915  0.1806E-01  0.1806E-01  0.1462E+00  0.1462E+00
    -15.811  0.1263E-01  0.1263E-01  0.1475E+00  0.1475E+00
    -15.706  0.6908E-02  0.6908E-02  0.1483E+00  0.1483E+00
    -15.602  0.6526E-02  0.6526E-02  0.1489E+00  0.1489E+00
    -15.498  0.2989E-01  0.2989E-01  0.1521E+00  0.1521E+00
    -15.393  0.2177E-01  0.2177E-01  0.1543E+00  0.1543E+00
    -15.289  0.2724E-01  0.2724E-01  0.1572E+00  0.1572E+00
    -15.185  0.2543E-01  0.2543E-01  0.1598E+00  0.1598E+00
    -15.080  0.2464E-01  0.2464E-01  0.1624E+00  0.1624E+00
    -14.976  0.3901E-01  0.3901E-01  0.1665E+00  0.1665E+00
    -14.872  0.3433E-01  0.3433E-01  0.1701E+00  0.1701E+00
    -14.767  0.1746E-01  0.1746E-01  0.1719E+00  0.1719E+00
    -14.663  0.2814E-01  0.2814E-01  0.1748E+00  0.1748E+00
    -14.559  0.3940E-01  0.3940E-01  0.1789E+00  0.1789E+00
    -14.454  0.2184E-01  0.2184E-01  0.1812E+00  0.1812E+00
    -14.350  0.2845E-01  0.2845E-01  0.1842E+00  0.1842E+00
    -14.246  0.4066E-01  0.4066E-01  0.1884E+00  0.1884E+00
    -14.141  0.2964E-01  0.2964E-01  0.1915E+00  0.1915E+00
    -14.037  0.1981E-01  0.1981E-01  0.1936E+00  0.1936E+00
    -13.932  0.1928E-01  0.1928E-01  0.1956E+00  0.1956E+00
    -13.828  0.9702E-02  0.9702E-02  0.1966E+00  0.1966E+00
    -13.724  0.2330E-01  0.2330E-01  0.1990E+00  0.1990E+00
    -13.619  0.1982E-01  0.1982E-01  0.2011E+00  0.2011E+00
    -13.515  0.3079E-01  0.3079E-01  0.2043E+00  0.2043E+00
    -13.411  0.2973E-01  0.2973E-01  0.2074E+00  0.2074E+00
    -13.306  0.3873E-01  0.3873E-01  0.2115E+00  0.2115E+00
    -13.202  0.9387E-02  0.9387E-02  0.2124E+00  0.2124E+00
    -13.098  0.2294E-01  0.2294E-01  0.2148E+00  0.2148E+00
    -12.993  0.1700E-02  0.1700E-02  0.2150E+00  0.2150E+00
    -12.889  0.1923E-01  0.1923E-01  0.2170E+00  0.2170E+00
    -12.785  0.2164E-01  0.2164E-01  0.2193E+00  0.2193E+00
    -12.680  0.3149E-01  0.3149E-01  0.2226E+00  0.2226E+00
    -12.576  0.4645E-01  0.4645E-01  0.2274E+00  0.2274E+00
    -12.472  0.3885E-01  0.3885E-01  0.2315E+00  0.2315E+00
    -12.367  0.4290E-01  0.4290E-01  0.2359E+00  0.2359E+00
    -12.263  0.2675E-01  0.2675E-01  0.2387E+00  0.2387E+00
    -12.159  0.1573E-01  0.1573E-01  0.2404E+00  0.2404E+00
    -12.054  0.2309E-01  0.2309E-01  0.2428E+00  0.2428E+00
    -11.950  0.3622E-01  0.3622E-01  0.2466E+00  0.2466E+00
    -11.846  0.2435E-01  0.2435E-01  0.2491E+00  0.2491E+00
    -11.741  0.2400E-01  0.2400E-01  0.2516E+00  0.2516E+00
    -11.637  0.1920E-01  0.1920E-01  0.2536E+00  0.2536E+00
    -11.533  0.4492E-01  0.4492E-01  0.2583E+00  0.2583E+00
    -11.428  0.3157E-01  0.3157E-01  0.2616E+00  0.2616E+00
    -11.324  0.4860E-01  0.4860E-01  0.2667E+00  0.2667E+00
    -11.219  0.2884E-01  0.2884E-01  0.2697E+00  0.2697E+00
    -11.115  0.2919E-01  0.2919E-01  0.2727E+00  0.2727E+00
    -11.011  0.2919E-01  0.2919E-01  0.2758E+00  0.2758E+00
    -10.906  0.4034E-01  0.4034E-01  0.2800E+00  0.2800E+00
    -10.802  0.5051E-01  0.5051E-01  0.2852E+00  0.2852E+00
    -10.698  0.2135E-01  0.2135E-01  0.2875E+00  0.2875E+00
    -10.593  0.4454E-02  0.4454E-02  0.2879E+00  0.2879E+00
    -10.489  0.2330E-01  0.2330E-01  0.2904E+00  0.2904E+00
    -10.385  0.1076E-01  0.1076E-01  0.2915E+00  0.2915E+00
    -10.280  0.3157E-01  0.3157E-01  0.2948E+00  0.2948E+00
    -10.176  0.5673E-01  0.5673E-01  0.3007E+00  0.3007E+00
    -10.072  0.6015E-01  0.6015E-01  0.3070E+00  0.3070E+00
     -9.967  0.4705E-01  0.4705E-01  0.3119E+00  0.3119E+00
     -9.863  0.5528E-01  0.5528E-01  0.3177E+00  0.3177E+00
     -9.759  0.7475E-01  0.7475E-01  0.3255E+00  0.3255E+00
     -9.654  0.3854E-01  0.3854E-01  0.3295E+00  0.3295E+00
     -9.550  0.4458E-01  0.4458E-01  0.3341E+00  0.3341E+00
     -9.446  0.6398E-01  0.6398E-01  0.3408E+00  0.3408E+00
     -9.341  0.7156E-01  0.7156E-01  0.3483E+00  0.3483E+00
     -9.237  0.5262E-01  0.5262E-01  0.3538E+00  0.3538E+00
     -9.133  0.4929E-01  0.4929E-01  0.3589E+00  0.3589E+00
     -9.028  0.7433E-01  0.7433E-01  0.3667E+00  0.3667E+00
     -8.924  0.8892E-01  0.8892E-01  0.3759E+00  0.3759E+00
     -8.819  0.8445E-01  0.8445E-01  0.3848E+00  0.3848E+00
     -8.715  0.7054E-01  0.7054E-01  0.3921E+00  0.3921E+00
     -8.611  0.6173E-01  0.6173E-01  0.3986E+00  0.3986E+00
     -8.506  0.7442E-01  0.7442E-01  0.4063E+00  0.4063E+00
     -8.402  0.5072E-01  0.5072E-01  0.4116E+00  0.4116E+00
     -8.298  0.7094E-01  0.7094E-01  0.4190E+00  0.4190E+00
     -8.193  0.7777E-01  0.7777E-01  0.4271E+00  0.4271E+00
     -8.089  0.6670E-01  0.6670E-01  0.4341E+00  0.4341E+00
     -7.985  0.4279E-01  0.4279E-01  0.4386E+00  0.4386E+00
     -7.880  0.5395E-01  0.5395E-01  0.4442E+00  0.4442E+00
     -7.776  0.5810E-01  0.5810E-01  0.4502E+00  0.4502E+00
     -7.672  0.5534E-01  0.5534E-01  0.4560E+00  0.4560E+00
     -7.567  0.2488E-01  0.2488E-01  0.4586E+00  0.4586E+00
     -7.463  0.3715E-01  0.3715E-01  0.4625E+00  0.4625E+00
     -7.359  0.5316E-01  0.5316E-01  0.4680E+00  0.4680E+00
     -7.254  0.7819E-01  0.7819E-01  0.4762E+00  0.4762E+00
     -7.150  0.7113E-01  0.7113E-01  0.4836E+00  0.4836E+00
     -7.046  0.4320E-01  0.4320E-01  0.4881E+00  0.4881E+00
     -6.941  0.4764E-01  0.4764E-01  0.4931E+00  0.4931E+00
     -6.837  0.3983E-01  0.3983E-01  0.4973E+00  0.4973E+00
     -6.733  0.3765E-01  0.3765E-01  0.5012E+00  0.5012E+00
     -6.628  0.2893E-01  0.2893E-01  0.5042E+00  0.5042E+00
     -6.524  0.4057E-01  0.4057E-01  0.5084E+00  0.5084E+00
     -6.419  0.3270E-01  0.3270E-01  0.5119E+00  0.5119E+00
     -6.315  0.3715E-01  0.3715E-01  0.5157E+00  0.5157E+00
     -6.211  0.7938E-01  0.7938E-01  0.5240E+00  0.5240E+00
     -6.106  0.4989E-01  0.4989E-01  0.5292E+00  0.5292E+00
     -6.002  0.6327E-01  0.6327E-01  0.5358E+00  0.5358E+00
     -5.898  0.3598E-01  0.3598E-01  0.5396E+00  0.5396E+00
     -5.793  0.4941E-01  0.4941E-01  0.5447E+00  0.5447E+00
     -5.689  0.5488E-01  0.5488E-01  0.5505E+00  0.5505E+00
     -5.585  0.2922E-01  0.2922E-01  0.5535E+00  0.5535E+00
     -5.480  0.1471E-01  0.1471E-01  0.5550E+00  0.5550E+00
     -5.376  0.1339E-01  0.1339E-01  0.5564E+00  0.5564E+00
     -5.272  0.4366E-02  0.4366E-02  0.5569E+00  0.5569E+00
     -5.167  0.2365E-01  0.2365E-01  0.5594E+00  0.5594E+00
     -5.063  0.7105E-01  0.7105E-01  0.5668E+00  0.5668E+00
     -4.959  0.5156E-01  0.5156E-01  0.5722E+00  0.5722E+00
     -4.854  0.6775E-01  0.6775E-01  0.5792E+00  0.5792E+00
     -4.750  0.2864E-01  0.2864E-01  0.5822E+00  0.5822E+00
     -4.646  0.5021E-01  0.5021E-01  0.5875E+00  0.5875E+00
     -4.541  0.3085E-01  0.3085E-01  0.5907E+00  0.5907E+00
     -4.437  0.1867E-02  0.1867E-02  0.5909E+00  0.5909E+00
     -4.333  0.2236E-01  0.2236E-01  0.5932E+00  0.5932E+00
     -4.228  0.2645E-01  0.2645E-01  0.5960E+00  0.5960E+00
     -4.124  0.2757E-01  0.2757E-01  0.5988E+00  0.5988E+00
     -4.019  0.2710E-01  0.2710E-01  0.6017E+00  0.6017E+00
     -3.915  0.2737E-01  0.2737E-01  0.6045E+00  0.6045E+00
     -3.811  0.1988E-01  0.1988E-01  0.6066E+00  0.6066E+00
     -3.706  0.6647E-03  0.6647E-03  0.6067E+00  0.6067E+00
     -3.602  0.2095E-03  0.2095E-03  0.6067E+00  0.6067E+00
     -3.498  0.6535E-02  0.6535E-02  0.6074E+00  0.6074E+00
     -3.393  0.5114E-02  0.5114E-02  0.6079E+00  0.6079E+00
     -3.289  0.1572E-01  0.1572E-01  0.6095E+00  0.6095E+00
     -3.185  0.1567E-01  0.1567E-01  0.6112E+00  0.6112E+00
     -3.080  0.4654E-02  0.4654E-02  0.6117E+00  0.6117E+00
     -2.976  0.1362E-04  0.1362E-04  0.6117E+00  0.6117E+00
     -2.872  0.3339E-08  0.3339E-08  0.6117E+00  0.6117E+00
     -2.767  0.2783E-03  0.2783E-03  0.6117E+00  0.6117E+00
     -2.663  0.1250E-01  0.1250E-01  0.6130E+00  0.6130E+00
     -2.559  0.3195E-02  0.3195E-02  0.6133E+00  0.6133E+00
     -2.454  0.2594E-05  0.2594E-05  0.6133E+00  0.6133E+00
     -2.350  0.3381E-02  0.3381E-02  0.6137E+00  0.6137E+00
     -2.246  0.1234E-01  0.1234E-01  0.6150E+00  0.6150E+00
     -2.141  0.2514E-03  0.2514E-03  0.6150E+00  0.6150E+00
     -2.037  0.6748E-04  0.6748E-04  0.6150E+00  0.6150E+00
     -1.933  0.5775E-02  0.5775E-02  0.6156E+00  0.6156E+00
     -1.828  0.1005E-01  0.1005E-01  0.6167E+00  0.6167E+00
     -1.724  0.1615E-01  0.1615E-01  0.6183E+00  0.6183E+00
     -1.619  0.8657E-02  0.8657E-02  0.6192E+00  0.6192E+00
     -1.515  0.6836E-02  0.6836E-02  0.6200E+00  0.6200E+00
     -1.411  0.3962E-02  0.3962E-02  0.6204E+00  0.6204E+00
     -1.306  0.3050E-01  0.3050E-01  0.6236E+00  0.6236E+00
     -1.202  0.1370E-01  0.1370E-01  0.6250E+00  0.6250E+00
     -1.098  0.5238E-03  0.5238E-03  0.6250E+00  0.6250E+00
     -0.993  0.1568E-01  0.1568E-01  0.6267E+00  0.6267E+00
     -0.889  0.5256E-01  0.5256E-01  0.6322E+00  0.6322E+00
     -0.785  0.3634E-01  0.3634E-01  0.6360E+00  0.6360E+00
     -0.680  0.2628E-01  0.2628E-01  0.6387E+00  0.6387E+00
     -0.576  0.3122E-01  0.3122E-01  0.6420E+00  0.6420E+00
     -0.472  0.3001E-01  0.3001E-01  0.6451E+00  0.6451E+00
     -0.367  0.1553E-01  0.1553E-01  0.6467E+00  0.6467E+00
     -0.263  0.1400E-01  0.1400E-01  0.6482E+00  0.6482E+00
     -0.159  0.3645E-01  0.3645E-01  0.6520E+00  0.6520E+00
     -0.054  0.2750E-01  0.2750E-01  0.6548E+00  0.6548E+00
      0.050  0.3703E-01  0.3703E-01  0.6587E+00  0.6587E+00
      0.154  0.3742E-01  0.3742E-01  0.6626E+00  0.6626E+00
      0.259  0.2430E-01  0.2430E-01  0.6651E+00  0.6651E+00
      0.363  0.1338E-01  0.1338E-01  0.6665E+00  0.6665E+00
      0.467  0.6710E-02  0.6710E-02  0.6672E+00  0.6672E+00
      0.572  0.1388E-01  0.1388E-01  0.6687E+00  0.6687E+00
      0.676  0.2310E-01  0.2310E-01  0.6711E+00  0.6711E+00
      0.781  0.3324E-01  0.3324E-01  0.6746E+00  0.6746E+00
      0.885  0.1900E-01  0.1900E-01  0.6765E+00  0.6765E+00
      0.989  0.2922E-01  0.2922E-01  0.6796E+00  0.6796E+00
      1.094  0.4244E-01  0.4244E-01  0.6840E+00  0.6840E+00
      1.198  0.1891E-01  0.1891E-01  0.6860E+00  0.6860E+00
      1.302  0.3365E-01  0.3365E-01  0.6895E+00  0.6895E+00
      1.407  0.4824E-01  0.4824E-01  0.6945E+00  0.6945E+00
      1.511  0.5878E-01  0.5878E-01  0.7007E+00  0.7007E+00
      1.615  0.5183E-01  0.5183E-01  0.7061E+00  0.7061E+00
      1.720  0.3869E-01  0.3869E-01  0.7101E+00  0.7101E+00
      1.824  0.2101E-01  0.2101E-01  0.7123E+00  0.7123E+00
      1.928  0.4472E-01  0.4472E-01  0.7170E+00  0.7170E+00
      2.033  0.6434E-01  0.6434E-01  0.7237E+00  0.7237E+00
      2.137  0.4866E-01  0.4866E-01  0.7288E+00  0.7288E+00
      2.241  0.6451E-01  0.6451E-01  0.7355E+00  0.7355E+00
      2.346  0.6175E-01  0.6175E-01  0.7420E+00  0.7420E+00
      2.450  0.9562E-01  0.9562E-01  0.7519E+00  0.7519E+00
      2.554  0.2477E-01  0.2477E-01  0.7545E+00  0.7545E+00
      2.659  0.2973E-01  0.2973E-01  0.7576E+00  0.7576E+00
      2.763  0.5302E-01  0.5302E-01  0.7631E+00  0.7631E+00
      2.867  0.1090E+00  0.1090E+00  0.7745E+00  0.7745E+00
      2.972  0.1478E+00  0.1478E+00  0.7899E+00  0.7899E+00
      3.076  0.6256E-01  0.6256E-01  0.7965E+00  0.7965E+00
      3.181  0.6414E-01  0.6414E-01  0.8032E+00  0.8032E+00
      3.285  0.8202E-01  0.8202E-01  0.8117E+00  0.8117E+00
      3.389  0.2217E-01  0.2217E-01  0.8140E+00  0.8140E+00
      3.494  0.7660E-01  0.7660E-01  0.8220E+00  0.8220E+00
      3.598  0.7075E-01  0.7075E-01  0.8294E+00  0.8294E+00
      3.702  0.3941E-01  0.3941E-01  0.8335E+00  0.8335E+00
      3.807  0.8609E-01  0.8609E-01  0.8425E+00  0.8425E+00
      3.911  0.8320E-01  0.8320E-01  0.8512E+00  0.8512E+00
      4.015  0.8394E-01  0.8395E-01  0.8599E+00  0.8599E+00
      4.120  0.4340E-01  0.4342E-01  0.8645E+00  0.8645E+00
      4.224  0.5281E-01  0.5263E-01  0.8700E+00  0.8700E+00
      4.328  0.1047E+00  0.1050E+00  0.8809E+00  0.8809E+00
      4.433  0.2289E-01  0.2274E-01  0.8833E+00  0.8833E+00
      4.537  0.2773E-03  0.3042E-03  0.8833E+00  0.8833E+00
      4.641  0.4622E-08  0.5621E-08  0.8833E+00  0.8833E+00
      4.746  0.2128E-16  0.2837E-16  0.8833E+00  0.8833E+00
      4.850  0.0000E+00  0.0000E+00  0.8833E+00  0.8833E+00
      4.954  0.0000E+00  0.0000E+00  0.8833E+00  0.8833E+00
      5.059  0.0000E+00  0.0000E+00  0.8833E+00  0.8833E+00
      5.163  0.0000E+00  0.0000E+00  0.8833E+00  0.8833E+00
      5.267  0.0000E+00  0.0000E+00  0.8833E+00  0.8833E+00
      5.372  0.0000E+00  0.0000E+00  0.8833E+00  0.8833E+00
      5.476  0.0000E+00  0.0000E+00  0.8833E+00  0.8833E+00
      5.580  0.0000E+00  0.0000E+00  0.8833E+00  0.8833E+00
      5.685  0.0000E+00  0.0000E+00  0.8833E+00  0.8833E+00
      5.789  0.0000E+00  0.0000E+00  0.8833E+00  0.8833E+00
