 vasp.6.4.2 20Jul23 (build Aug 26 2025 15:10:52) complex                        
  
 executed on             LinuxIFC date 2025.12.02  12:14:44
 running   50 mpi-ranks, on    1 nodes
 each image running on   10 cores
 distrk:  each k-point on    5 cores,    2 groups
 distr:  one band on NCORE=   1 cores,    5 groups


--------------------------------------------------------------------------------------------------------


 INCAR:
   ENCUT = 520
   EDIFF = 1E-5
   NELM = 200
   ALGO = Normal
   ISMEAR = 0
   SIGMA = 0.05
   LASPH = .TRUE.
   ADDGRID = .TRUE.
   LREAL = Auto
   ISYM = 0
   ISPIN = 2
   MAGMOM = 97*0.6
   IMIX = 4
   AMIX = 0.20
   BMIX = 1E-4
   AMIX_MAG = 0.80
   BMIX_MAG = 1E-4
   IBRION = 3
   POTIM = 0
   IMAGES = 5
   SPRING = -5
   LCLIMB = .TRUE.
   IOPT = 7
   ISIF = 2
   EDIFFG = -0.03
   NSW = 300
   IVDW = 12
   ISTART = 0
   ICHARG = 2
   LWAVE = .FALSE.
   LCHARG = .FALSE.
   KPAR = 2

 POTCAR:    PAW_PBE C 08Apr2002                   
 POTCAR:    PAW_PBE H 15Jun2001                   
 POTCAR:    PAW_PBE N 08Apr2002                   
 POTCAR:    PAW_PBE O 08Apr2002                   
 -----------------------------------------------------------------------------
|                                                                             |
|           W    W    AA    RRRRR   N    N  II  N    N   GGGG   !!!           |
|           W    W   A  A   R    R  NN   N  II  NN   N  G    G  !!!           |
|           W    W  A    A  R    R  N N  N  II  N N  N  G       !!!           |
|           W WW W  AAAAAA  RRRRR   N  N N  II  N  N N  G  GGG   !            |
|           WW  WW  A    A  R   R   N   NN  II  N   NN  G    G                |
|           W    W  A    A  R    R  N    N  II  N    N   GGGG   !!!           |
|                                                                             |
|     For optimal performance we recommend to set                             |
|       NCORE = 2 up to number-of-cores-per-socket                            |
|     NCORE specifies how many cores store one orbital (NPAR=cpu/NCORE).      |
|     This setting can greatly improve the performance of VASP for DFT.       |
|     The default, NCORE=1 might be grossly inefficient on modern             |
|     multi-core architectures or massively parallel machines. Do your        |
|     own testing! More info at https://www.vasp.at/wiki/index.php/NCORE      |
|     Unfortunately you need to use the default for GW and RPA                |
|     calculations (for HF NCORE is supported but not extensively tested      |
|     yet).                                                                   |
|                                                                             |
 -----------------------------------------------------------------------------

 POTCAR:    PAW_PBE C 08Apr2002                   
   SHA256 =  253f7b50bb8d59471dbedb8285d89021f4a42ed1a2c5d38a03a736e69125dd95 C/POTCAR              
   COPYR  = (c) Copyright 08Apr2002 Georg Kresse                                                    
   COPYR  = This file is part of the software VASP. Any use, copying, and all other rights are regul
   COPYR  = If you do not have a valid VASP license, you may not use, copy or distribute this file. 
   VRHFIN =C: s2p2                                                                                  
   LEXCH  = PE                                                                                      
   EATOM  =   147.1560 eV,   10.8157 Ry                                                             
                                                                                                    
   TITEL  = PAW_PBE C 08Apr2002                                                                     
   LULTRA =        F    use ultrasoft PP ?                                                          
   IUNSCR =        1    unscreen: 0-lin 1-nonlin 2-no                                               
   RPACOR =    1.200    partial core radius                                                         
   POMASS =   12.011; ZVAL   =    4.000    mass and valenz                                          
   RCORE  =    1.500    outmost cutoff radius                                                       
   RWIGS  =    1.630; RWIGS  =    0.863    wigner-seitz radius (au A)                               
   ENMAX  =  400.000; ENMIN  =  300.000 eV                                                          
   ICORE  =        2    local potential                                                             
   LCOR   =        T    correct aug charges                                                         
   LPAW   =        T    paw PP                                                                      
   EAUG   =  644.873                                                                                
   DEXC   =    0.000                                                                                
   RMAX   =    1.529    core radius for proj-oper                                                   
   RAUG   =    1.300    factor for augmentation sphere                                              
   RDEP   =    1.501    radius for radial grids                                                     
   RDEPT  =    1.300    core radius for aug-charge                                                  
                                                                                                    
   Atomic configuration                                                                             
    4 entries                                                                                       
     n  l   j            E        occ.                                                              
     1  0  0.50      -273.3789   2.0000                                                             
     2  0  0.50       -13.7508   2.0000                                                             
     2  1  0.50        -5.2854   2.0000                                                             
     3  2  1.50        -5.4423   0.0000                                                             
   Description                                                                                      
     l       E           TYP  RCUT    TYP  RCUT                                                     
     0    -13.7508458     23  1.200                                                                 
     0     -8.2022199     23  1.200                                                                 
     1     -5.2854383     23  1.500                                                                 
     1     34.0145650     23  1.500                                                                 
     2     -5.4423304      7  1.500                                                                 
  local pseudopotential read in
  partial core-charges read in
  partial kinetic energy density read in
  atomic valenz-charges read in
  non local Contribution for L=           0  read in
    real space projection operators read in
  non local Contribution for L=           0  read in
    real space projection operators read in
  non local Contribution for L=           1  read in
    real space projection operators read in
  non local Contribution for L=           1  read in
    real space projection operators read in
    PAW grid and wavefunctions read in
 
   number of l-projection  operators is LMAX  =           4
   number of lm-projection operators is LMMAX =           8
 
 POTCAR:    PAW_PBE H 15Jun2001                   
   SHA256 =  030f79b5d3ab3cf0e668861823c8fb652ff669f3e15e46930bd03bfd63a607b6 H/POTCAR              
   COPYR  = (c) Copyright 15Jun2001 Georg Kresse                                                    
   COPYR  = This file is part of the software VASP. Any use, copying, and all other rights are regul
   COPYR  = If you do not have a valid VASP license, you may not use, copy or distribute this file. 
   VRHFIN =H: ultrasoft test                                                                        
   LEXCH  = PE                                                                                      
   EATOM  =    12.4884 eV,    0.9179 Ry                                                             
                                                                                                    
   TITEL  = PAW_PBE H 15Jun2001                                                                     
   LULTRA =        F    use ultrasoft PP ?                                                          
   IUNSCR =        0    unscreen: 0-lin 1-nonlin 2-no                                               
   RPACOR =    0.000    partial core radius                                                         
   POMASS =    1.000; ZVAL   =    1.000    mass and valenz                                          
   RCORE  =    1.100    outmost cutoff radius                                                       
   RWIGS  =    0.700; RWIGS  =    0.370    wigner-seitz radius (au A)                               
   ENMAX  =  250.000; ENMIN  =  200.000 eV                                                          
   RCLOC  =    0.701    cutoff for local pot                                                        
   LCOR   =        T    correct aug charges                                                         
   LPAW   =        T    paw PP                                                                      
   EAUG   =  400.000                                                                                
   RMAX   =    1.123    core radius for proj-oper                                                   
   RAUG   =    1.200    factor for augmentation sphere                                              
   RDEP   =    1.112    radius for radial grids                                                     
   RDEPT  =    0.926    core radius for aug-charge                                                  
                                                                                                    
   Atomic configuration                                                                             
    2 entries                                                                                       
     n  l   j            E        occ.                                                              
     1  0  0.50        -6.4927   1.0000                                                             
     2  1  0.50        -3.4015   0.0000                                                             
   Description                                                                                      
     l       E           TYP  RCUT    TYP  RCUT                                                     
     0     -6.4927494     23  1.100                                                                 
     0      6.8029130     23  1.100                                                                 
     1     -4.0817478     23  1.100                                                                 
  local pseudopotential read in
  atomic valenz-charges read in
  non local Contribution for L=           0  read in
    real space projection operators read in
  non local Contribution for L=           0  read in
    real space projection operators read in
  non local Contribution for L=           1  read in
    real space projection operators read in
    PAW grid and wavefunctions read in
 
   number of l-projection  operators is LMAX  =           3
   number of lm-projection operators is LMMAX =           5
 
 POTCAR:    PAW_PBE N 08Apr2002                   
   SHA256 =  e053789ff3a61a86a1b75d8a110fcc91f86041011e7b0817c7c99e4e8a6349d7 N/POTCAR              
   COPYR  = (c) Copyright 08Apr2002 Georg Kresse                                                    
   COPYR  = This file is part of the software VASP. Any use, copying, and all other rights are regul
   COPYR  = If you do not have a valid VASP license, you may not use, copy or distribute this file. 
   VRHFIN =N: s2p3                                                                                  
   LEXCH  = PE                                                                                      
   EATOM  =   264.5486 eV,   19.4438 Ry                                                             
                                                                                                    
   TITEL  = PAW_PBE N 08Apr2002                                                                     
   LULTRA =        F    use ultrasoft PP ?                                                          
   IUNSCR =        1    unscreen: 0-lin 1-nonlin 2-no                                               
   RPACOR =    1.200    partial core radius                                                         
   POMASS =   14.001; ZVAL   =    5.000    mass and valenz                                          
   RCORE  =    1.500    outmost cutoff radius                                                       
   RWIGS  =    1.400; RWIGS  =    0.741    wigner-seitz radius (au A)                               
   ENMAX  =  400.000; ENMIN  =  300.000 eV                                                          
   ICORE  =        2    local potential                                                             
   LCOR   =        T    correct aug charges                                                         
   LPAW   =        T    paw PP                                                                      
   EAUG   =  627.112                                                                                
   DEXC   =    0.000                                                                                
   RMAX   =    1.529    core radius for proj-oper                                                   
   RAUG   =    1.300    factor for augmentation sphere                                              
   RDEP   =    1.514    radius for radial grids                                                     
   RDEPT  =    1.338    core radius for aug-charge                                                  
                                                                                                    
   Atomic configuration                                                                             
    4 entries                                                                                       
     n  l   j            E        occ.                                                              
     1  0  0.50      -384.7179   2.0000                                                             
     2  0  0.50       -18.5828   2.0000                                                             
     2  1  0.50        -7.0898   3.0000                                                             
     3  2  1.50        -6.8029   0.0000                                                             
   Description                                                                                      
     l       E           TYP  RCUT    TYP  RCUT                                                     
     0    -18.5828119     23  1.200                                                                 
     0    -13.5018863     23  1.200                                                                 
     1     -7.0897853     23  1.500                                                                 
     1      9.5240782     23  1.500                                                                 
     2     -6.8029130      7  1.500                                                                 
  local pseudopotential read in
  partial core-charges read in
  partial kinetic energy density read in
  atomic valenz-charges read in
  non local Contribution for L=           0  read in
    real space projection operators read in
  non local Contribution for L=           0  read in
    real space projection operators read in
  non local Contribution for L=           1  read in
    real space projection operators read in
  non local Contribution for L=           1  read in
    real space projection operators read in
    PAW grid and wavefunctions read in
 
   number of l-projection  operators is LMAX  =           4
   number of lm-projection operators is LMMAX =           8
 
 POTCAR:    PAW_PBE O 08Apr2002                   
   SHA256 =  818f92134a0a090dccd8ba1447fa70422a3b330e708bb4f08108d8ae51209ddf O/POTCAR              
   COPYR  = (c) Copyright 08Apr2002 Georg Kresse                                                    
   COPYR  = This file is part of the software VASP. Any use, copying, and all other rights are regul
   COPYR  = If you do not have a valid VASP license, you may not use, copy or distribute this file. 
   VRHFIN =O: s2p4                                                                                  
   LEXCH  = PE                                                                                      
   EATOM  =   432.3788 eV,   31.7789 Ry                                                             
                                                                                                    
   TITEL  = PAW_PBE O 08Apr2002                                                                     
   LULTRA =        F    use ultrasoft PP ?                                                          
   IUNSCR =        1    unscreen: 0-lin 1-nonlin 2-no                                               
   RPACOR =    1.200    partial core radius                                                         
   POMASS =   16.000; ZVAL   =    6.000    mass and valenz                                          
   RCORE  =    1.520    outmost cutoff radius                                                       
   RWIGS  =    1.550; RWIGS  =    0.820    wigner-seitz radius (au A)                               
   ENMAX  =  400.000; ENMIN  =  300.000 eV                                                          
   ICORE  =        2    local potential                                                             
   LCOR   =        T    correct aug charges                                                         
   LPAW   =        T    paw PP                                                                      
   EAUG   =  605.392                                                                                
   DEXC   =    0.000                                                                                
   RMAX   =    1.553    core radius for proj-oper                                                   
   RAUG   =    1.300    factor for augmentation sphere                                              
   RDEP   =    1.550    radius for radial grids                                                     
   RDEPT  =    1.329    core radius for aug-charge                                                  
                                                                                                    
   Atomic configuration                                                                             
    4 entries                                                                                       
     n  l   j            E        occ.                                                              
     1  0  0.50      -514.6923   2.0000                                                             
     2  0  0.50       -23.9615   2.0000                                                             
     2  1  0.50        -9.0305   4.0000                                                             
     3  2  1.50        -9.5241   0.0000                                                             
   Description                                                                                      
     l       E           TYP  RCUT    TYP  RCUT                                                     
     0    -23.9615318     23  1.200                                                                 
     0     -9.5240782     23  1.200                                                                 
     1     -9.0304911     23  1.520                                                                 
     1      8.1634956     23  1.520                                                                 
     2     -9.5240782      7  1.500                                                                 
  local pseudopotential read in
  partial core-charges read in
  partial kinetic energy density read in
  kinetic energy density of atom read in
  atomic valenz-charges read in
  non local Contribution for L=           0  read in
    real space projection operators read in
  non local Contribution for L=           0  read in
    real space projection operators read in
  non local Contribution for L=           1  read in
    real space projection operators read in
  non local Contribution for L=           1  read in
    real space projection operators read in
    PAW grid and wavefunctions read in
 
   number of l-projection  operators is LMAX  =           4
   number of lm-projection operators is LMMAX =           8
 
 Optimization of the real space projectors (new method)

 maximal supplied QI-value         = 25.13
 optimisation between [QCUT,QGAM] = [ 11.56, 23.12] = [ 37.43,149.72] Ry 
 Optimized for a Real-space Cutoff    1.04 Angstroem

   l    n(q)    QCUT    max X(q) W(low)/X(q) W(high)/X(q)  e(spline) 
   0      7    11.561   115.676    0.20E-03    0.60E-03    0.21E-06
   0      7    11.561    87.132    0.20E-03    0.59E-03    0.21E-06
   1      7    11.561     4.429    0.23E-03    0.35E-03    0.15E-06
   1      7    11.561     2.733    0.18E-03    0.25E-03    0.12E-06
 Optimization of the real space projectors (new method)

 maximal supplied QI-value         = 34.20
 optimisation between [QCUT,QGAM] = [ 11.63, 23.26] = [ 37.87,151.49] Ry 
 Optimized for a Real-space Cutoff    1.14 Angstroem

   l    n(q)    QCUT    max X(q) W(low)/X(q) W(high)/X(q)  e(spline) 
   0      8    11.629    19.460    0.27E-03    0.65E-03    0.17E-06
   0      8    11.629    12.209    0.25E-03    0.62E-03    0.16E-06
   1      7    11.629     4.655    0.29E-03    0.85E-04    0.19E-06
 Optimization of the real space projectors (new method)

 maximal supplied QI-value         = 25.13
 optimisation between [QCUT,QGAM] = [ 11.56, 23.12] = [ 37.43,149.72] Ry 
 Optimized for a Real-space Cutoff    1.25 Angstroem

   l    n(q)    QCUT    max X(q) W(low)/X(q) W(high)/X(q)  e(spline) 
   0      9    11.561    79.467    0.52E-04    0.16E-03    0.37E-06
   0      9    11.561    66.151    0.51E-04    0.16E-03    0.37E-06
   1      8    11.561    18.886    0.46E-03    0.28E-03    0.80E-06
   1      8    11.561    13.488    0.47E-03    0.29E-03    0.82E-06
 Optimization of the real space projectors (new method)

 maximal supplied QI-value         = 24.76
 optimisation between [QCUT,QGAM] = [ 11.64, 23.27] = [ 37.91,151.63] Ry 
 Optimized for a Real-space Cutoff    1.04 Angstroem

   l    n(q)    QCUT    max X(q) W(low)/X(q) W(high)/X(q)  e(spline) 
   0      7    11.635    20.381    0.14E-03    0.49E-03    0.18E-06
   0      7    11.635    15.268    0.16E-03    0.52E-03    0.19E-06
   1      7    11.635     5.964    0.30E-03    0.44E-03    0.22E-06
   1      7    11.635     5.382    0.27E-03    0.34E-03    0.19E-06
  PAW_PBE C 08Apr2002                   :
 energy of atom  1       EATOM= -147.1560
 kinetic energy error for atom=    0.0071 (will be added to EATOM!!)
  PAW_PBE H 15Jun2001                   :
 energy of atom  2       EATOM=  -12.4884
 kinetic energy error for atom=    0.0014 (will be added to EATOM!!)
  PAW_PBE N 08Apr2002                   :
 energy of atom  3       EATOM= -264.5486
 kinetic energy error for atom=    0.0125 (will be added to EATOM!!)
  PAW_PBE O 08Apr2002                   :
 energy of atom  4       EATOM= -432.3788
 kinetic energy error for atom=    0.0208 (will be added to EATOM!!)
 
 
 POSCAR: C    H    N    O
  positions in direct lattice
  velocities in cartesian coordinates
 exchange correlation table for  LEXCH =        8
   RHO(1)=    0.500       N(1)  =     2000
   RHO(2)=  100.500       N(2)  =     4000

 VTST: version 4.1, (05/19/21)

 CHAIN: initializing optimizer
 
 OPT: Using FIRE optimizer
 OPT: FIRE, Init
 OPT: FIRE, MAXMOVE       0.20000
 OPT: FIRE, TIMESTEP      0.10000
 OPT: FIRE, FTIMEMAX      1.00000
 OPT: FIRE, FTIMEINC      1.10000
 OPT: FIRE, FTIMEDEC      0.50000
 OPT: FIRE, FALPHADEC     0.99000
 OPT: FIRE, FALPHA        0.10000
 OPT: FIRE, FNMIN         5
 
 CHAIN: Read ICHAIN            0
 CHAIN: Running the NEB
 NEB:          SPRING     -5.000000
 NEB:          LCLIMB      T
 NEB:     LTANGENTOLD      F
 NEB:           LDNEB      F
 NEB:        LDNEBORG      F
 NEB:        LNEBCELL      F
 NEB:          EFIRST      0.000000
 NEB:           ELAST      0.000000
 
 POSCAR: C    H    N    O
  positions in direct lattice
  No initial velocities read in
 
 POSCAR: C    H    N    O
  positions in direct lattice
  No initial velocities read in
 
 POSCAR: C    H    N    O
  positions in direct lattice
  No initial velocities read in
 
 POSCAR: C    H    N    O
  positions in direct lattice
  No initial velocities read in
 


--------------------------------------------------------------------------------------------------------


 ion  position               nearest neighbor table
   1  0.999  0.999  0.500-  45 1.42  86 1.42  51 1.43
   2  0.999  0.142  0.500-  46 1.42  80 1.42  45 1.43
   3  0.999  0.285  0.500-  81 1.42  47 1.42  46 1.42
   4  0.999  0.428  0.500-  47 1.42  82 1.42  48 1.43
   5  0.999  0.571  0.500-  48 1.42  83 1.43  49 1.43
   6  1.000  0.714  0.500-  49 1.42  50 1.43  84 1.43
   7  1.000  0.857  0.500-  51 1.42  50 1.43  85 1.43
   8  0.143  0.000  0.500-  52 1.42  58 1.43  51 1.43
   9  0.142  0.142  0.500-  53 1.42  45 1.42  52 1.43
  10  0.141  0.284  0.500-  54 1.42  46 1.42  53 1.42
  11  0.141  0.428  0.500-  54 1.42  47 1.42  55 1.42
  12  0.142  0.571  0.500-  55 1.42  48 1.42  56 1.43
  13  0.143  0.714  0.500-  56 1.42  57 1.43  49 1.43
  14  0.143  0.857  0.500-  57 1.43  58 1.43  50 1.43
  15  0.286  0.000  0.500-  65 1.42  58 1.42  59 1.43
  16  0.286  0.143  0.500-  59 1.42  60 1.43  52 1.43
  17  0.285  0.286  0.500-  61 1.38  53 1.43  60 1.46
  18  0.282  0.427  0.501-  61 1.41  62 1.41  54 1.42
  19  0.285  0.570  0.501-  62 1.38  55 1.43  63 1.46
  20  0.286  0.714  0.500-  64 1.42  63 1.43  56 1.43
  21  0.286  0.857  0.500-  65 1.42  57 1.43  64 1.43
  22  0.429  0.000  0.500-  69 1.42  66 1.42  65 1.43
  23  0.430  0.144  0.500-  66 1.43  59 1.43  67 1.43
  24  0.428  0.284  0.500-  87 1.09  67 1.40  60 1.40
  25  0.428  0.716  0.500-  92 1.09  68 1.40  63 1.40
  26  0.430  0.857  0.500-  69 1.43  64 1.43  68 1.43
  27  0.571  1.000  0.500-  69 1.42  70 1.42  72 1.43
  28  0.571  0.143  0.500-  66 1.42  70 1.42  71 1.43
  29  0.575  0.289  0.500-  95 1.36  71 1.43  67 1.46
  30  0.575  0.857  0.500-  96 1.36  72 1.43  68 1.46
  31  0.714  0.000  0.500-  72 1.42  79 1.42  73 1.42
  32  0.714  0.143  0.500-  74 1.42  73 1.42  70 1.42
  33  0.714  0.285  0.500-  71 1.42  75 1.42  74 1.42
  34  0.710  0.425  0.500-  95 1.35  75 1.43  76 1.47
  35  0.717  0.572  0.500-  91 1.08  76 1.38  77 1.41
  36  0.717  0.716  0.500-  90 1.08  78 1.38  77 1.41
  37  0.710  0.857  0.500-  96 1.35  79 1.43  78 1.47
  38  0.856  1.000  0.500-  80 1.42  79 1.43  86 1.43
  39  0.857  0.143  0.500-  73 1.42  81 1.42  80 1.43
  40  0.857  0.285  0.500-  74 1.42  81 1.42  82 1.43
  41  0.856  0.428  0.500-  82 1.42  75 1.43  83 1.43
  42  0.856  0.571  0.500-  83 1.42  84 1.43  76 1.44
  43  0.857  0.714  0.500-  85 1.42  84 1.42  77 1.43
  44  0.856  0.857  0.500-  86 1.42  85 1.43  78 1.44
  45  0.047  0.095  0.500-   1 1.42   9 1.42   2 1.43
  46  0.046  0.237  0.500-   2 1.42  10 1.42   3 1.42
  47  0.046  0.380  0.500-   4 1.42  11 1.42   3 1.42
  48  0.047  0.524  0.500-   5 1.42  12 1.42   4 1.43
  49  0.048  0.667  0.500-   6 1.42   5 1.43  13 1.43
  50  0.048  0.809  0.500-   6 1.43   7 1.43  14 1.43
  51  0.048  0.952  0.500-   7 1.42   1 1.43   8 1.43
  52  0.191  0.095  0.500-   8 1.42   9 1.43  16 1.43
  53  0.189  0.237  0.500-   9 1.42  10 1.42  17 1.43
  54  0.187  0.379  0.501-  11 1.42  10 1.42  18 1.42
  55  0.189  0.523  0.500-  12 1.42  11 1.42  19 1.43
  56  0.191  0.667  0.500-  13 1.42  12 1.43  20 1.43
  57  0.191  0.810  0.500-  21 1.43  14 1.43  13 1.43
  58  0.191  0.953  0.500-  15 1.42  14 1.43   8 1.43
  59  0.334  0.096  0.500-  16 1.42  23 1.43  15 1.43
  60  0.335  0.239  0.500-  24 1.40  16 1.43  17 1.46
  61  0.328  0.379  0.501-  88 1.08  17 1.38  18 1.41
  62  0.328  0.521  0.501-  89 1.08  19 1.38  18 1.41
  63  0.335  0.667  0.501-  25 1.40  20 1.43  19 1.46
  64  0.334  0.809  0.500-  20 1.42  26 1.43  21 1.43
  65  0.334  0.952  0.500-  15 1.42  21 1.42  22 1.43
  66  0.476  0.095  0.500-  28 1.42  22 1.42  23 1.43
  67  0.477  0.240  0.500-  24 1.40  23 1.43  29 1.46
  68  0.477  0.809  0.500-  25 1.40  26 1.43  30 1.46
  69  0.476  0.952  0.500-  27 1.42  22 1.42  26 1.43
  70  0.619  0.095  0.500-  27 1.42  28 1.42  32 1.42
  71  0.620  0.238  0.500-  33 1.42  29 1.43  28 1.43
  72  0.620  0.953  0.500-  31 1.42  30 1.43  27 1.43
  73  0.762  0.096  0.500-  39 1.42  32 1.42  31 1.42
  74  0.762  0.238  0.500-  40 1.42  32 1.42  33 1.42
  75  0.761  0.380  0.500-  33 1.42  41 1.43  34 1.43
  76  0.760  0.523  0.500-  35 1.38  42 1.44  34 1.47
  77  0.762  0.666  0.500-  35 1.41  36 1.41  43 1.43
  78  0.760  0.808  0.500-  36 1.38  44 1.44  37 1.47
  79  0.761  0.952  0.500-  31 1.42  38 1.43  37 1.43
  80  0.904  0.094  0.500-  38 1.42   2 1.42  39 1.43
  81  0.904  0.238  0.500-   3 1.42  39 1.42  40 1.42
  82  0.904  0.381  0.500-  41 1.42   4 1.42  40 1.43
  83  0.904  0.524  0.500-  42 1.42   5 1.43  41 1.43
  84  0.904  0.666  0.500-  43 1.42  42 1.43   6 1.43
  85  0.904  0.809  0.500-  43 1.42  44 1.43   7 1.43
  86  0.904  0.952  0.500-  44 1.42   1 1.42  38 1.43
  87  0.466  0.356  0.500-  24 1.09
  88  0.400  0.418  0.501-  61 1.08
  89  0.400  0.554  0.501-  62 1.08
  90  0.644  0.682  0.500-  36 1.08
  91  0.644  0.533  0.500-  35 1.08
  92  0.466  0.681  0.501-  25 1.09
  93  0.548  0.605  0.499-  97 0.97
  94  0.549  0.516  0.499-  97 0.97
  95  0.620  0.380  0.500-  34 1.35  29 1.36
  96  0.620  0.812  0.500-  37 1.35  30 1.36
  97  0.509  0.540  0.500-  94 0.97  93 0.97
 

IMPORTANT INFORMATION: All symmetrisations will be switched off!
NOSYMM: (Re-)initialisation of all symmetry stuff for point group C_1.


----------------------------------------------------------------------------------------

                                     Primitive cell                                     

  volume of cell :    3874.8846

  direct lattice vectors                    reciprocal lattice vectors
    17.271038055  0.000000000  0.000000000     0.057900399  0.033428811  0.000000000
    -8.635519028 14.957157706  0.000000000     0.000000000  0.066857622  0.000000000
     0.000000000  0.000000000 15.000000000     0.000000000  0.000000000  0.066666667

  length of vectors
    17.271038055 17.271038055 15.000000000     0.066857622  0.066857622  0.066666667

  position of ions in fractional coordinates (direct lattice)
     0.999440866  0.999479286  0.499836815
     0.998956160  0.142023077  0.499914677
     0.998870648  0.285118458  0.500073803
     0.998944672  0.428273608  0.500127697
     0.999468309  0.571281074  0.500032513
     0.999946180  0.714093192  0.499878655
     0.999946156  0.857154966  0.499824806
     0.143028062  0.000178458  0.499897717
     0.142176676  0.142424464  0.499980628
     0.140977794  0.284457717  0.500247550
     0.140988010  0.427851723  0.500471631
     0.142198549  0.571061220  0.500293250
     0.143065359  0.714142300  0.500018986
     0.143160520  0.857219217  0.499840684
     0.286166458  0.000229204  0.499861189
     0.286140054  0.143144563  0.499953911
     0.284894963  0.286374529  0.500328890
     0.282159814  0.426712812  0.500853058
     0.284918351  0.569841934  0.500695462
     0.286188123  0.714303691  0.500301941
     0.286186807  0.857262042  0.499982010
     0.428978232  0.000169954  0.499999529
     0.429575554  0.143813401  0.499933608
     0.427942120  0.283747976  0.500025527
     0.428029041  0.715551203  0.500497415
     0.429605891  0.857126029  0.500186733
     0.571433356  0.999992091  0.500178953
     0.571435853  0.142873639  0.500041595
     0.574871624  0.289032205  0.499938672
     0.574912184  0.857287305  0.500239946
     0.714241256  0.000393468  0.500103796
     0.714057432  0.142738901  0.500071706
     0.714218539  0.285263080  0.499991201
     0.710292426  0.424626609  0.499911240
     0.716658698  0.572068403  0.499874431
     0.716681174  0.715980037  0.499860470
     0.710321965  0.857077615  0.500029237
     0.856405308  0.999522015  0.499941020
     0.856518873  0.142577162  0.499979486
     0.856520907  0.285365197  0.500001022
     0.856394356  0.428264189  0.499978830
     0.856295748  0.570667951  0.499905439
     0.857381561  0.714363091  0.499760141
     0.856295833  0.856972506  0.499820450
     0.046962575  0.094678381  0.499886187
     0.045907126  0.236954609  0.500054616
     0.045906627  0.380312713  0.500227270
     0.046981335  0.523612815  0.500158089
     0.047525227  0.666613326  0.499982296
     0.047537981  0.809410956  0.499836702
     0.047504975  0.952204959  0.499855656
     0.190515270  0.095141516  0.499943647
     0.189147392  0.237364554  0.500166606
     0.187174740  0.379247978  0.500547850
     0.189174216  0.523095010  0.500486907
     0.190558215  0.666672903  0.500183769
     0.190911176  0.809651841  0.499927936
     0.190906176  0.952552084  0.499862303
     0.334139542  0.095960538  0.499886974
     0.334509303  0.238571803  0.500083022
     0.328296692  0.378836430  0.500763465
     0.328271776  0.520738247  0.500988265
     0.334596295  0.667261520  0.500546377
     0.334159771  0.809496528  0.500144645
     0.333555662  0.952450412  0.499913585
     0.476477674  0.095411673  0.499982193
     0.477108649  0.239592572  0.499950514
     0.477150767  0.808892846  0.500322400
     0.476496373  0.952474347  0.500127784
     0.618785774  0.095105356  0.500112746
     0.619510974  0.238362384  0.499992400
     0.619535492  0.952599667  0.500205101
     0.761730080  0.095520163  0.500048531
     0.761702369  0.237618668  0.500017889
     0.761047379  0.380059089  0.499952664
     0.760126720  0.523008099  0.499877653
     0.761610772  0.666481562  0.499802189
     0.760129240  0.808499069  0.499874309
     0.761068124  0.952416157  0.500034403
     0.903775511  0.094402266  0.499927840
     0.903914026  0.237656736  0.499995175
     0.903776153  0.380763452  0.500017769
     0.904184584  0.523645548  0.499970941
     0.904246184  0.666135771  0.499846166
     0.904248471  0.809451951  0.499770965
     0.904183486  0.951893802  0.499870707
     0.466117137  0.356321434  0.500086927
     0.400399460  0.418120832  0.500945484
     0.400364919  0.553593606  0.501205879
     0.644444966  0.682434553  0.500035030
     0.644421412  0.533297469  0.500058398
     0.466251219  0.681211635  0.500592287
     0.547721641  0.604661660  0.499332553
     0.548549651  0.515774174  0.499176611
     0.620172264  0.379659241  0.499899291
     0.620208800  0.811955924  0.500140341
     0.508670767  0.540204899  0.500000046

  ion indices of the primitive-cell ions
   primitive index   ion index
                 1           1
                 2           2
                 3           3
                 4           4
                 5           5
                 6           6
                 7           7
                 8           8
                 9           9
                10          10
                11          11
                12          12
                13          13
                14          14
                15          15
                16          16
                17          17
                18          18
                19          19
                20          20
                21          21
                22          22
                23          23
                24          24
                25          25
                26          26
                27          27
                28          28
                29          29
                30          30
                31          31
                32          32
                33          33
                34          34
                35          35
                36          36
                37          37
                38          38
                39          39
                40          40
                41          41
                42          42
                43          43
                44          44
                45          45
                46          46
                47          47
                48          48
                49          49
                50          50
                51          51
                52          52
                53          53
                54          54
                55          55
                56          56
                57          57
                58          58
                59          59
                60          60
                61          61
                62          62
                63          63
                64          64
                65          65
                66          66
                67          67
                68          68
                69          69
                70          70
                71          71
                72          72
                73          73
                74          74
                75          75
                76          76
                77          77
                78          78
                79          79
                80          80
                81          81
                82          82
                83          83
                84          84
                85          85
                86          86
                87          87
                88          88
                89          89
                90          90
                91          91
                92          92
                93          93
                94          94
                95          95
                96          96
                97          97

----------------------------------------------------------------------------------------

 
 
 KPOINTS: Automatic mesh                          

Automatic generation of k-mesh.
 Grid dimensions read from file:
 generate k-points for:    2    2    1

 Generating k-lattice:

  Cartesian coordinates                     Fractional coordinates (reciprocal lattice)
     0.028950200  0.016714406  0.000000000     0.500000000  0.000000000  0.000000000
     0.000000000  0.033428811  0.000000000     0.000000000  0.500000000  0.000000000
     0.000000000  0.000000000  0.066666667     0.000000000  0.000000000  1.000000000

  Length of vectors
     0.033428811  0.033428811  0.066666667

  Shift w.r.t. Gamma in fractional coordinates (k-lattice)
     0.000000000  0.000000000  0.000000000

 
 Subroutine IBZKPT returns following result:
 ===========================================
 
 Found      4 irreducible k-points:
 
 Following reciprocal coordinates:
            Coordinates               Weight
  0.000000  0.000000  0.000000      1.000000
  0.500000  0.000000  0.000000      1.000000
  0.000000  0.500000  0.000000      1.000000
  0.500000  0.500000  0.000000      1.000000
 
 Following cartesian coordinates:
            Coordinates               Weight
  0.000000  0.000000  0.000000      1.000000
  0.028950  0.016714  0.000000      1.000000
  0.000000  0.033429  0.000000      1.000000
  0.028950  0.050143  0.000000      1.000000
 


--------------------------------------------------------------------------------------------------------




 Dimension of arrays:
   k-points           NKPTS =      4   k-points in BZ     NKDIM =      4   number of bands    NBANDS=    265
   number of dos      NEDOS =    301   number of ions     NIONS =     97
   non local maximal  LDIM  =      4   non local SUM 2l+1 LMDIM =      8
   total plane-waves  NPLWV = 774144
   max r-space proj   IRMAX =   1673   max aug-charges    IRDMAX=  20933
   dimension x,y,z NGX =    96 NGY =   96 NGZ =   84
   dimension x,y,z NGXF=   192 NGYF=  192 NGZF=  168
   support grid    NGXF=   384 NGYF=  384 NGZF=  336
   ions per type =              86   8   2   1
   NGX,Y,Z   is equivalent  to a cutoff of   9.24,  9.24,  9.31 a.u.
   NGXF,Y,Z  is equivalent  to a cutoff of  18.48, 18.48, 18.62 a.u.

 SYSTEM =  unknown system                          
 POSCAR =  C    H    N    O                        

 Startparameter for this run:
   NWRITE =      2    write-flag & timer
   PREC   = normal    normal or accurate (medium, high low for compatibility)
   ISTART =      0    job   : 0-new  1-cont  2-samecut
   ICHARG =      2    charge: 1-file 2-atom 10-const
   ISPIN  =      2    spin polarized calculation?
   LNONCOLLINEAR =      F non collinear calculations
   LSORBIT =      F    spin-orbit coupling
   INIWAV =      1    electr: 0-lowe 1-rand  2-diag
   LASPH  =      T    aspherical Exc in radial PAW
 Electronic Relaxation 1
   ENCUT  =  520.0 eV  38.22 Ry    6.18 a.u.  32.11 32.11 27.89*2*pi/ulx,y,z
   ENINI  =  520.0     initial cutoff
   ENAUG  =  644.9 eV  augmentation charge cutoff
   NELM   =    200;   NELMIN=  2; NELMDL= -5     # of ELM steps 
   EDIFF  = 0.1E-04   stopping-criterion for ELM
   LREAL  =      T    real-space projection
   NLSPLINE    = F    spline interpolate recip. space projectors
   LCOMPAT=      F    compatible to vasp.4.4
   GGA_COMPAT  = T    GGA compatible to vasp.4.4-vasp.4.6
   LMAXPAW     = -100 max onsite density
   LMAXMIX     =    2 max onsite mixed and CHGCAR
   VOSKOWN=      0    Vosko Wilk Nusair interpolation
   ROPT   =   -0.00050  -0.00050  -0.00050  -0.00050
 Ionic relaxation
   EDIFFG = -.3E-01   stopping-criterion for IOM
   NSW    =    300    number of steps for IOM
   NBLOCK =      1;   KBLOCK =    300    inner block; outer block 
   IBRION =      3    ionic relax: 0-MD 1-quasi-New 2-CG
   NFREE  =      0    steps in history (QN), initial steepest desc. (CG)
   ISIF   =      2    stress and relaxation
   IWAVPR =     11    prediction:  0-non 1-charg 2-wave 3-comb
   ISYM   =      0    0-nonsym 1-usesym 2-fastsym
   LCORR  =      T    Harris-Foulkes like correction to forces

   POTIM  = 0.0000    time-step for ionic-motion
   TEIN   =    0.0    initial temperature
   TEBEG  =    0.0;   TEEND  =   0.0 temperature during run
   SMASS  =  -3.00    Nose mass-parameter (am)
   estimated Nose-frequenzy (Omega)   =  0.10E-29 period in steps = 0.00E+00 mass=  -0.682E-26a.u.
   SCALEE = 1.0000    scale energy and forces
   NPACO  =    256;   APACO  = 10.0  distance and # of slots for P.C.
   PSTRESS=    0.0 pullay stress

  Mass of Ions in am
   POMASS =  12.01  1.00 14.00 16.00
  Ionic Valenz
   ZVAL   =   4.00  1.00  5.00  6.00
  Atomic Wigner-Seitz radii
   RWIGS  =  -1.00 -1.00 -1.00 -1.00
  virtual crystal weights 
   VCA    =   1.00  1.00  1.00  1.00
   NELECT =     368.0000    total number of electrons
   NUPDOWN=      -1.0000    fix difference up-down

 DOS related values:
   EMIN   =  10.00;   EMAX   =-10.00  energy-range for DOS
   EFERMI =   0.00;   METHOD = LEGACY      
   ISMEAR =     0;   SIGMA  =   0.05  broadening in eV -4-tet -1-fermi 0-gaus

 Electronic relaxation 2 (details)
   IALGO  =     38    algorithm
   LDIAG  =      T    sub-space diagonalisation (order eigenvalues)
   LSUBROT=      F    optimize rotation matrix (better conditioning)
   TURBO    =      0    0=normal 1=particle mesh
   IRESTART =      0    0=no restart 2=restart with 2 vectors
   NREBOOT  =      0    no. of reboots
   NMIN     =      0    reboot dimension
   EREF     =   0.00    reference energy to select bands
   IMIX   =      4    mixing-type and parameters
     AMIX     =   0.20;   BMIX     =  0.00
     AMIX_MAG =   0.80;   BMIX_MAG =  0.00
     AMIN     =   0.10
     WC   =   100.;   INIMIX=   1;  MIXPRE=   1;  MAXMIX= -45

 Intra band minimization:
   WEIMIN = 0.0010     energy-eigenvalue tresh-hold
   EBREAK =  0.94E-08  absolut break condition
   DEPER  =   0.30     relativ break condition  

   TIME   =   0.40     timestep for ELM

  volume/ion in A,a.u.               =      39.95       269.58
  Fermi-wavevector in a.u.,A,eV,Ry     =   0.746915  1.411465  7.590446  0.557882
  Thomas-Fermi vector in A             =   1.842848
 
 Write flags
   LWAVE        =      F    write WAVECAR
   LDOWNSAMPLE  =      F    k-point downsampling of WAVECAR
   LCHARG       =      F    write CHGCAR
   LVTOT        =      F    write LOCPOT, total local potential
   LVHAR        =      F    write LOCPOT, Hartree potential only
   LELF         =      F    write electronic localiz. function (ELF)
   LORBIT       =      0    0 simple, 1 ext, 2 COOP (PROOUT), +10 PAW based schemes


 Dipole corrections
   LMONO  =      F    monopole corrections only (constant potential shift)
   LDIPOL =      F    correct potential (dipole corrections)
   IDIPOL =      0    1-x, 2-y, 3-z, 4-all directions 
   EPSILON=  1.0000000 bulk dielectric constant

 Exchange correlation treatment:
   GGA     =    --    GGA type
   LEXCH   =     8    internal setting for exchange type
   LIBXC   =     F    Libxc                    
   VOSKOWN =     0    Vosko Wilk Nusair interpolation
   LHFCALC =     F    Hartree Fock is set to
   LHFONE  =     F    Hartree Fock one center treatment
   AEXX    =    0.0000 exact exchange contribution

 Linear response parameters
   LEPSILON=     F    determine dielectric tensor
   LRPA    =     F    only Hartree local field effects (RPA)
   LNABLA  =     F    use nabla operator in PAW spheres
   LVEL    =     F    velocity operator in full k-point grid
   CSHIFT  =0.1000    complex shift for real part using Kramers Kronig
   OMEGAMAX=  -1.0    maximum frequency
   DEG_THRESHOLD= 0.2000000E-02 threshold for treating states as degnerate
   RTIME   =   -0.100 relaxation time in fs
  (WPLASMAI=    0.000 imaginary part of plasma frequency in eV, 0.658/RTIME)
   DFIELD  = 0.0000000 0.0000000 0.0000000 field for delta impulse in time
 
  Optional k-point grid parameters
   LKPOINTS_OPT  =     F    use optional k-point grid
   KPOINTS_OPT_MODE=     1    mode for optional k-point grid
 
 Orbital magnetization related:
   ORBITALMAG=     F  switch on orbital magnetization
   LCHIMAG   =     F  perturbation theory with respect to B field
   DQ        =  0.001000  dq finite difference perturbation B field
   LLRAUG    =     F  two centre corrections for induced B field
   LBONE     =     F  B-component reconstruction in AE one-centre
   LVGVCALC  =     T  calculate vGv susceptibility
   LVGVAPPL  =     F  apply vGv susceptibility instead of pGv for G=0

 Random number generation:
   RANDOM_GENERATOR = DEFAULT
   PCG_SEED         = not used


--------------------------------------------------------------------------------------------------------


 quickmin algorithm: (dynamic with friction)
   using selective dynamics as specified on POSCAR
 charge density and potential will be updated during run
 spin polarized calculation
 Variant of blocked Davidson
 Davidson routine will perform the subspace rotation
 perform sub-space diagonalisation
    after iterative eigenvector-optimisation
 modified Broyden-mixing scheme, WC =      100.0
 initial mixing is a Kerker type mixing with AMIX =  0.2000 and BMIX =      0.0001
 Hartree-type preconditioning will be used
 using additional bands           81
 real space projection scheme for non local part
 use partial core corrections
 calculate Harris-corrections to forces 
   (improved forces if not selfconsistent)
 use gradient corrections 
 use of overlap-Matrix (Vanderbilt PP)
 Gauss-broadening in eV      SIGMA  =   0.05


--------------------------------------------------------------------------------------------------------


  energy-cutoff  :      520.00
  volume of cell :     3874.88
      direct lattice vectors                 reciprocal lattice vectors
    17.271038055  0.000000000  0.000000000     0.057900399  0.033428811  0.000000000
    -8.635519028 14.957157706  0.000000000     0.000000000  0.066857622  0.000000000
     0.000000000  0.000000000 15.000000000     0.000000000  0.000000000  0.066666667

  length of vectors
    17.271038055 17.271038055 15.000000000     0.066857622  0.066857622  0.066666667


 
 k-points in units of 2pi/SCALE and weight: Automatic mesh                          
   0.00000000  0.00000000  0.00000000       0.250
   0.02895020  0.01671441  0.00000000       0.250
   0.00000000  0.03342881  0.00000000       0.250
   0.02895020  0.05014322  0.00000000       0.250
 
 k-points in reciprocal lattice and weights: Automatic mesh                          
   0.00000000  0.00000000  0.00000000       0.250
   0.50000000  0.00000000  0.00000000       0.250
   0.00000000  0.50000000  0.00000000       0.250
   0.50000000  0.50000000  0.00000000       0.250
 
 position of ions in fractional coordinates (direct lattice) 
   0.99944087  0.99947929  0.49983682
   0.99895616  0.14202308  0.49991468
   0.99887065  0.28511846  0.50007380
   0.99894467  0.42827361  0.50012770
   0.99946831  0.57128107  0.50003251
   0.99994618  0.71409319  0.49987866
   0.99994616  0.85715497  0.49982481
   0.14302806  0.00017846  0.49989772
   0.14217668  0.14242446  0.49998063
   0.14097779  0.28445772  0.50024755
   0.14098801  0.42785172  0.50047163
   0.14219855  0.57106122  0.50029325
   0.14306536  0.71414230  0.50001899
   0.14316052  0.85721922  0.49984068
   0.28616646  0.00022920  0.49986119
   0.28614005  0.14314456  0.49995391
   0.28489496  0.28637453  0.50032889
   0.28215981  0.42671281  0.50085306
   0.28491835  0.56984193  0.50069546
   0.28618812  0.71430369  0.50030194
   0.28618681  0.85726204  0.49998201
   0.42897823  0.00016995  0.49999953
   0.42957555  0.14381340  0.49993361
   0.42794212  0.28374798  0.50002553
   0.42802904  0.71555120  0.50049741
   0.42960589  0.85712603  0.50018673
   0.57143336  0.99999209  0.50017895
   0.57143585  0.14287364  0.50004159
   0.57487162  0.28903220  0.49993867
   0.57491218  0.85728730  0.50023995
   0.71424126  0.00039347  0.50010380
   0.71405743  0.14273890  0.50007171
   0.71421854  0.28526308  0.49999120
   0.71029243  0.42462661  0.49991124
   0.71665870  0.57206840  0.49987443
   0.71668117  0.71598004  0.49986047
   0.71032197  0.85707761  0.50002924
   0.85640531  0.99952201  0.49994102
   0.85651887  0.14257716  0.49997949
   0.85652091  0.28536520  0.50000102
   0.85639436  0.42826419  0.49997883
   0.85629575  0.57066795  0.49990544
   0.85738156  0.71436309  0.49976014
   0.85629583  0.85697251  0.49982045
   0.04696258  0.09467838  0.49988619
   0.04590713  0.23695461  0.50005462
   0.04590663  0.38031271  0.50022727
   0.04698134  0.52361282  0.50015809
   0.04752523  0.66661333  0.49998230
   0.04753798  0.80941096  0.49983670
   0.04750498  0.95220496  0.49985566
   0.19051527  0.09514152  0.49994365
   0.18914739  0.23736455  0.50016661
   0.18717474  0.37924798  0.50054785
   0.18917422  0.52309501  0.50048691
   0.19055821  0.66667290  0.50018377
   0.19091118  0.80965184  0.49992794
   0.19090618  0.95255208  0.49986230
   0.33413954  0.09596054  0.49988697
   0.33450930  0.23857180  0.50008302
   0.32829669  0.37883643  0.50076347
   0.32827178  0.52073825  0.50098827
   0.33459630  0.66726152  0.50054638
   0.33415977  0.80949653  0.50014465
   0.33355566  0.95245041  0.49991359
   0.47647767  0.09541167  0.49998219
   0.47710865  0.23959257  0.49995051
   0.47715077  0.80889285  0.50032240
   0.47649637  0.95247435  0.50012778
   0.61878577  0.09510536  0.50011275
   0.61951097  0.23836238  0.49999240
   0.61953549  0.95259967  0.50020510
   0.76173008  0.09552016  0.50004853
   0.76170237  0.23761867  0.50001789
   0.76104738  0.38005909  0.49995266
   0.76012672  0.52300810  0.49987765
   0.76161077  0.66648156  0.49980219
   0.76012924  0.80849907  0.49987431
   0.76106812  0.95241616  0.50003440
   0.90377551  0.09440227  0.49992784
   0.90391403  0.23765674  0.49999518
   0.90377615  0.38076345  0.50001777
   0.90418458  0.52364555  0.49997094
   0.90424618  0.66613577  0.49984617
   0.90424847  0.80945195  0.49977097
   0.90418349  0.95189380  0.49987071
   0.46611714  0.35632143  0.50008693
   0.40039946  0.41812083  0.50094548
   0.40036492  0.55359361  0.50120588
   0.64444497  0.68243455  0.50003503
   0.64442141  0.53329747  0.50005840
   0.46625122  0.68121164  0.50059229
   0.54772164  0.60466166  0.49933255
   0.54854965  0.51577417  0.49917661
   0.62017226  0.37965924  0.49989929
   0.62020880  0.81195592  0.50014034
   0.50867077  0.54020490  0.50000005
 
 position of ions in cartesian coordinates  (Angst):
   8.63035884 14.94936930  7.49755223
  16.02656688  2.12426155  7.49872015
  14.78938712  4.26456174  7.50110704
  13.55444655  6.40575590  7.50191546
  12.32854662  8.54474112  7.50048769
  11.10354318 10.68080448  7.49817983
   9.86813010 12.82060201  7.49737210
   2.46870203  0.00266923  7.49846575
   1.22562961  2.13026517  7.49970942
  -0.02160718  4.25467893  7.50371325
  -1.25971242  6.39944569  7.50707447
  -2.47549349  8.54145273  7.50439875
  -3.69610215 10.68153900  7.50028480
  -4.93000207 12.82156302  7.49761027
   4.94041249  0.00342824  7.49791783
   3.70580816  2.14103580  7.49930866
   2.44743906  4.28334899  7.50493335
   1.18830627  6.38241082  7.51279587
  -0.00004519  8.52321568  7.51043193
  -1.22561715 10.68395296  7.50452911
  -2.46015943 12.82220356  7.49973014
   7.40743172  0.00254203  7.49999293
   6.17731238  2.15103971  7.49900412
   4.94069360  4.24406323  7.50038290
   1.21334983 10.70261218  7.50746122
   0.01801157 12.82016919  7.50280100
   1.23379651 14.95703940  7.50268429
   8.63550234  2.13698356  7.50062392
   7.43268659  4.32310027  7.49908008
   2.52620938 12.82258141  7.50359920
  12.33229010  0.00588516  7.50155694
  11.09988858  2.13496825  7.50107560
   9.87190082  4.26672487  7.49986801
   8.60061635  6.35120716  7.49866860
   7.43733206  8.55651732  7.49811647
   6.19496860 10.70902633  7.49790705
   4.86668764 12.81944505  7.50043856
   6.15961729 14.95000840  7.49911530
  13.56174225  2.13254910  7.49969228
  12.32872859  4.26825225  7.50001533
  11.09253597  6.40561501  7.49968246
   9.86110250  8.53557054  7.49858159
   8.63897351 10.68484141  7.49640212
   7.38871554 12.81787293  7.49730675
  -0.00650453  1.41611947  7.49829280
  -1.25336231  3.54416746  7.50081924
  -2.49134256  5.68839722  7.50340904
  -3.71025200  7.83175946  7.50237133
  -4.93574206  9.97064064  7.49973444
  -6.16865342 12.10648731  7.49755053
  -7.40232380 14.24227973  7.49783484
   2.46880010  1.42304666  7.49915470
   1.21700568  3.55029906  7.50249909
  -0.04230107  5.67247181  7.50821775
  -1.24996183  7.82401456  7.50730361
  -2.46592836  9.97153175  7.50275654
  -3.69452970 12.11009027  7.49891903
  -4.92863381 14.24747175  7.49793455
   4.94226769  1.43529691  7.49830461
   3.71713156  3.56835608  7.50124533
   2.39857547  5.66631622  7.51145198
   1.17274929  7.78876409  7.51482398
   0.01667579  9.98033579  7.50819566
  -1.21913654 12.10776723  7.50216968
  -2.46405112 14.24595102  7.49870378
   7.40533473  1.42708744  7.49973290
   6.17115542  3.58362388  7.49925772
   1.25567949 12.09873786  7.50483600
   0.00447664 14.24630902  7.50191676
   9.86578854  1.42250582  7.50169118
   8.64121470  3.56522377  7.49988600
   2.47382850 14.24818345  7.50307652
  12.33100301  1.42871015  7.50072797
  11.10343007  3.55409989  7.50026834
   9.86207075  5.68460373  7.49928996
   8.61173111  7.82271462  7.49816480
   7.39839442  9.96866984  7.49703284
   6.14641193 12.09284808  7.49811464
   4.91982868 14.24543867  7.50051605
  14.79392868  1.41198957  7.49891761
  13.55924428  3.55466929  7.49992763
  12.32106229  5.69513900  7.50026653
  11.09425527  7.83224904  7.49956412
   9.86484214  9.96349778  7.49769249
   8.62727203 12.10710048  7.49656448
   7.39609036 14.23762572  7.49806060
   4.97330630  5.32955588  7.50130391
   3.30462390  6.25389923  7.51418226
   2.13414963  8.28018687  7.51808819
   5.23705697 10.20728124  7.50052546
   6.52452630  7.97661435  7.50087596
   2.17002650 10.18898986  7.50888431
   4.23815404  9.04401981  7.48998829
   5.02004420  7.71451567  7.48764916
   7.43246418  5.67862315  7.49848936
   3.69998895 12.14455280  7.50210511
   4.12032249  8.07992986  7.50000068
 


--------------------------------------------------------------------------------------------------------


 k-point   1 :   0.0000 0.0000 0.0000  plane waves:  104449
 k-point   2 :   0.5000 0.0000 0.0000  plane waves:  104264
 k-point   3 :   0.0000 0.5000 0.0000  plane waves:  104264
 k-point   4 :   0.5000 0.5000 0.0000  plane waves:  104264

 maximum and minimum number of plane-waves per node :    104449   104264

 maximum number of plane-waves:    104449
 maximum index in each direction: 
   IXMAX=   32   IYMAX=   32   IZMAX=   27
   IXMIN=  -32   IYMIN=  -32   IZMIN=  -27


 serial   3D FFT for wavefunctions
 parallel 3D FFT for charge:
    minimum data exchange during FFTs selected (reduces bandwidth)


 total amount of memory used by VASP MPI-rank0  1122690. kBytes
=======================================================================

   base      :      30000. kBytes
   nonlr-proj:       8983. kBytes
   fftplans  :     185212. kBytes
   grid      :     184190. kBytes
   one-center:        595. kBytes
   wavefun   :     713710. kBytes
 
     INWAV:  cpu time      0.0001: real time      0.0001
 Broyden mixing: mesh for mixing (old mesh)
   NGX = 65   NGY = 65   NGZ = 55
  (NGX  =192   NGY  =192   NGZ  =168)
  gives a total of 232375 points

 initial charge density was supplied:
 charge density of overlapping atoms calculated
 number of electron     368.0000000 magnetization      58.2000000
 keeping initial charge density in first step


--------------------------------------------------------------------------------------------------------


 Maximum index for non-local projection operator         1567
 Maximum index for augmentation-charges         4048 (set IRDMAX)


--------------------------------------------------------------------------------------------------------


 First call to EWALD:  gamma=   0.113
 Maximum number of real-space cells 3x 3x 3
 Maximum number of reciprocal cells 3x 3x 3

    FEWALD:  cpu time      0.1473: real time      0.1479


--------------------------------------- Ionic step        1  -------------------------------------------




--------------------------------------- Iteration      1(   1)  ---------------------------------------


    POTLOK:  cpu time      2.4269: real time      2.4822
    SETDIJ:  cpu time      3.0734: real time      3.0907
     EDDAV:  cpu time     79.4280: real time     79.9283
       DOS:  cpu time      0.0013: real time      0.0144
    --------------------------------------------
      LOOP:  cpu time     84.9297: real time     85.5158

 eigenvalue-minimisations  :  4590
 total energy-change (2. order) : 0.3267970E+04  (-0.1376901E+05)
 number of electron     368.0000000 magnetization      58.2000000
 augmentation part      368.0000000 magnetization      58.2000000

 Free energy of the ion-electron system (eV)
  ---------------------------------------------------
  alpha Z        PSCENC =       175.87611319
  Ewald energy   TEWEN  =     36718.20776359
  -Hartree energ DENC   =    -46909.38207398
  -exchange      EXHF   =         0.00000000
  -V(xc)+E(xc)   XCENC  =      1224.81216877
  PAW double counting   =     10101.41315093   -10154.35997595
  entropy T*S    EENTRO =        -0.03948498
  eigenvalues    EBANDS =     -1604.68875019
  atomic energy  EATOM  =     13716.13071916
  Solvation  Ediel_sol  =         0.00000000
  ---------------------------------------------------
  free energy    TOTEN  =      3267.96963053 eV

  energy without entropy =     3268.00911551  energy(sigma->0) =     3267.98937302


--------------------------------------------------------------------------------------------------------




--------------------------------------- Iteration      1(   2)  ---------------------------------------


     EDDAV:  cpu time    102.3229: real time    102.9937
       DOS:  cpu time      0.0010: real time      0.0149
    --------------------------------------------
      LOOP:  cpu time    102.3239: real time    103.0086

 eigenvalue-minimisations  :  6410
 total energy-change (2. order) :-0.3518646E+04  (-0.3315966E+04)
 number of electron     368.0000000 magnetization      58.2000000
 augmentation part      368.0000000 magnetization      58.2000000

 Free energy of the ion-electron system (eV)
  ---------------------------------------------------
  alpha Z        PSCENC =       175.87611319
  Ewald energy   TEWEN  =     36718.20776359
  -Hartree energ DENC   =    -46909.38207398
  -exchange      EXHF   =         0.00000000
  -V(xc)+E(xc)   XCENC  =      1224.81216877
  PAW double counting   =     10101.41315093   -10154.35997595
  entropy T*S    EENTRO =        -0.00000536
  eigenvalues    EBANDS =     -5123.37375866
  atomic energy  EATOM  =     13716.13071916
  Solvation  Ediel_sol  =         0.00000000
  ---------------------------------------------------
  free energy    TOTEN  =      -250.67589832 eV

  energy without entropy =     -250.67589296  energy(sigma->0) =     -250.67589564


--------------------------------------------------------------------------------------------------------




--------------------------------------- Iteration      1(   3)  ---------------------------------------


     EDDAV:  cpu time     87.6413: real time     88.2439
       DOS:  cpu time      0.0010: real time      0.0141
    --------------------------------------------
      LOOP:  cpu time     87.6423: real time     88.2580

 eigenvalue-minimisations  :  5310
 total energy-change (2. order) :-0.6133415E+03  (-0.6106186E+03)
 number of electron     368.0000000 magnetization      58.2000000
 augmentation part      368.0000000 magnetization      58.2000000

 Free energy of the ion-electron system (eV)
  ---------------------------------------------------
  alpha Z        PSCENC =       175.87611319
  Ewald energy   TEWEN  =     36718.20776359
  -Hartree energ DENC   =    -46909.38207398
  -exchange      EXHF   =         0.00000000
  -V(xc)+E(xc)   XCENC  =      1224.81216877
  PAW double counting   =     10101.41315093   -10154.35997595
  entropy T*S    EENTRO =        -0.00000116
  eigenvalues    EBANDS =     -5736.71528604
  atomic energy  EATOM  =     13716.13071916
  Solvation  Ediel_sol  =         0.00000000
  ---------------------------------------------------
  free energy    TOTEN  =      -864.01742150 eV

  energy without entropy =     -864.01742034  energy(sigma->0) =     -864.01742092


--------------------------------------------------------------------------------------------------------




--------------------------------------- Iteration      1(   4)  ---------------------------------------


     EDDAV:  cpu time     89.2018: real time     89.9161
       DOS:  cpu time      0.0010: real time      0.0142
    --------------------------------------------
      LOOP:  cpu time     89.2028: real time     89.9303

 eigenvalue-minimisations  :  5400
 total energy-change (2. order) :-0.2206151E+02  (-0.2198258E+02)
 number of electron     368.0000000 magnetization      58.2000000
 augmentation part      368.0000000 magnetization      58.2000000

 Free energy of the ion-electron system (eV)
  ---------------------------------------------------
  alpha Z        PSCENC =       175.87611319
  Ewald energy   TEWEN  =     36718.20776359
  -Hartree energ DENC   =    -46909.38207398
  -exchange      EXHF   =         0.00000000
  -V(xc)+E(xc)   XCENC  =      1224.81216877
  PAW double counting   =     10101.41315093   -10154.35997595
  entropy T*S    EENTRO =        -0.00000269
  eigenvalues    EBANDS =     -5758.77679713
  atomic energy  EATOM  =     13716.13071916
  Solvation  Ediel_sol  =         0.00000000
  ---------------------------------------------------
  free energy    TOTEN  =      -886.07893412 eV

  energy without entropy =     -886.07893143  energy(sigma->0) =     -886.07893277


--------------------------------------------------------------------------------------------------------




--------------------------------------- Iteration      1(   5)  ---------------------------------------


     EDDAV:  cpu time     97.7601: real time     98.4528
       DOS:  cpu time      0.0014: real time      0.0286
    CHARGE:  cpu time      5.5070: real time      5.5439
    MIXING:  cpu time      0.0699: real time      0.0703
    --------------------------------------------
      LOOP:  cpu time    103.3384: real time    104.0957

 eigenvalue-minimisations  :  6040
 total energy-change (2. order) :-0.6250091E+00  (-0.6242689E+00)
 number of electron     367.9999997 magnetization      12.4400185
 augmentation part       10.6228068 magnetization      11.5142782

 Broyden mixing:
  rms(total) = 0.51897E+01    rms(broyden)= 0.51891E+01
  rms(prec ) = 0.56526E+01
  weight for this iteration     100.00

 Free energy of the ion-electron system (eV)
  ---------------------------------------------------
  alpha Z        PSCENC =       175.87611319
  Ewald energy   TEWEN  =     36718.20776359
  -Hartree energ DENC   =    -46909.38207398
  -exchange      EXHF   =         0.00000000
  -V(xc)+E(xc)   XCENC  =      1224.81216877
  PAW double counting   =     10101.41315093   -10154.35997595
  entropy T*S    EENTRO =        -0.00000294
  eigenvalues    EBANDS =     -5759.40180596
  atomic energy  EATOM  =     13716.13071916
  Solvation  Ediel_sol  =         0.00000000
  ---------------------------------------------------
  free energy    TOTEN  =      -886.70394320 eV

  energy without entropy =     -886.70394026  energy(sigma->0) =     -886.70394173


--------------------------------------------------------------------------------------------------------




--------------------------------------- Iteration      1(   6)  ---------------------------------------


    POTLOK:  cpu time      2.2309: real time      2.2774
    SETDIJ:  cpu time      3.4478: real time      3.4649
     EDDAV:  cpu time     87.2480: real time     87.8247
       DOS:  cpu time      0.0009: real time      0.0151
    CHARGE:  cpu time      5.1048: real time      5.1352
    MIXING:  cpu time      0.3258: real time      0.3274
    --------------------------------------------
      LOOP:  cpu time     98.3582: real time     99.0447

 eigenvalue-minimisations  :  5170
 total energy-change (2. order) : 0.1730324E+02  (-0.2172361E+01)
 number of electron     367.9999997 magnetization      -5.8347413
 augmentation part       10.2599666 magnetization      -5.8520401

 Broyden mixing:
  rms(total) = 0.33769E+01    rms(broyden)= 0.33769E+01
  rms(prec ) = 0.37190E+01
  weight for this iteration     100.00

 eigenvalues of (default mixing * dielectric matrix)
  average eigenvalue GAMMA=   1.4223
  1.4223

 Free energy of the ion-electron system (eV)
  ---------------------------------------------------
  alpha Z        PSCENC =       175.87611319
  Ewald energy   TEWEN  =     36718.20776359
  -Hartree energ DENC   =    -47370.71529326
  -exchange      EXHF   =         0.00000000
  -V(xc)+E(xc)   XCENC  =      1234.88570211
  PAW double counting   =     13822.94221905   -13879.74752528
  entropy T*S    EENTRO =        -0.00216739
  eigenvalues    EBANDS =     -5286.97823131
  atomic energy  EATOM  =     13716.13071916
  Solvation  Ediel_sol  =         0.00000000
  ---------------------------------------------------
  free energy    TOTEN  =      -869.40070015 eV

  energy without entropy =     -869.39853276  energy(sigma->0) =     -869.39961646


--------------------------------------------------------------------------------------------------------




--------------------------------------- Iteration      1(   7)  ---------------------------------------


    POTLOK:  cpu time      2.4881: real time      2.5251
    SETDIJ:  cpu time      3.3686: real time      3.3868
     EDDAV:  cpu time     84.5648: real time     85.1601
       DOS:  cpu time      0.0010: real time      0.0144
    CHARGE:  cpu time      5.5245: real time      5.5593
    MIXING:  cpu time      0.0708: real time      0.0713
    --------------------------------------------
      LOOP:  cpu time     96.0179: real time     96.7170

 eigenvalue-minimisations  :  4990
 total energy-change (2. order) : 0.2221332E+02  (-0.3276610E+01)
 number of electron     367.9999998 magnetization       1.2879850
 augmentation part        9.8155639 magnetization       1.2900024

 Broyden mixing:
  rms(total) = 0.20431E+01    rms(broyden)= 0.20430E+01
  rms(prec ) = 0.21651E+01
  weight for this iteration     100.00

 eigenvalues of (default mixing * dielectric matrix)
  average eigenvalue GAMMA=   2.4899
  1.2962  3.6837

 Free energy of the ion-electron system (eV)
  ---------------------------------------------------
  alpha Z        PSCENC =       175.87611319
  Ewald energy   TEWEN  =     36718.20776359
  -Hartree energ DENC   =    -47974.17615047
  -exchange      EXHF   =         0.00000000
  -V(xc)+E(xc)   XCENC  =      1256.27688236
  PAW double counting   =     20658.54331462   -20719.76006449
  entropy T*S    EENTRO =        -0.00001050
  eigenvalues    EBANDS =     -4678.28594773
  atomic energy  EATOM  =     13716.13071916
  Solvation  Ediel_sol  =         0.00000000
  ---------------------------------------------------
  free energy    TOTEN  =      -847.18738028 eV

  energy without entropy =     -847.18736978  energy(sigma->0) =     -847.18737503


--------------------------------------------------------------------------------------------------------




--------------------------------------- Iteration      1(   8)  ---------------------------------------


    POTLOK:  cpu time      2.6344: real time      2.6771
    SETDIJ:  cpu time      3.2716: real time      3.2889
     EDDAV:  cpu time     86.7192: real time     87.2808
       DOS:  cpu time      0.0008: real time      0.0139
    CHARGE:  cpu time      5.4815: real time      5.5172
    MIXING:  cpu time      0.0815: real time      0.0822
    --------------------------------------------
      LOOP:  cpu time     98.1890: real time     98.8601

 eigenvalue-minimisations  :  5130
 total energy-change (2. order) : 0.4796311E+01  (-0.2408070E+01)
 number of electron     367.9999998 magnetization      -0.8315257
 augmentation part        9.4520248 magnetization      -0.8320401

 Broyden mixing:
  rms(total) = 0.82315E+00    rms(broyden)= 0.82303E+00
  rms(prec ) = 0.84658E+00
  weight for this iteration     100.00

 eigenvalues of (default mixing * dielectric matrix)
  average eigenvalue GAMMA=   2.4572
  4.3644  1.3257  1.6815

 Free energy of the ion-electron system (eV)
  ---------------------------------------------------
  alpha Z        PSCENC =       175.87611319
  Ewald energy   TEWEN  =     36718.20776359
  -Hartree energ DENC   =    -48515.73135862
  -exchange      EXHF   =         0.00000000
  -V(xc)+E(xc)   XCENC  =      1276.96546227
  PAW double counting   =     31211.54510310   -31276.45177165
  entropy T*S    EENTRO =        -0.00000005
  eigenvalues    EBANDS =     -4148.93309985
  atomic energy  EATOM  =     13716.13071916
  Solvation  Ediel_sol  =         0.00000000
  ---------------------------------------------------
  free energy    TOTEN  =      -842.39106887 eV

  energy without entropy =     -842.39106883  energy(sigma->0) =     -842.39106885


--------------------------------------------------------------------------------------------------------




--------------------------------------- Iteration      1(   9)  ---------------------------------------


    POTLOK:  cpu time      2.6550: real time      2.7075
    SETDIJ:  cpu time      3.2384: real time      3.2566
     EDDAV:  cpu time     84.9198: real time     85.5042
       DOS:  cpu time      0.0010: real time      0.0151
    CHARGE:  cpu time      5.9409: real time      5.9847
    MIXING:  cpu time      0.0899: real time      0.0907
    --------------------------------------------
      LOOP:  cpu time     96.8451: real time     97.5587

 eigenvalue-minimisations  :  5020
 total energy-change (2. order) : 0.1141817E+00  (-0.1071637E+00)
 number of electron     367.9999998 magnetization       0.1039613
 augmentation part        9.4525082 magnetization       0.1041022

 Broyden mixing:
  rms(total) = 0.32663E+00    rms(broyden)= 0.32661E+00
  rms(prec ) = 0.34454E+00
  weight for this iteration     100.00

 eigenvalues of (default mixing * dielectric matrix)
  average eigenvalue GAMMA=   2.4259
  4.7267  2.6652  1.0778  1.2338

 Free energy of the ion-electron system (eV)
  ---------------------------------------------------
  alpha Z        PSCENC =       175.87611319
  Ewald energy   TEWEN  =     36718.20776359
  -Hartree energ DENC   =    -48485.50416785
  -exchange      EXHF   =         0.00000000
  -V(xc)+E(xc)   XCENC  =      1276.76205394
  PAW double counting   =     35392.70955506   -35457.28528347
  entropy T*S    EENTRO =        -0.00000005
  eigenvalues    EBANDS =     -4179.17364069
  atomic energy  EATOM  =     13716.13071916
  Solvation  Ediel_sol  =         0.00000000
  ---------------------------------------------------
  free energy    TOTEN  =      -842.27688713 eV

  energy without entropy =     -842.27688708  energy(sigma->0) =     -842.27688711


--------------------------------------------------------------------------------------------------------




--------------------------------------- Iteration      1(  10)  ---------------------------------------


    POTLOK:  cpu time      2.6546: real time      2.7160
    SETDIJ:  cpu time      3.2667: real time      3.2847
     EDDAV:  cpu time     83.4021: real time     83.9888
       DOS:  cpu time      0.0010: real time      0.0151
    CHARGE:  cpu time      5.9119: real time      5.9479
    MIXING:  cpu time      0.0950: real time      0.0957
    --------------------------------------------
      LOOP:  cpu time     95.3314: real time     96.0483

 eigenvalue-minimisations  :  4930
 total energy-change (2. order) : 0.8665014E-01  (-0.4508600E-01)
 number of electron     367.9999998 magnetization      -0.0283084
 augmentation part        9.4806065 magnetization      -0.0284192

 Broyden mixing:
  rms(total) = 0.97125E-01    rms(broyden)= 0.97113E-01
  rms(prec ) = 0.10780E+00
  weight for this iteration     100.00

 eigenvalues of (default mixing * dielectric matrix)
  average eigenvalue GAMMA=   2.3078
  4.7508  3.0917  0.9876  1.4545  1.2541

 Free energy of the ion-electron system (eV)
  ---------------------------------------------------
  alpha Z        PSCENC =       175.87611319
  Ewald energy   TEWEN  =     36718.20776359
  -Hartree energ DENC   =    -48428.97053580
  -exchange      EXHF   =         0.00000000
  -V(xc)+E(xc)   XCENC  =      1275.12499960
  PAW double counting   =     37108.41269305   -37172.48968066
  entropy T*S    EENTRO =        -0.00000003
  eigenvalues    EBANDS =     -4234.48230908
  atomic energy  EATOM  =     13716.13071916
  Solvation  Ediel_sol  =         0.00000000
  ---------------------------------------------------
  free energy    TOTEN  =      -842.19023699 eV

  energy without entropy =     -842.19023696  energy(sigma->0) =     -842.19023697


--------------------------------------------------------------------------------------------------------




--------------------------------------- Iteration      1(  11)  ---------------------------------------


    POTLOK:  cpu time      2.6278: real time      2.6797
    SETDIJ:  cpu time      3.3539: real time      3.3754
     EDDAV:  cpu time     83.2963: real time     83.8392
       DOS:  cpu time      0.0008: real time      0.0147
    CHARGE:  cpu time      5.9118: real time      5.9465
    MIXING:  cpu time      0.1044: real time      0.1052
    --------------------------------------------
      LOOP:  cpu time     95.2950: real time     95.9608

 eigenvalue-minimisations  :  4890
 total energy-change (2. order) : 0.1146767E-01  (-0.8864804E-02)
 number of electron     367.9999998 magnetization       0.0205846
 augmentation part        9.4813475 magnetization       0.0203140

 Broyden mixing:
  rms(total) = 0.34756E-01    rms(broyden)= 0.34744E-01
  rms(prec ) = 0.39907E-01
  weight for this iteration     100.00

 eigenvalues of (default mixing * dielectric matrix)
  average eigenvalue GAMMA=   2.1491
  4.7097  3.1108  1.6780  1.0563  1.0563  1.2835

 Free energy of the ion-electron system (eV)
  ---------------------------------------------------
  alpha Z        PSCENC =       175.87611319
  Ewald energy   TEWEN  =     36718.20776359
  -Hartree energ DENC   =    -48416.42851660
  -exchange      EXHF   =         0.00000000
  -V(xc)+E(xc)   XCENC  =      1274.72103580
  PAW double counting   =     37328.03224708   -37391.97770195
  entropy T*S    EENTRO =        -0.00000003
  eigenvalues    EBANDS =     -4246.74042955
  atomic energy  EATOM  =     13716.13071916
  Solvation  Ediel_sol  =         0.00000000
  ---------------------------------------------------
  free energy    TOTEN  =      -842.17876932 eV

  energy without entropy =     -842.17876929  energy(sigma->0) =     -842.17876930


--------------------------------------------------------------------------------------------------------




--------------------------------------- Iteration      1(  12)  ---------------------------------------


    POTLOK:  cpu time      2.6461: real time      2.6855
    SETDIJ:  cpu time      3.2999: real time      3.3199
     EDDAV:  cpu time     88.2726: real time     88.8595
       DOS:  cpu time      0.0008: real time      0.0035
    CHARGE:  cpu time      5.8775: real time      5.9139
    MIXING:  cpu time      0.1057: real time      0.1088
    --------------------------------------------
      LOOP:  cpu time    100.2027: real time    100.8911

 eigenvalue-minimisations  :  5200
 total energy-change (2. order) : 0.2148801E-02  (-0.9664655E-03)
 number of electron     367.9999998 magnetization      -0.0022546
 augmentation part        9.4809077 magnetization      -0.0023609

 Broyden mixing:
  rms(total) = 0.17779E-01    rms(broyden)= 0.17775E-01
  rms(prec ) = 0.19944E-01
  weight for this iteration     100.00

 eigenvalues of (default mixing * dielectric matrix)
  average eigenvalue GAMMA=   2.1141
  4.6603  3.1684  2.1946  1.4352  1.2639  1.0380  1.0380

 Free energy of the ion-electron system (eV)
  ---------------------------------------------------
  alpha Z        PSCENC =       175.87611319
  Ewald energy   TEWEN  =     36718.20776359
  -Hartree energ DENC   =    -48415.88433873
  -exchange      EXHF   =         0.00000000
  -V(xc)+E(xc)   XCENC  =      1274.69480527
  PAW double counting   =     37348.64808386   -37412.56702810
  entropy T*S    EENTRO =        -0.00000003
  eigenvalues    EBANDS =     -4247.28273871
  atomic energy  EATOM  =     13716.13071916
  Solvation  Ediel_sol  =         0.00000000
  ---------------------------------------------------
  free energy    TOTEN  =      -842.17662052 eV

  energy without entropy =     -842.17662049  energy(sigma->0) =     -842.17662050


[...]
   -.196E+02 0.111E+02 0.579E-01   0.198E+02 -.111E+02 -.583E-01   -.123E+00 0.533E-01 0.134E-02   0.868E-04 0.175E-03 -.136E-03
   -.416E+01 -.232E+01 0.479E+00   0.411E+01 0.228E+01 -.481E+00   0.536E-01 0.363E-01 0.219E-02   -.116E-03 -.695E-04 -.131E-03
   0.834E+01 -.123E+02 0.154E+00   -.846E+01 0.122E+02 -.155E+00   0.117E+00 0.335E-01 0.126E-02   0.585E-04 -.411E-04 -.142E-05
   0.189E+02 -.671E+02 0.260E+00   -.191E+02 0.677E+02 -.262E+00   0.239E+00 -.613E+00 0.112E-02   -.154E-03 -.198E-03 0.648E-03
   -.485E+02 0.499E+02 -.429E+00   0.489E+02 -.504E+02 0.429E+00   -.408E+00 0.508E+00 -.217E-03   -.169E-03 -.192E-03 -.187E-03
   -.646E+01 0.136E+02 -.125E+00   0.637E+01 -.137E+02 0.124E+00   0.883E-01 0.101E+00 0.938E-03   0.428E-04 0.395E-04 -.668E-04
   0.452E+01 0.260E+01 -.260E+00   -.469E+01 -.269E+01 0.259E+00   0.174E+00 0.948E-01 0.123E-02   -.257E-04 -.108E-03 0.207E-05
   0.255E+02 -.102E+02 0.319E-01   -.259E+02 0.100E+02 -.329E-01   0.432E+00 0.144E+00 0.963E-04   -.160E-03 0.334E-03 0.747E-03
   0.395E+01 0.271E+02 -.467E+00   -.429E+01 -.274E+02 0.469E+00   0.344E+00 0.299E+00 -.110E-02   -.940E-04 0.155E-04 0.109E-03
   0.171E+01 0.948E+01 0.350E-02   -.170E+01 -.934E+01 -.416E-02   -.657E-02 -.143E+00 0.933E-03   0.753E-04 0.168E-03 -.478E-04
   0.903E+01 -.331E+01 0.552E-01   -.889E+01 0.326E+01 -.565E-01   -.133E+00 0.570E-01 0.847E-03   -.218E-03 -.247E-03 0.340E-03
   0.235E+02 -.183E+02 0.168E+00   -.236E+02 0.186E+02 -.171E+00   0.599E-01 -.385E+00 0.154E-03   0.665E-04 -.163E-04 0.154E-02
   0.696E+02 0.128E+02 0.256E+00   -.700E+02 -.131E+02 -.259E+00   0.485E+00 0.253E+00 0.381E-02   0.168E-03 0.544E-03 0.172E-02
   0.832E+02 0.480E+02 0.466E+00   -.835E+02 -.482E+02 -.464E+00   0.255E+00 0.135E+00 -.356E-02   -.102E-03 0.383E-03 0.230E-02
   0.459E+02 0.538E+02 0.386E+00   -.464E+02 -.541E+02 -.388E+00   0.461E+00 0.293E+00 -.837E-03   0.533E-03 -.411E-03 0.196E-02
   -.402E+01 0.295E+02 -.623E-01   0.432E+01 -.298E+02 0.616E-01   -.301E+00 0.248E+00 -.483E-04   -.349E-03 0.384E-03 0.622E-03
   -.812E+00 0.607E+01 0.369E+00   0.935E+00 -.613E+01 -.369E+00   -.123E+00 0.494E-01 0.437E-04   -.778E-04 0.228E-04 0.162E-03
   -.150E+01 -.906E+00 0.325E+00   0.162E+01 0.982E+00 -.326E+00   -.119E+00 -.773E-01 0.137E-02   0.101E-03 0.845E-06 -.746E-04
   0.490E+01 -.381E+01 0.217E+00   -.489E+01 0.394E+01 -.219E+00   -.121E-01 -.136E+00 0.202E-02   0.311E-03 0.735E-04 0.436E-03
   0.187E+02 -.870E+00 0.834E-01   -.187E+02 0.990E+00 -.846E-01   -.180E-01 -.121E+00 0.653E-03   0.895E-04 -.267E-04 0.672E-03
   0.268E+02 0.106E+02 0.284E+00   -.268E+02 -.107E+02 -.283E+00   0.571E-02 0.680E-01 -.215E-02   0.419E-04 -.210E-04 0.846E-03
   0.226E+02 0.179E+02 0.558E+00   -.227E+02 -.178E+02 -.559E+00   0.650E-01 -.313E-01 0.301E-03   0.600E-03 0.293E-03 0.851E-03
   0.877E+01 0.166E+02 0.240E+00   -.866E+01 -.167E+02 -.240E+00   -.104E+00 0.509E-01 -.954E-03   -.730E-04 0.978E-04 0.633E-03
   0.239E+00 -.642E+02 -.169E-01   0.748E-01 0.701E+02 0.210E-01   -.314E+00 -.587E+01 -.477E-02   -.199E-06 -.258E-04 0.199E-03
   -.472E+02 -.304E+02 -.755E+00   0.522E+02 0.338E+02 0.774E+00   -.500E+01 -.345E+01 -.154E-01   -.204E-04 -.391E-07 -.263E-03
   -.498E+02 -.256E+02 -.912E+00   0.553E+02 0.283E+02 0.933E+00   -.549E+01 -.261E+01 -.176E-01   -.218E-04 0.545E-04 -.235E-03
   0.481E+02 0.335E+02 -.147E+00   -.532E+02 -.360E+02 0.167E+00   0.518E+01 0.244E+01 -.183E-01   -.257E-04 -.136E-04 0.656E-03
   0.531E+02 0.249E+02 -.217E+00   -.578E+02 -.282E+02 0.238E+00   0.469E+01 0.327E+01 -.201E-01   -.512E-04 -.654E-04 0.684E-03
   -.554E+02 0.323E+02 -.301E+00   0.607E+02 -.349E+02 0.310E+00   -.524E+01 0.266E+01 -.754E-02   -.658E-05 -.148E-04 -.218E-04
   -.224E+01 -.691E+02 0.132E+01   0.293E+01 0.773E+02 -.140E+01   -.693E+00 -.824E+01 0.807E-01   0.198E-03 -.328E-04 0.855E-04
   -.613E+02 0.317E+02 0.160E+01   0.688E+02 -.351E+02 -.171E+01   -.754E+01 0.340E+01 0.102E+00   0.527E-04 0.764E-04 0.103E-03
   0.197E+03 -.115E+03 0.410E+00   -.224E+03 0.131E+03 -.431E+00   0.275E+02 -.156E+02 0.179E-01   -.237E-03 0.261E-04 0.255E-02
   -.164E+01 0.228E+03 -.163E+00   0.134E+01 -.259E+03 0.159E+00   0.306E+00 0.316E+02 0.238E-02   0.806E-03 0.448E-04 0.133E-02
   0.134E+02 0.869E+01 -.223E+00   -.530E+02 -.320E+02 0.108E+01   0.397E+02 0.233E+02 -.859E+00   0.229E-02 0.114E-02 0.102E-02
 -----------------------------------------------------------------------------------------------
   -.440E+02 -.258E+02 0.762E+00   -.590E-12 0.306E-12 -.444E-14   0.441E+02 0.256E+02 -.746E+00   0.132E-02 0.920E-03 0.131E-01
 
 
 POSITION                                       TOTAL-FORCE (eV/Angst)
 -----------------------------------------------------------------------------------
      8.63036     14.94936      7.49754         0.000200      0.000052     -0.000630
     16.02657      2.12426      7.49872        -0.000027     -0.000069     -0.000157
     14.78939      4.26456      7.50114         0.000050     -0.000050      0.000303
     13.55445      6.40576      7.50192        -0.000157     -0.000133     -0.000042
     12.32854      8.54474      7.50048         0.000306     -0.000142     -0.000396
     11.10356     10.68080      7.49818        -0.000851      0.000963     -0.001161
      9.86814     12.82060      7.49736        -0.000294     -0.000242     -0.000568
      2.46871      0.00267      7.49848         0.000070     -0.000062     -0.000066
      1.22563      2.13026      7.49973         0.000041     -0.000118      0.000161
     -0.02160      4.25467      7.50380         0.000103     -0.000162      0.001084
     -1.25971      6.39944      7.50718         0.000083     -0.000178      0.001379
     -2.47549      8.54145      7.50445         0.000010      0.000018      0.000538
     -3.69609     10.68154      7.50030         0.000344     -0.000122     -0.000016
     -4.92999     12.82156      7.49764         0.000148     -0.000116     -0.000003
      4.94042      0.00343      7.49794         0.000166     -0.000162      0.000063
      3.70582      2.14103      7.49933        -0.000106     -0.000083      0.000362
      2.44745      4.28334      7.50500        -0.000312     -0.000025      0.001181
      1.18833      6.38240      7.51293         0.000077     -0.000256      0.002319
     -0.00004      8.52321      7.51053        -0.000120     -0.000324      0.001652
     -1.22560     10.68395      7.50456         0.000076     -0.000385      0.000369
     -2.46015     12.82220      7.49974         0.000048     -0.000208     -0.000095
      7.40744      0.00254      7.50000        -0.000093      0.000010     -0.000102
      6.17732      2.15104      7.49901         0.000191      0.000057     -0.000071
      4.94070      4.24406      7.50033        -0.000041     -0.000208     -0.000352
      1.21336     10.70261      7.50747         0.000839      0.000180     -0.000231
      0.01802     12.82018      7.50282         0.000291     -0.000893     -0.000327
      1.23380     14.95704      7.50269        -0.000600      0.000570     -0.000585
      8.63550      2.13699      7.50062         0.000003     -0.000256     -0.000209
      7.43269      4.32311      7.49901         0.000364     -0.000547     -0.000833
      2.52621     12.82259      7.50357        -0.000040     -0.000321      0.000314
     12.33230      0.00589      7.50155        -0.000045     -0.001231      0.000494
     11.09989      2.13497      7.50108         0.000124     -0.000045     -0.000089
      9.87190      4.26674      7.49981         0.000043     -0.000241     -0.000818
      8.60061      6.35121      7.49852         0.000272     -0.000236     -0.000816
      7.43732      8.55654      7.49790         0.000080     -0.000871      0.000471
      6.19496     10.70903      7.49771        -0.000257      0.000202      0.000290
      4.86668     12.81944      7.50035         0.000477     -0.000072     -0.000255
      6.15962     14.95001      7.49909         0.000045     -0.000330     -0.000512
     13.56174      2.13256      7.49969        -0.000062     -0.000825      0.000256
     12.32873      4.26825      7.50000         0.000421      0.001651      0.000422
     11.09254      6.40562      7.49961        -0.000354      0.000053     -0.000888
      9.86109      8.53558      7.49849        -0.000562     -0.000667     -0.000627
      8.63898     10.68486      7.49634        -0.000258     -0.000298     -0.000528
      7.38872     12.81787      7.49724        -0.000730     -0.000201     -0.000914
     -0.00650      1.41611      7.49829         0.000040     -0.000123     -0.000259
     -1.25336      3.54416      7.50086        -0.000007     -0.000163      0.000389
     -2.49134      5.68840      7.50346        -0.000019     -0.000126      0.000558
     -3.71025      7.83176      7.50239        -0.000063     -0.000028     -0.000038
     -4.93573      9.97064      7.49974        -0.001385      0.000028     -0.001305
     -6.16864     12.10649      7.49757         0.000028     -0.000467     -0.000189
     -7.40232     14.24228      7.49783         0.000245     -0.000124     -0.000422
      2.46881      1.42304      7.49918         0.000033     -0.000187      0.000122
      1.21701      3.55029      7.50256         0.000174     -0.000032      0.000824
     -0.04229      5.67246      7.50834         0.000286     -0.000073      0.001789
     -1.24996      7.82401      7.50740         0.001126      0.001158      0.001301
     -2.46591      9.97153      7.50279        -0.000015     -0.000132      0.000303
     -3.69452     12.11009      7.49894        -0.000005     -0.000004     -0.000026
     -4.92862     14.24747      7.49796        -0.000018     -0.000085      0.000064
      4.94228      1.43529      7.49832         0.000054     -0.000071      0.000096
      3.71713      3.56835      7.50126         0.001062     -0.000246      0.000159
      2.39862      5.66631      7.51153         0.000182     -0.000154      0.002108
      1.17276      7.78875      7.51493        -0.000043     -0.000113      0.002519
      0.01669      9.98033      7.50824        -0.000087     -0.000175      0.000865
     -1.21912     12.10776      7.50218         0.000304      0.000913      0.000533
     -2.46404     14.24595      7.49871         0.000102     -0.000059     -0.000055
      7.40534      1.42709      7.49974         0.000037     -0.000143     -0.000097
      6.17117      3.58363      7.49922        -0.000216     -0.000037     -0.000498
      1.25569     12.09875      7.50485        -0.000285     -0.000457     -0.000158
      0.00449     14.24631      7.50192        -0.000041      0.000238      0.000006
      9.86579      1.42251      7.50169         0.002865     -0.000099      0.000376
      8.64122      3.56524      7.49985        -0.000636      0.001423     -0.000444
      2.47384     14.24818      7.50307        -0.000374      0.000802     -0.000032
     12.33101      1.42871      7.50074        -0.000148      0.000180     -0.000077
     11.10343      3.55411      7.50025        -0.000015     -0.000225     -0.000377
      9.86207      5.68462      7.49918         0.000074     -0.000116     -0.001246
      8.61172      7.82268      7.49807        -0.001726      0.001761      0.002139
      7.39838      9.96870      7.49693         0.000003      0.000710      0.000338
      6.14640     12.09285      7.49799         0.000408     -0.000197     -0.000583
      4.91983     14.24543      7.50048         0.000213      0.000167     -0.000371
     14.79393      1.41199      7.49891         0.000044     -0.000030     -0.000284
     13.55925      3.55467      7.49994        -0.000036      0.000062     -0.000105
     12.32106      5.69516      7.50023        -0.000567      0.000041      0.000253
     11.09424      7.83225      7.49954        -0.000346      0.000052     -0.000202
      9.86484      9.96351      7.49763         0.000030     -0.000198     -0.000769
      8.62727     12.10710      7.49651         0.003327      0.000773     -0.000269
      7.39610     14.23762      7.49803        -0.000671      0.000176     -0.000308
      4.97332      5.32956      7.50120         0.000057     -0.000098     -0.000766
      3.30465      6.25389      7.51433         0.000403     -0.000061      0.002824
      2.13415      8.28018      7.51817        -0.000004     -0.000129      0.002310
      5.23707     10.20724      7.50023        -0.000025     -0.000579      0.001890
      6.52451      7.97665      7.50056        -0.000204      0.000419      0.001695
      2.17004     10.18899      7.50890         0.000033     -0.000022      0.000555
      4.23793      9.04399      7.49026        -0.002016      0.001029     -0.006370
      5.01993      7.71457      7.48786        -0.000440      0.000364     -0.007053
      7.43247      5.67863      7.49837        -0.000387     -0.000216     -0.000908
      3.69998     12.14455      7.50205         0.000664     -0.000112     -0.000271
      4.12019      8.07989      7.50000        -0.001980      0.001109     -0.000902
 -----------------------------------------------------------------------------------
    total drift:                                0.083506     -0.101616      0.029656


--------------------------------------------------------------------------------------------------------



  FREE ENERGIE OF THE ION-ELECTRON SYSTEM (eV)
  ---------------------------------------------------
  free  energy   TOTEN  =      -849.94588919 eV

  energy  without entropy=     -849.94588916  energy(sigma->0) =     -849.94588917
 
 d Force = 0.6159857E-07[-0.387E-06, 0.511E-06]  d Energy =-0.1755374E-06 0.237E-06
 d Force = 0.6596192E-02[ 0.660E-02, 0.659E-02]  d Ewald  = 0.6596192E-02 0.582E-10


--------------------------------------------------------------------------------------------------------


    POTLOK:  cpu time      4.7675: real time      4.7929


--------------------------------------------------------------------------------------------------------


 NEB: the previous image is higher in energy: F
 NEB: the next image is higher in energy    : F
 NEB: image is at an extrema
 NEB: diff energy (min, max):     0.210109    0.220633

 NEB: Tangent
 ----------------------------------------------
      0.00015      0.00012     -0.01890
      0.00012      0.00010     -0.00885
      0.00006     -0.00001     -0.00400
      0.00006      0.00002     -0.00870
      0.00002      0.00004     -0.01757
      0.00007      0.00004     -0.01871
      0.00011      0.00008     -0.01880
      0.00012     -0.00001     -0.01366
      0.00015      0.00006     -0.00485
      0.00022     -0.00000      0.00673
      0.00006     -0.00006      0.00720
      0.00001      0.00005     -0.00328
      0.00002      0.00005     -0.01214
      0.00005      0.00002     -0.01534
      0.00009     -0.00007     -0.00894
      0.00013     -0.00004      0.00154
      0.00022     -0.00004      0.02765
      0.00006     -0.00017      0.04763
      0.00005     -0.00019      0.02903
     -0.00002     -0.00008      0.00458
      0.00008     -0.00002     -0.00704
      0.00001      0.00001     -0.00526
      0.00006     -0.00002     -0.00107
      0.00010     -0.00001      0.01261
     -0.00010      0.00006      0.01637
      0.00003      0.00002      0.00103
     -0.00008      0.00007     -0.00119
      0.00000      0.00003     -0.00276
      0.00005      0.00001      0.00878
      0.00006      0.00011      0.01225
     -0.00002      0.00009      0.00235
     -0.00000      0.00006     -0.00521
      0.00002      0.00003     -0.00002
      0.00001      0.00004      0.02856
     -0.00001      0.00009      0.14306
      0.00008      0.00010      0.14320
      0.00012      0.00016      0.03099
      0.00011      0.00010     -0.00267
      0.00006      0.00003     -0.00472
      0.00004      0.00003     -0.00576
      0.00003      0.00003     -0.00422
      0.00003      0.00004      0.00145
      0.00012      0.00012      0.01614
      0.00015      0.00009      0.00127
      0.00012      0.00012     -0.01291
      0.00011      0.00005     -0.00348
      0.00002     -0.00003     -0.00339
     -0.00001      0.00001     -0.01128
      0.00012     -0.00005     -0.01838
      0.00010      0.00003     -0.01852
      0.00012      0.00008     -0.01942
      0.00012      0.00001     -0.00567
      0.00018      0.00000      0.00860
      0.00004     -0.00005      0.01808
     -0.00001     -0.00005      0.00927
     -0.00001      0.00003     -0.00316
      0.00006      0.00002     -0.01155
      0.00011     -0.00000     -0.01259
      0.00005     -0.00005     -0.00367
      0.00012     -0.00009      0.01455
      0.00019     -0.00021      0.05802
      0.00004     -0.00013      0.05839
     -0.00016     -0.00015      0.01773
      0.00006     -0.00008     -0.00112
      0.00004     -0.00003     -0.00774
     -0.00000      0.00001     -0.00357
      0.00006     -0.00000      0.00515
      0.00009      0.00005      0.00849
     -0.00001      0.00000     -0.00252
      0.00002      0.00005     -0.00405
      0.00004      0.00003      0.00193
     -0.00002      0.00007      0.00506
      0.00004      0.00008     -0.00417
      0.00004      0.00007     -0.00520
      0.00003      0.00003      0.00689
      0.00002      0.00005      0.05212
      0.00011      0.00012      0.10133
      0.00013      0.00017      0.05235
      0.00006      0.00016      0.00925
      0.00010      0.00010     -0.00635
      0.00005      0.00001     -0.00533
      0.00005      0.00004     -0.00768
      0.00004      0.00003     -0.01238
      0.00010      0.00003     -0.00456
      0.00011      0.00010     -0.00462
      0.00012      0.00016     -0.01239
      0.00008     -0.00002      0.01946
      0.00018     -0.00027      0.07704
     -0.00015      0.00010      0.07838
      0.00006     -0.00003      0.28194
     -0.00023      0.00024      0.28141
     -0.00013      0.00004      0.02371
     -0.00211     -0.00084     -0.50631
     -0.00164     -0.00067     -0.50517
      0.00003      0.00003      0.02161
      0.00010      0.00016      0.02450
     -0.00146     -0.00073     -0.48936

 NEB: forces: par spring, perp REAL, dneb     0.000305    0.012092    0.000000
 NEB: distance to prev, next image, angle between     1.076130    1.076069  167.193923
 NEB: projections on to tangent (spring, REAL)    -0.000305    0.008979

 stress matrix after NEB project (eV)
      1.75159      1.35921     -0.00750
      1.35921      0.24315     -0.00243
     -0.00750     -0.00243     -0.64410
  FORCES: max atom, RMS     0.003524    0.001242
  FORCE total and by dimension    0.012232    0.003358
  Stress total and by dimension    2.690188    1.751595
 OPT: skip step - force has converged


--------------------------------------------------------------------------------------------------------


  
 reached required accuracy - stopping structural energy minimisation
     LOOP+:  cpu time    290.4899: real time    292.8234
    4ORBIT:  cpu time      0.0000: real time      0.0000

 total amount of memory used by VASP MPI-rank0  1122690. kBytes
=======================================================================

   base      :      30000. kBytes
   nonlr-proj:       8983. kBytes
   fftplans  :     185212. kBytes
   grid      :     184190. kBytes
   one-center:        595. kBytes
   wavefun   :     713710. kBytes
 
  
  
 General timing and accounting informations for this job:
 ========================================================
  
                  Total CPU time used (sec):     2901.295
                            User time (sec):     2802.025
                          System time (sec):       99.270
                         Elapsed time (sec):     2926.142
  
                   Maximum memory used (kb):     1562892.
                   Average memory used (kb):          N/A
  
                          Minor page faults:       262662
                          Major page faults:           36
                 Voluntary context switches:         2433
