 vasp.6.4.2 20Jul23 (build Aug 26 2025 15:10:52) complex                        
  
 POSCAR found type information on POSCAR C H N O 
 03/POSCAR found :  4 types and      97 ions
 Reading from existing POTCAR
 scaLAPACK will be used
 -----------------------------------------------------------------------------
|                                                                             |
|           W    W    AA    RRRRR   N    N  II  N    N   GGGG   !!!           |
|           W    W   A  A   R    R  NN   N  II  NN   N  G    G  !!!           |
|           W    W  A    A  R    R  N N  N  II  N N  N  G       !!!           |
|           W WW W  AAAAAA  RRRRR   N  N N  II  N  N N  G  GGG   !            |
|           WW  WW  A    A  R   R   N   NN  II  N   NN  G    G                |
|           W    W  A    A  R    R  N    N  II  N    N   GGGG   !!!           |
|                                                                             |
|     For optimal performance we recommend to set                             |
|       NCORE = 2 up to number-of-cores-per-socket                            |
|     NCORE specifies how many cores store one orbital (NPAR=cpu/NCORE).      |
|     This setting can greatly improve the performance of VASP for DFT.       |
|     The default, NCORE=1 might be grossly inefficient on modern             |
|     multi-core architectures or massively parallel machines. Do your        |
|     own testing! More info at https://www.vasp.at/wiki/index.php/NCORE      |
|     Unfortunately you need to use the default for GW and RPA                |
|     calculations (for HF NCORE is supported but not extensively tested      |
|     yet).                                                                   |
|                                                                             |
 -----------------------------------------------------------------------------

 Reading from existing POTCAR
 LDA part: xc-table for Pade appr. of Perdew
 POSCAR found type information on POSCAR C H N O 
 00/POSCAR found :  4 types and      97 ions
 POSCAR found type information on POSCAR C H N O 
 06/POSCAR found :  4 types and      97 ions
 Jacobian:    33.6678109620489     
 POSCAR found type information on POSCAR C H N O 
 00/POSCAR found :  4 types and      97 ions
 POSCAR found type information on POSCAR C H N O 
 06/POSCAR found :  4 types and      97 ions
 POSCAR, INCAR and KPOINTS ok, starting setup
 FFT: planning ... GRIDC
 FFT: planning ... GRID_SOFT
 FFT: planning ... GRID
 WAVECAR not read
 entering main loop
       N       E                     dE             d eps       ncg     rms          rms(c)
DAV:   1     0.326796963053E+04    0.32680E+04   -0.13769E+05  4590   0.105E+03
DAV:   2    -0.250675898322E+03   -0.35186E+04   -0.33160E+04  6410   0.258E+02
DAV:   3    -0.864017421501E+03   -0.61334E+03   -0.61062E+03  5310   0.111E+02
DAV:   4    -0.886078934120E+03   -0.22062E+02   -0.21983E+02  5400   0.266E+01
DAV:   5    -0.886703943199E+03   -0.62501E+00   -0.62427E+00  6040   0.380E+00    0.519E+01
DAV:   6    -0.869400700153E+03    0.17303E+02   -0.21724E+01  5170   0.735E+00    0.338E+01
DAV:   7    -0.847187380282E+03    0.22213E+02   -0.32766E+01  4990   0.863E+00    0.204E+01
DAV:   8    -0.842391068871E+03    0.47963E+01   -0.24081E+01  5130   0.731E+00    0.823E+00
DAV:   9    -0.842276887132E+03    0.11418E+00   -0.10716E+00  5020   0.202E+00    0.327E+00
DAV:  10    -0.842190236987E+03    0.86650E-01   -0.45086E-01  4930   0.120E+00    0.971E-01
DAV:  11    -0.842178769317E+03    0.11468E-01   -0.88648E-02  4890   0.529E-01    0.348E-01
DAV:  12    -0.842176620516E+03    0.21488E-02   -0.96647E-03  5200   0.185E-01    0.178E-01
DAV:  13    -0.842176256279E+03    0.36424E-03   -0.25512E-03  5140   0.111E-01    0.829E-02
DAV:  14    -0.842176383226E+03   -0.12695E-03   -0.60316E-04  5030   0.488E-02    0.534E-02
DAV:  15    -0.842176414951E+03   -0.31725E-04   -0.78904E-05  5100   0.181E-02    0.289E-02
DAV:  16    -0.842176427494E+03   -0.12544E-04   -0.32177E-05  4130   0.117E-02    0.109E-02
DAV:  17    -0.842176427249E+03    0.24551E-06   -0.61375E-06  3560   0.595E-03
   1 F= -.84994589E+03 E0= -.84994589E+03  d E =-.849946E+03  mag=     0.0001
quench:  g(F)=  0.000E+00 g(S)=  0.000E+00 dE (1.order)= 0.000E+00
 bond charge predicted
       N       E                     dE             d eps       ncg     rms          rms(c)
DAV:   1    -0.842176425715E+03    0.17794E-05   -0.40116E-05  4210   0.119E-02    0.262E-03
DAV:   2    -0.842176425603E+03    0.11217E-06   -0.10772E-06  2640   0.211E-03
   2 F= -.84994589E+03 E0= -.84994589E+03  d E =0.700410E-06  mag=    -0.0000
quench:  g(F)=  0.000E+00 g(S)=  0.000E+00 dE (1.order)= 0.000E+00
 bond charge predicted
       N       E                     dE             d eps       ncg     rms          rms(c)
DAV:   1    -0.842176425773E+03   -0.58229E-07   -0.62926E-05  4160   0.156E-02    0.224E-03
DAV:   2    -0.842176425786E+03   -0.12238E-07   -0.12738E-06  2480   0.229E-03
   3 F= -.84994589E+03 E0= -.84994589E+03  d E =0.472141E-06  mag=     0.0000
quench:  g(F)=  0.000E+00 g(S)=  0.000E+00 dE (1.order)= 0.000E+00
 bond charge predicted
       N       E                     dE             d eps       ncg     rms          rms(c)
DAV:   1    -0.842176425574E+03    0.19953E-06   -0.13460E-04  4300   0.224E-02    0.310E-03
DAV:   2    -0.842176425680E+03   -0.10638E-06   -0.25620E-06  2560   0.309E-03
   4 F= -.84994589E+03 E0= -.84994589E+03  d E =0.387496E-06  mag=    -0.0000
quench:  g(F)=  0.000E+00 g(S)=  0.000E+00 dE (1.order)= 0.000E+00
 bond charge predicted
       N       E                     dE             d eps       ncg     rms          rms(c)
DAV:   1    -0.842176424568E+03    0.10054E-05   -0.19764E-04  4360   0.271E-02    0.423E-03
DAV:   2    -0.842176424665E+03   -0.96086E-07   -0.32151E-06  2580   0.352E-03
   5 F= -.84994589E+03 E0= -.84994589E+03  d E =0.175537E-06  mag=     0.0000
quench:  g(F)=  0.000E+00 g(S)=  0.000E+00 dE (1.order)= 0.000E+00
 reached required accuracy - stopping structural energy minimisation
