<?xml version="1.0" encoding="ISO-8859-1"?>
<modeling>
 <generator>
  <i name="program" type="string">vasp </i>
  <i name="version" type="string">6.4.2  </i>
  <i name="subversion" type="string">20Jul23 (build Aug 26 2025 15:10:52) complex                          parallel </i>
  <i name="platform" type="string">LinuxIFC </i>
  <i name="date" type="string">2025 12 02 </i>
  <i name="time" type="string">12:14:44 </i>
 </generator>
 <incar>
  <i type="int" name="ISTART">     0</i>
  <i type="string" name="ALGO">Normal</i>
  <i type="logical" name="ADDGRID"> T  </i>
  <i type="int" name="ISPIN">     2</i>
  <i type="int" name="IMIX">     4</i>
  <i name="AMIX">      0.20000000</i>
  <i name="BMIX">      0.00010000</i>
  <i name="AMIX_MAG">      0.80000000</i>
  <i name="BMIX_MAG">      0.00010000</i>
  <i type="int" name="ICHARG">     2</i>
  <i type="int" name="NELM">   200</i>
  <i type="int" name="IBRION">     3</i>
  <i name="EDIFF">      0.00001000</i>
  <i name="EDIFFG">     -0.03000000</i>
  <i type="int" name="NSW">   300</i>
  <i type="int" name="ISIF">     2</i>
  <i type="int" name="ISYM">     0</i>
  <i name="ENCUT">    520.00000000</i>
  <i name="POTIM">      0.00000000</i>
  <v name="MAGMOM">      0.60000000      0.60000000      0.60000000      0.60000000      0.60000000      0.60000000      0.60000000      0.60000000      0.60000000      0.60000000      0.60000000      0.60000000      0.60000000      0.60000000      0.60000000      0.60000000      0.60000000      0.60000000      0.60000000      0.60000000
      0.60000000      0.60000000      0.60000000      0.60000000      0.60000000      0.60000000      0.60000000      0.60000000      0.60000000      0.60000000      0.60000000      0.60000000      0.60000000      0.60000000      0.60000000      0.60000000      0.60000000      0.60000000      0.60000000      0.60000000
      0.60000000      0.60000000      0.60000000      0.60000000      0.60000000      0.60000000      0.60000000      0.60000000      0.60000000      0.60000000      0.60000000      0.60000000      0.60000000      0.60000000      0.60000000      0.60000000      0.60000000      0.60000000      0.60000000      0.60000000
      0.60000000      0.60000000      0.60000000      0.60000000      0.60000000      0.60000000      0.60000000      0.60000000      0.60000000      0.60000000      0.60000000      0.60000000      0.60000000      0.60000000      0.60000000      0.60000000      0.60000000      0.60000000      0.60000000      0.60000000
      0.60000000      0.60000000      0.60000000      0.60000000      0.60000000      0.60000000      0.60000000      0.60000000      0.60000000      0.60000000      0.60000000      0.60000000      0.60000000      0.60000000      0.60000000      0.60000000      0.60000000</v>
  <i type="string" name="LREAL">Auto</i>
  <i type="int" name="ISMEAR">     0</i>
  <i name="SIGMA">      0.05000000</i>
  <i type="logical" name="LWAVE"> F  </i>
  <i type="logical" name="LCHARG"> F  </i>
  <i type="logical" name="LASPH"> T  </i>
  <i type="int" name="IVDW">    12</i>
  <i name="SPRING">     -5.00000000</i>
 </incar>
 <primitive_cell>
  <structure name="primitive_cell" >
   <crystal>
    <varray name="basis" >
     <v>      17.27103806       0.00000000       0.00000000 </v>
     <v>      -8.63551903      14.95715771       0.00000000 </v>
     <v>       0.00000000       0.00000000      15.00000000 </v>
    </varray>
    <i name="volume">   3874.88459904 </i>
    <varray name="rec_basis" >
     <v>       0.05790040       0.03342881       0.00000000 </v>
     <v>       0.00000000       0.06685762       0.00000000 </v>
     <v>       0.00000000       0.00000000       0.06666667 </v>
    </varray>
   </crystal>
   <varray name="positions" >
    <v>       0.99944087       0.99947929       0.49983682 </v>
    <v>       0.99895616       0.14202308       0.49991468 </v>
    <v>       0.99887065       0.28511846       0.50007380 </v>
    <v>       0.99894467       0.42827361       0.50012770 </v>
    <v>       0.99946831       0.57128107       0.50003251 </v>
    <v>       0.99994618       0.71409319       0.49987866 </v>
    <v>       0.99994616       0.85715497       0.49982481 </v>
    <v>       0.14302806       0.00017846       0.49989772 </v>
    <v>       0.14217668       0.14242446       0.49998063 </v>
    <v>       0.14097779       0.28445772       0.50024755 </v>
    <v>       0.14098801       0.42785172       0.50047163 </v>
    <v>       0.14219855       0.57106122       0.50029325 </v>
    <v>       0.14306536       0.71414230       0.50001899 </v>
    <v>       0.14316052       0.85721922       0.49984068 </v>
    <v>       0.28616646       0.00022920       0.49986119 </v>
    <v>       0.28614005       0.14314456       0.49995391 </v>
    <v>       0.28489496       0.28637453       0.50032889 </v>
    <v>       0.28215981       0.42671281       0.50085306 </v>
    <v>       0.28491835       0.56984193       0.50069546 </v>
    <v>       0.28618812       0.71430369       0.50030194 </v>
    <v>       0.28618681       0.85726204       0.49998201 </v>
    <v>       0.42897823       0.00016995       0.49999953 </v>
    <v>       0.42957555       0.14381340       0.49993361 </v>
    <v>       0.42794212       0.28374798       0.50002553 </v>
    <v>       0.42802904       0.71555120       0.50049741 </v>
    <v>       0.42960589       0.85712603       0.50018673 </v>
    <v>       0.57143336       0.99999209       0.50017895 </v>
    <v>       0.57143585       0.14287364       0.50004159 </v>
    <v>       0.57487162       0.28903220       0.49993867 </v>
    <v>       0.57491218       0.85728730       0.50023995 </v>
    <v>       0.71424126       0.00039347       0.50010380 </v>
    <v>       0.71405743       0.14273890       0.50007171 </v>
    <v>       0.71421854       0.28526308       0.49999120 </v>
    <v>       0.71029243       0.42462661       0.49991124 </v>
    <v>       0.71665870       0.57206840       0.49987443 </v>
    <v>       0.71668117       0.71598004       0.49986047 </v>
    <v>       0.71032197       0.85707761       0.50002924 </v>
    <v>       0.85640531       0.99952201       0.49994102 </v>
    <v>       0.85651887       0.14257716       0.49997949 </v>
    <v>       0.85652091       0.28536520       0.50000102 </v>
    <v>       0.85639436       0.42826419       0.49997883 </v>
    <v>       0.85629575       0.57066795       0.49990544 </v>
    <v>       0.85738156       0.71436309       0.49976014 </v>
    <v>       0.85629583       0.85697251       0.49982045 </v>
    <v>       0.04696258       0.09467838       0.49988619 </v>
    <v>       0.04590713       0.23695461       0.50005462 </v>
    <v>       0.04590663       0.38031271       0.50022727 </v>
    <v>       0.04698134       0.52361282       0.50015809 </v>
    <v>       0.04752523       0.66661333       0.49998230 </v>
    <v>       0.04753798       0.80941096       0.49983670 </v>
    <v>       0.04750498       0.95220496       0.49985566 </v>
    <v>       0.19051527       0.09514152       0.49994365 </v>
    <v>       0.18914739       0.23736455       0.50016661 </v>
    <v>       0.18717474       0.37924798       0.50054785 </v>
    <v>       0.18917422       0.52309501       0.50048691 </v>
    <v>       0.19055821       0.66667290       0.50018377 </v>
    <v>       0.19091118       0.80965184       0.49992794 </v>
    <v>       0.19090618       0.95255208       0.49986230 </v>
    <v>       0.33413954       0.09596054       0.49988697 </v>
    <v>       0.33450930       0.23857180       0.50008302 </v>
    <v>       0.32829669       0.37883643       0.50076347 </v>
    <v>       0.32827178       0.52073825       0.50098827 </v>
    <v>       0.33459630       0.66726152       0.50054638 </v>
    <v>       0.33415977       0.80949653       0.50014465 </v>
    <v>       0.33355566       0.95245041       0.49991359 </v>
    <v>       0.47647767       0.09541167       0.49998219 </v>
    <v>       0.47710865       0.23959257       0.49995051 </v>
    <v>       0.47715077       0.80889285       0.50032240 </v>
    <v>       0.47649637       0.95247435       0.50012778 </v>
    <v>       0.61878577       0.09510536       0.50011275 </v>
    <v>       0.61951097       0.23836238       0.49999240 </v>
    <v>       0.61953549       0.95259967       0.50020510 </v>
    <v>       0.76173008       0.09552016       0.50004853 </v>
    <v>       0.76170237       0.23761867       0.50001789 </v>
    <v>       0.76104738       0.38005909       0.49995266 </v>
    <v>       0.76012672       0.52300810       0.49987765 </v>
    <v>       0.76161077       0.66648156       0.49980219 </v>
    <v>       0.76012924       0.80849907       0.49987431 </v>
    <v>       0.76106812       0.95241616       0.50003440 </v>
    <v>       0.90377551       0.09440227       0.49992784 </v>
    <v>       0.90391403       0.23765674       0.49999518 </v>
    <v>       0.90377615       0.38076345       0.50001777 </v>
    <v>       0.90418458       0.52364555       0.49997094 </v>
    <v>       0.90424618       0.66613577       0.49984617 </v>
    <v>       0.90424847       0.80945195       0.49977097 </v>
    <v>       0.90418349       0.95189380       0.49987071 </v>
    <v>       0.46611714       0.35632143       0.50008693 </v>
    <v>       0.40039946       0.41812083       0.50094548 </v>
    <v>       0.40036492       0.55359361       0.50120588 </v>
    <v>       0.64444497       0.68243455       0.50003503 </v>
    <v>       0.64442141       0.53329747       0.50005840 </v>
    <v>       0.46625122       0.68121164       0.50059229 </v>
    <v>       0.54772164       0.60466166       0.49933255 </v>
    <v>       0.54854965       0.51577417       0.49917661 </v>
    <v>       0.62017226       0.37965924       0.49989929 </v>
    <v>       0.62020880       0.81195592       0.50014034 </v>
    <v>       0.50867077       0.54020490       0.50000005 </v>
   </varray>
  </structure>
  <varray name="primitive_index" >
   <v type="int" >        1 </v>
   <v type="int" >        2 </v>
   <v type="int" >        3 </v>
   <v type="int" >        4 </v>
   <v type="int" >        5 </v>
   <v type="int" >        6 </v>
   <v type="int" >        7 </v>
   <v type="int" >        8 </v>
   <v type="int" >        9 </v>
   <v type="int" >       10 </v>
   <v type="int" >       11 </v>
   <v type="int" >       12 </v>
   <v type="int" >       13 </v>
   <v type="int" >       14 </v>
   <v type="int" >       15 </v>
   <v type="int" >       16 </v>
   <v type="int" >       17 </v>
   <v type="int" >       18 </v>
   <v type="int" >       19 </v>
   <v type="int" >       20 </v>
   <v type="int" >       21 </v>
   <v type="int" >       22 </v>
   <v type="int" >       23 </v>
   <v type="int" >       24 </v>
   <v type="int" >       25 </v>
   <v type="int" >       26 </v>
   <v type="int" >       27 </v>
   <v type="int" >       28 </v>
   <v type="int" >       29 </v>
   <v type="int" >       30 </v>
   <v type="int" >       31 </v>
   <v type="int" >       32 </v>
   <v type="int" >       33 </v>
   <v type="int" >       34 </v>
   <v type="int" >       35 </v>
   <v type="int" >       36 </v>
   <v type="int" >       37 </v>
   <v type="int" >       38 </v>
   <v type="int" >       39 </v>
   <v type="int" >       40 </v>
   <v type="int" >       41 </v>
   <v type="int" >       42 </v>
   <v type="int" >       43 </v>
   <v type="int" >       44 </v>
   <v type="int" >       45 </v>
   <v type="int" >       46 </v>
   <v type="int" >       47 </v>
   <v type="int" >       48 </v>
   <v type="int" >       49 </v>
   <v type="int" >       50 </v>
   <v type="int" >       51 </v>
   <v type="int" >       52 </v>
   <v type="int" >       53 </v>
   <v type="int" >       54 </v>
   <v type="int" >       55 </v>
   <v type="int" >       56 </v>
   <v type="int" >       57 </v>
   <v type="int" >       58 </v>
   <v type="int" >       59 </v>
   <v type="int" >       60 </v>
   <v type="int" >       61 </v>
   <v type="int" >       62 </v>
   <v type="int" >       63 </v>
   <v type="int" >       64 </v>
   <v type="int" >       65 </v>
   <v type="int" >       66 </v>
   <v type="int" >       67 </v>
   <v type="int" >       68 </v>
   <v type="int" >       69 </v>
   <v type="int" >       70 </v>
   <v type="int" >       71 </v>
   <v type="int" >       72 </v>
   <v type="int" >       73 </v>
   <v type="int" >       74 </v>
   <v type="int" >       75 </v>
   <v type="int" >       76 </v>
   <v type="int" >       77 </v>
   <v type="int" >       78 </v>
   <v type="int" >       79 </v>
   <v type="int" >       80 </v>
   <v type="int" >       81 </v>
   <v type="int" >       82 </v>
   <v type="int" >       83 </v>
   <v type="int" >       84 </v>
   <v type="int" >       85 </v>
   <v type="int" >       86 </v>
   <v type="int" >       87 </v>
   <v type="int" >       88 </v>
   <v type="int" >       89 </v>
   <v type="int" >       90 </v>
   <v type="int" >       91 </v>
   <v type="int" >       92 </v>
   <v type="int" >       93 </v>
   <v type="int" >       94 </v>
   <v type="int" >       95 </v>
   <v type="int" >       96 </v>
   <v type="int" >       97 </v>
  </varray>
 </primitive_cell>
 <kpoints>
  <generation param="Gamma">
   <v type="int" name="divisions">       2        2        1 </v>
   <v name="usershift">      0.00000000       0.00000000       0.00000000 </v>
   <v name="genvec1">      0.50000000       0.00000000       0.00000000 </v>
   <v name="genvec2">      0.00000000       0.50000000       0.00000000 </v>
   <v name="genvec3">      0.00000000       0.00000000       1.00000000 </v>
   <v name="shift">      0.00000000       0.00000000       0.00000000 </v>
  </generation>
  <varray name="kpointlist" >
   <v>       0.00000000       0.00000000       0.00000000 </v>
   <v>       0.50000000       0.00000000       0.00000000 </v>
   <v>       0.00000000       0.50000000       0.00000000 </v>
   <v>       0.50000000       0.50000000       0.00000000 </v>
  </varray>
  <varray name="weights" >
   <v>       0.25000000 </v>
   <v>       0.25000000 </v>
   <v>       0.25000000 </v>
   <v>       0.25000000 </v>
  </varray>
 </kpoints>
 <parameters>
  <separator name="general" >
   <i type="string" name="SYSTEM">unknown system</i>
   <i type="logical" name="LCOMPAT"> F  </i>
  </separator>
  <separator name="electronic" >
   <i type="string" name="PREC">normal</i>
   <i name="ENMAX">    520.00000000</i>
   <i name="ENAUG">    644.87300000</i>
   <i name="EDIFF">      0.00001000</i>
   <i type="int" name="IALGO">    38</i>
   <i type="int" name="IWAVPR">    11</i>
   <i type="int" name="NBANDS">   265</i>
   <i type="int" name="NBANDSLOW">    -1</i>
   <i type="int" name="NBANDSHIGH">    -1</i>
   <i name="NELECT">    368.00000000</i>
   <i type="int" name="TURBO">     0</i>
   <i type="int" name="IRESTART">     0</i>
   <i type="int" name="NREBOOT">     0</i>
   <i type="int" name="NMIN">     0</i>
   <i name="EREF">      0.00000000</i>
   <separator name="electronic smearing" >
    <i type="int" name="ISMEAR">     0</i>
    <i name="SIGMA">      0.05000000</i>
    <i name="KSPACING">      0.50000000</i>
    <i type="logical" name="KGAMMA"> T  </i>
    <i type="logical" name="KBLOWUP"> T  </i>
   </separator>
   <separator name="electronic projectors" >
    <i type="logical" name="LREAL"> T  </i>
    <v name="ROPT">     -0.00050000     -0.00050000     -0.00050000     -0.00050000</v>
    <i type="int" name="LMAXPAW">  -100</i>
    <i type="int" name="LMAXMIX">     2</i>
    <i type="logical" name="NLSPLINE"> F  </i>
   </separator>
   <separator name="electronic startup" >
    <i type="int" name="ISTART">     0</i>
    <i type="int" name="ICHARG">     2</i>
    <i type="int" name="INIWAV">     1</i>
   </separator>
   <separator name="electronic spin" >
    <i type="int" name="ISPIN">     2</i>
    <i type="logical" name="LNONCOLLINEAR"> F  </i>
    <v name="MAGMOM">      0.60000000      0.60000000      0.60000000      0.60000000      0.60000000      0.60000000      0.60000000      0.60000000      0.60000000      0.60000000      0.60000000      0.60000000      0.60000000      0.60000000      0.60000000      0.60000000      0.60000000      0.60000000      0.60000000      0.60000000
      0.60000000      0.60000000      0.60000000      0.60000000      0.60000000      0.60000000      0.60000000      0.60000000      0.60000000      0.60000000      0.60000000      0.60000000      0.60000000      0.60000000      0.60000000      0.60000000      0.60000000      0.60000000      0.60000000      0.60000000
      0.60000000      0.60000000      0.60000000      0.60000000      0.60000000      0.60000000      0.60000000      0.60000000      0.60000000      0.60000000      0.60000000      0.60000000      0.60000000      0.60000000      0.60000000      0.60000000      0.60000000      0.60000000      0.60000000      0.60000000
      0.60000000      0.60000000      0.60000000      0.60000000      0.60000000      0.60000000      0.60000000      0.60000000      0.60000000      0.60000000      0.60000000      0.60000000      0.60000000      0.60000000      0.60000000      0.60000000      0.60000000      0.60000000      0.60000000      0.60000000
      0.60000000      0.60000000      0.60000000      0.60000000      0.60000000      0.60000000      0.60000000      0.60000000      0.60000000      0.60000000      0.60000000      0.60000000      0.60000000      0.60000000      0.60000000      0.60000000      0.60000000</v>
    <i name="NUPDOWN">     -1.00000000</i>
    <i type="logical" name="LSORBIT"> F  </i>
    <v name="SAXIS">      0.00000000      0.00000000      1.00000000</v>
    <i type="logical" name="LSPIRAL"> F  </i>
    <v name="QSPIRAL">      0.00000000      0.00000000      0.00000000</v>
    <i type="logical" name="LZEROZ"> F  </i>
   </separator>
   <separator name="electronic exchange-correlation" >
    <i type="logical" name="LASPH"> T  </i>
    <i type="logical" name="LMETAGGA"> F  </i>
   </separator>
   <separator name="electronic convergence" >
    <i type="int" name="NELM">   200</i>
    <i type="int" name="NELMDL">    -5</i>
    <i type="int" name="NELMIN">     2</i>
    <i name="ENINI">    520.00000000</i>
    <separator name="electronic convergence detail" >
     <i type="logical" name="LDIAG"> T  </i>
     <i type="logical" name="LSUBROT"> F  </i>
     <i name="WEIMIN">      0.00100000</i>
     <i name="EBREAK">      0.00000001</i>
     <i name="DEPER">      0.30000000</i>
     <i type="int" name="NRMM">     4</i>
     <i name="TIME">      0.40000000</i>
    </separator>
   </separator>
   <separator name="electronic mixer" >
    <i name="AMIX">      0.20000000</i>
    <i name="BMIX">      0.00010000</i>
    <i name="AMIN">      0.10000000</i>
    <i name="AMIX_MAG">      0.80000000</i>
    <i name="BMIX_MAG">      0.00010000</i>
    <separator name="electronic mixer details" >
     <i type="int" name="IMIX">     4</i>
     <i type="logical" name="MIXFIRST"> F  </i>
     <i type="int" name="MAXMIX">   -45</i>
     <i name="WC">    100.00000000</i>
     <i type="int" name="INIMIX">     1</i>
     <i type="int" name="MIXPRE">     1</i>
     <i type="int" name="MREMOVE">     5</i>
    </separator>
   </separator>
   <separator name="electronic dipolcorrection" >
    <i type="logical" name="LDIPOL"> F  </i>
    <i type="logical" name="LMONO"> F  </i>
    <i type="int" name="IDIPOL">     0</i>
    <i name="EPSILON">      1.00000000</i>
    <v name="DIPOL">   -100.00000000   -100.00000000   -100.00000000</v>
    <i name="EFIELD">      0.00000000</i>
   </separator>
  </separator>
  <separator name="grids" >
   <i type="int" name="NGX">    96</i>
   <i type="int" name="NGY">    96</i>
   <i type="int" name="NGZ">    84</i>
   <i type="int" name="NGXF">   192</i>
   <i type="int" name="NGYF">   192</i>
   <i type="int" name="NGZF">   168</i>
   <i type="logical" name="ADDGRID"> T  </i>
  </separator>
  <separator name="ionic" >
   <i type="int" name="NSW">   300</i>
   <i type="int" name="IBRION">     3</i>
   <i type="int" name="MDALGO">     0</i>
   <i type="int" name="ISIF">     2</i>
   <i name="PSTRESS">      0.00000000</i>
   <i name="EDIFFG">     -0.03000000</i>
   <i type="int" name="NFREE">     0</i>
   <i name="POTIM">      0.00000000</i>
   <i name="SMASS">     -3.00000000</i>
   <i name="SCALEE">      1.00000000</i>
  </separator>
  <separator name="ionic md" >
   <i name="TEBEG">      0.00010000</i>
   <i name="TEEND">      0.00010000</i>
   <i type="int" name="NBLOCK">     1</i>
   <i type="int" name="KBLOCK">   300</i>
   <i type="int" name="NPACO">   256</i>
   <i name="APACO">     10.00000000</i>
  </separator>
  <separator name="symmetry" >
   <i type="int" name="ISYM">     0</i>
   <i name="SYMPREC">      0.00001000</i>
  </separator>
  <separator name="dos" >
   <i type="int" name="LORBIT">     0</i>
   <v name="RWIGS">     -1.00000000     -1.00000000     -1.00000000     -1.00000000</v>
   <i type="int" name="NEDOS">   301</i>
   <i name="EMIN">     10.00000000</i>
   <i name="EMAX">    -10.00000000</i>
   <i name="EFERMI">      0.00000000</i>
  </separator>
  <separator name="writing" >
   <i type="int" name="NWRITE">     2</i>
   <i type="logical" name="LWAVE"> F  </i>
   <i type="logical" name="LDOWNSAMPLE"> F  </i>
   <i type="logical" name="LCHARG"> F  </i>
   <i type="logical" name="LPARD"> F  </i>
   <i type="logical" name="LVTOT"> F  </i>
   <i type="logical" name="LVHAR"> F  </i>
   <i type="logical" name="LELF"> F  </i>
   <i type="logical" name="LOPTICS"> F  </i>
   <v name="STM">      0.00000000      0.00000000      0.00000000      0.00000000      0.00000000      0.00000000      0.00000000</v>
  </separator>
  <separator name="performance" >
   <i type="int" name="NPAR">     5</i>
   <i type="int" name="NSIM">     4</i>
   <i type="int" name="NBLK">    -1</i>
   <i type="logical" name="LPLANE"> T  </i>
   <i type="logical" name="LSCALAPACK"> T  </i>
   <i type="logical" name="LSCAAWARE"> F  </i>
   <i type="logical" name="LSCALU"> F  </i>
   <i type="logical" name="LASYNC"> F  </i>
   <i type="logical" name="LORBITALREAL"> F  </i>
  </separator>
  <separator name="miscellaneous" >
   <i type="int" name="IDIOT">     3</i>
   <i type="int" name="PHON_NSTRUCT">    -1</i>
   <i type="logical" name="LMUSIC"> F  </i>
   <v name="POMASS">     12.01100000      1.00000000     14.00100000     16.00000000</v>
   <v name="DARWINR">      0.00000000      0.00000000      0.00000000      0.00000000</v>
   <v name="DARWINV">      1.00000000      1.00000000      1.00000000      1.00000000</v>
   <i type="logical" name="LCORR"> T  </i>
  </separator>
  <i type="logical" name="GGA_COMPAT"> T  </i>
  <i type="logical" name="LBERRY"> F  </i>
  <i type="int" name="ICORELEVEL">     0</i>
  <i type="logical" name="LDAU"> F  </i>
  <i type="int" name="I_CONSTRAINED_M">     0</i>
  <separator name="electronic exchange-correlation" >
   <i type="string" name="GGA">--</i>
   <i type="int" name="VOSKOWN">     0</i>
   <i type="logical" name="LHFCALC"> F  </i>
   <i type="string" name="PRECFOCK"></i>
   <i type="logical" name="LSYMGRAD"> F  </i>
   <i type="logical" name="LHFONE"> F  </i>
   <i type="logical" name="LRHFCALC"> F  </i>
   <i type="logical" name="LTHOMAS"> F  </i>
   <i type="logical" name="LMODELHF"> F  </i>
   <i type="logical" name="LFOCKACE"> F  </i>
   <i name="ENCUT4O">     -1.00000000</i>
   <i type="int" name="EXXOEP">     0</i>
   <i type="int" name="FOURORBIT">     0</i>
   <i name="AEXX">      0.00000000</i>
   <i name="HFALPHA">      0.00000000</i>
   <i name="MCALPHA">      0.00000000</i>
   <i name="ALDAX">      1.00000000</i>
   <i name="AGGAX">      1.00000000</i>
   <i name="ALDAC">      1.00000000</i>
   <i name="AGGAC">      1.00000000</i>
   <i type="int" name="NKREDX">     1</i>
   <i type="int" name="NKREDY">     1</i>
   <i type="int" name="NKREDZ">     1</i>
   <i type="logical" name="SHIFTRED"> F  </i>
   <i type="logical" name="ODDONLY"> F  </i>
   <i type="logical" name="EVENONLY"> F  </i>
   <i type="int" name="LMAXFOCK">     0</i>
   <i type="int" name="NMAXFOCKAE">     0</i>
   <i type="logical" name="LFOCKAEDFT"> F  </i>
   <i name="HFSCREEN">      0.00000000</i>
   <i name="HFSCREENC">      0.00000000</i>
   <i type="int" name="NBANDSGWLOW">     0</i>
  </separator>
  <separator name="vdW DFT" >
   <i type="logical" name="LUSE_VDW"> F  </i>
   <i type="int" name="IVDW_NL">     1</i>
   <i type="logical" name="LSPIN_VDW"> F  </i>
   <i name="Zab_VDW">     -0.84910000</i>
   <i name="PARAM1">      0.12340000</i>
   <i name="PARAM2">      1.00000000</i>
   <i name="PARAM3">      0.00000000</i>
  </separator>
  <separator name="model GW" >
   <i type="int" name="MODEL_GW">     0</i>
   <i name="MODEL_EPS0">     23.96835834</i>
   <i name="MODEL_ALPHA">      1.00000000</i>
  </separator>
  <separator name="linear response parameters" >
   <i type="logical" name="LEPSILON"> F  </i>
   <i type="logical" name="LRPA"> F  </i>
   <i type="logical" name="LNABLA"> F  </i>
   <i type="logical" name="LVEL"> F  </i>
   <i name="CSHIFT">      0.10000000</i>
   <i name="OMEGAMAX">     -1.00000000</i>
   <i name="DEG_THRESHOLD">      0.00200000</i>
   <i name="RTIME">     -0.10000000</i>
   <i name="WPLASMAI">      0.00000000</i>
   <v name="DFIELD">      0.00000000      0.00000000      0.00000000</v>
   <v name="WPLASMA">      0.00000000      0.00000000      0.00000000      0.00000000      0.00000000      0.00000000      0.00000000      0.00000000      0.00000000</v>
  </separator>
  <separator name="orbital magnetization" >
   <i type="logical" name="NUCIND"> F  </i>
   <v name="MAGPOS">      0.00000000      0.00000000      0.00000000</v>
   <i type="logical" name="LNICSALL"> T  </i>
   <i type="logical" name="ORBITALMAG"> F  </i>
   <i type="logical" name="LMAGBLOCH"> F  </i>
   <i type="logical" name="LCHIMAG"> F  </i>
   <i type="logical" name="LGAUGE"> T  </i>
   <i type="int" name="MAGATOM">     0</i>
   <v name="MAGDIPOL">      0.00000000      0.00000000      0.00000000</v>
   <v name="AVECCONST">      0.00000000      0.00000000      0.00000000</v>
  </separator>
  <separator name="response functions" >
   <i type="logical" name="LALL_IN_ONE"> F  </i>
   <i type="int" name="IALL_IN_ONE">    -1</i>
   <i type="int" name="NBANDS_WAVE">    -1</i>
   <i type="logical" name="LFINITE_TEMPERATURE"> F  </i>
   <i type="logical" name="LADDER"> F  </i>
   <i type="logical" name="LRPAFORCE"> F  </i>
   <i type="logical" name="LFXC"> F  </i>
   <i type="logical" name="LHARTREE"> T  </i>
   <i type="int" name="IBSE">     0</i>
   <v type="int" name="KPOINT">    -1     0     0     0</v>
   <i type="logical" name="LTCTC"> F  </i>
   <i type="logical" name="LTCTE"> F  </i>
   <i type="logical" name="LTETE"> F  </i>
   <i type="logical" name="LTRIPLET"> F  </i>
   <i type="logical" name="LFXCEPS"> F  </i>
   <i type="logical" name="LFXHEG"> F  </i>
   <i type="int" name="NATURALO">     2</i>
   <i type="logical" name="LHOLEGF"> F  </i>
   <i type="logical" name="L2ORDER"> F  </i>
   <i type="logical" name="LDMP1"> F  </i>
   <i type="logical" name="LMP2LT"> F  </i>
   <i type="logical" name="LSMP2LT"> F  </i>
   <i type="logical" name="LGWLF"> F  </i>
   <i name="ENCUTGW">     -1.60000002</i>
   <i name="ENCUTGWSOFT">     -1.60000002</i>
   <i name="ENCUTLF">     -1.00000000</i>
   <i type="logical" name="LESF_SPLINES"> F  </i>
   <i type="int" name="LMAXMP2">    -1</i>
   <i name="SCISSOR">      0.00000000</i>
   <i type="int" name="NOMEGA">     0</i>
   <i type="int" name="NOMEGAR">     0</i>
   <i type="int" name="NBANDSGW">    -1</i>
   <i type="int" name="NBANDSO">    -1</i>
   <i type="int" name="NBANDSV">    -1</i>
   <i type="int" name="NELMGW">     1</i>
   <i type="int" name="NELMHF">     1</i>
   <i type="int" name="DIM">     3</i>
   <i type="int" name="IESPILON">     4</i>
   <i type="int" name="ANTIRES">     0</i>
   <i name="OMEGAMAX">    -30.00000000</i>
   <i name="OMEGAMIN">    -30.00000000</i>
   <i name="OMEGATL">   -200.00000000</i>
   <i type="int" name="OMEGAGRID">     0</i>
   <i name="CSHIFT">     -0.10000000</i>
   <i type="logical" name="LSELFENERGY"> F  </i>
   <i type="logical" name="LSPECTRAL"> F  </i>
   <i type="logical" name="LSPECTRALGW"> F  </i>
   <i type="logical" name="LSINGLES"> F  </i>
   <i type="logical" name="LFERMIGW"> F  </i>
   <i type="logical" name="ODDONLYGW"> F  </i>
   <i type="logical" name="EVENONLYGW"> F  </i>
   <i type="int" name="NKREDLFX">     1</i>
   <i type="int" name="NKREDLFY">     1</i>
   <i type="int" name="NKREDLFZ">     1</i>
   <i type="int" name="MAXMEM">  2800</i>
   <i type="int" name="TELESCOPE">     0</i>
   <i type="int" name="NTAUPAR">    -1</i>
   <i type="int" name="NOMEGAPAR">    -1</i>
   <i name="DAMP_NEWTON">      0.80000001</i>
   <i name="LAMBDA">      1.00000000</i>
  </separator>
  <separator name="External order field" >
   <i name="OFIELD_KAPPA">      0.00000000</i>
   <v name="OFIELD_K">      0.00000000      0.00000000      0.00000000</v>
   <i name="OFIELD_Q6_NEAR">      0.00000000</i>
   <i name="OFIELD_Q6_FAR">      0.00000000</i>
   <i name="OFIELD_A">      0.00000000</i>
  </separator>
  <separator name="optional k-points parameters" >
   <i type="int" name="KPOINTS_OPT_MODE">     1</i>
   <i type="logical" name="LKPOINTS_OPT"> F  </i>
  </separator>
 </parameters>
 <atominfo>
  <atoms>      97 </atoms>
  <types>       4 </types>
  <array name="atoms" >
   <dimension dim="1">ion</dimension>
   <field type="string">element</field>
   <field type="int">atomtype</field>
   <set>
    <rc><c>C </c><c>   1</c></rc>
    <rc><c>C </c><c>   1</c></rc>
    <rc><c>C </c><c>   1</c></rc>
    <rc><c>C </c><c>   1</c></rc>
    <rc><c>C </c><c>   1</c></rc>
    <rc><c>C </c><c>   1</c></rc>
    <rc><c>C </c><c>   1</c></rc>
    <rc><c>C </c><c>   1</c></rc>
    <rc><c>C </c><c>   1</c></rc>
    <rc><c>C </c><c>   1</c></rc>
    <rc><c>C </c><c>   1</c></rc>
    <rc><c>C </c><c>   1</c></rc>
    <rc><c>C </c><c>   1</c></rc>
    <rc><c>C </c><c>   1</c></rc>
    <rc><c>C </c><c>   1</c></rc>
    <rc><c>C </c><c>   1</c></rc>
    <rc><c>C </c><c>   1</c></rc>
    <rc><c>C </c><c>   1</c></rc>
    <rc><c>C </c><c>   1</c></rc>
    <rc><c>C </c><c>   1</c></rc>
    <rc><c>C </c><c>   1</c></rc>
    <rc><c>C </c><c>   1</c></rc>
    <rc><c>C </c><c>   1</c></rc>
    <rc><c>C </c><c>   1</c></rc>
    <rc><c>C </c><c>   1</c></rc>
    <rc><c>C </c><c>   1</c></rc>
    <rc><c>C </c><c>   1</c></rc>
    <rc><c>C </c><c>   1</c></rc>
    <rc><c>C </c><c>   1</c></rc>
    <rc><c>C </c><c>   1</c></rc>
    <rc><c>C </c><c>   1</c></rc>
    <rc><c>C </c><c>   1</c></rc>
    <rc><c>C </c><c>   1</c></rc>
    <rc><c>C </c><c>   1</c></rc>
    <rc><c>C </c><c>   1</c></rc>
    <rc><c>C </c><c>   1</c></rc>
    <rc><c>C </c><c>   1</c></rc>
    <rc><c>C </c><c>   1</c></rc>
    <rc><c>C </c><c>   1</c></rc>
    <rc><c>C </c><c>   1</c></rc>
    <rc><c>C </c><c>   1</c></rc>
    <rc><c>C </c><c>   1</c></rc>
    <rc><c>C </c><c>   1</c></rc>
    <rc><c>C </c><c>   1</c></rc>
    <rc><c>C </c><c>   1</c></rc>
    <rc><c>C </c><c>   1</c></rc>
    <rc><c>C </c><c>   1</c></rc>
    <rc><c>C </c><c>   1</c></rc>
    <rc><c>C </c><c>   1</c></rc>
    <rc><c>C </c><c>   1</c></rc>
    <rc><c>C </c><c>   1</c></rc>
    <rc><c>C </c><c>   1</c></rc>
    <rc><c>C </c><c>   1</c></rc>
    <rc><c>C </c><c>   1</c></rc>
    <rc><c>C </c><c>   1</c></rc>
    <rc><c>C </c><c>   1</c></rc>
    <rc><c>C </c><c>   1</c></rc>
    <rc><c>C </c><c>   1</c></rc>
    <rc><c>C </c><c>   1</c></rc>
    <rc><c>C </c><c>   1</c></rc>
    <rc><c>C </c><c>   1</c></rc>
    <rc><c>C </c><c>   1</c></rc>
    <rc><c>C </c><c>   1</c></rc>
    <rc><c>C </c><c>   1</c></rc>
    <rc><c>C </c><c>   1</c></rc>
    <rc><c>C </c><c>   1</c></rc>
    <rc><c>C </c><c>   1</c></rc>
    <rc><c>C </c><c>   1</c></rc>
    <rc><c>C </c><c>   1</c></rc>
    <rc><c>C </c><c>   1</c></rc>
    <rc><c>C </c><c>   1</c></rc>
    <rc><c>C </c><c>   1</c></rc>
    <rc><c>C </c><c>   1</c></rc>
    <rc><c>C </c><c>   1</c></rc>
    <rc><c>C </c><c>   1</c></rc>
    <rc><c>C </c><c>   1</c></rc>
    <rc><c>C </c><c>   1</c></rc>
    <rc><c>C </c><c>   1</c></rc>
    <rc><c>C </c><c>   1</c></rc>
    <rc><c>C </c><c>   1</c></rc>
    <rc><c>C </c><c>   1</c></rc>
    <rc><c>C </c><c>   1</c></rc>
    <rc><c>C </c><c>   1</c></rc>
    <rc><c>C </c><c>   1</c></rc>
    <rc><c>C </c><c>   1</c></rc>
    <rc><c>C </c><c>   1</c></rc>
    <rc><c>H </c><c>   2</c></rc>
    <rc><c>H </c><c>   2</c></rc>
    <rc><c>H </c><c>   2</c></rc>
    <rc><c>H </c><c>   2</c></rc>
    <rc><c>H </c><c>   2</c></rc>
    <rc><c>H </c><c>   2</c></rc>
    <rc><c>H </c><c>   2</c></rc>
    <rc><c>H </c><c>   2</c></rc>
    <rc><c>N </c><c>   3</c></rc>
    <rc><c>N </c><c>   3</c></rc>
    <rc><c>O </c><c>   4</c></rc>
   </set>
  </array>
  <array name="atomtypes" >
   <dimension dim="1">type</dimension>
   <field type="int">atomspertype</field>
   <field type="string">element</field>
   <field>mass</field>
   <field>valence</field>
   <field type="string">pseudopotential</field>
   <set>
    <rc><c>  86</c><c>C </c><c>     12.01100000</c><c>      4.00000000</c><c>  PAW_PBE C 08Apr2002                   </c></rc>
    <rc><c>   8</c><c>H </c><c>      1.00000000</c><c>      1.00000000</c><c>  PAW_PBE H 15Jun2001                   </c></rc>
    <rc><c>   2</c><c>N </c><c>     14.00100000</c><c>      5.00000000</c><c>  PAW_PBE N 08Apr2002                   </c></rc>
    <rc><c>   1</c><c>O </c><c>     16.00000000</c><c>      6.00000000</c><c>  PAW_PBE O 08Apr2002                   </c></rc>
   </set>
  </array>
 </atominfo>
 <structure name="initialpos" >
  <crystal>
   <varray name="basis" >
    <v>      17.27103806       0.00000000       0.00000000 </v>
    <v>      -8.63551903      14.95715771       0.00000000 </v>
    <v>       0.00000000       0.00000000      15.00000000 </v>
   </varray>
   <i name="volume">   3874.88459904 </i>
   <varray name="rec_basis" >
    <v>       0.05790040       0.03342881       0.00000000 </v>
    <v>       0.00000000       0.06685762       0.00000000 </v>
    <v>       0.00000000       0.00000000       0.06666667 </v>
   </varray>
  </crystal>
  <varray name="positions" >
   <v>       0.99944087       0.99947929       0.49983682 </v>
   <v>       0.99895616       0.14202308       0.49991468 </v>
   <v>       0.99887065       0.28511846       0.50007380 </v>
   <v>       0.99894467       0.42827361       0.50012770 </v>
   <v>       0.99946831       0.57128107       0.50003251 </v>
   <v>       0.99994618       0.71409319       0.49987866 </v>
   <v>       0.99994616       0.85715497       0.49982481 </v>
   <v>       0.14302806       0.00017846       0.49989772 </v>
   <v>       0.14217668       0.14242446       0.49998063 </v>
   <v>       0.14097779       0.28445772       0.50024755 </v>
   <v>       0.14098801       0.42785172       0.50047163 </v>
   <v>       0.14219855       0.57106122       0.50029325 </v>
   <v>       0.14306536       0.71414230       0.50001899 </v>
   <v>       0.14316052       0.85721922       0.49984068 </v>
   <v>       0.28616646       0.00022920       0.49986119 </v>
   <v>       0.28614005       0.14314456       0.49995391 </v>
   <v>       0.28489496       0.28637453       0.50032889 </v>
   <v>       0.28215981       0.42671281       0.50085306 </v>
   <v>       0.28491835       0.56984193       0.50069546 </v>
   <v>       0.28618812       0.71430369       0.50030194 </v>
   <v>       0.28618681       0.85726204       0.49998201 </v>
   <v>       0.42897823       0.00016995       0.49999953 </v>
   <v>       0.42957555       0.14381340       0.49993361 </v>
   <v>       0.42794212       0.28374798       0.50002553 </v>
   <v>       0.42802904       0.71555120       0.50049741 </v>
   <v>       0.42960589       0.85712603       0.50018673 </v>
   <v>       0.57143336       0.99999209       0.50017895 </v>
   <v>       0.57143585       0.14287364       0.50004159 </v>
   <v>       0.57487162       0.28903220       0.49993867 </v>
   <v>       0.57491218       0.85728730       0.50023995 </v>
   <v>       0.71424126       0.00039347       0.50010380 </v>
   <v>       0.71405743       0.14273890       0.50007171 </v>
   <v>       0.71421854       0.28526308       0.49999120 </v>
   <v>       0.71029243       0.42462661       0.49991124 </v>
   <v>       0.71665870       0.57206840       0.49987443 </v>
   <v>       0.71668117       0.71598004       0.49986047 </v>
   <v>       0.71032197       0.85707761       0.50002924 </v>
   <v>       0.85640531       0.99952201       0.49994102 </v>
   <v>       0.85651887       0.14257716       0.49997949 </v>
   <v>       0.85652091       0.28536520       0.50000102 </v>
   <v>       0.85639436       0.42826419       0.49997883 </v>
   <v>       0.85629575       0.57066795       0.49990544 </v>
   <v>       0.85738156       0.71436309       0.49976014 </v>
   <v>       0.85629583       0.85697251       0.49982045 </v>
   <v>       0.04696258       0.09467838       0.49988619 </v>
   <v>       0.04590713       0.23695461       0.50005462 </v>
   <v>       0.04590663       0.38031271       0.50022727 </v>
   <v>       0.04698134       0.52361282       0.50015809 </v>
   <v>       0.04752523       0.66661333       0.49998230 </v>
   <v>       0.04753798       0.80941096       0.49983670 </v>
   <v>       0.04750498       0.95220496       0.49985566 </v>
   <v>       0.19051527       0.09514152       0.49994365 </v>
   <v>       0.18914739       0.23736455       0.50016661 </v>
   <v>       0.18717474       0.37924798       0.50054785 </v>
   <v>       0.18917422       0.52309501       0.50048691 </v>
   <v>       0.19055821       0.66667290       0.50018377 </v>
   <v>       0.19091118       0.80965184       0.49992794 </v>
   <v>       0.19090618       0.95255208       0.49986230 </v>
   <v>       0.33413954       0.09596054       0.49988697 </v>
   <v>       0.33450930       0.23857180       0.50008302 </v>
   <v>       0.32829669       0.37883643       0.50076347 </v>
   <v>       0.32827178       0.52073825       0.50098827 </v>
   <v>       0.33459630       0.66726152       0.50054638 </v>
   <v>       0.33415977       0.80949653       0.50014465 </v>
   <v>       0.33355566       0.95245041       0.49991359 </v>
   <v>       0.47647767       0.09541167       0.49998219 </v>
   <v>       0.47710865       0.23959257       0.49995051 </v>
   <v>       0.47715077       0.80889285       0.50032240 </v>
   <v>       0.47649637       0.95247435       0.50012778 </v>
   <v>       0.61878577       0.09510536       0.50011275 </v>
   <v>       0.61951097       0.23836238       0.49999240 </v>
   <v>       0.61953549       0.95259967       0.50020510 </v>
   <v>       0.76173008       0.09552016       0.50004853 </v>
   <v>       0.76170237       0.23761867       0.50001789 </v>
   <v>       0.76104738       0.38005909       0.49995266 </v>
   <v>       0.76012672       0.52300810       0.49987765 </v>
   <v>       0.76161077       0.66648156       0.49980219 </v>
   <v>       0.76012924       0.80849907       0.49987431 </v>
   <v>       0.76106812       0.95241616       0.50003440 </v>
   <v>       0.90377551       0.09440227       0.49992784 </v>
   <v>       0.90391403       0.23765674       0.49999518 </v>
   <v>       0.90377615       0.38076345       0.50001777 </v>
   <v>       0.90418458       0.52364555       0.49997094 </v>
   <v>       0.90424618       0.66613577       0.49984617 </v>
   <v>       0.90424847       0.80945195       0.49977097 </v>
   <v>       0.90418349       0.95189380       0.49987071 </v>
   <v>       0.46611714       0.35632143       0.50008693 </v>
   <v>       0.40039946       0.41812083       0.50094548 </v>
   <v>       0.40036492       0.55359361       0.50120588 </v>
   <v>       0.64444497       0.68243455       0.50003503 </v>
   <v>       0.64442141       0.53329747       0.50005840 </v>
   <v>       0.46625122       0.68121164       0.50059229 </v>
   <v>       0.54772164       0.60466166       0.49933255 </v>
   <v>       0.54854965       0.51577417       0.49917661 </v>
   <v>       0.62017226       0.37965924       0.49989929 </v>
   <v>       0.62020880       0.81195592       0.50014034 </v>
   <v>       0.50867077       0.54020490       0.50000005 </v>
  </varray>
  <varray name="selective"  type="logical" >
   <v type="logical" >  T  T  T </v>
   <v type="logical" >  T  T  T </v>
   <v type="logical" >  T  T  T </v>
   <v type="logical" >  T  T  T </v>
   <v type="logical" >  T  T  T </v>
   <v type="logical" >  T  T  T </v>
   <v type="logical" >  T  T  T </v>
   <v type="logical" >  T  T  T </v>
   <v type="logical" >  T  T  T </v>
   <v type="logical" >  T  T  T </v>
   <v type="logical" >  T  T  T </v>
   <v type="logical" >  T  T  T </v>
   <v type="logical" >  T  T  T </v>
   <v type="logical" >  T  T  T </v>
   <v type="logical" >  T  T  T </v>
   <v type="logical" >  T  T  T </v>
   <v type="logical" >  T  T  T </v>
   <v type="logical" >  T  T  T </v>
   <v type="logical" >  T  T  T </v>
   <v type="logical" >  T  T  T </v>
   <v type="logical" >  T  T  T </v>
   <v type="logical" >  T  T  T </v>
   <v type="logical" >  T  T  T </v>
   <v type="logical" >  T  T  T </v>
   <v type="logical" >  T  T  T </v>
   <v type="logical" >  T  T  T </v>
   <v type="logical" >  T  T  T </v>
   <v type="logical" >  T  T  T </v>
   <v type="logical" >  T  T  T </v>
   <v type="logical" >  T  T  T </v>
   <v type="logical" >  T  T  T </v>
   <v type="logical" >  T  T  T </v>
   <v type="logical" >  T  T  T </v>
   <v type="logical" >  T  T  T </v>
   <v type="logical" >  T  T  T </v>
   <v type="logical" >  T  T  T </v>
   <v type="logical" >  T  T  T </v>
   <v type="logical" >  T  T  T </v>
   <v type="logical" >  T  T  T </v>
   <v type="logical" >  T  T  T </v>
   <v type="logical" >  T  T  T </v>
   <v type="logical" >  T  T  T </v>
   <v type="logical" >  T  T  T </v>
   <v type="logical" >  T  T  T </v>
   <v type="logical" >  T  T  T </v>
   <v type="logical" >  T  T  T </v>
   <v type="logical" >  T  T  T </v>
   <v type="logical" >  T  T  T </v>
   <v type="logical" >  T  T  T </v>
   <v type="logical" >  T  T  T </v>
   <v type="logical" >  T  T  T </v>
   <v type="logical" >  T  T  T </v>
   <v type="logical" >  T  T  T </v>
   <v type="logical" >  T  T  T </v>
   <v type="logical" >  T  T  T </v>
   <v type="logical" >  T  T  T </v>
   <v type="logical" >  T  T  T </v>
   <v type="logical" >  T  T  T </v>
   <v type="logical" >  T  T  T </v>
   <v type="logical" >  T  T  T </v>
   <v type="logical" >  T  T  T </v>
   <v type="logical" >  T  T  T </v>
   <v type="logical" >  T  T  T </v>
   <v type="logical" >  T  T  T </v>
   <v type="logical" >  T  T  T </v>
   <v type="logical" >  T  T  T </v>
   <v type="logical" >  T  T  T </v>
   <v type="logical" >  T  T  T </v>
   <v type="logical" >  T  T  T </v>
   <v type="logical" >  T  T  T </v>
   <v type="logical" >  T  T  T </v>
   <v type="logical" >  T  T  T </v>
   <v type="logical" >  T  T  T </v>
   <v type="logical" >  T  T  T </v>
   <v type="logical" >  T  T  T </v>
   <v type="logical" >  T  T  T </v>
   <v type="logical" >  T  T  T </v>
   <v type="logical" >  T  T  T </v>
   <v type="logical" >  T  T  T </v>
   <v type="logical" >  T  T  T </v>
   <v type="logical" >  T  T  T </v>
   <v type="logical" >  T  T  T </v>
   <v type="logical" >  T  T  T </v>
   <v type="logical" >  T  T  T </v>
   <v type="logical" >  T  T  T </v>
   <v type="logical" >  T  T  T </v>
   <v type="logical" >  T  T  T </v>
   <v type="logical" >  T  T  T </v>
   <v type="logical" >  T  T  T </v>
   <v type="logical" >  T  T  T </v>
   <v type="logical" >  T  T  T </v>
   <v type="logical" >  T  T  T </v>
   <v type="logical" >  T  T  T </v>
   <v type="logical" >  T  T  T </v>
   <v type="logical" >  T  T  T </v>
   <v type="logical" >  T  T  T </v>
   <v type="logical" >  T  T  F </v>
  </varray>
  <nose>
   <v>      -3.00000000       0.00000000       0.00010000       0.00010000 </v>
  </nose>
 </structure>
 <calculation>
  <scstep>
   <time name="dav">   79.43   79.93</time>
   <time name="total">   84.93   85.52</time>
   <energy>
    <i name="alphaZ">    175.87611319 </i>
    <i name="ewald">  36718.20776359 </i>
    <i name="hartreedc"> -46909.38207398 </i>
    <i name="XCdc">   1224.81216877 </i>
    <i name="pawpsdc">  10101.41315093 </i>
    <i name="pawaedc"> -10154.35997595 </i>
    <i name="eentropy">     -0.03948498 </i>
    <i name="bandstr">  -1604.68875019 </i>
    <i name="atom">  13716.13071916 </i>
    <i name="e_fr_energy">   3267.96963053 </i>
    <i name="e_wo_entrp">   3268.00911551 </i>
    <i name="e_0_energy">   3267.98937302 </i>
   </energy>
  </scstep>
  <scstep>
   <time name="dav">  102.32  102.99</time>
   <time name="total">  102.32  103.01</time>
   <energy>
    <i name="e_fr_energy">   -250.67589832 </i>
    <i name="e_wo_entrp">   -250.67589296 </i>
    <i name="e_0_energy">   -250.67589564 </i>
   </energy>
  </scstep>
  <scstep>
   <time name="dav">   87.64   88.24</time>
   <time name="total">   87.64   88.26</time>
   <energy>
    <i name="e_fr_energy">   -864.01742150 </i>
    <i name="e_wo_entrp">   -864.01742034 </i>
    <i name="e_0_energy">   -864.01742092 </i>
   </energy>
  </scstep>
  <scstep>
   <time name="dav">   89.20   89.92</time>
   <time name="total">   89.20   89.93</time>
   <energy>
    <i name="e_fr_energy">   -886.07893412 </i>
    <i name="e_wo_entrp">   -886.07893143 </i>
    <i name="e_0_energy">   -886.07893277 </i>
   </energy>
  </scstep>
  <scstep>
   <time name="dav">   97.76   98.45</time>
   <time name="total">  103.34  104.10</time>
   <energy>
    <i name="e_fr_energy">   -886.70394320 </i>
    <i name="e_wo_entrp">   -886.70394026 </i>
    <i name="e_0_energy">   -886.70394173 </i>
   </energy>
  </scstep>
  <scstep>
   <time name="dav">   87.25   87.82</time>
   <time name="total">   98.36   99.04</time>
   <energy>
    <i name="e_fr_energy">   -869.40070015 </i>
    <i name="e_wo_entrp">   -869.39853276 </i>
    <i name="e_0_energy">   -869.39961646 </i>
   </energy>
  </scstep>
  <scstep>
   <time name="dav">   84.56   85.16</time>
   <time name="total">   96.02   96.72</time>
   <energy>
    <i name="e_fr_energy">   -847.18738028 </i>
    <i name="e_wo_entrp">   -847.18736978 </i>
    <i name="e_0_energy">   -847.18737503 </i>
   </energy>
  </scstep>
  <scstep>
   <time name="dav">   86.72   87.28</time>
   <time name="total">   98.19   98.86</time>
   <energy>
    <i name="e_fr_energy">   -842.39106887 </i>
    <i name="e_wo_entrp">   -842.39106883 </i>
    <i name="e_0_energy">   -842.39106885 </i>
   </energy>
  </scstep>
  <scstep>
   <time name="dav">   84.92   85.50</time>
   <time name="total">   96.85   97.56</time>
   <energy>
    <i name="e_fr_energy">   -842.27688713 </i>
    <i name="e_wo_entrp">   -842.27688708 </i>
    <i name="e_0_energy">   -842.27688711 </i>
   </energy>
  </scstep>
  <scstep>
   <time name="dav">   83.40   83.99</time>
   <time name="total">   95.33   96.05</time>
   <energy>
    <i name="e_fr_energy">   -842.19023699 </i>
    <i name="e_wo_entrp">   -842.19023696 </i>
    <i name="e_0_energy">   -842.19023697 </i>
   </energy>
  </scstep>
  <scstep>
   <time name="dav">   83.30   83.84</time>
   <time name="total">   95.29   95.96</time>
   <energy>
    <i name="e_fr_energy">   -842.17876932 </i>
    <i name="e_wo_entrp">   -842.17876929 </i>
    <i name="e_0_energy">   -842.17876930 </i>
   </energy>
  </scstep>
  <scstep>
   <time name="dav">   88.27   88.86</time>
   <time name="total">  100.20  100.89</time>
   <energy>
    <i name="e_fr_energy">   -842.17662052 </i>
    <i name="e_wo_entrp">   -842.17662049 </i>
    <i name="e_0_energy">   -842.17662050 </i>
   </energy>
  </scstep>
  <scstep>
   <time name="dav">   87.13   87.71</time>
   <time name="total">   98.99   99.69</time>
   <energy>
    <i name="e_fr_energy">   -842.17625628 </i>
    <i name="e_wo_entrp">   -842.17625625 </i>
    <i name="e_0_energy">   -842.17625626 </i>
   </energy>
  </scstep>
  <scstep>
   <time name="dav">   84.97   85.55</time>
   <time name="total">   96.95   97.65</time>
   <energy>
    <i name="e_fr_energy">   -842.17638323 </i>
    <i name="e_wo_entrp">   -842.17638320 </i>
    <i name="e_0_energy">   -842.17638321 </i>
   </energy>
  </scstep>
  <scstep>
   <time name="dav">   87.10   87.70</time>
   <time name="total">   99.12   99.85</time>
   <energy>
    <i name="e_fr_energy">   -842.17641495 </i>
    <i name="e_wo_entrp">   -842.17641492 </i>
    <i name="e_0_energy">   -842.17641494 </i>
   </energy>
  </scstep>
  <scstep>
   <time name="dav">   71.47   71.90</time>
   <time name="total">   83.40   83.94</time>
   <energy>
    <i name="e_fr_energy">   -842.17642749 </i>
    <i name="e_wo_entrp">   -842.17642746 </i>
    <i name="e_0_energy">   -842.17642748 </i>
   </energy>
  </scstep>
  <scstep>
   <time name="dav">   47.76   48.02</time>
   <time name="total">   53.63   53.96</time>
   <energy>
    <i name="alphaZ">    175.87611319 </i>
    <i name="ewald">  36718.20776359 </i>
    <i name="hartreedc"> -48415.65566930 </i>
    <i name="XCdc">   1274.69878439 </i>
    <i name="pawpsdc">  37390.92692414 </i>
    <i name="pawaedc"> -37454.80114939 </i>
    <i name="eentropy">     -0.00000003 </i>
    <i name="bandstr">  -4247.55991300 </i>
    <i name="atom">  13716.13071916 </i>
    <i name="e_fr_energy">   -842.17642725 </i>
    <i name="e_wo_entrp">   -842.17642722 </i>
    <i name="e_0_energy">   -842.17642723 </i>
   </energy>
  </scstep>
  <structure>
   <crystal>
    <varray name="basis" >
     <v>      17.27103806       0.00000000       0.00000000 </v>
     <v>      -8.63551903      14.95715771       0.00000000 </v>
     <v>       0.00000000       0.00000000      15.00000000 </v>
    </varray>
    <i name="volume">   3874.88459904 </i>
    <varray name="rec_basis" >
     <v>       0.05790040       0.03342881       0.00000000 </v>
     <v>       0.00000000       0.06685762       0.00000000 </v>
     <v>       0.00000000       0.00000000       0.06666667 </v>
    </varray>
   </crystal>
   <varray name="positions" >
    <v>       0.99944087       0.99947929       0.49983682 </v>
    <v>       0.99895616       0.14202308       0.49991468 </v>
    <v>       0.99887065       0.28511846       0.50007380 </v>
    <v>       0.99894467       0.42827361       0.50012770 </v>
    <v>       0.99946831       0.57128107       0.50003251 </v>
    <v>       0.99994618       0.71409319       0.49987866 </v>
    <v>       0.99994616       0.85715497       0.49982481 </v>
    <v>       0.14302806       0.00017846       0.49989772 </v>
    <v>       0.14217668       0.14242446       0.49998063 </v>
    <v>       0.14097779       0.28445772       0.50024755 </v>
    <v>       0.14098801       0.42785172       0.50047163 </v>
    <v>       0.14219855       0.57106122       0.50029325 </v>
    <v>       0.14306536       0.71414230       0.50001899 </v>
    <v>       0.14316052       0.85721922       0.49984068 </v>
    <v>       0.28616646       0.00022920       0.49986119 </v>
    <v>       0.28614005       0.14314456       0.49995391 </v>
    <v>       0.28489496       0.28637453       0.50032889 </v>
    <v>       0.28215981       0.42671281       0.50085306 </v>
    <v>       0.28491835       0.56984193       0.50069546 </v>
    <v>       0.28618812       0.71430369       0.50030194 </v>
    <v>       0.28618681       0.85726204       0.49998201 </v>
    <v>       0.42897823       0.00016995       0.49999953 </v>
    <v>       0.42957555       0.14381340       0.49993361 </v>
    <v>       0.42794212       0.28374798       0.50002553 </v>
    <v>       0.42802904       0.71555120       0.50049741 </v>
    <v>       0.42960589       0.85712603       0.50018673 </v>
    <v>       0.57143336       0.99999209       0.50017895 </v>
    <v>       0.57143585       0.14287364       0.50004159 </v>
    <v>       0.57487162       0.28903220       0.49993867 </v>
    <v>       0.57491218       0.85728730       0.50023995 </v>
    <v>       0.71424126       0.00039347       0.50010380 </v>
    <v>       0.71405743       0.14273890       0.50007171 </v>
    <v>       0.71421854       0.28526308       0.49999120 </v>
    <v>       0.71029243       0.42462661       0.49991124 </v>
    <v>       0.71665870       0.57206840       0.49987443 </v>
    <v>       0.71668117       0.71598004       0.49986047 </v>
    <v>       0.71032197       0.85707761       0.50002924 </v>
    <v>       0.85640531       0.99952201       0.49994102 </v>
    <v>       0.85651887       0.14257716       0.49997949 </v>
    <v>       0.85652091       0.28536520       0.50000102 </v>
    <v>       0.85639436       0.42826419       0.49997883 </v>
    <v>       0.85629575       0.57066795       0.49990544 </v>
    <v>       0.85738156       0.71436309       0.49976014 </v>
    <v>       0.85629583       0.85697251       0.49982045 </v>
    <v>       0.04696258       0.09467838       0.49988619 </v>
    <v>       0.04590713       0.23695461       0.50005462 </v>
    <v>       0.04590663       0.38031271       0.50022727 </v>
    <v>       0.04698134       0.52361282       0.50015809 </v>
    <v>       0.04752523       0.66661333       0.49998230 </v>
    <v>       0.04753798       0.80941096       0.49983670 </v>
    <v>       0.04750498       0.95220496       0.49985566 </v>
    <v>       0.19051527       0.09514152       0.49994365 </v>
    <v>       0.18914739       0.23736455       0.50016661 </v>
    <v>       0.18717474       0.37924798       0.50054785 </v>
    <v>       0.18917422       0.52309501       0.50048691 </v>
    <v>       0.19055821       0.66667290       0.50018377 </v>
    <v>       0.19091118       0.80965184       0.49992794 </v>
    <v>       0.19090618       0.95255208       0.49986230 </v>
    <v>       0.33413954       0.09596054       0.49988697 </v>
    <v>       0.33450930       0.23857180       0.50008302 </v>
    <v>       0.32829669       0.37883643       0.50076347 </v>
    <v>       0.32827178       0.52073825       0.50098827 </v>
    <v>       0.33459630       0.66726152       0.50054638 </v>
    <v>       0.33415977       0.80949653       0.50014465 </v>
    <v>       0.33355566       0.95245041       0.49991359 </v>
    <v>       0.47647767       0.09541167       0.49998219 </v>
    <v>       0.47710865       0.23959257       0.49995051 </v>
    <v>       0.47715077       0.80889285       0.50032240 </v>
    <v>       0.47649637       0.95247435       0.50012778 </v>
    <v>       0.61878577       0.09510536       0.50011275 </v>
    <v>       0.61951097       0.23836238       0.49999240 </v>
    <v>       0.61953549       0.95259967       0.50020510 </v>
    <v>       0.76173008       0.09552016       0.50004853 </v>
    <v>       0.76170237       0.23761867       0.50001789 </v>
    <v>       0.76104738       0.38005909       0.49995266 </v>
    <v>       0.76012672       0.52300810       0.49987765 </v>
    <v>       0.76161077       0.66648156       0.49980219 </v>
    <v>       0.76012924       0.80849907       0.49987431 </v>
    <v>       0.76106812       0.95241616       0.50003440 </v>
    <v>       0.90377551       0.09440227       0.49992784 </v>
    <v>       0.90391403       0.23765674       0.49999518 </v>
    <v>       0.90377615       0.38076345       0.50001777 </v>
    <v>       0.90418458       0.52364555       0.49997094 </v>
    <v>       0.90424618       0.66613577       0.49984617 </v>
    <v>       0.90424847       0.80945195       0.49977097 </v>
    <v>       0.90418349       0.95189380       0.49987071 </v>
    <v>       0.46611714       0.35632143       0.50008693 </v>
    <v>       0.40039946       0.41812083       0.50094548 </v>
    <v>       0.40036492       0.55359361       0.50120588 </v>
    <v>       0.64444497       0.68243455       0.50003503 </v>
    <v>       0.64442141       0.53329747       0.50005840 </v>
    <v>       0.46625122       0.68121164       0.50059229 </v>
    <v>       0.54772164       0.60466166       0.49933255 </v>
    <v>       0.54854965       0.51577417       0.49917661 </v>
    <v>       0.62017226       0.37965924       0.49989929 </v>
    <v>       0.62020880       0.81195592       0.50014034 </v>
    <v>       0.50867077       0.54020490       0.50000005 </v>
   </varray>
  </structure>
  <varray name="forces" >
   <v>      -0.00005273      -0.00010138      -0.00042983 </v>
   <v>       0.00000237       0.00003151      -0.00014130 </v>
   <v>      -0.00009816      -0.00006380       0.00026278 </v>
   <v>      -0.00009486      -0.00026123      -0.00002260 </v>
   <v>       0.00013921       0.00007952      -0.00049427 </v>
   <v>       0.00102344       0.00222245      -0.00166933 </v>
   <v>       0.00009328       0.00001177      -0.00042894 </v>
   <v>       0.00002414      -0.00003458      -0.00002909 </v>
   <v>       0.00010994      -0.00013282       0.00010675 </v>
   <v>       0.00012129      -0.00019475       0.00096573 </v>
   <v>      -0.00004175      -0.00011841       0.00119911 </v>
   <v>       0.00003168       0.00002043       0.00050014 </v>
   <v>       0.00017885      -0.00003174      -0.00004115 </v>
   <v>       0.00008987      -0.00009348       0.00005577 </v>
   <v>       0.00015250      -0.00015550       0.00010245 </v>
   <v>       0.00008828      -0.00005342       0.00027671 </v>
   <v>      -0.00028284      -0.00020193       0.00124759 </v>
   <v>      -0.00014576      -0.00025426       0.00226822 </v>
   <v>      -0.00015745      -0.00054442       0.00147866 </v>
   <v>       0.00013084      -0.00030464       0.00034110 </v>
   <v>       0.00005617      -0.00004772      -0.00009003 </v>
   <v>      -0.00002629      -0.00002295      -0.00004696 </v>
   <v>      -0.00008478       0.00046955       0.00005757 </v>
   <v>       0.00048276       0.00005547      -0.00025519 </v>
   <v>       0.00100025       0.00002816      -0.00038542 </v>
   <v>       0.00040345      -0.00058569      -0.00015017 </v>
   <v>       0.00210933      -0.00157480       0.00076253 </v>
   <v>       0.00005724       0.00005937      -0.00008718 </v>
   <v>       0.00032927      -0.00061084      -0.00054238 </v>
   <v>      -0.00129412      -0.00035096      -0.00093489 </v>
   <v>      -0.00066890       0.00188285      -0.00054861 </v>
   <v>       0.00000045       0.00008347       0.00001245 </v>
   <v>      -0.00013078       0.00006775      -0.00052039 </v>
   <v>       0.00040970       0.00051167      -0.00101752 </v>
   <v>       0.00017287      -0.00040479       0.00050971 </v>
   <v>      -0.00040881       0.00052141       0.00077587 </v>
   <v>       0.00072594       0.00033299      -0.00009487 </v>
   <v>      -0.00034673      -0.00000206      -0.00024690 </v>
   <v>      -0.00011819      -0.00010307       0.00027379 </v>
   <v>      -0.00001045      -0.00058357      -0.00046342 </v>
   <v>      -0.00020047      -0.00025019      -0.00082003 </v>
   <v>      -0.00064649      -0.00007021      -0.00101671 </v>
   <v>      -0.00014868       0.00003788      -0.00031535 </v>
   <v>      -0.00049976      -0.00039904      -0.00058834 </v>
   <v>       0.00006657      -0.00005283      -0.00026224 </v>
   <v>      -0.00005259      -0.00013956       0.00033205 </v>
   <v>      -0.00009281       0.00003229       0.00047283 </v>
   <v>       0.00007418       0.00009172      -0.00004075 </v>
   <v>       0.00041355      -0.00003127       0.00030452 </v>
   <v>      -0.00000772      -0.00027590      -0.00009236 </v>
   <v>       0.00014216      -0.00006067      -0.00038060 </v>
   <v>      -0.00002623      -0.00006318       0.00015643 </v>
   <v>       0.00023661       0.00003768       0.00076918 </v>
   <v>       0.00037442       0.00008994       0.00160225 </v>
   <v>       0.00136136       0.00138125       0.00120019 </v>
   <v>       0.00006142      -0.00010262       0.00026591 </v>
   <v>       0.00010593       0.00001428       0.00000625 </v>
   <v>       0.00002725      -0.00003165       0.00010398 </v>
   <v>       0.00004752       0.00007822       0.00016456 </v>
   <v>       0.00008181      -0.00016767       0.00028081 </v>
   <v>       0.00171327       0.00023964       0.00135870 </v>
   <v>      -0.00006469       0.00003061       0.00213640 </v>
   <v>      -0.00003289      -0.00009534       0.00081631 </v>
   <v>       0.00035195       0.00075560       0.00049169 </v>
   <v>       0.00007699      -0.00002403      -0.00005209 </v>
   <v>       0.00002368       0.00013040       0.00001260 </v>
   <v>      -0.00026571      -0.00023381      -0.00025257 </v>
   <v>      -0.00035246      -0.00012166       0.00006929 </v>
   <v>       0.00002080      -0.00002072      -0.00004426 </v>
   <v>      -0.00019227       0.00015795      -0.00006558 </v>
   <v>      -0.00049945       0.00146938      -0.00016789 </v>
   <v>      -0.00026511       0.00037419       0.00014074 </v>
   <v>      -0.00002379      -0.00021536       0.00008896 </v>
   <v>      -0.00011733       0.00008692      -0.00021998 </v>
   <v>       0.00013491       0.00012825      -0.00090109 </v>
   <v>      -0.00021187       0.00079654      -0.00081440 </v>
   <v>       0.00027411      -0.00014996       0.00034406 </v>
   <v>       0.00055652      -0.00042557      -0.00027058 </v>
   <v>       0.00014321       0.00016426      -0.00011139 </v>
   <v>       0.00002976       0.00001013      -0.00021043 </v>
   <v>       0.00006204       0.00000799      -0.00001715 </v>
   <v>       0.00112989       0.00101903      -0.00061147 </v>
   <v>      -0.00092948      -0.00010649       0.00059131 </v>
   <v>      -0.00007993      -0.00005024      -0.00057829 </v>
   <v>      -0.00082067       0.00001312      -0.00076986 </v>
   <v>      -0.00027843      -0.00001645      -0.00016849 </v>
   <v>       0.00007567      -0.00003785      -0.00065519 </v>
   <v>       0.00001524      -0.00025226       0.00300560 </v>
   <v>      -0.00009200      -0.00005532       0.00232898 </v>
   <v>       0.00013649      -0.00037194       0.00223562 </v>
   <v>      -0.00014207       0.00034960       0.00205844 </v>
   <v>       0.00005752       0.00011120       0.00068421 </v>
   <v>      -0.00220081       0.00079427      -0.00644487 </v>
   <v>      -0.00129296       0.00069827      -0.00711508 </v>
   <v>      -0.00047128       0.00023497      -0.00083049 </v>
   <v>       0.00024185      -0.00036056      -0.00002575 </v>
   <v>      -0.00199927      -0.00469880      -0.00073509 </v>
  </varray>
  <varray name="stress" >
   <v>       0.72627569       0.56274085      -0.00121845 </v>
   <v>       0.56274089       0.09865996       0.00027518 </v>
   <v>      -0.00121835       0.00027522      -0.27442591 </v>
  </varray>
  <energy>
   <i name="e_fr_energy">   -849.94589092 </i>
   <i name="e_wo_entrp">   -849.94589089 </i>
   <i name="e_0_energy">   -849.94589091 </i>
  </energy>
  <time name="totalsc"> 1713.41 1726.00</time>
 </calculation>
 <calculation>
  <scstep>
   <time name="dav">   75.06   75.54</time>
   <time name="total">   86.70   87.29</time>
   <energy>
    <i name="alphaZ">    175.87611319 </i>
    <i name="ewald">  36718.19906641 </i>
    <i name="hartreedc"> -48415.63091623 </i>
    <i name="XCdc">   1274.69847209 </i>
    <i name="pawpsdc">  37390.82207355 </i>
    <i name="pawaedc"> -37454.69607124 </i>
    <i name="eentropy">     -0.00000003 </i>
    <i name="bandstr">  -4247.57588261 </i>
    <i name="atom">  13716.13071916 </i>
    <i name="e_fr_energy">   -842.17642572 </i>
    <i name="e_wo_entrp">   -842.17642569 </i>
    <i name="e_0_energy">   -842.17642570 </i>
   </energy>
  </scstep>
  <scstep>
   <time name="dav">   52.77   53.14</time>
   <time name="total">   58.36   58.79</time>
   <energy>
    <i name="alphaZ">    175.87611319 </i>
    <i name="ewald">  36718.19906641 </i>
    <i name="hartreedc"> -48415.62314355 </i>
    <i name="XCdc">   1274.69834665 </i>
    <i name="pawpsdc">  37390.79828726 </i>
    <i name="pawaedc"> -37454.67227277 </i>
    <i name="eentropy">     -0.00000003 </i>
    <i name="bandstr">  -4247.58354192 </i>
    <i name="atom">  13716.13071916 </i>
    <i name="e_fr_energy">   -842.17642560 </i>
    <i name="e_wo_entrp">   -842.17642557 </i>
    <i name="e_0_energy">   -842.17642559 </i>
   </energy>
  </scstep>
  <structure>
   <crystal>
    <varray name="basis" >
     <v>      17.27103806       0.00000000       0.00000000 </v>
     <v>      -8.63551903      14.95715771       0.00000000 </v>
     <v>       0.00000000       0.00000000      15.00000000 </v>
    </varray>
    <i name="volume">   3874.88459904 </i>
    <varray name="rec_basis" >
     <v>       0.05790040       0.03342881       0.00000000 </v>
     <v>       0.00000000       0.06685762       0.00000000 </v>
     <v>       0.00000000       0.00000000       0.06666667 </v>
    </varray>
   </crystal>
   <varray name="positions" >
    <v>       0.99944080       0.99947922       0.49983676 </v>
    <v>       0.99895617       0.14202310       0.49991469 </v>
    <v>       0.99887057       0.28511841       0.50007403 </v>
    <v>       0.99894453       0.42827343       0.50012779 </v>
    <v>       0.99946842       0.57128113       0.50003240 </v>
    <v>       0.99994751       0.71409468       0.49987777 </v>
    <v>       0.99994621       0.85715497       0.49982475 </v>
    <v>       0.14302806       0.00017844       0.49989786 </v>
    <v>       0.14217669       0.14242437       0.49998076 </v>
    <v>       0.14097780       0.28445759       0.50024811 </v>
    <v>       0.14098795       0.42785164       0.50047234 </v>
    <v>       0.14219857       0.57106123       0.50029363 </v>
    <v>       0.14306545       0.71414228       0.50001911 </v>
    <v>       0.14316054       0.85721915       0.49984091 </v>
    <v>       0.28616649       0.00022910       0.49986137 </v>
    <v>       0.28614009       0.14314453       0.49995408 </v>
    <v>       0.28489473       0.28637439       0.50032939 </v>
    <v>       0.28215964       0.42671264       0.50085399 </v>
    <v>       0.28491808       0.56984157       0.50069610 </v>
    <v>       0.28618810       0.71430349       0.50030211 </v>
    <v>       0.28618682       0.85726201       0.49998203 </v>
    <v>       0.42897821       0.00016994       0.49999956 </v>
    <v>       0.42957566       0.14381372       0.49993366 </v>
    <v>       0.42794242       0.28374801       0.50002521 </v>
    <v>       0.42802963       0.71555122       0.50049696 </v>
    <v>       0.42960593       0.85712564       0.50018662 </v>
    <v>       0.57143405       0.99999104       0.50017948 </v>
    <v>       0.57143591       0.14287368       0.50004157 </v>
    <v>       0.57487161       0.28903180       0.49993821 </v>
    <v>       0.57491132       0.85728707       0.50023918 </v>
    <v>       0.71424150       0.00039473       0.50010340 </v>
    <v>       0.71405746       0.14273896       0.50007178 </v>
    <v>       0.71421849       0.28526312       0.49999085 </v>
    <v>       0.71029283       0.42462695       0.49991022 </v>
    <v>       0.71665866       0.57206813       0.49987302 </v>
    <v>       0.71668111       0.71598038       0.49985924 </v>
    <v>       0.71032249       0.85707784       0.50002880 </v>
    <v>       0.85640511       0.99952201       0.49994089 </v>
    <v>       0.85651877       0.14257709       0.49997973 </v>
    <v>       0.85652071       0.28536481       0.50000078 </v>
    <v>       0.85639416       0.42826402       0.49997834 </v>
    <v>       0.85629535       0.57066790       0.49990475 </v>
    <v>       0.85738149       0.71436311       0.49975974 </v>
    <v>       0.85629541       0.85697224       0.49982004 </v>
    <v>       0.04696259       0.09467834       0.49988617 </v>
    <v>       0.04590705       0.23695452       0.50005488 </v>
    <v>       0.04590658       0.38031273       0.50022763 </v>
    <v>       0.04698141       0.52361288       0.50015820 </v>
    <v>       0.04752545       0.66661331       0.49998272 </v>
    <v>       0.04753788       0.80941077       0.49983687 </v>
    <v>       0.04750504       0.95220492       0.49985564 </v>
    <v>       0.19051523       0.09514147       0.49994382 </v>
    <v>       0.18914754       0.23736458       0.50016701 </v>
    <v>       0.18717499       0.37924804       0.50054870 </v>
    <v>       0.18917547       0.52309593       0.50048760 </v>
    <v>       0.19055822       0.66667283       0.50018399 </v>
    <v>       0.19091124       0.80965185       0.49992808 </v>
    <v>       0.19090618       0.95255206       0.49986253 </v>
    <v>       0.33413960       0.09596059       0.49988713 </v>
    <v>       0.33450929       0.23857169       0.50008303 </v>
    <v>       0.32829776       0.37883659       0.50076366 </v>
    <v>       0.32827175       0.52073827       0.50098898 </v>
    <v>       0.33459625       0.66726146       0.50054671 </v>
    <v>       0.33416023       0.80949703       0.50014499 </v>
    <v>       0.33355570       0.95245040       0.49991364 </v>
    <v>       0.47647773       0.09541176       0.49998224 </v>
    <v>       0.47710842       0.23959242       0.49995029 </v>
    <v>       0.47715052       0.80889276       0.50032235 </v>
    <v>       0.47649638       0.95247433       0.50012779 </v>
    <v>       0.61878572       0.09510546       0.50011275 </v>
    <v>       0.61951118       0.23836337       0.49999227 </v>
    <v>       0.61953546       0.95259992       0.50020513 </v>
    <v>       0.76172999       0.09552002       0.50004864 </v>
    <v>       0.76170233       0.23761873       0.50001781 </v>
    <v>       0.76104750       0.38005917       0.49995198 </v>
    <v>       0.76012686       0.52300863       0.49987648 </v>
    <v>       0.76161088       0.66648146       0.49980118 </v>
    <v>       0.76012942       0.80849878       0.49987349 </v>
    <v>       0.76106826       0.95241627       0.50003422 </v>
    <v>       0.90377553       0.09440227       0.49992778 </v>
    <v>       0.90391406       0.23765674       0.49999523 </v>
    <v>       0.90377715       0.38076413       0.50001745 </v>
    <v>       0.90418401       0.52364548       0.49997149 </v>
    <v>       0.90424612       0.66613574       0.49984584 </v>
    <v>       0.90424800       0.80945196       0.49977051 </v>
    <v>       0.90418332       0.95189379       0.49987075 </v>
    <v>       0.46611717       0.35632141       0.50008626 </v>
    <v>       0.40039938       0.41812067       0.50094655 </v>
    <v>       0.40036485       0.55359357       0.50120648 </v>
    <v>       0.64444492       0.68243431       0.50003307 </v>
    <v>       0.64442145       0.53329770       0.50005632 </v>
    <v>       0.46625129       0.68121171       0.50059246 </v>
    <v>       0.54772066       0.60466220       0.49933439 </v>
    <v>       0.54854916       0.51577465       0.49917798 </v>
    <v>       0.62017207       0.37965940       0.49989848 </v>
    <v>       0.62020882       0.81195568       0.50014003 </v>
    <v>       0.50866806       0.54020177       0.50000005 </v>
   </varray>
  </structure>
  <varray name="forces" >
   <v>      -0.00015566      -0.00012057      -0.00047251 </v>
   <v>       0.00005841      -0.00011323      -0.00018394 </v>
   <v>       0.00013607       0.00004145       0.00022486 </v>
   <v>       0.00015989       0.00012450      -0.00007620 </v>
   <v>      -0.00014755      -0.00012789      -0.00040524 </v>
   <v>      -0.00066727      -0.00212344       0.00052650 </v>
   <v>      -0.00029885      -0.00014229      -0.00049670 </v>
   <v>       0.00017424       0.00003220      -0.00007564 </v>
   <v>       0.00006625      -0.00007369       0.00007594 </v>
   <v>       0.00002335      -0.00001976       0.00094535 </v>
   <v>       0.00022895       0.00007366       0.00119022 </v>
   <v>       0.00023433       0.00005622       0.00046224 </v>
   <v>       0.00029681      -0.00000539      -0.00004083 </v>
   <v>       0.00023927       0.00002356       0.00001639 </v>
   <v>       0.00008850       0.00013757       0.00005536 </v>
   <v>       0.00018255      -0.00000411       0.00023195 </v>
   <v>       0.00052026       0.00006207       0.00115035 </v>
   <v>       0.00057634      -0.00003867       0.00220583 </v>
   <v>       0.00039468       0.00030776       0.00146594 </v>
   <v>       0.00023809       0.00006092       0.00034041 </v>
   <v>       0.00030426      -0.00006778      -0.00009835 </v>
   <v>       0.00030610       0.00011330      -0.00009503 </v>
   <v>       0.00012471      -0.00033128      -0.00000124 </v>
   <v>      -0.00026943      -0.00004009      -0.00033391 </v>
   <v>      -0.00076317      -0.00016436       0.00111663 </v>
   <v>      -0.00020381       0.00027702      -0.00015154 </v>
   <v>      -0.00211966       0.00180809      -0.00058573 </v>
   <v>       0.00005751      -0.00013601      -0.00014092 </v>
   <v>       0.00001383       0.00062954      -0.00060826 </v>
   <v>       0.00127883       0.00021988       0.00034953 </v>
   <v>       0.00253086      -0.00278025       0.00025085 </v>
   <v>      -0.00012748       0.00007577      -0.00004431 </v>
   <v>       0.00026857       0.00011654      -0.00059354 </v>
   <v>      -0.00040881      -0.00006651      -0.00109134 </v>
   <v>      -0.00032428       0.00065814       0.00034074 </v>
   <v>       0.00046440      -0.00063678       0.00061605 </v>
   <v>      -0.00407824      -0.00088256      -0.00087599 </v>
   <v>       0.00024284       0.00014420      -0.00029631 </v>
   <v>       0.00009437      -0.00020710       0.00018573 </v>
   <v>       0.00056334       0.00175123       0.00055309 </v>
   <v>       0.00038960       0.00025641      -0.00081832 </v>
   <v>       0.00019675       0.00034501      -0.00099939 </v>
   <v>      -0.00003799      -0.00008355      -0.00045127 </v>
   <v>       0.00023541       0.00024050      -0.00067159 </v>
   <v>       0.00001925      -0.00013913      -0.00030732 </v>
   <v>       0.00015408       0.00002385       0.00030348 </v>
   <v>       0.00018919       0.00000630       0.00044629 </v>
   <v>       0.00002184      -0.00000063      -0.00007918 </v>
   <v>      -0.00113645       0.00043745      -0.00140168 </v>
   <v>       0.00022953       0.00036936      -0.00024701 </v>
   <v>       0.00000601      -0.00002161      -0.00042320 </v>
   <v>       0.00018233      -0.00008774       0.00011246 </v>
   <v>      -0.00008643      -0.00017894       0.00074864 </v>
   <v>      -0.00014052      -0.00025210       0.00159517 </v>
   <v>      -0.00122632      -0.00164641       0.00115846 </v>
   <v>       0.00018230       0.00001752       0.00023893 </v>
   <v>       0.00016522       0.00003144      -0.00004487 </v>
   <v>       0.00018278      -0.00005818       0.00006561 </v>
   <v>       0.00017536      -0.00009585       0.00011801 </v>
   <v>       0.00035929      -0.00002283       0.00026260 </v>
   <v>      -0.00129113      -0.00057228       0.00273472 </v>
   <v>       0.00020141      -0.00024358       0.00216805 </v>
   <v>       0.00050176       0.00007494       0.00072904 </v>
   <v>       0.00016863       0.00022912       0.00036779 </v>
   <v>       0.00015412      -0.00003245      -0.00009916 </v>
   <v>       0.00006386       0.00003877      -0.00003903 </v>
   <v>       0.00039324       0.00019229      -0.00033475 </v>
   <v>       0.00039251      -0.00010537      -0.00010860 </v>
   <v>       0.00034035      -0.00018336      -0.00005321 </v>
   <v>       0.00025923      -0.00016282      -0.00005904 </v>
   <v>      -0.00030240       0.00080354      -0.00027366 </v>
   <v>       0.00039250      -0.00038663       0.00000986 </v>
   <v>      -0.00006207       0.00027288       0.00001631 </v>
   <v>      -0.00004075      -0.00002776      -0.00030258 </v>
   <v>      -0.00018953       0.00018705      -0.00101071 </v>
   <v>       0.00016889      -0.00155834       0.00034632 </v>
   <v>      -0.00095693       0.00173926       0.00145922 </v>
   <v>      -0.00019644       0.00024727      -0.00034416 </v>
   <v>      -0.00017428       0.00003067      -0.00023588 </v>
   <v>      -0.00002994      -0.00002913      -0.00023928 </v>
   <v>      -0.00002963      -0.00018438      -0.00005632 </v>
   <v>      -0.00104457      -0.00205521      -0.00113470 </v>
   <v>       0.00054247       0.00016861      -0.00121828 </v>
   <v>       0.00017835       0.00039301      -0.00076137 </v>
   <v>       0.00315503       0.00067597      -0.00018865 </v>
   <v>      -0.00003073      -0.00006044      -0.00028168 </v>
   <v>       0.00013286       0.00001683      -0.00071120 </v>
   <v>       0.00055465       0.00005491       0.00292254 </v>
   <v>       0.00001058      -0.00004097       0.00228375 </v>
   <v>       0.00011513      -0.00044806       0.00215877 </v>
   <v>      -0.00017804       0.00032489       0.00198194 </v>
   <v>       0.00036578      -0.00003707       0.00059278 </v>
   <v>      -0.00260587      -0.00210590      -0.00644184 </v>
   <v>      -0.00102322       0.00049271      -0.00714752 </v>
   <v>       0.00057815      -0.00009447      -0.00092365 </v>
   <v>       0.00012166       0.00059256      -0.00017312 </v>
   <v>      -0.00100023       0.00402026      -0.00087499 </v>
  </varray>
  <varray name="stress" >
   <v>       0.72561539       0.56059915      -0.00265397 </v>
   <v>       0.56059919       0.09849036      -0.00048556 </v>
   <v>      -0.00265388      -0.00048552      -0.27125364 </v>
  </varray>
  <energy>
   <i name="e_fr_energy">   -849.94589022 </i>
   <i name="e_wo_entrp">   -849.94589019 </i>
   <i name="e_0_energy">   -849.94589021 </i>
  </energy>
  <time name="totalsc">  283.19  285.34</time>
 </calculation>
 <calculation>
  <scstep>
   <time name="dav">   73.73   74.24</time>
   <time name="total">   85.15   85.73</time>
   <energy>
    <i name="alphaZ">    175.87611319 </i>
    <i name="ewald">  36718.19991785 </i>
    <i name="hartreedc"> -48415.61085665 </i>
    <i name="XCdc">   1274.69820656 </i>
    <i name="pawpsdc">  37390.69606461 </i>
    <i name="pawaedc"> -37454.57001321 </i>
    <i name="eentropy">     -0.00000003 </i>
    <i name="bandstr">  -4247.59657725 </i>
    <i name="atom">  13716.13071916 </i>
    <i name="e_fr_energy">   -842.17642577 </i>
    <i name="e_wo_entrp">   -842.17642574 </i>
    <i name="e_0_energy">   -842.17642576 </i>
   </energy>
  </scstep>
  <scstep>
   <time name="dav">   51.53   51.89</time>
   <time name="total">   57.39   57.83</time>
   <energy>
    <i name="alphaZ">    175.87611319 </i>
    <i name="ewald">  36718.19991785 </i>
    <i name="hartreedc"> -48415.60833177 </i>
    <i name="XCdc">   1274.69815295 </i>
    <i name="pawpsdc">  37390.64200992 </i>
    <i name="pawaedc"> -37454.51595214 </i>
    <i name="eentropy">     -0.00000003 </i>
    <i name="bandstr">  -4247.59905491 </i>
    <i name="atom">  13716.13071916 </i>
    <i name="e_fr_energy">   -842.17642579 </i>
    <i name="e_wo_entrp">   -842.17642576 </i>
    <i name="e_0_energy">   -842.17642577 </i>
   </energy>
  </scstep>
  <structure>
   <crystal>
    <varray name="basis" >
     <v>      17.27103806       0.00000000       0.00000000 </v>
     <v>      -8.63551903      14.95715771       0.00000000 </v>
     <v>       0.00000000       0.00000000      15.00000000 </v>
    </varray>
    <i name="volume">   3874.88459904 </i>
    <varray name="rec_basis" >
     <v>       0.05790040       0.03342881       0.00000000 </v>
     <v>       0.00000000       0.06685762       0.00000000 </v>
     <v>       0.00000000       0.00000000       0.06666667 </v>
    </varray>
   </crystal>
   <varray name="positions" >
[...]
       <r>   -14.1412     8.8907    57.4531 </r>
       <r>   -14.0368     5.9415    58.0731 </r>
       <r>   -13.9325     5.7840    58.6767 </r>
       <r>   -13.8281     2.9105    58.9804 </r>
       <r>   -13.7238     6.9891    59.7097 </r>
       <r>   -13.6195     5.9472    60.3302 </r>
       <r>   -13.5151     9.2357    61.2940 </r>
       <r>   -13.4108     8.9190    62.2247 </r>
       <r>   -13.3064    11.6187    63.4370 </r>
       <r>   -13.2021     2.8161    63.7309 </r>
       <r>   -13.0977     6.8827    64.4491 </r>
       <r>   -12.9934     0.5100    64.5023 </r>
       <r>   -12.8890     5.7680    65.1042 </r>
       <r>   -12.7847     6.4908    65.7815 </r>
       <r>   -12.6803     9.4485    66.7674 </r>
       <r>   -12.5760    13.9343    68.2214 </r>
       <r>   -12.4716    11.6545    69.4375 </r>
       <r>   -12.3673    12.8697    70.7804 </r>
       <r>   -12.2629     8.0260    71.6179 </r>
       <r>   -12.1586     4.7189    72.1103 </r>
       <r>   -12.0542     6.9283    72.8333 </r>
       <r>   -11.9499    10.8662    73.9672 </r>
       <r>   -11.8455     7.3051    74.7294 </r>
       <r>   -11.7412     7.2012    75.4809 </r>
       <r>   -11.6369     5.7602    76.0819 </r>
       <r>   -11.5325    13.4764    77.4881 </r>
       <r>   -11.4282     9.4717    78.4765 </r>
       <r>   -11.3238    14.5787    79.9978 </r>
       <r>   -11.2195     8.6533    80.9007 </r>
       <r>   -11.1151     8.7573    81.8145 </r>
       <r>   -11.0108     8.7576    82.7283 </r>
       <r>   -10.9064    12.1026    83.9912 </r>
       <r>   -10.8021    15.1530    85.5724 </r>
       <r>   -10.6977     6.4064    86.2409 </r>
       <r>   -10.5934     1.3361    86.3803 </r>
       <r>   -10.4890     6.9911    87.1098 </r>
       <r>   -10.3847     3.2292    87.4468 </r>
       <r>   -10.2803     9.4703    88.4350 </r>
       <r>   -10.1760    17.0203    90.2110 </r>
       <r>   -10.0716    18.0452    92.0940 </r>
       <r>    -9.9673    14.1164    93.5670 </r>
       <r>    -9.8629    16.5831    95.2974 </r>
       <r>    -9.7586    22.4253    97.6374 </r>
       <r>    -9.6542    11.5615    98.8438 </r>
       <r>    -9.5499    13.3726   100.2392 </r>
       <r>    -9.4456    19.1952   102.2422 </r>
       <r>    -9.3412    21.4667   104.4822 </r>
       <r>    -9.2369    15.7849   106.1293 </r>
       <r>    -9.1325    14.7871   107.6723 </r>
       <r>    -9.0282    22.2987   109.9992 </r>
       <r>    -8.9238    26.6745   112.7826 </r>
       <r>    -8.8195    25.3348   115.4262 </r>
       <r>    -8.7151    21.1632   117.6345 </r>
       <r>    -8.6108    18.5188   119.5669 </r>
       <r>    -8.5064    22.3261   121.8966 </r>
       <r>    -8.4021    15.2173   123.4845 </r>
       <r>    -8.2977    21.2806   125.7051 </r>
       <r>    -8.1934    23.3309   128.1396 </r>
       <r>    -8.0890    20.0091   130.2275 </r>
       <r>    -7.9847    12.8382   131.5671 </r>
       <r>    -7.8803    16.1854   133.2560 </r>
       <r>    -7.7760    17.4298   135.0748 </r>
       <r>    -7.6716    16.6027   136.8072 </r>
       <r>    -7.5673     7.4631   137.5860 </r>
       <r>    -7.4629    11.1463   138.7491 </r>
       <r>    -7.3586    15.9485   140.4133 </r>
       <r>    -7.2543    23.4563   142.8609 </r>
       <r>    -7.1499    21.3386   145.0875 </r>
       <r>    -7.0456    12.9589   146.4397 </r>
       <r>    -6.9412    14.2917   147.9310 </r>
       <r>    -6.8369    11.9496   149.1780 </r>
       <r>    -6.7325    11.2951   150.3566 </r>
       <r>    -6.6282     8.6793   151.2622 </r>
       <r>    -6.5238    12.1696   152.5321 </r>
       <r>    -6.4195     9.8114   153.5559 </r>
       <r>    -6.3151    11.1445   154.7188 </r>
       <r>    -6.2108    23.8130   157.2036 </r>
       <r>    -6.1064    14.9656   158.7653 </r>
       <r>    -6.0021    18.9807   160.7458 </r>
       <r>    -5.8977    10.7954   161.8723 </r>
       <r>    -5.7934    14.8245   163.4192 </r>
       <r>    -5.6890    16.4646   165.1373 </r>
       <r>    -5.5847     8.7664   166.0520 </r>
       <r>    -5.4803     4.4119   166.5124 </r>
       <r>    -5.3760     4.0176   166.9316 </r>
       <r>    -5.2716     1.3099   167.0683 </r>
       <r>    -5.1673     7.0948   167.8086 </r>
       <r>    -5.0630    21.3159   170.0329 </r>
       <r>    -4.9586    15.4692   171.6471 </r>
       <r>    -4.8543    20.3245   173.7679 </r>
       <r>    -4.7499     8.5933   174.6646 </r>
       <r>    -4.6456    15.0634   176.2364 </r>
       <r>    -4.5412     9.2551   177.2021 </r>
       <r>    -4.4369     0.5601   177.2606 </r>
       <r>    -4.3325     6.7091   177.9607 </r>
       <r>    -4.2282     7.9357   178.7887 </r>
       <r>    -4.1238     8.2716   179.6518 </r>
       <r>    -4.0195     8.1288   180.5001 </r>
       <r>    -3.9151     8.2106   181.3568 </r>
       <r>    -3.8108     5.9644   181.9792 </r>
       <r>    -3.7064     0.1994   182.0000 </r>
       <r>    -3.6021     0.0628   182.0066 </r>
       <r>    -3.4977     1.9604   182.2111 </r>
       <r>    -3.3934     1.5341   182.3712 </r>
       <r>    -3.2890     4.7171   182.8634 </r>
       <r>    -3.1847     4.7002   183.3539 </r>
       <r>    -3.0803     1.3963   183.4996 </r>
       <r>    -2.9760     0.0041   183.5000 </r>
       <r>    -2.8717     0.0000   183.5000 </r>
       <r>    -2.7673     0.0835   183.5087 </r>
       <r>    -2.6630     3.7493   183.8999 </r>
       <r>    -2.5586     0.9585   184.0000 </r>
       <r>    -2.4543     0.0008   184.0000 </r>
       <r>    -2.3499     1.0143   184.1059 </r>
       <r>    -2.2456     3.7015   184.4921 </r>
       <r>    -2.1412     0.0754   184.5000 </r>
       <r>    -2.0369     0.0202   184.5021 </r>
       <r>    -1.9325     1.7324   184.6829 </r>
       <r>    -1.8282     3.0156   184.9976 </r>
       <r>    -1.7238     4.8443   185.5031 </r>
       <r>    -1.6195     2.5971   185.7741 </r>
       <r>    -1.5151     2.0508   185.9881 </r>
       <r>    -1.4108     1.1887   186.1121 </r>
       <r>    -1.3064     9.1514   187.0670 </r>
       <r>    -1.2021     4.1091   187.4958 </r>
       <r>    -1.0977     0.1571   187.5122 </r>
       <r>    -0.9934     4.7048   188.0031 </r>
       <r>    -0.8890    15.7694   189.6486 </r>
       <r>    -0.7847    10.9007   190.7861 </r>
       <r>    -0.6804     7.8827   191.6086 </r>
       <r>    -0.5760     9.3671   192.5861 </r>
       <r>    -0.4717     9.0029   193.5255 </r>
       <r>    -0.3673     4.6581   194.0115 </r>
       <r>    -0.2630     4.1992   194.4497 </r>
       <r>    -0.1586    10.9340   195.5907 </r>
       <r>    -0.0543     8.2492   196.4514 </r>
       <r>     0.0501    11.1100   197.6107 </r>
       <r>     0.1544    11.2271   198.7823 </r>
       <r>     0.2588     7.2912   199.5431 </r>
       <r>     0.3631     4.0137   199.9619 </r>
       <r>     0.4675     2.0129   200.1719 </r>
       <r>     0.5718     4.1627   200.6063 </r>
       <r>     0.6762     6.9312   201.3296 </r>
       <r>     0.7805     9.9728   202.3702 </r>
       <r>     0.8849     5.7002   202.9650 </r>
       <r>     0.9892     8.7649   203.8796 </r>
       <r>     1.0936    12.7316   205.2081 </r>
       <r>     1.1979     5.6741   205.8002 </r>
       <r>     1.3022    10.0954   206.8536 </r>
       <r>     1.4066    14.4733   208.3639 </r>
       <r>     1.5109    17.6353   210.2041 </r>
       <r>     1.6153    15.5490   211.8266 </r>
       <r>     1.7196    11.6073   213.0378 </r>
       <r>     1.8240     6.3042   213.6956 </r>
       <r>     1.9283    13.4172   215.0956 </r>
       <r>     2.0327    19.3010   217.1096 </r>
       <r>     2.1370    14.5985   218.6330 </r>
       <r>     2.2414    19.3521   220.6523 </r>
       <r>     2.3457    18.5247   222.5853 </r>
       <r>     2.4501    28.6870   225.5787 </r>
       <r>     2.5544     7.4300   226.3540 </r>
       <r>     2.6588     8.9185   227.2846 </r>
       <r>     2.7631    15.9061   228.9444 </r>
       <r>     2.8675    32.7020   232.3568 </r>
       <r>     2.9718    44.3267   236.9822 </r>
       <r>     3.0762    18.7677   238.9405 </r>
       <r>     3.1805    19.2411   240.9483 </r>
       <r>     3.2849    24.6064   243.5159 </r>
       <r>     3.3892     6.6519   244.2100 </r>
       <r>     3.4935    22.9801   246.6079 </r>
       <r>     3.5979    21.2242   248.8226 </r>
       <r>     3.7022    11.8241   250.0565 </r>
       <r>     3.8066    25.8278   252.7515 </r>
       <r>     3.9109    24.9605   255.3561 </r>
       <r>     4.0153    25.1836   257.9839 </r>
       <r>     4.1196    13.0255   259.3431 </r>
       <r>     4.2240    15.7894   260.9907 </r>
       <r>     4.3283    31.5084   264.2785 </r>
       <r>     4.4327     6.8229   264.9905 </r>
       <r>     4.5370     0.0913   265.0000 </r>
       <r>     4.6414     0.0000   265.0000 </r>
       <r>     4.7457     0.0000   265.0000 </r>
       <r>     4.8501     0.0000   265.0000 </r>
       <r>     4.9544     0.0000   265.0000 </r>
       <r>     5.0588     0.0000   265.0000 </r>
       <r>     5.1631     0.0000   265.0000 </r>
       <r>     5.2675     0.0000   265.0000 </r>
       <r>     5.3718     0.0000   265.0000 </r>
       <r>     5.4762     0.0000   265.0000 </r>
       <r>     5.5805     0.0000   265.0000 </r>
       <r>     5.6848     0.0000   265.0000 </r>
       <r>     5.7892     0.0000   265.0000 </r>
      </set>
     </set>
    </array>
   </total>
  </dos>
 </calculation>
 <structure name="finalpos" >
  <crystal>
   <varray name="basis" >
    <v>      17.27103806       0.00000000       0.00000000 </v>
    <v>      -8.63551903      14.95715771       0.00000000 </v>
    <v>       0.00000000       0.00000000      15.00000000 </v>
   </varray>
   <i name="volume">   3874.88459904 </i>
   <varray name="rec_basis" >
    <v>       0.05790040       0.03342881       0.00000000 </v>
    <v>       0.00000000       0.06685762       0.00000000 </v>
    <v>       0.00000000       0.00000000       0.06666667 </v>
   </varray>
  </crystal>
  <varray name="positions" >
   <v>       0.99944044       0.99947870       0.49983607 </v>
   <v>       0.99895614       0.14202272       0.49991468 </v>
   <v>       0.99887073       0.28511832       0.50007588 </v>
   <v>       0.99894507       0.42827375       0.50012833 </v>
   <v>       0.99946815       0.57128119       0.50003174 </v>
   <v>       0.99994676       0.71409293       0.49987843 </v>
   <v>       0.99994682       0.85715513       0.49982402 </v>
   <v>       0.14302831       0.00017819       0.49989898 </v>
   <v>       0.14217666       0.14242389       0.49998184 </v>
   <v>       0.14097779       0.28445720       0.50025307 </v>
   <v>       0.14098815       0.42785123       0.50047869 </v>
   <v>       0.14219883       0.57106096       0.50029681 </v>
   <v>       0.14306604       0.71414230       0.50002011 </v>
   <v>       0.14316110       0.85721910       0.49984270 </v>
   <v>       0.28616697       0.00022914       0.49986274 </v>
   <v>       0.28614042       0.14314422       0.49995535 </v>
   <v>       0.28489554       0.28637391       0.50033325 </v>
   <v>       0.28216059       0.42671195       0.50086198 </v>
   <v>       0.28491861       0.56984140       0.50070170 </v>
   <v>       0.28618892       0.71430355       0.50030375 </v>
   <v>       0.28618757       0.85726191       0.49998235 </v>
   <v>       0.42897897       0.00017007       0.49999967 </v>
   <v>       0.42957586       0.14381336       0.49993383 </v>
   <v>       0.42794246       0.28374789       0.50002197 </v>
   <v>       0.42802952       0.71555077       0.50049821 </v>
   <v>       0.42960665       0.85712667       0.50018779 </v>
   <v>       0.57143386       0.99999227       0.50017940 </v>
   <v>       0.57143633       0.14287430       0.50004113 </v>
   <v>       0.57487229       0.28903312       0.49993378 </v>
   <v>       0.57491266       0.85728781       0.50023798 </v>
   <v>       0.71424203       0.00039368       0.50010321 </v>
   <v>       0.71405745       0.14273913       0.50007215 </v>
   <v>       0.71421918       0.28526395       0.49998741 </v>
   <v>       0.71029236       0.42462690       0.49990122 </v>
   <v>       0.71665905       0.57207005       0.49986006 </v>
   <v>       0.71668054       0.71598002       0.49984755 </v>
   <v>       0.71032126       0.85707750       0.50002339 </v>
   <v>       0.85640546       0.99952213       0.49993946 </v>
   <v>       0.85651913       0.14257775       0.49997954 </v>
   <v>       0.85652107       0.28536526       0.50000022 </v>
   <v>       0.85639480       0.42826454       0.49997394 </v>
   <v>       0.85629551       0.57066839       0.49989907 </v>
   <v>       0.85738215       0.71436410       0.49975575 </v>
   <v>       0.85629605       0.85697240       0.49981612 </v>
   <v>       0.04696235       0.09467781       0.49988589 </v>
   <v>       0.04590715       0.23695431       0.50005715 </v>
   <v>       0.04590686       0.38031263       0.50023074 </v>
   <v>       0.04698158       0.52361299       0.50015908 </v>
   <v>       0.04752598       0.66661338       0.49998288 </v>
   <v>       0.04753863       0.80941109       0.49983769 </v>
   <v>       0.04750508       0.95220490       0.49985535 </v>
   <v>       0.19051561       0.09514121       0.49994517 </v>
   <v>       0.18914743       0.23736397       0.50017057 </v>
   <v>       0.18717500       0.37924739       0.50055623 </v>
   <v>       0.18917444       0.52309470       0.50049355 </v>
   <v>       0.19055900       0.66667284       0.50018584 </v>
   <v>       0.19091196       0.80965175       0.49992917 </v>
   <v>       0.19090666       0.95255192       0.49986433 </v>
   <v>       0.33414000       0.09596036       0.49988829 </v>
   <v>       0.33450890       0.23857145       0.50008428 </v>
   <v>       0.32829916       0.37883626       0.50076879 </v>
   <v>       0.32827170       0.52073742       0.50099562 </v>
   <v>       0.33459706       0.66726111       0.50054936 </v>
   <v>       0.33416037       0.80949634       0.50014517 </v>
   <v>       0.33355636       0.95245040       0.49991401 </v>
   <v>       0.47647812       0.09541197       0.49998246 </v>
   <v>       0.47710939       0.23959283       0.49994784 </v>
   <v>       0.47715172       0.80889335       0.50032318 </v>
   <v>       0.47649684       0.95247428       0.50012773 </v>
   <v>       0.61878580       0.09510579       0.50011280 </v>
   <v>       0.61951158       0.23836325       0.49998971 </v>
   <v>       0.61953592       0.95259927       0.50020473 </v>
   <v>       0.76173012       0.09551992       0.50004933 </v>
   <v>       0.76170272       0.23761929       0.50001681 </v>
   <v>       0.76104782       0.38005992       0.49994541 </v>
   <v>       0.76012453       0.52300557       0.49987146 </v>
   <v>       0.76161116       0.66648352       0.49979504 </v>
   <v>       0.76012855       0.80849924       0.49986582 </v>
   <v>       0.76106810       0.95241571       0.50003191 </v>
   <v>       0.90377543       0.09440222       0.49992717 </v>
   <v>       0.90391415       0.23765680       0.49999568 </v>
   <v>       0.90377688       0.38076474       0.50001550 </v>
   <v>       0.90418402       0.52364591       0.49996948 </v>
   <v>       0.90424631       0.66613626       0.49984217 </v>
   <v>       0.90424840       0.80945216       0.49976743 </v>
   <v>       0.90418374       0.95189332       0.49986841 </v>
   <v>       0.46611763       0.35632140       0.50008012 </v>
   <v>       0.40040076       0.41812027       0.50095545 </v>
   <v>       0.40036451       0.55359322       0.50121151 </v>
   <v>       0.64444432       0.68243183       0.50001524 </v>
   <v>       0.64442125       0.53329957       0.50003751 </v>
   <v>       0.46625235       0.68121187       0.50059358 </v>
   <v>       0.54770755       0.60465966       0.49935090 </v>
   <v>       0.54854524       0.51577809       0.49919036 </v>
   <v>       0.62017272       0.37965964       0.49989115 </v>
   <v>       0.62020833       0.81195600       0.50013655 </v>
   <v>       0.50866202       0.54020246       0.50000005 </v>
  </varray>
  <varray name="selective"  type="logical" >
   <v type="logical" >  T  T  T </v>
   <v type="logical" >  T  T  T </v>
   <v type="logical" >  T  T  T </v>
   <v type="logical" >  T  T  T </v>
   <v type="logical" >  T  T  T </v>
   <v type="logical" >  T  T  T </v>
   <v type="logical" >  T  T  T </v>
   <v type="logical" >  T  T  T </v>
   <v type="logical" >  T  T  T </v>
   <v type="logical" >  T  T  T </v>
   <v type="logical" >  T  T  T </v>
   <v type="logical" >  T  T  T </v>
   <v type="logical" >  T  T  T </v>
   <v type="logical" >  T  T  T </v>
   <v type="logical" >  T  T  T </v>
   <v type="logical" >  T  T  T </v>
   <v type="logical" >  T  T  T </v>
   <v type="logical" >  T  T  T </v>
   <v type="logical" >  T  T  T </v>
   <v type="logical" >  T  T  T </v>
   <v type="logical" >  T  T  T </v>
   <v type="logical" >  T  T  T </v>
   <v type="logical" >  T  T  T </v>
   <v type="logical" >  T  T  T </v>
   <v type="logical" >  T  T  T </v>
   <v type="logical" >  T  T  T </v>
   <v type="logical" >  T  T  T </v>
   <v type="logical" >  T  T  T </v>
   <v type="logical" >  T  T  T </v>
   <v type="logical" >  T  T  T </v>
   <v type="logical" >  T  T  T </v>
   <v type="logical" >  T  T  T </v>
   <v type="logical" >  T  T  T </v>
   <v type="logical" >  T  T  T </v>
   <v type="logical" >  T  T  T </v>
   <v type="logical" >  T  T  T </v>
   <v type="logical" >  T  T  T </v>
   <v type="logical" >  T  T  T </v>
   <v type="logical" >  T  T  T </v>
   <v type="logical" >  T  T  T </v>
   <v type="logical" >  T  T  T </v>
   <v type="logical" >  T  T  T </v>
   <v type="logical" >  T  T  T </v>
   <v type="logical" >  T  T  T </v>
   <v type="logical" >  T  T  T </v>
   <v type="logical" >  T  T  T </v>
   <v type="logical" >  T  T  T </v>
   <v type="logical" >  T  T  T </v>
   <v type="logical" >  T  T  T </v>
   <v type="logical" >  T  T  T </v>
   <v type="logical" >  T  T  T </v>
   <v type="logical" >  T  T  T </v>
   <v type="logical" >  T  T  T </v>
   <v type="logical" >  T  T  T </v>
   <v type="logical" >  T  T  T </v>
   <v type="logical" >  T  T  T </v>
   <v type="logical" >  T  T  T </v>
   <v type="logical" >  T  T  T </v>
   <v type="logical" >  T  T  T </v>
   <v type="logical" >  T  T  T </v>
   <v type="logical" >  T  T  T </v>
   <v type="logical" >  T  T  T </v>
   <v type="logical" >  T  T  T </v>
   <v type="logical" >  T  T  T </v>
   <v type="logical" >  T  T  T </v>
   <v type="logical" >  T  T  T </v>
   <v type="logical" >  T  T  T </v>
   <v type="logical" >  T  T  T </v>
   <v type="logical" >  T  T  T </v>
   <v type="logical" >  T  T  T </v>
   <v type="logical" >  T  T  T </v>
   <v type="logical" >  T  T  T </v>
   <v type="logical" >  T  T  T </v>
   <v type="logical" >  T  T  T </v>
   <v type="logical" >  T  T  T </v>
   <v type="logical" >  T  T  T </v>
   <v type="logical" >  T  T  T </v>
   <v type="logical" >  T  T  T </v>
   <v type="logical" >  T  T  T </v>
   <v type="logical" >  T  T  T </v>
   <v type="logical" >  T  T  T </v>
   <v type="logical" >  T  T  T </v>
   <v type="logical" >  T  T  T </v>
   <v type="logical" >  T  T  T </v>
   <v type="logical" >  T  T  T </v>
   <v type="logical" >  T  T  T </v>
   <v type="logical" >  T  T  T </v>
   <v type="logical" >  T  T  T </v>
   <v type="logical" >  T  T  T </v>
   <v type="logical" >  T  T  T </v>
   <v type="logical" >  T  T  T </v>
   <v type="logical" >  T  T  T </v>
   <v type="logical" >  T  T  T </v>
   <v type="logical" >  T  T  T </v>
   <v type="logical" >  T  T  T </v>
   <v type="logical" >  T  T  T </v>
   <v type="logical" >  T  T  F </v>
  </varray>
  <nose>
   <v>      -3.00000000       0.00000000       0.00010000       0.00010000 </v>
  </nose>
 </structure>
</modeling>
