unknown system                          
           1
    17.271038    0.000000    0.000000
    -8.635519   14.957158    0.000000
     0.000000    0.000000   15.000000
   C    H    N    O 
    86     8     2     1
Direct configuration=     1
   0.99944080  0.99947922  0.49983676
   0.99895617  0.14202310  0.49991469
   0.99887057  0.28511841  0.50007403
   0.99894453  0.42827343  0.50012779
   0.99946842  0.57128113  0.50003240
   0.99994751  0.71409468  0.49987777
   0.99994621  0.85715497  0.49982475
   0.14302806  0.00017844  0.49989786
   0.14217669  0.14242437  0.49998076
   0.14097780  0.28445759  0.50024811
   0.14098795  0.42785164  0.50047234
   0.14219857  0.57106123  0.50029363
   0.14306545  0.71414228  0.50001911
   0.14316054  0.85721915  0.49984091
   0.28616649  0.00022910  0.49986137
   0.28614009  0.14314453  0.49995408
   0.28489473  0.28637439  0.50032939
   0.28215964  0.42671264  0.50085399
   0.28491808  0.56984157  0.50069610
   0.28618810  0.71430349  0.50030211
   0.28618682  0.85726201  0.49998203
   0.42897821  0.00016994  0.49999956
   0.42957566  0.14381372  0.49993366
   0.42794242  0.28374801  0.50002521
   0.42802963  0.71555122  0.50049696
   0.42960593  0.85712564  0.50018662
   0.57143405  0.99999104  0.50017948
   0.57143591  0.14287368  0.50004157
   0.57487161  0.28903180  0.49993821
   0.57491132  0.85728707  0.50023918
   0.71424150  0.00039473  0.50010340
   0.71405746  0.14273896  0.50007178
   0.71421849  0.28526312  0.49999085
   0.71029283  0.42462695  0.49991022
   0.71665866  0.57206813  0.49987302
   0.71668111  0.71598038  0.49985924
   0.71032249  0.85707784  0.50002880
   0.85640511  0.99952201  0.49994089
   0.85651877  0.14257709  0.49997973
   0.85652071  0.28536481  0.50000078
   0.85639416  0.42826402  0.49997834
   0.85629535  0.57066790  0.49990475
   0.85738149  0.71436311  0.49975974
   0.85629541  0.85697224  0.49982004
   0.04696259  0.09467834  0.49988617
   0.04590705  0.23695452  0.50005488
   0.04590658  0.38031273  0.50022763
   0.04698141  0.52361288  0.50015820
   0.04752545  0.66661331  0.49998272
   0.04753788  0.80941077  0.49983687
   0.04750504  0.95220492  0.49985564
   0.19051523  0.09514147  0.49994382
   0.18914754  0.23736458  0.50016701
   0.18717499  0.37924804  0.50054870
   0.18917547  0.52309593  0.50048760
   0.19055822  0.66667283  0.50018399
   0.19091124  0.80965185  0.49992808
   0.19090618  0.95255206  0.49986253
   0.33413960  0.09596059  0.49988713
   0.33450929  0.23857169  0.50008303
   0.32829776  0.37883659  0.50076366
   0.32827175  0.52073827  0.50098898
   0.33459625  0.66726146  0.50054671
   0.33416023  0.80949703  0.50014499
   0.33355570  0.95245040  0.49991364
   0.47647773  0.09541176  0.49998224
   0.47710842  0.23959242  0.49995029
   0.47715052  0.80889276  0.50032235
   0.47649638  0.95247433  0.50012779
   0.61878572  0.09510546  0.50011275
   0.61951118  0.23836337  0.49999227
   0.61953546  0.95259992  0.50020513
   0.76172999  0.09552002  0.50004864
   0.76170233  0.23761873  0.50001781
   0.76104750  0.38005917  0.49995198
   0.76012686  0.52300863  0.49987648
   0.76161088  0.66648146  0.49980118
   0.76012942  0.80849878  0.49987349
   0.76106826  0.95241627  0.50003422
   0.90377553  0.09440227  0.49992778
   0.90391406  0.23765674  0.49999523
   0.90377715  0.38076413  0.50001745
   0.90418401  0.52364548  0.49997149
   0.90424612  0.66613574  0.49984584
   0.90424800  0.80945196  0.49977051
   0.90418332  0.95189379  0.49987075
   0.46611717  0.35632141  0.50008626
   0.40039938  0.41812067  0.50094655
   0.40036485  0.55359357  0.50120648
   0.64444492  0.68243431  0.50003307
   0.64442145  0.53329770  0.50005632
   0.46625129  0.68121171  0.50059246
   0.54772066  0.60466220  0.49933439
   0.54854916  0.51577465  0.49917798
   0.62017207  0.37965940  0.49989848
   0.62020882  0.81195568  0.50014003
   0.50866806  0.54020177  0.50000005
Direct configuration=     2
   0.99944059  0.99947906  0.49983662
   0.99895617  0.14202303  0.49991469
   0.99887060  0.28511841  0.50007444
   0.99894455  0.42827337  0.50012793
   0.99946837  0.57128108  0.50003224
   0.99994752  0.71409447  0.49987761
   0.99994602  0.85715487  0.49982459
   0.14302818  0.00017844  0.49989812
   0.14217672  0.14242424  0.49998099
   0.14097780  0.28445746  0.50024922
   0.14098806  0.42785163  0.50047375
   0.14219876  0.57106129  0.50029434
   0.14306572  0.71414225  0.50001935
   0.14316072  0.85721912  0.49984133
   0.28616663  0.00022911  0.49986168
   0.28614023  0.14314449  0.49995437
   0.28489487  0.28637432  0.50033029
   0.28215984  0.42671247  0.50085579
   0.28491819  0.56984147  0.50069734
   0.28618825  0.71430335  0.50030246
   0.28618700  0.85726193  0.49998208
   0.42897842  0.00017001  0.49999959
   0.42957572  0.14381376  0.49993372
   0.42794250  0.28374802  0.50002451
   0.42802962  0.71555112  0.50049715
   0.42960593  0.85712549  0.50018640
   0.57143400  0.99999140  0.50017954
   0.57143594  0.14287361  0.50004148
   0.57487183  0.28903189  0.49993723
   0.57491142  0.85728701  0.50023858
   0.71424230  0.00039383  0.50010320
   0.71405743  0.14273906  0.50007188
   0.71421865  0.28526325  0.49999011
   0.71029292  0.42462721  0.49990812
   0.71665867  0.57206836  0.49987007
   0.71668111  0.71598023  0.49985663
   0.71032008  0.85707739  0.50002735
   0.85640513  0.99952211  0.49994059
   0.85651866  0.14257688  0.49998014
   0.85652151  0.28536573  0.50000104
   0.85639431  0.42826406  0.49997736
   0.85629524  0.57066811  0.49990339
   0.85738136  0.71436307  0.49975883
   0.85629526  0.85697217  0.49981918
   0.04696257  0.09467821  0.49988610
   0.04590708  0.23695445  0.50005539
   0.04590667  0.38031276  0.50022832
   0.04698149  0.52361293  0.50015840
   0.04752510  0.66661360  0.49998234
   0.04753807  0.80941087  0.49983709
   0.04750508  0.95220486  0.49985558
   0.19051528  0.09514137  0.49994413
   0.18914755  0.23736447  0.50016781
   0.18717503  0.37924791  0.50055038
   0.18917522  0.52309557  0.50048893
   0.19055834  0.66667278  0.50018440
   0.19091141  0.80965188  0.49992833
   0.19090628  0.95255200  0.49986294
   0.33413972  0.09596057  0.49988740
   0.33450950  0.23857158  0.50008304
   0.32829770  0.37883632  0.50076504
   0.32827176  0.52073811  0.50099040
   0.33459655  0.66726146  0.50054730
   0.33416083  0.80949766  0.50014558
   0.33355582  0.95245036  0.49991373
   0.47647784  0.09541187  0.49998231
   0.47710852  0.23959242  0.49994977
   0.47715051  0.80889261  0.50032211
   0.47649653  0.95247419  0.50012778
   0.61878577  0.09510544  0.50011277
   0.61951146  0.23836483  0.49999192
   0.61953554  0.95259986  0.50020511
   0.76172997  0.09552008  0.50004881
   0.76170226  0.23761876  0.50001758
   0.76104756  0.38005939  0.49995054
   0.76012653  0.52300798  0.49987497
   0.76161100  0.66648263  0.49979997
   0.76012954  0.80849870  0.49987180
   0.76106828  0.95241638  0.50003376
   0.90377552  0.09440225  0.49992763
   0.90391401  0.23765661  0.49999531
   0.90377664  0.38076325  0.50001645
   0.90418389  0.52364553  0.49997127
   0.90424632  0.66613599  0.49984506
   0.90424980  0.80945246  0.49977003
   0.90418312  0.95189373  0.49987075
   0.46611728  0.35632140  0.50008488
   0.40039968  0.41812056  0.50094858
   0.40036478  0.55359350  0.50120761
   0.64444479  0.68243376  0.50002904
   0.64442149  0.53329814  0.50005208
   0.46625157  0.68121175  0.50059273
   0.54771740  0.60466117  0.49933816
   0.54854827  0.51577544  0.49918082
   0.62017222  0.37965947  0.49989679
   0.62020912  0.81195589  0.50013930
   0.50866647  0.54020188  0.50000005
Direct configuration=     3
   0.99944036  0.99947883  0.49983642
   0.99895615  0.14202288  0.49991468
   0.99887061  0.28511833  0.50007505
   0.99894462  0.42827333  0.50012809
   0.99946816  0.57128107  0.50003203
   0.99994636  0.71409308  0.49987809
   0.99994621  0.85715490  0.49982436
   0.14302827  0.00017835  0.49989850
   0.14217671  0.14242407  0.49998135
   0.14097779  0.28445731  0.50025086
   0.14098823  0.42785159  0.50047586
   0.14219893  0.57106121  0.50029540
   0.14306588  0.71414224  0.50001968
   0.14316090  0.85721909  0.49984193
   0.28616678  0.00022913  0.49986214
   0.28614033  0.14314438  0.49995480
   0.28489519  0.28637415  0.50033159
   0.28216023  0.42671226  0.50085844
   0.28491856  0.56984155  0.50069919
   0.28618859  0.71430348  0.50030302
   0.28618731  0.85726196  0.49998221
   0.42897871  0.00017005  0.49999963
   0.42957573  0.14381356  0.49993379
   0.42794243  0.28374795  0.50002344
   0.42802918  0.71555093  0.50049795
   0.42960632  0.85712634  0.50018724
   0.57143337  0.99999272  0.50017917
   0.57143611  0.14287393  0.50004135
   0.57487204  0.28903253  0.49993578
   0.57491203  0.85728730  0.50023817
   0.71424224  0.00039233  0.50010347
   0.71405738  0.14273915  0.50007201
   0.71421892  0.28526360  0.49998899
   0.71029264  0.42462717  0.49990511
   0.71665877  0.57206909  0.49986570
   0.71668098  0.71597991  0.49985272
   0.71031977  0.85707731  0.50002555
   0.85640523  0.99952219  0.49994015
   0.85651921  0.14257768  0.49997969
   0.85652151  0.28536564  0.50000084
   0.85639453  0.42826409  0.49997589
   0.85629537  0.57066838  0.49990148
   0.85738162  0.71436334  0.49975749
   0.85629561  0.85697228  0.49981790
   0.04696248  0.09467800  0.49988601
   0.04590713  0.23695437  0.50005614
   0.04590679  0.38031276  0.50022935
   0.04698153  0.52361293  0.50015869
   0.04752541  0.66661368  0.49998239
   0.04753844  0.80941113  0.49983735
   0.04750506  0.95220483  0.49985548
   0.19051539  0.09514125  0.49994458
   0.18914744  0.23736421  0.50016899
   0.18717492  0.37924764  0.50055288
   0.18917382  0.52309428  0.50049090
   0.19055860  0.66667277  0.50018501
   0.19091163  0.80965181  0.49992870
   0.19090644  0.95255192  0.49986355
   0.33413986  0.09596047  0.49988779
   0.33450973  0.23857149  0.50008308
   0.32829822  0.37883621  0.50076668
   0.32827172  0.52073774  0.50099258
   0.33459692  0.66726135  0.50054815
   0.33416038  0.80949666  0.50014516
   0.33355600  0.95245031  0.49991384
   0.47647797  0.09541194  0.49998239
   0.47710891  0.23959253  0.49994896
   0.47715121  0.80889310  0.50032278
   0.47649674  0.95247400  0.50012776
   0.61878579  0.09510541  0.50011280
   0.61951148  0.23836358  0.49999092
   0.61953577  0.95259943  0.50020497
   0.76173001  0.09552008  0.50004905
   0.76170235  0.23761891  0.50001726
   0.76104767  0.38005965  0.49994837
   0.76012585  0.52300677  0.49987300
   0.76161101  0.66648407  0.49979836
   0.76012916  0.80849888  0.49986925
   0.76106811  0.95241624  0.50003299
   0.90377544  0.09440219  0.49992745
   0.90391400  0.23765651  0.49999548
   0.90377764  0.38076524  0.50001636
   0.90418422  0.52364570  0.49997020
   0.90424652  0.66613627  0.49984382
   0.90424981  0.80945251  0.49976900
   0.90418376  0.95189342  0.49986954
   0.46611744  0.35632139  0.50008283
   0.40040014  0.41812041  0.50095156
   0.40036466  0.55359337  0.50120928
   0.64444457  0.68243291  0.50002306
   0.64442141  0.53329874  0.50004577
   0.46625197  0.68121175  0.50059310
   0.54771250  0.60465953  0.49934375
   0.54854712  0.51577644  0.49918500
   0.62017253  0.37965956  0.49989435
   0.62020884  0.81195604  0.50013814
   0.50866520  0.54020427  0.50000005
Direct configuration=     4
   0.99944044  0.99947870  0.49983607
   0.99895614  0.14202272  0.49991468
   0.99887073  0.28511832  0.50007588
   0.99894507  0.42827375  0.50012833
   0.99946815  0.57128119  0.50003174
   0.99994676  0.71409293  0.49987843
   0.99994682  0.85715513  0.49982402
   0.14302831  0.00017819  0.49989898
   0.14217666  0.14242389  0.49998184
   0.14097779  0.28445720  0.50025307
   0.14098815  0.42785123  0.50047869
   0.14219883  0.57106096  0.50029681
   0.14306604  0.71414230  0.50002011
   0.14316110  0.85721910  0.49984270
   0.28616697  0.00022914  0.49986274
   0.28614042  0.14314422  0.49995535
   0.28489554  0.28637391  0.50033325
   0.28216059  0.42671195  0.50086198
   0.28491861  0.56984140  0.50070170
   0.28618892  0.71430355  0.50030375
   0.28618757  0.85726191  0.49998235
   0.42897897  0.00017007  0.49999967
   0.42957586  0.14381336  0.49993383
   0.42794246  0.28374789  0.50002197
   0.42802952  0.71555077  0.50049821
   0.42960665  0.85712667  0.50018779
   0.57143386  0.99999227  0.50017940
   0.57143633  0.14287430  0.50004113
   0.57487229  0.28903312  0.49993378
   0.57491266  0.85728781  0.50023798
   0.71424203  0.00039368  0.50010321
   0.71405745  0.14273913  0.50007215
   0.71421918  0.28526395  0.49998741
   0.71029236  0.42462690  0.49990122
   0.71665905  0.57207005  0.49986006
   0.71668054  0.71598002  0.49984755
   0.71032126  0.85707750  0.50002339
   0.85640546  0.99952213  0.49993946
   0.85651913  0.14257775  0.49997954
   0.85652107  0.28536526  0.50000022
   0.85639480  0.42826454  0.49997394
   0.85629551  0.57066839  0.49989907
   0.85738215  0.71436410  0.49975575
   0.85629605  0.85697240  0.49981612
   0.04696235  0.09467781  0.49988589
   0.04590715  0.23695431  0.50005715
   0.04590686  0.38031263  0.50023074
   0.04698158  0.52361299  0.50015908
   0.04752598  0.66661338  0.49998288
   0.04753863  0.80941109  0.49983769
   0.04750508  0.95220490  0.49985535
   0.19051561  0.09514121  0.49994517
   0.18914743  0.23736397  0.50017057
   0.18717500  0.37924739  0.50055623
   0.18917444  0.52309470  0.50049355
   0.19055900  0.66667284  0.50018584
   0.19091196  0.80965175  0.49992917
   0.19090666  0.95255192  0.49986433
   0.33414000  0.09596036  0.49988829
   0.33450890  0.23857145  0.50008428
   0.32829916  0.37883626  0.50076879
   0.32827170  0.52073742  0.50099562
   0.33459706  0.66726111  0.50054936
   0.33416037  0.80949634  0.50014517
   0.33355636  0.95245040  0.49991401
   0.47647812  0.09541197  0.49998246
   0.47710939  0.23959283  0.49994784
   0.47715172  0.80889335  0.50032318
   0.47649684  0.95247428  0.50012773
   0.61878580  0.09510579  0.50011280
   0.61951158  0.23836325  0.49998971
   0.61953592  0.95259927  0.50020473
   0.76173012  0.09551992  0.50004933
   0.76170272  0.23761929  0.50001681
   0.76104782  0.38005992  0.49994541
   0.76012453  0.52300557  0.49987146
   0.76161116  0.66648352  0.49979504
   0.76012855  0.80849924  0.49986582
   0.76106810  0.95241571  0.50003191
   0.90377543  0.09440222  0.49992717
   0.90391415  0.23765680  0.49999568
   0.90377688  0.38076474  0.50001550
   0.90418402  0.52364591  0.49996948
   0.90424631  0.66613626  0.49984217
   0.90424840  0.80945216  0.49976743
   0.90418374  0.95189332  0.49986841
   0.46611763  0.35632140  0.50008012
   0.40040076  0.41812027  0.50095545
   0.40036451  0.55359322  0.50121151
   0.64444432  0.68243183  0.50001524
   0.64442125  0.53329957  0.50003751
   0.46625235  0.68121187  0.50059358
   0.54770755  0.60465966  0.49935090
   0.54854524  0.51577809  0.49919036
   0.62017272  0.37965964  0.49989115
   0.62020833  0.81195600  0.50013655
   0.50866202  0.54020246  0.50000005
Direct configuration=     5
   0.99944044  0.99947870  0.49983607
   0.99895614  0.14202272  0.49991468
   0.99887073  0.28511832  0.50007588
   0.99894507  0.42827375  0.50012833
   0.99946815  0.57128119  0.50003174
   0.99994676  0.71409293  0.49987843
   0.99994682  0.85715513  0.49982402
   0.14302831  0.00017819  0.49989898
   0.14217666  0.14242389  0.49998184
   0.14097779  0.28445720  0.50025307
   0.14098815  0.42785123  0.50047869
   0.14219883  0.57106096  0.50029681
   0.14306604  0.71414230  0.50002011
   0.14316110  0.85721910  0.49984270
   0.28616697  0.00022914  0.49986274
   0.28614042  0.14314422  0.49995535
   0.28489554  0.28637391  0.50033325
   0.28216059  0.42671195  0.50086198
   0.28491861  0.56984140  0.50070170
   0.28618892  0.71430355  0.50030375
   0.28618757  0.85726191  0.49998235
   0.42897897  0.00017007  0.49999967
   0.42957586  0.14381336  0.49993383
   0.42794246  0.28374789  0.50002197
   0.42802952  0.71555077  0.50049821
   0.42960665  0.85712667  0.50018779
   0.57143386  0.99999227  0.50017940
   0.57143633  0.14287430  0.50004113
   0.57487229  0.28903312  0.49993378
   0.57491266  0.85728781  0.50023798
   0.71424203  0.00039368  0.50010321
   0.71405745  0.14273913  0.50007215
   0.71421918  0.28526395  0.49998741
   0.71029236  0.42462690  0.49990122
   0.71665905  0.57207005  0.49986006
   0.71668054  0.71598002  0.49984755
   0.71032126  0.85707750  0.50002339
   0.85640546  0.99952213  0.49993946
   0.85651913  0.14257775  0.49997954
   0.85652107  0.28536526  0.50000022
   0.85639480  0.42826454  0.49997394
   0.85629551  0.57066839  0.49989907
   0.85738215  0.71436410  0.49975575
   0.85629605  0.85697240  0.49981612
   0.04696235  0.09467781  0.49988589
   0.04590715  0.23695431  0.50005715
   0.04590686  0.38031263  0.50023074
   0.04698158  0.52361299  0.50015908
   0.04752598  0.66661338  0.49998288
   0.04753863  0.80941109  0.49983769
   0.04750508  0.95220490  0.49985535
   0.19051561  0.09514121  0.49994517
   0.18914743  0.23736397  0.50017057
   0.18717500  0.37924739  0.50055623
   0.18917444  0.52309470  0.50049355
   0.19055900  0.66667284  0.50018584
   0.19091196  0.80965175  0.49992917
   0.19090666  0.95255192  0.49986433
   0.33414000  0.09596036  0.49988829
   0.33450890  0.23857145  0.50008428
   0.32829916  0.37883626  0.50076879
   0.32827170  0.52073742  0.50099562
   0.33459706  0.66726111  0.50054936
   0.33416037  0.80949634  0.50014517
   0.33355636  0.95245040  0.49991401
   0.47647812  0.09541197  0.49998246
   0.47710939  0.23959283  0.49994784
   0.47715172  0.80889335  0.50032318
   0.47649684  0.95247428  0.50012773
   0.61878580  0.09510579  0.50011280
   0.61951158  0.23836325  0.49998971
   0.61953592  0.95259927  0.50020473
   0.76173012  0.09551992  0.50004933
   0.76170272  0.23761929  0.50001681
   0.76104782  0.38005992  0.49994541
   0.76012453  0.52300557  0.49987146
   0.76161116  0.66648352  0.49979504
   0.76012855  0.80849924  0.49986582
   0.76106810  0.95241571  0.50003191
   0.90377543  0.09440222  0.49992717
   0.90391415  0.23765680  0.49999568
   0.90377688  0.38076474  0.50001550
   0.90418402  0.52364591  0.49996948
   0.90424631  0.66613626  0.49984217
   0.90424840  0.80945216  0.49976743
   0.90418374  0.95189332  0.49986841
   0.46611763  0.35632140  0.50008012
   0.40040076  0.41812027  0.50095545
   0.40036451  0.55359322  0.50121151
   0.64444432  0.68243183  0.50001524
   0.64442125  0.53329957  0.50003751
   0.46625235  0.68121187  0.50059358
   0.54770755  0.60465966  0.49935090
   0.54854524  0.51577809  0.49919036
   0.62017272  0.37965964  0.49989115
   0.62020833  0.81195600  0.50013655
   0.50866202  0.54020246  0.50000005
