  99  99   0   0
  0.3914025E+02  0.1727104E-08  0.1727104E-08  0.1500000E-08  0.0000000E+00
  1.000000000000000E-004
  CAR 
 unknown system                          
      4.58533221    -31.26164564  301     -2.39278759      1.00000000
    -31.262  0.0000E+00  0.0000E+00  0.0000E+00  0.0000E+00
    -31.142  0.0000E+00  0.0000E+00  0.0000E+00  0.0000E+00
    -31.023  0.0000E+00  0.0000E+00  0.0000E+00  0.0000E+00
    -30.903  0.0000E+00  0.0000E+00  0.0000E+00  0.0000E+00
    -30.784  0.0000E+00  0.0000E+00  0.0000E+00  0.0000E+00
    -30.664  0.0000E+00  0.0000E+00  0.0000E+00  0.0000E+00
    -30.545  0.0000E+00  0.0000E+00  0.0000E+00  0.0000E+00
    -30.425  0.0000E+00  0.0000E+00  0.0000E+00  0.0000E+00
    -30.306  0.0000E+00  0.0000E+00  0.0000E+00  0.0000E+00
    -30.186  0.0000E+00  0.0000E+00  0.0000E+00  0.0000E+00
    -30.067  0.0000E+00  0.0000E+00  0.0000E+00  0.0000E+00
    -29.947  0.0000E+00  0.0000E+00  0.0000E+00  0.0000E+00
    -29.828  0.2664E-09  0.2664E-09  0.3183E-10  0.3183E-10
    -29.708  0.2632E-03  0.2632E-03  0.3145E-04  0.3145E-04
    -29.589  0.1464E-01  0.1464E-01  0.1781E-02  0.1781E-02
    -29.469  0.6332E-02  0.6332E-02  0.2537E-02  0.2537E-02
    -29.350  0.1219E-01  0.1219E-01  0.3994E-02  0.3994E-02
    -29.230  0.4795E-04  0.4795E-04  0.4000E-02  0.4000E-02
    -29.111  0.6796E-11  0.6796E-11  0.4000E-02  0.4000E-02
    -28.991  0.0000E+00  0.0000E+00  0.4000E-02  0.4000E-02
    -28.872  0.0000E+00  0.0000E+00  0.4000E-02  0.4000E-02
    -28.752  0.0000E+00  0.0000E+00  0.4000E-02  0.4000E-02
    -28.633  0.0000E+00  0.0000E+00  0.4000E-02  0.4000E-02
    -28.513  0.0000E+00  0.0000E+00  0.4000E-02  0.4000E-02
    -28.394  0.0000E+00  0.0000E+00  0.4000E-02  0.4000E-02
    -28.274  0.0000E+00  0.0000E+00  0.4000E-02  0.4000E-02
    -28.155  0.0000E+00  0.0000E+00  0.4000E-02  0.4000E-02
    -28.035  0.0000E+00  0.0000E+00  0.4000E-02  0.4000E-02
    -27.916  0.0000E+00  0.0000E+00  0.4000E-02  0.4000E-02
    -27.796  0.0000E+00  0.0000E+00  0.4000E-02  0.4000E-02
    -27.677  0.0000E+00  0.0000E+00  0.4000E-02  0.4000E-02
    -27.557  0.0000E+00  0.0000E+00  0.4000E-02  0.4000E-02
    -27.438  0.0000E+00  0.0000E+00  0.4000E-02  0.4000E-02
    -27.318  0.0000E+00  0.0000E+00  0.4000E-02  0.4000E-02
    -27.199  0.0000E+00  0.0000E+00  0.4000E-02  0.4000E-02
    -27.079  0.0000E+00  0.0000E+00  0.4000E-02  0.4000E-02
    -26.960  0.0000E+00  0.0000E+00  0.4000E-02  0.4000E-02
    -26.841  0.0000E+00  0.0000E+00  0.4000E-02  0.4000E-02
    -26.721  0.0000E+00  0.0000E+00  0.4000E-02  0.4000E-02
    -26.602  0.0000E+00  0.0000E+00  0.4000E-02  0.4000E-02
    -26.482  0.0000E+00  0.0000E+00  0.4000E-02  0.4000E-02
    -26.363  0.0000E+00  0.0000E+00  0.4000E-02  0.4000E-02
    -26.243  0.0000E+00  0.0000E+00  0.4000E-02  0.4000E-02
    -26.124  0.0000E+00  0.0000E+00  0.4000E-02  0.4000E-02
    -26.004  0.0000E+00  0.0000E+00  0.4000E-02  0.4000E-02
    -25.885  0.0000E+00  0.0000E+00  0.4000E-02  0.4000E-02
    -25.765  0.0000E+00  0.0000E+00  0.4000E-02  0.4000E-02
    -25.646  0.0000E+00  0.0000E+00  0.4000E-02  0.4000E-02
    -25.526  0.0000E+00  0.0000E+00  0.4000E-02  0.4000E-02
    -25.407  0.0000E+00  0.0000E+00  0.4000E-02  0.4000E-02
    -25.287  0.0000E+00  0.0000E+00  0.4000E-02  0.4000E-02
    -25.168  0.0000E+00  0.0000E+00  0.4000E-02  0.4000E-02
    -25.048  0.0000E+00  0.0000E+00  0.4000E-02  0.4000E-02
    -24.929  0.0000E+00  0.0000E+00  0.4000E-02  0.4000E-02
    -24.809  0.0000E+00  0.0000E+00  0.4000E-02  0.4000E-02
    -24.690  0.0000E+00  0.0000E+00  0.4000E-02  0.4000E-02
    -24.570  0.0000E+00  0.0000E+00  0.4000E-02  0.4000E-02
    -24.451  0.0000E+00  0.0000E+00  0.4000E-02  0.4000E-02
    -24.331  0.0000E+00  0.0000E+00  0.4000E-02  0.4000E-02
    -24.212  0.0000E+00  0.0000E+00  0.4000E-02  0.4000E-02
    -24.092  0.0000E+00  0.0000E+00  0.4000E-02  0.4000E-02
    -23.973  0.4077E-09  0.4077E-09  0.4000E-02  0.4000E-02
    -23.853  0.3169E-03  0.3169E-03  0.4038E-02  0.4038E-02
    -23.734  0.1481E-01  0.1481E-01  0.5808E-02  0.5808E-02
    -23.614  0.1610E-02  0.1610E-02  0.6000E-02  0.6000E-02
    -23.495  0.2365E-07  0.2365E-07  0.6000E-02  0.6000E-02
    -23.375  0.0000E+00  0.0000E+00  0.6000E-02  0.6000E-02
    -23.256  0.0000E+00  0.0000E+00  0.6000E-02  0.6000E-02
    -23.136  0.0000E+00  0.0000E+00  0.6000E-02  0.6000E-02
    -23.017  0.0000E+00  0.0000E+00  0.6000E-02  0.6000E-02
    -22.897  0.0000E+00  0.0000E+00  0.6000E-02  0.6000E-02
    -22.778  0.0000E+00  0.0000E+00  0.6000E-02  0.6000E-02
    -22.658  0.0000E+00  0.0000E+00  0.6000E-02  0.6000E-02
    -22.539  0.0000E+00  0.0000E+00  0.6000E-02  0.6000E-02
    -22.419  0.0000E+00  0.0000E+00  0.6000E-02  0.6000E-02
    -22.300  0.0000E+00  0.0000E+00  0.6000E-02  0.6000E-02
    -22.180  0.0000E+00  0.0000E+00  0.6000E-02  0.6000E-02
    -22.061  0.9756E-17  0.9756E-17  0.6000E-02  0.6000E-02
    -21.941  0.1750E-07  0.1750E-07  0.6000E-02  0.6000E-02
    -21.822  0.6303E-03  0.6303E-03  0.6075E-02  0.6075E-02
    -21.702  0.1213E-01  0.1213E-01  0.7524E-02  0.7524E-02
    -21.583  0.1468E-01  0.1468E-01  0.9278E-02  0.9278E-02
    -21.463  0.3829E-02  0.3829E-02  0.9736E-02  0.9736E-02
    -21.344  0.2303E-01  0.2303E-01  0.1249E-01  0.1249E-01
    -21.224  0.1436E-01  0.1436E-01  0.1420E-01  0.1420E-01
    -21.105  0.5223E-02  0.5223E-02  0.1483E-01  0.1483E-01
    -20.986  0.9758E-02  0.9758E-02  0.1599E-01  0.1599E-01
    -20.866  0.2460E-01  0.2460E-01  0.1893E-01  0.1893E-01
    -20.747  0.1778E-01  0.1778E-01  0.2106E-01  0.2106E-01
    -20.627  0.3742E-02  0.3742E-02  0.2150E-01  0.2150E-01
    -20.508  0.7670E-02  0.7670E-02  0.2242E-01  0.2242E-01
    -20.388  0.1536E-01  0.1536E-01  0.2426E-01  0.2426E-01
    -20.269  0.2109E-01  0.2109E-01  0.2678E-01  0.2678E-01
    -20.149  0.2402E-01  0.2402E-01  0.2965E-01  0.2965E-01
    -20.030  0.6672E-02  0.6672E-02  0.3044E-01  0.3044E-01
    -19.910  0.4527E-02  0.4527E-02  0.3098E-01  0.3098E-01
    -19.791  0.1769E-01  0.1769E-01  0.3310E-01  0.3310E-01
    -19.671  0.6915E-02  0.6915E-02  0.3392E-01  0.3392E-01
    -19.552  0.1471E-01  0.1471E-01  0.3568E-01  0.3568E-01
    -19.432  0.2844E-01  0.2844E-01  0.3908E-01  0.3908E-01
    -19.313  0.1799E-01  0.1799E-01  0.4123E-01  0.4123E-01
    -19.193  0.4276E-02  0.4276E-02  0.4174E-01  0.4174E-01
    -19.074  0.1742E-01  0.1742E-01  0.4382E-01  0.4382E-01
    -18.954  0.9460E-02  0.9460E-02  0.4495E-01  0.4495E-01
    -18.835  0.9638E-02  0.9638E-02  0.4610E-01  0.4610E-01
    -18.715  0.8542E-02  0.8542E-02  0.4713E-01  0.4713E-01
    -18.596  0.1698E-01  0.1698E-01  0.4915E-01  0.4915E-01
    -18.476  0.3367E-01  0.3367E-01  0.5318E-01  0.5318E-01
    -18.357  0.1051E-01  0.1051E-01  0.5443E-01  0.5443E-01
    -18.237  0.1297E-01  0.1297E-01  0.5598E-01  0.5598E-01
    -18.118  0.1620E-01  0.1620E-01  0.5792E-01  0.5792E-01
    -17.998  0.1298E-01  0.1298E-01  0.5947E-01  0.5947E-01
    -17.879  0.1267E-01  0.1267E-01  0.6098E-01  0.6098E-01
    -17.759  0.8495E-02  0.8495E-02  0.6200E-01  0.6200E-01
    -17.640  0.8340E-02  0.8340E-02  0.6299E-01  0.6299E-01
    -17.520  0.1307E-01  0.1307E-01  0.6456E-01  0.6456E-01
    -17.401  0.3170E-01  0.3170E-01  0.6834E-01  0.6834E-01
    -17.281  0.2113E-01  0.2113E-01  0.7087E-01  0.7087E-01
    -17.162  0.2506E-01  0.2506E-01  0.7386E-01  0.7386E-01
    -17.042  0.6325E-02  0.6325E-02  0.7462E-01  0.7462E-01
    -16.923  0.1475E-01  0.1475E-01  0.7638E-01  0.7638E-01
    -16.803  0.1961E-01  0.1961E-01  0.7872E-01  0.7872E-01
    -16.684  0.1067E-01  0.1067E-01  0.8000E-01  0.8000E-01
    -16.564  0.1407E-01  0.1407E-01  0.8168E-01  0.8168E-01
    -16.445  0.4979E-02  0.4979E-02  0.8227E-01  0.8227E-01
    -16.325  0.3236E-01  0.3236E-01  0.8614E-01  0.8614E-01
    -16.206  0.2329E-01  0.2329E-01  0.8892E-01  0.8892E-01
    -16.086  0.8258E-02  0.8258E-02  0.8991E-01  0.8991E-01
    -15.967  0.6274E-02  0.6274E-02  0.9066E-01  0.9066E-01
    -15.847  0.6998E-02  0.6998E-02  0.9150E-01  0.9150E-01
    -15.728  0.1575E-02  0.1575E-02  0.9168E-01  0.9168E-01
    -15.608  0.6619E-02  0.6619E-02  0.9247E-01  0.9247E-01
    -15.489  0.3918E-02  0.3918E-02  0.9294E-01  0.9294E-01
    -15.369  0.1577E-01  0.1577E-01  0.9483E-01  0.9483E-01
    -15.250  0.1994E-01  0.1994E-01  0.9721E-01  0.9721E-01
    -15.131  0.1214E-01  0.1214E-01  0.9866E-01  0.9866E-01
    -15.011  0.1339E-01  0.1339E-01  0.1003E+00  0.1003E+00
    -14.892  0.2923E-01  0.2923E-01  0.1038E+00  0.1038E+00
    -14.772  0.1855E-01  0.1855E-01  0.1060E+00  0.1060E+00
    -14.653  0.4736E-02  0.4736E-02  0.1065E+00  0.1065E+00
    -14.533  0.2074E-01  0.2074E-01  0.1090E+00  0.1090E+00
    -14.414  0.2473E-01  0.2473E-01  0.1120E+00  0.1120E+00
    -14.294  0.1586E-01  0.1586E-01  0.1139E+00  0.1139E+00
    -14.175  0.2041E-01  0.2041E-01  0.1163E+00  0.1163E+00
    -14.055  0.2414E-01  0.2414E-01  0.1192E+00  0.1192E+00
    -13.936  0.7903E-02  0.7903E-02  0.1201E+00  0.1201E+00
    -13.816  0.1187E-01  0.1187E-01  0.1215E+00  0.1215E+00
    -13.697  0.1118E-01  0.1118E-01  0.1229E+00  0.1229E+00
    -13.577  0.1287E-01  0.1287E-01  0.1244E+00  0.1244E+00
    -13.458  0.2006E-01  0.2006E-01  0.1268E+00  0.1268E+00
    -13.338  0.1528E-01  0.1528E-01  0.1286E+00  0.1286E+00
    -13.219  0.1608E-01  0.1608E-01  0.1306E+00  0.1306E+00
    -13.099  0.1133E-01  0.1133E-01  0.1319E+00  0.1319E+00
    -12.980  0.8931E-02  0.8931E-02  0.1330E+00  0.1330E+00
    -12.860  0.1297E-01  0.1297E-01  0.1345E+00  0.1345E+00
    -12.741  0.1889E-01  0.1889E-01  0.1368E+00  0.1368E+00
    -12.621  0.1369E-01  0.1369E-01  0.1384E+00  0.1384E+00
    -12.502  0.2379E-01  0.2379E-01  0.1413E+00  0.1413E+00
    -12.382  0.2193E-01  0.2193E-01  0.1439E+00  0.1439E+00
    -12.263  0.2521E-01  0.2521E-01  0.1469E+00  0.1469E+00
    -12.143  0.1710E-01  0.1710E-01  0.1489E+00  0.1489E+00
    -12.024  0.1269E-01  0.1269E-01  0.1505E+00  0.1505E+00
    -11.904  0.1275E-01  0.1275E-01  0.1520E+00  0.1520E+00
    -11.785  0.1725E-01  0.1725E-01  0.1540E+00  0.1540E+00
    -11.665  0.2181E-01  0.2181E-01  0.1567E+00  0.1567E+00
    -11.546  0.1661E-01  0.1661E-01  0.1586E+00  0.1586E+00
    -11.426  0.2519E-01  0.2519E-01  0.1617E+00  0.1617E+00
    -11.307  0.2029E-01  0.2029E-01  0.1641E+00  0.1641E+00
    -11.187  0.2338E-01  0.2338E-01  0.1669E+00  0.1669E+00
    -11.068  0.2303E-01  0.2303E-01  0.1696E+00  0.1696E+00
    -10.948  0.2111E-01  0.2111E-01  0.1721E+00  0.1721E+00
    -10.829  0.3013E-01  0.3013E-01  0.1757E+00  0.1757E+00
    -10.709  0.1846E-01  0.1846E-01  0.1780E+00  0.1780E+00
    -10.590  0.6257E-02  0.6257E-02  0.1787E+00  0.1787E+00
    -10.470  0.1096E-01  0.1096E-01  0.1800E+00  0.1800E+00
    -10.351  0.1868E-01  0.1868E-01  0.1822E+00  0.1822E+00
    -10.231  0.2435E-01  0.2435E-01  0.1852E+00  0.1852E+00
    -10.112  0.3453E-01  0.3453E-01  0.1893E+00  0.1893E+00
     -9.992  0.3175E-01  0.3175E-01  0.1931E+00  0.1931E+00
     -9.873  0.4090E-01  0.4090E-01  0.1980E+00  0.1980E+00
     -9.753  0.3623E-01  0.3623E-01  0.2023E+00  0.2023E+00
     -9.634  0.3460E-01  0.3460E-01  0.2064E+00  0.2064E+00
     -9.514  0.2260E-01  0.2260E-01  0.2091E+00  0.2091E+00
     -9.395  0.3732E-01  0.3732E-01  0.2136E+00  0.2136E+00
     -9.275  0.3453E-01  0.3453E-01  0.2177E+00  0.2177E+00
     -9.156  0.3247E-01  0.3247E-01  0.2216E+00  0.2216E+00
     -9.037  0.4578E-01  0.4578E-01  0.2271E+00  0.2271E+00
     -8.917  0.4525E-01  0.4525E-01  0.2325E+00  0.2325E+00
     -8.798  0.5783E-01  0.5783E-01  0.2394E+00  0.2394E+00
     -8.678  0.5080E-01  0.5080E-01  0.2454E+00  0.2454E+00
     -8.559  0.3923E-01  0.3923E-01  0.2501E+00  0.2501E+00
     -8.439  0.3575E-01  0.3575E-01  0.2544E+00  0.2544E+00
     -8.320  0.3925E-01  0.3925E-01  0.2591E+00  0.2591E+00
     -8.200  0.3362E-01  0.3362E-01  0.2631E+00  0.2631E+00
     -8.081  0.3995E-01  0.3995E-01  0.2679E+00  0.2679E+00
     -7.961  0.4654E-01  0.4654E-01  0.2734E+00  0.2734E+00
     -7.842  0.3845E-01  0.3845E-01  0.2780E+00  0.2780E+00
     -7.722  0.3623E-01  0.3623E-01  0.2824E+00  0.2824E+00
     -7.603  0.2766E-01  0.2766E-01  0.2857E+00  0.2857E+00
     -7.483  0.3042E-01  0.3042E-01  0.2893E+00  0.2893E+00
     -7.364  0.2164E-01  0.2164E-01  0.2919E+00  0.2919E+00
     -7.244  0.2648E-01  0.2648E-01  0.2951E+00  0.2951E+00
     -7.125  0.4976E-01  0.4976E-01  0.3010E+00  0.3010E+00
     -7.005  0.3745E-01  0.3745E-01  0.3055E+00  0.3055E+00
     -6.886  0.3280E-01  0.3280E-01  0.3094E+00  0.3094E+00
     -6.766  0.2113E-01  0.2113E-01  0.3119E+00  0.3119E+00
     -6.647  0.1735E-01  0.1735E-01  0.3140E+00  0.3140E+00
     -6.527  0.3076E-01  0.3076E-01  0.3177E+00  0.3177E+00
     -6.408  0.2001E-01  0.2001E-01  0.3201E+00  0.3201E+00
     -6.288  0.2430E-01  0.2430E-01  0.3230E+00  0.3230E+00
     -6.169  0.2610E-01  0.2610E-01  0.3261E+00  0.3261E+00
     -6.049  0.4033E-01  0.4033E-01  0.3309E+00  0.3309E+00
     -5.930  0.2273E-01  0.2273E-01  0.3336E+00  0.3336E+00
     -5.810  0.3003E-01  0.3003E-01  0.3372E+00  0.3372E+00
     -5.691  0.3245E-01  0.3245E-01  0.3411E+00  0.3411E+00
     -5.571  0.3178E-01  0.3178E-01  0.3449E+00  0.3449E+00
     -5.452  0.2094E-01  0.2094E-01  0.3474E+00  0.3474E+00
     -5.332  0.1146E-01  0.1146E-01  0.3488E+00  0.3488E+00
     -5.213  0.6920E-02  0.6920E-02  0.3496E+00  0.3496E+00
     -5.093  0.4462E-02  0.4462E-02  0.3501E+00  0.3501E+00
     -4.974  0.3414E-01  0.3414E-01  0.3542E+00  0.3542E+00
     -4.854  0.3993E-01  0.3993E-01  0.3590E+00  0.3590E+00
     -4.735  0.2965E-01  0.2965E-01  0.3625E+00  0.3625E+00
     -4.615  0.8673E-02  0.8673E-02  0.3635E+00  0.3635E+00
     -4.496  0.1821E-01  0.1821E-01  0.3657E+00  0.3657E+00
     -4.376  0.6504E-02  0.6504E-02  0.3665E+00  0.3665E+00
     -4.257  0.5116E-02  0.5116E-02  0.3671E+00  0.3671E+00
     -4.137  0.1637E-01  0.1637E-01  0.3691E+00  0.3691E+00
     -4.018  0.1292E-01  0.1292E-01  0.3706E+00  0.3706E+00
     -3.898  0.1530E-01  0.1530E-01  0.3724E+00  0.3724E+00
     -3.779  0.1460E-01  0.1460E-01  0.3742E+00  0.3742E+00
     -3.659  0.1351E-01  0.1351E-01  0.3758E+00  0.3758E+00
     -3.540  0.1669E-02  0.1669E-02  0.3760E+00  0.3760E+00
     -3.420  0.1568E-04  0.1568E-04  0.3760E+00  0.3760E+00
     -3.301  0.3467E-02  0.3467E-02  0.3764E+00  0.3764E+00
     -3.182  0.1224E-01  0.1224E-01  0.3779E+00  0.3779E+00
     -3.062  0.5203E-02  0.5203E-02  0.3785E+00  0.3785E+00
     -2.943  0.3223E-02  0.3223E-02  0.3789E+00  0.3789E+00
     -2.823  0.9616E-03  0.9616E-03  0.3790E+00  0.3790E+00
     -2.704  0.9909E-05  0.9909E-05  0.3790E+00  0.3790E+00
     -2.584  0.4534E-02  0.4534E-02  0.3795E+00  0.3795E+00
     -2.465  0.3821E-02  0.3821E-02  0.3800E+00  0.3800E+00
     -2.345  0.4899E-05  0.4899E-05  0.3800E+00  0.3800E+00
     -2.226  0.1723E-02  0.1723E-02  0.3802E+00  0.3802E+00
     -2.106  0.6496E-02  0.6496E-02  0.3810E+00  0.3810E+00
     -1.987  0.1495E-03  0.1495E-03  0.3810E+00  0.3810E+00
     -1.867  0.1218E-04  0.1218E-04  0.3810E+00  0.3810E+00
     -1.748  0.3302E-02  0.3302E-02  0.3814E+00  0.3814E+00
     -1.628  0.5136E-02  0.5136E-02  0.3820E+00  0.3820E+00
     -1.509  0.1402E-01  0.1402E-01  0.3837E+00  0.3837E+00
     -1.389  0.2638E-02  0.2638E-02  0.3840E+00  0.3840E+00
     -1.270  0.3685E-03  0.3685E-03  0.3840E+00  0.3840E+00
     -1.150  0.9388E-02  0.9388E-02  0.3852E+00  0.3852E+00
     -1.031  0.1370E-01  0.1370E-01  0.3868E+00  0.3868E+00
     -0.911  0.7797E-02  0.7797E-02  0.3877E+00  0.3877E+00
     -0.792  0.2732E-01  0.2732E-01  0.3910E+00  0.3910E+00
     -0.672  0.2319E-01  0.2319E-01  0.3938E+00  0.3938E+00
     -0.553  0.9307E-02  0.9307E-02  0.3949E+00  0.3949E+00
     -0.433  0.2591E-01  0.2591E-01  0.3980E+00  0.3980E+00
     -0.314  0.1523E-01  0.1523E-01  0.3998E+00  0.3998E+00
     -0.194  0.9385E-02  0.9385E-02  0.4009E+00  0.4009E+00
     -0.075  0.1309E-01  0.1309E-01  0.4025E+00  0.4025E+00
      0.045  0.1738E-01  0.1738E-01  0.4046E+00  0.4046E+00
      0.164  0.1996E-01  0.1996E-01  0.4069E+00  0.4069E+00
      0.284  0.2651E-01  0.2651E-01  0.4101E+00  0.4101E+00
      0.403  0.1347E-01  0.1347E-01  0.4117E+00  0.4117E+00
      0.523  0.2345E-02  0.2345E-02  0.4120E+00  0.4120E+00
      0.642  0.6792E-02  0.6792E-02  0.4128E+00  0.4128E+00
      0.762  0.2899E-01  0.2899E-01  0.4163E+00  0.4163E+00
      0.881  0.1905E-01  0.1905E-01  0.4186E+00  0.4186E+00
      1.001  0.1190E-01  0.1190E-01  0.4200E+00  0.4200E+00
      1.120  0.1975E-01  0.1975E-01  0.4223E+00  0.4223E+00
      1.240  0.1555E-01  0.1555E-01  0.4242E+00  0.4242E+00
      1.359  0.1233E-01  0.1233E-01  0.4257E+00  0.4257E+00
      1.479  0.2207E-01  0.2207E-01  0.4283E+00  0.4283E+00
      1.598  0.4015E-01  0.4015E-01  0.4331E+00  0.4331E+00
      1.718  0.3287E-01  0.3287E-01  0.4370E+00  0.4370E+00
      1.837  0.2456E-01  0.2456E-01  0.4400E+00  0.4400E+00
      1.957  0.1437E-01  0.1437E-01  0.4417E+00  0.4417E+00
      2.076  0.3888E-01  0.3888E-01  0.4463E+00  0.4463E+00
      2.196  0.3920E-01  0.3920E-01  0.4510E+00  0.4510E+00
      2.315  0.3874E-01  0.3874E-01  0.4556E+00  0.4556E+00
      2.435  0.3854E-01  0.3854E-01  0.4602E+00  0.4602E+00
      2.554  0.3279E-01  0.3279E-01  0.4642E+00  0.4642E+00
      2.673  0.2292E-01  0.2292E-01  0.4669E+00  0.4669E+00
      2.793  0.3291E-01  0.3291E-01  0.4708E+00  0.4708E+00
      2.912  0.5424E-01  0.5424E-01  0.4773E+00  0.4773E+00
      3.032  0.2240E-01  0.2240E-01  0.4800E+00  0.4800E+00
      3.151  0.8863E-04  0.8862E-04  0.4800E+00  0.4800E+00
      3.271  0.6829E-10  0.6826E-10  0.4800E+00  0.4800E+00
      3.390  0.0000E+00  0.0000E+00  0.4800E+00  0.4800E+00
      3.510  0.0000E+00  0.0000E+00  0.4800E+00  0.4800E+00
      3.629  0.0000E+00  0.0000E+00  0.4800E+00  0.4800E+00
      3.749  0.0000E+00  0.0000E+00  0.4800E+00  0.4800E+00
      3.868  0.0000E+00  0.0000E+00  0.4800E+00  0.4800E+00
      3.988  0.0000E+00  0.0000E+00  0.4800E+00  0.4800E+00
      4.107  0.0000E+00  0.0000E+00  0.4800E+00  0.4800E+00
      4.227  0.0000E+00  0.0000E+00  0.4800E+00  0.4800E+00
      4.346  0.0000E+00  0.0000E+00  0.4800E+00  0.4800E+00
      4.466  0.0000E+00  0.0000E+00  0.4800E+00  0.4800E+00
      4.585  0.0000E+00  0.0000E+00  0.4800E+00  0.4800E+00
