       N       E                     dE             d eps       ncg     rms          rms(c)
DAV:   1     0.356127436304E+04    0.35613E+04   -0.14453E+05  4200   0.120E+03
DAV:   2    -0.198475882509E+03   -0.37598E+04   -0.35753E+04  5610   0.290E+02
DAV:   3    -0.886815641397E+03   -0.68834E+03   -0.68539E+03  4600   0.130E+02
DAV:   4    -0.912358406219E+03   -0.25543E+02   -0.25392E+02  4580   0.318E+01
DAV:   5    -0.913143729960E+03   -0.78532E+00   -0.78367E+00  5280   0.485E+00    0.438E+01
DAV:   6    -0.880029843128E+03    0.33114E+02   -0.21524E+01  4380   0.923E+00    0.334E+01
DAV:   7    -0.851902443792E+03    0.28127E+02   -0.10616E+02  4230   0.187E+01    0.133E+01
DAV:   8    -0.851595081337E+03    0.30736E+00   -0.67262E+00  4510   0.592E+00    0.643E+00
DAV:   9    -0.851668485191E+03   -0.73404E-01   -0.12464E+00  4460   0.263E+00    0.260E+00
DAV:  10    -0.851539849158E+03    0.12864E+00   -0.43842E-01  4520   0.152E+00    0.111E+00
DAV:  11    -0.851525396001E+03    0.14453E-01   -0.12302E-01  4410   0.778E-01    0.337E-01
DAV:  12    -0.851523056611E+03    0.23394E-02   -0.24938E-02  4470   0.437E-01    0.147E-01
DAV:  13    -0.851523288106E+03   -0.23149E-03   -0.44422E-03  4520   0.154E-01    0.115E-01
DAV:  14    -0.851523252036E+03    0.36070E-04   -0.13519E-03  4560   0.873E-02    0.527E-02
DAV:  15    -0.851523273969E+03   -0.21933E-04   -0.15441E-04  4740   0.360E-02    0.357E-02
DAV:  16    -0.851523305486E+03   -0.31517E-04   -0.11767E-04  5080   0.334E-02    0.182E-02
DAV:  17    -0.851523299370E+03    0.61159E-05   -0.48628E-05  4490   0.191E-02    0.744E-03
DAV:  18    -0.851523300769E+03   -0.13984E-05   -0.18510E-05  4460   0.105E-02    0.550E-03
DAV:  19    -0.851523300273E+03    0.49594E-06   -0.22831E-06  3370   0.503E-03
   1 F= -.85943262E+03 E0= -.85943262E+03  d E =-.859433E+03  mag=    -0.0000
       N       E                     dE             d eps       ncg     rms          rms(c)
DAV:   1    -0.851523637992E+03   -0.33722E-03   -0.16343E-02  4000   0.263E-01    0.247E-02
DAV:   2    -0.851523666012E+03   -0.28021E-04   -0.35696E-04  4560   0.354E-02    0.205E-02
DAV:   3    -0.851523662050E+03    0.39621E-05   -0.12082E-05  4930   0.723E-03    0.162E-02
DAV:   4    -0.851523658964E+03    0.30859E-05   -0.88187E-06  4010   0.726E-03    0.677E-03
DAV:   5    -0.851523659280E+03   -0.31640E-06   -0.37375E-06  3470   0.389E-03
   2 F= -.85943297E+03 E0= -.85943297E+03  d E =-.350891E-03  mag=    -0.0000
       N       E                     dE             d eps       ncg     rms          rms(c)
DAV:   1    -0.851524013048E+03   -0.35408E-03   -0.44114E-02  4020   0.373E-01    0.368E-02
DAV:   2    -0.851524081633E+03   -0.68585E-04   -0.82102E-04  4220   0.457E-02    0.263E-02
DAV:   3    -0.851524075746E+03    0.58872E-05   -0.16474E-05  4740   0.813E-03    0.206E-02
DAV:   4    -0.851524075989E+03   -0.24284E-06   -0.20407E-05  4040   0.103E-02    0.602E-03
DAV:   5    -0.851524077100E+03   -0.11113E-05   -0.59510E-06  3640   0.414E-03    0.372E-03
DAV:   6    -0.851524077111E+03   -0.10848E-07   -0.75135E-07  2520   0.205E-03
   3 F= -.85943337E+03 E0= -.85943337E+03  d E =-.400946E-03  mag=     0.0000
       N       E                     dE             d eps       ncg     rms          rms(c)
DAV:   1    -0.851524772738E+03   -0.69564E-03   -0.86941E-02  4020   0.507E-01    0.504E-02
DAV:   2    -0.851524904743E+03   -0.13201E-03   -0.15654E-03  4220   0.602E-02    0.347E-02
DAV:   3    -0.851524894312E+03    0.10431E-04   -0.26512E-05  4760   0.100E-02    0.271E-02
DAV:   4    -0.851524896738E+03   -0.24259E-05   -0.44384E-05  3940   0.144E-02    0.639E-03
DAV:   5    -0.851524898103E+03   -0.13649E-05   -0.10827E-05  4060   0.538E-03    0.469E-03
DAV:   6    -0.851524898054E+03    0.48429E-07   -0.12511E-06  2620   0.271E-03
   4 F= -.85943416E+03 E0= -.85943416E+03  d E =-.793683E-03  mag=    -0.0000
       N       E                     dE             d eps       ncg     rms          rms(c)
DAV:   1    -0.851525622721E+03   -0.72462E-03   -0.15437E-01  3960   0.689E-01    0.676E-02
DAV:   2    -0.851525861207E+03   -0.23849E-03   -0.28281E-03  4280   0.831E-02    0.473E-02
DAV:   3    -0.851525841994E+03    0.19213E-04   -0.51420E-05  4760   0.141E-02    0.370E-02
DAV:   4    -0.851525843130E+03   -0.11364E-05   -0.76873E-05  4080   0.194E-02    0.957E-03
DAV:   5    -0.851525846226E+03   -0.30959E-05   -0.20013E-05  4360   0.744E-03    0.645E-03
DAV:   6    -0.851525846216E+03    0.10252E-07   -0.22899E-06  2960   0.360E-03
   5 F= -.85943508E+03 E0= -.85943508E+03  d E =-.911767E-03  mag=    -0.0000
       N       E                     dE             d eps       ncg     rms          rms(c)
DAV:   1    -0.851526737128E+03   -0.89090E-03   -0.22485E-01  3940   0.808E-01    0.809E-02
DAV:   2    -0.851527078116E+03   -0.34099E-03   -0.40139E-03  4060   0.951E-02    0.547E-02
DAV:   3    -0.851527053647E+03    0.24469E-04   -0.63437E-05  4750   0.154E-02    0.426E-02
DAV:   4    -0.851527061507E+03   -0.78598E-05   -0.11784E-04  4150   0.230E-02    0.926E-03
DAV:   5    -0.851527063757E+03   -0.22501E-05   -0.26283E-05  4340   0.839E-03    0.736E-03
DAV:   6    -0.851527063713E+03    0.43634E-07   -0.32329E-06  3360   0.430E-03
   6 F= -.85943625E+03 E0= -.85943625E+03  d E =-.117338E-02  mag=    -0.0000
       N       E                     dE             d eps       ncg     rms          rms(c)
DAV:   1    -0.851528012455E+03   -0.94870E-03   -0.32077E-01  3920   0.984E-01    0.969E-02
DAV:   2    -0.851528507990E+03   -0.49554E-03   -0.58332E-03  4120   0.118E-01    0.667E-02
DAV:   3    -0.851528472230E+03    0.35760E-04   -0.98618E-05  4790   0.195E-02    0.521E-02
DAV:   4    -0.851528477399E+03   -0.51689E-05   -0.16131E-04  4600   0.275E-02    0.124E-02
DAV:   5    -0.851528482209E+03   -0.48105E-05   -0.38253E-05  4320   0.102E-02    0.906E-03
DAV:   6    -0.851528482270E+03   -0.60463E-07   -0.50050E-06  3640   0.526E-03
   7 F= -.85943761E+03 E0= -.85943761E+03  d E =-.136616E-02  mag=     0.0000
       N       E                     dE             d eps       ncg     rms          rms(c)
DAV:   1    -0.851529459538E+03   -0.97733E-03   -0.51795E-01  3860   0.125E+00    0.123E-01
DAV:   2    -0.851530259712E+03   -0.80017E-03   -0.93661E-03  4030   0.148E-01    0.833E-02
DAV:   3    -0.851530206159E+03    0.53554E-04   -0.14757E-04  4770   0.237E-02    0.649E-02
DAV:   4    -0.851530219654E+03   -0.13495E-04   -0.27281E-04  4350   0.352E-02    0.141E-02
DAV:   5    -0.851530224624E+03   -0.49703E-05   -0.59372E-05  4320   0.127E-02    0.112E-02
DAV:   6    -0.851530224455E+03    0.16934E-06   -0.82077E-06  3700   0.690E-03
   8 F= -.85943929E+03 E0= -.85943929E+03  d E =-.167475E-02  mag=    -0.0000
       N       E                     dE             d eps       ncg     rms          rms(c)
DAV:   1    -0.851531106074E+03   -0.88145E-03   -0.83427E-01  3860   0.161E+00    0.157E-01
DAV:   2    -0.851532420104E+03   -0.13140E-02   -0.15356E-02  4000   0.194E-01    0.107E-01
DAV:   3    -0.851532334290E+03    0.85814E-04   -0.25084E-04  4760   0.312E-02    0.837E-02
DAV:   4    -0.851532344089E+03   -0.97988E-05   -0.43209E-04  4560   0.449E-02    0.193E-02
DAV:   5    -0.851532354429E+03   -0.10340E-04   -0.96112E-05  4320   0.164E-02    0.145E-02
DAV:   6    -0.851532354147E+03    0.28127E-06   -0.14207E-05  3760   0.897E-03    0.673E-03
DAV:   7    -0.851532354186E+03   -0.38926E-07   -0.28345E-06  3560   0.355E-03
   9 F= -.85944133E+03 E0= -.85944133E+03  d E =-.204400E-02  mag=    -0.0000
       N       E                     dE             d eps       ncg     rms          rms(c)
DAV:   1    -0.851533105311E+03   -0.75116E-03   -0.12764E+00  3860   0.201E+00    0.193E-01
DAV:   2    -0.851535137755E+03   -0.20324E-02   -0.23645E-02  4010   0.242E-01    0.132E-01
DAV:   3    -0.851535009217E+03    0.12854E-03   -0.37344E-04  4770   0.384E-02    0.103E-01
DAV:   4    -0.851535018662E+03   -0.94449E-05   -0.67865E-04  4550   0.558E-02    0.231E-02
DAV:   5    -0.851535031765E+03   -0.13103E-04   -0.14785E-04  4280   0.205E-02    0.181E-02
DAV:   6    -0.851535031549E+03    0.21608E-06   -0.21606E-05  3900   0.108E-02    0.854E-03
DAV:   7    -0.851535031572E+03   -0.22941E-07   -0.42634E-06  4200   0.436E-03
  10 F= -.85944391E+03 E0= -.85944391E+03  d E =-.257523E-02  mag=    -0.0000
       N       E                     dE             d eps       ncg     rms          rms(c)
DAV:   1    -0.851535172540E+03   -0.14099E-03   -0.19995E+00  3860   0.253E+00    0.242E-01
DAV:   2    -0.851538399127E+03   -0.32266E-02   -0.37426E-02  4010   0.308E-01    0.164E-01
DAV:   3    -0.851538208044E+03    0.19108E-03   -0.57747E-04  4760   0.481E-02    0.128E-01
DAV:   4    -0.851538226101E+03   -0.18058E-04   -0.10764E-03  4540   0.703E-02    0.286E-02
DAV:   5    -0.851538243930E+03   -0.17829E-04   -0.22636E-04  4280   0.255E-02    0.228E-02
DAV:   6    -0.851538242983E+03    0.94678E-06   -0.36137E-05  4000   0.143E-02    0.106E-02
DAV:   7    -0.851538243086E+03   -0.10273E-06   -0.74945E-06  4400   0.574E-03
  11 F= -.85944699E+03 E0= -.85944699E+03  d E =-.307665E-02  mag=    -0.0000
       N       E                     dE             d eps       ncg     rms          rms(c)
DAV:   1    -0.851537116761E+03    0.11262E-02   -0.30314E+00  3860   0.318E+00    0.300E-01
DAV:   2    -0.851542107013E+03   -0.49903E-02   -0.57879E-02  4020   0.391E-01    0.204E-01
DAV:   3    -0.851541820597E+03    0.28642E-03   -0.90726E-04  4740   0.611E-02    0.160E-01
DAV:   4    -0.851541834796E+03   -0.14200E-04   -0.15837E-03  4560   0.866E-02    0.370E-02
DAV:   5    -0.851541869363E+03   -0.34566E-04   -0.34174E-04  4320   0.314E-02    0.284E-02
DAV:   6    -0.851541866022E+03    0.33402E-05   -0.57873E-05  4000   0.181E-02    0.131E-02
DAV:   7    -0.851541866533E+03   -0.51040E-06   -0.12163E-05  4460   0.723E-03    0.783E-03
DAV:   8    -0.851541865795E+03    0.73791E-06   -0.49842E-06  3700   0.652E-03
  12 F= -.85945044E+03 E0= -.85945044E+03  d E =-.345773E-02  mag=    -0.0000
       N       E                     dE             d eps       ncg     rms          rms(c)
DAV:   1    -0.851538296972E+03    0.35696E-02   -0.43602E+00  3880   0.389E+00    0.362E-01
DAV:   2    -0.851545599960E+03   -0.73030E-02   -0.84797E-02  4020   0.485E-01    0.252E-01
DAV:   3    -0.851545157080E+03    0.44288E-03   -0.14114E-03  4800   0.777E-02    0.197E-01
DAV:   4    -0.851545099234E+03    0.57847E-04   -0.23059E-03  4580   0.108E-01    0.495E-02
DAV:   5    -0.851545161007E+03   -0.61773E-04   -0.53174E-04  4320   0.404E-02    0.368E-02
DAV:   6    -0.851545156763E+03    0.42447E-05   -0.99009E-05  4220   0.236E-02    0.167E-02
DAV:   7    -0.851545158332E+03   -0.15696E-05   -0.16918E-05  4440   0.855E-03    0.109E-02
DAV:   8    -0.851545157101E+03    0.12310E-05   -0.67626E-06  3860   0.738E-03    0.421E-03
DAV:   9    -0.851545157282E+03   -0.18066E-06   -0.21036E-06  3060   0.272E-03
  13 F= -.85945351E+03 E0= -.85945351E+03  d E =-.306638E-02  mag=    -0.0000
       N       E                     dE             d eps       ncg     rms          rms(c)
DAV:   1    -0.851532844617E+03    0.12312E-01   -0.62209E+00  3880   0.492E+00    0.450E-01
DAV:   2    -0.851543689561E+03   -0.10845E-01   -0.12846E-01  4200   0.639E-01    0.336E-01
DAV:   3    -0.851542837315E+03    0.85225E-03   -0.28159E-03  4760   0.110E-01    0.265E-01
DAV:   4    -0.851542328445E+03    0.50887E-03   -0.32770E-03  4340   0.136E-01    0.847E-02
DAV:   5    -0.851542488329E+03   -0.15988E-03   -0.96891E-04  4440   0.565E-02    0.488E-02
DAV:   6    -0.851542479970E+03    0.83587E-05   -0.17805E-04  4300   0.320E-02    0.213E-02
DAV:   7    -0.851542483875E+03   -0.39045E-05   -0.25390E-05  4460   0.107E-02    0.146E-02
DAV:   8    -0.851542481257E+03    0.26171E-05   -0.14781E-05  3980   0.104E-02    0.549E-03
DAV:   9    -0.851542481721E+03   -0.46364E-06   -0.34863E-06  3580   0.361E-03
  14 F= -.85945061E+03 E0= -.85945061E+03  d E =0.290058E-02  mag=    -0.0000
       N       E                     dE             d eps       ncg     rms          rms(c)
DAV:   1    -0.851550294822E+03   -0.78136E-02   -0.45907E-01  3840   0.156E+00    0.157E-01
DAV:   2    -0.851551156953E+03   -0.86213E-03   -0.12247E-02  4660   0.227E-01    0.144E-01
DAV:   3    -0.851550934372E+03    0.22258E-03   -0.59962E-04  5000   0.508E-02    0.112E-01
DAV:   4    -0.851550718422E+03    0.21595E-03   -0.40490E-04  4260   0.487E-02    0.495E-02
DAV:   5    -0.851550705997E+03    0.12425E-04   -0.16203E-04  4300   0.267E-02    0.184E-02
DAV:   6    -0.851550707275E+03   -0.12781E-05   -0.16498E-05  4780   0.855E-03    0.840E-03
DAV:   7    -0.851550706904E+03    0.37094E-06   -0.14247E-06  2680   0.313E-03
  15 F= -.85945882E+03 E0= -.85945882E+03  d E =-.821100E-02  mag=     0.0000
       N       E                     dE             d eps       ncg     rms          rms(c)
DAV:   1    -0.851550762848E+03   -0.55573E-04   -0.41092E-04  4000   0.461E-02    0.461E-03
DAV:   2    -0.851550763404E+03   -0.55610E-06   -0.94903E-06  4460   0.638E-03
  16 F= -.85945888E+03 E0= -.85945888E+03  d E =-.553397E-04  mag=     0.0000
       N       E                     dE             d eps       ncg     rms          rms(c)
DAV:   1    -0.851550847063E+03   -0.84215E-04   -0.14841E-03  3840   0.871E-02    0.980E-03
DAV:   2    -0.851550849197E+03   -0.21344E-05   -0.35217E-05  4600   0.121E-02    0.848E-03
DAV:   3    -0.851550848447E+03    0.75019E-06   -0.13784E-06  2680   0.280E-03
  17 F= -.85945896E+03 E0= -.85945896E+03  d E =-.826547E-04  mag=     0.0000
       N       E                     dE             d eps       ncg     rms          rms(c)
DAV:   1    -0.851550934118E+03   -0.84921E-04   -0.27174E-03  3840   0.116E-01    0.111E-02
DAV:   2    -0.851550938612E+03   -0.44940E-05   -0.58025E-05  4380   0.152E-02    0.919E-03
DAV:   3    -0.851550938126E+03    0.48615E-06   -0.15381E-06  3160   0.285E-03
  18 F= -.85945904E+03 E0= -.85945904E+03  d E =-.853404E-04  mag=     0.0000
       N       E                     dE             d eps       ncg     rms          rms(c)
DAV:   1    -0.851551032165E+03   -0.93553E-04   -0.40464E-03  3860   0.137E-01    0.124E-02
DAV:   2    -0.851551038711E+03   -0.65463E-05   -0.81851E-05  4100   0.176E-02    0.972E-03
DAV:   3    -0.851551038294E+03    0.41696E-06   -0.16237E-06  3400   0.301E-03
  19 F= -.85945914E+03 E0= -.85945914E+03  d E =-.936568E-04  mag=     0.0000
       N       E                     dE             d eps       ncg     rms          rms(c)
DAV:   1    -0.851551164033E+03   -0.12532E-03   -0.55630E-03  3880   0.158E-01    0.140E-02
DAV:   2    -0.851551172789E+03   -0.87567E-05   -0.10865E-04  3900   0.200E-02    0.105E-02
DAV:   3    -0.851551172411E+03    0.37839E-06   -0.17583E-06  3380   0.320E-03
  20 F= -.85945926E+03 E0= -.85945926E+03  d E =-.125521E-03  mag=     0.0000
       N       E                     dE             d eps       ncg     rms          rms(c)
DAV:   1    -0.851551339328E+03   -0.16654E-03   -0.77141E-03  3880   0.187E-01    0.162E-02
DAV:   2    -0.851551351638E+03   -0.12310E-04   -0.15160E-04  3880   0.236E-02    0.121E-02
DAV:   3    -0.851551351100E+03    0.53824E-06   -0.25644E-06  3680   0.378E-03
  21 F= -.85945943E+03 E0= -.85945943E+03  d E =-.168251E-03  mag=    -0.0000
       N       E                     dE             d eps       ncg     rms          rms(c)
DAV:   1    -0.851551558512E+03   -0.20687E-03   -0.13272E-02  3880   0.246E-01    0.214E-02
DAV:   2    -0.851551580189E+03   -0.21677E-04   -0.26650E-04  3860   0.315E-02    0.162E-02
DAV:   3    -0.851551579079E+03    0.11101E-05   -0.50804E-06  4360   0.513E-03    0.126E-02
DAV:   4    -0.851551580360E+03   -0.12804E-05   -0.65603E-06  3670   0.637E-03    0.312E-03
DAV:   5    -0.851551580610E+03   -0.24989E-06   -0.17199E-06  3220   0.258E-03
  22 F= -.85945965E+03 E0= -.85945965E+03  d E =-.215718E-03  mag=     0.0000
       N       E                     dE             d eps       ncg     rms          rms(c)
DAV:   1    -0.851551806178E+03   -0.22582E-03   -0.22417E-02  3880   0.318E-01    0.266E-02
DAV:   2    -0.851551845815E+03   -0.39637E-04   -0.47652E-04  3840   0.420E-02    0.197E-02
DAV:   3    -0.851551843377E+03    0.24380E-05   -0.87560E-06  4720   0.673E-03    0.153E-02
DAV:   4    -0.851551844338E+03   -0.96069E-06   -0.11409E-05  3660   0.836E-03    0.414E-03
DAV:   5    -0.851551844806E+03   -0.46772E-06   -0.29327E-06  3500   0.333E-03
  23 F= -.85945989E+03 E0= -.85945989E+03  d E =-.246334E-03  mag=    -0.0000
       N       E                     dE             d eps       ncg     rms          rms(c)
DAV:   1    -0.851552122439E+03   -0.27810E-03   -0.35329E-02  3900   0.396E-01    0.334E-02
DAV:   2    -0.851552184459E+03   -0.62020E-04   -0.74333E-04  3840   0.519E-02    0.241E-02
DAV:   3    -0.851552180918E+03    0.35411E-05   -0.12388E-05  4760   0.809E-03    0.187E-02
DAV:   4    -0.851552183167E+03   -0.22500E-05   -0.17911E-05  3680   0.104E-02    0.465E-03
DAV:   5    -0.851552183711E+03   -0.54376E-06   -0.43707E-06  3940   0.405E-03
  24 F= -.85946021E+03 E0= -.85946021E+03  d E =-.316406E-03  mag=    -0.0000
       N       E                     dE             d eps       ncg     rms          rms(c)
DAV:   1    -0.851552544807E+03   -0.36164E-03   -0.55945E-02  3900   0.498E-01    0.421E-02
DAV:   2    -0.851552644035E+03   -0.99227E-04   -0.11846E-03  3840   0.654E-02    0.303E-02
DAV:   3    -0.851552638502E+03    0.55329E-05   -0.19669E-05  4760   0.101E-02    0.235E-02
DAV:   4    -0.851552641967E+03   -0.34657E-05   -0.28056E-05  3760   0.131E-02    0.590E-03
DAV:   5    -0.851552642830E+03   -0.86264E-06   -0.69197E-06  4200   0.506E-03
  25 F= -.85946064E+03 E0= -.85946064E+03  d E =-.431136E-03  mag=     0.0000
       N       E                     dE             d eps       ncg     rms          rms(c)
DAV:   1    -0.851553043631E+03   -0.40166E-03   -0.89857E-02  3900   0.632E-01    0.532E-02
DAV:   2    -0.851553204596E+03   -0.16097E-03   -0.19176E-03  3840   0.832E-02    0.384E-02
DAV:   3    -0.851553195786E+03    0.88096E-05   -0.31747E-05  4760   0.127E-02    0.299E-02
DAV:   4    -0.851553201536E+03   -0.57493E-05   -0.45134E-05  3840   0.166E-02    0.754E-03
DAV:   5    -0.851553202903E+03   -0.13676E-05   -0.11007E-05  4380   0.642E-03    0.502E-03
DAV:   6    -0.851553202732E+03    0.17144E-06   -0.19385E-06  3020   0.364E-03
  26 F= -.85946116E+03 E0= -.85946116E+03  d E =-.523762E-03  mag=    -0.0000
       N       E                     dE             d eps       ncg     rms          rms(c)
DAV:   1    -0.851553670649E+03   -0.46775E-03   -0.14159E-01  3900   0.791E-01    0.656E-02
DAV:   2    -0.851553925304E+03   -0.25466E-03   -0.30197E-03  3840   0.104E-01    0.468E-02
DAV:   3    -0.851553911213E+03    0.14091E-04   -0.47473E-05  4760   0.156E-02    0.364E-02
DAV:   4    -0.851553920102E+03   -0.88886E-05   -0.72765E-05  4000   0.208E-02    0.895E-03
DAV:   5    -0.851553921782E+03   -0.16799E-05   -0.16308E-05  4380   0.790E-03    0.611E-03
DAV:   6    -0.851553921599E+03    0.18264E-06   -0.31097E-06  3400   0.451E-03
  27 F= -.85946184E+03 E0= -.85946184E+03  d E =-.673204E-03  mag=    -0.0000
       N       E                     dE             d eps       ncg     rms          rms(c)
DAV:   1    -0.851554433662E+03   -0.51188E-03   -0.22454E-01  3900   0.997E-01    0.828E-02
DAV:   2    -0.851554841630E+03   -0.40797E-03   -0.48300E-03  3860   0.131E-01    0.589E-02
DAV:   3    -0.851554819606E+03    0.22024E-04   -0.76040E-05  4780   0.197E-02    0.459E-02
DAV:   4    -0.851554833349E+03   -0.13744E-04   -0.11308E-04  4360   0.260E-02    0.114E-02
DAV:   5    -0.851554836367E+03   -0.30182E-05   -0.25067E-05  4360   0.983E-03    0.771E-03
DAV:   6    -0.851554836161E+03    0.20600E-06   -0.50002E-06  3680   0.569E-03
  28 F= -.85946270E+03 E0= -.85946270E+03  d E =-.858842E-03  mag=    -0.0000
       N       E                     dE             d eps       ncg     rms          rms(c)
DAV:   1    -0.851555310791E+03   -0.47442E-03   -0.35023E-01  3900   0.124E+00    0.104E-01
DAV:   2    -0.851555944546E+03   -0.63375E-03   -0.75148E-03  3900   0.163E-01    0.732E-02
DAV:   3    -0.851555911350E+03    0.33195E-04   -0.11581E-04  4780   0.243E-02    0.570E-02
DAV:   4    -0.851555935111E+03   -0.23761E-04   -0.17402E-04  4500   0.321E-02    0.141E-02
DAV:   5    -0.851555939636E+03   -0.45243E-05   -0.36914E-05  4360   0.120E-02    0.961E-03
DAV:   6    -0.851555939171E+03    0.46438E-06   -0.79309E-06  3740   0.734E-03
  29 F= -.85946374E+03 E0= -.85946374E+03  d E =-.104101E-02  mag=     0.0000
       N       E                     dE             d eps       ncg     rms          rms(c)
DAV:   1    -0.851556326278E+03   -0.38664E-03   -0.53127E-01  3900   0.153E+00    0.128E-01
DAV:   2    -0.851557283624E+03   -0.95735E-03   -0.11394E-02  3920   0.201E-01    0.908E-02
DAV:   3    -0.851557233925E+03    0.49699E-04   -0.17929E-04  4780   0.301E-02    0.708E-02
DAV:   4    -0.851557267412E+03   -0.33487E-04   -0.26339E-04  4480   0.395E-02    0.180E-02
DAV:   5    -0.851557275399E+03   -0.79867E-05   -0.56533E-05  4380   0.147E-02    0.121E-02
DAV:   6    -0.851557274522E+03    0.87650E-06   -0.12979E-05  3700   0.950E-03    0.527E-03
DAV:   7    -0.851557275054E+03   -0.53216E-06   -0.29154E-06  3850   0.363E-03
  30 F= -.85946500E+03 E0= -.85946500E+03  d E =-.126380E-02  mag=    -0.0000
       N       E                     dE             d eps       ncg     rms          rms(c)
DAV:   1    -0.851557521164E+03   -0.24664E-03   -0.78394E-01  3900   0.186E+00    0.155E-01
DAV:   2    -0.851558916343E+03   -0.13952E-02   -0.16649E-02  3920   0.243E-01    0.110E-01
DAV:   3    -0.851558841116E+03    0.75227E-04   -0.26230E-04  4800   0.363E-02    0.855E-02
DAV:   4    -0.851558889464E+03   -0.48347E-04   -0.39524E-04  4500   0.474E-02    0.215E-02
DAV:   5    -0.851558900286E+03   -0.10822E-04   -0.81689E-05  4400   0.176E-02    0.143E-02
DAV:   6    -0.851558899551E+03    0.73513E-06   -0.18591E-05  3760   0.107E-02    0.615E-03
DAV:   7    -0.851558900312E+03   -0.76128E-06   -0.36118E-06  4240   0.398E-03
  31 F= -.85946653E+03 E0= -.85946653E+03  d E =-.152847E-02  mag=    -0.0000
       N       E                     dE             d eps       ncg     rms          rms(c)
DAV:   1    -0.851558804866E+03    0.94684E-04   -0.11764E+00  3900   0.227E+00    0.189E-01
DAV:   2    -0.851560911291E+03   -0.21064E-02   -0.25026E-02  3960   0.299E-01    0.135E-01
DAV:   3    -0.851560794825E+03    0.11647E-03   -0.39337E-04  4760   0.445E-02    0.105E-01
DAV:   4    -0.851560860222E+03   -0.65397E-04   -0.60347E-04  4520   0.589E-02    0.257E-02
DAV:   5    -0.851560875938E+03   -0.15715E-04   -0.12576E-04  4360   0.219E-02    0.171E-02
DAV:   6    -0.851560875456E+03    0.48148E-06   -0.25798E-05  3820   0.126E-02    0.757E-03
DAV:   7    -0.851560876678E+03   -0.12215E-05   -0.55663E-06  4420   0.493E-03    0.468E-03
DAV:   8    -0.851560876538E+03    0.14027E-06   -0.15887E-06  3160   0.441E-03
  32 F= -.85946836E+03 E0= -.85946836E+03  d E =-.182698E-02  mag=    -0.0000
       N       E                     dE             d eps       ncg     rms          rms(c)
DAV:   1    -0.851560212492E+03    0.66419E-03   -0.16557E+00  3900   0.271E+00    0.225E-01
DAV:   2    -0.851563146288E+03   -0.29338E-02   -0.34818E-02  3960   0.355E-01    0.163E-01
DAV:   3    -0.851562968315E+03    0.17797E-03   -0.57689E-04  4780   0.538E-02    0.127E-01
DAV:   4    -0.851563023652E+03   -0.55336E-04   -0.89144E-04  4540   0.707E-02    0.317E-02
DAV:   5    -0.851563048377E+03   -0.24725E-04   -0.18337E-04  4380   0.264E-02    0.209E-02
DAV:   6    -0.851563048168E+03    0.20865E-06   -0.40472E-05  3880   0.152E-02    0.900E-03
DAV:   7    -0.851563049993E+03   -0.18250E-05   -0.73911E-06  4420   0.561E-03    0.562E-03
DAV:   8    -0.851563049844E+03    0.14863E-06   -0.18740E-06  3260   0.457E-03
  33 F= -.85947034E+03 E0= -.85947034E+03  d E =-.198164E-02  mag=    -0.0000
       N       E                     dE             d eps       ncg     rms          rms(c)
DAV:   1    -0.851561580801E+03    0.14692E-02   -0.21681E+00  3900   0.311E+00    0.262E-01
DAV:   2    -0.851565363931E+03   -0.37831E-02   -0.45274E-02  3960   0.409E-01    0.194E-01
DAV:   3    -0.851565103085E+03    0.26085E-03   -0.83015E-04  4800   0.647E-02    0.150E-01
DAV:   4    -0.851565125542E+03   -0.22457E-04   -0.12489E-03  4580   0.839E-02    0.393E-02
DAV:   5    -0.851565162477E+03   -0.36935E-04   -0.26899E-04  4340   0.319E-02    0.257E-02
DAV:   6    -0.851565163222E+03   -0.74499E-06   -0.60290E-05  4160   0.183E-02    0.108E-02
DAV:   7    -0.851565165625E+03   -0.24025E-05   -0.95518E-06  4420   0.638E-03    0.689E-03
DAV:   8    -0.851565165479E+03    0.14542E-06   -0.22578E-06  3260   0.487E-03
  34 F= -.85947222E+03 E0= -.85947222E+03  d E =-.188631E-02  mag=    -0.0000
       N       E                     dE             d eps       ncg     rms          rms(c)
DAV:   1    -0.851561331293E+03    0.38343E-02   -0.30236E+00  3880   0.373E+00    0.316E-01
DAV:   2    -0.851566735893E+03   -0.54046E-02   -0.65012E-02  4080   0.498E-01    0.241E-01
DAV:   3    -0.851566316895E+03    0.41900E-03   -0.14038E-03  4860   0.822E-02    0.187E-01
DAV:   4    -0.851566185492E+03    0.13140E-03   -0.16514E-03  4500   0.985E-02    0.573E-02
DAV:   5    -0.851566269187E+03   -0.83695E-04   -0.43006E-04  4360   0.395E-02    0.325E-02
DAV:   6    -0.851566269832E+03   -0.64490E-06   -0.87854E-05  4240   0.224E-02    0.136E-02
DAV:   7    -0.851566273770E+03   -0.39379E-05   -0.13860E-05  4340   0.774E-03    0.867E-03
DAV:   8    -0.851566273382E+03    0.38810E-06   -0.47810E-06  3800   0.687E-03
  35 F= -.85947305E+03 E0= -.85947305E+03  d E =-.824921E-03  mag=    -0.0000
       N       E                     dE             d eps       ncg     rms          rms(c)
DAV:   1    -0.851568484147E+03   -0.22104E-02   -0.10503E-01  3840   0.750E-01    0.762E-02
DAV:   2    -0.851568683296E+03   -0.19915E-03   -0.28561E-03  4560   0.110E-01    0.696E-02
DAV:   3    -0.851568629805E+03    0.53491E-04   -0.14632E-04  4940   0.251E-02    0.534E-02
DAV:   4    -0.851568582088E+03    0.47717E-04   -0.10303E-04  4300   0.243E-02    0.239E-02
DAV:   5    -0.851568579550E+03    0.25379E-05   -0.34067E-05  4200   0.123E-02    0.980E-03
DAV:   6    -0.851568579836E+03   -0.28653E-06   -0.38005E-06  3400   0.425E-03
  36 F= -.85947536E+03 E0= -.85947536E+03  d E =-.230746E-02  mag=     0.0000
       N       E                     dE             d eps       ncg     rms          rms(c)
DAV:   1    -0.851566889940E+03    0.16896E-02   -0.11024E-01  3840   0.770E-01    0.745E-02
DAV:   2    -0.851567114336E+03   -0.22440E-03   -0.30306E-03  4540   0.114E-01    0.671E-02
DAV:   3    -0.851567074272E+03    0.40064E-04   -0.13499E-04  4920   0.241E-02    0.530E-02
DAV:   4    -0.851567033030E+03    0.41242E-04   -0.10340E-04  4180   0.245E-02    0.231E-02
DAV:   5    -0.851567032440E+03    0.58964E-06   -0.33244E-05  4360   0.121E-02    0.103E-02
DAV:   6    -0.851567032606E+03   -0.16533E-06   -0.41028E-06  3460   0.428E-03
  37 F= -.85947379E+03 E0= -.85947379E+03  d E =0.156804E-02  mag=    -0.0000
       N       E                     dE             d eps       ncg     rms          rms(c)
DAV:   1    -0.851567807828E+03   -0.77539E-03   -0.53100E-03  3840   0.169E-01    0.172E-02
DAV:   2    -0.851567817241E+03   -0.94131E-05   -0.14491E-04  4580   0.249E-02    0.159E-02
DAV:   3    -0.851567814145E+03    0.30959E-05   -0.76984E-06  4840   0.576E-03    0.121E-02
DAV:   4    -0.851567811212E+03    0.29331E-05   -0.50159E-06  3900   0.542E-03    0.553E-03
DAV:   5    -0.851567810910E+03    0.30263E-06   -0.19909E-06  2660   0.307E-03
  38 F= -.85947456E+03 E0= -.85947456E+03  d E =-.774516E-03  mag=    -0.0000
       N       E                     dE             d eps       ncg     rms          rms(c)
DAV:   1    -0.851568642362E+03   -0.83115E-03   -0.16436E-02  3840   0.297E-01    0.300E-02
DAV:   2    -0.851568674691E+03   -0.32330E-04   -0.44704E-04  4580   0.437E-02    0.272E-02
DAV:   3    -0.851568666989E+03    0.77024E-05   -0.22018E-05  4900   0.972E-03    0.211E-02
DAV:   4    -0.851568659856E+03    0.71325E-05   -0.15638E-05  4260   0.945E-03    0.943E-03
DAV:   5    -0.851568659465E+03    0.39102E-06   -0.50788E-06  3560   0.478E-03
  39 F= -.85947540E+03 E0= -.85947540E+03  d E =-.840894E-03  mag=     0.0000
       N       E                     dE             d eps       ncg     rms          rms(c)
DAV:   1    -0.851568819823E+03   -0.15997E-03   -0.23586E-02  3840   0.356E-01    0.354E-02
DAV:   2    -0.851568867201E+03   -0.47378E-04   -0.64193E-04  4560   0.524E-02    0.320E-02
DAV:   3    -0.851568857359E+03    0.98418E-05   -0.30662E-05  4920   0.114E-02    0.250E-02
DAV:   4    -0.851568847760E+03    0.95987E-05   -0.22221E-05  4220   0.113E-02    0.111E-02
DAV:   5    -0.851568847402E+03    0.35854E-06   -0.71738E-06  4020   0.562E-03
  40 F= -.85947558E+03 E0= -.85947558E+03  d E =-.176331E-03  mag=    -0.0000
       N       E                     dE             d eps       ncg     rms          rms(c)
DAV:   1    -0.851568858902E+03   -0.11142E-04   -0.24431E-05  4000   0.113E-02    0.225E-03
DAV:   2    -0.851568858921E+03   -0.18495E-07   -0.80975E-07  2320   0.196E-03
  41 F= -.85947559E+03 E0= -.85947559E+03  d E =-.111146E-04  mag=    -0.0000
       N       E                     dE             d eps       ncg     rms          rms(c)
DAV:   1    -0.851568880065E+03   -0.21162E-04   -0.85383E-05  3960   0.209E-02    0.229E-03
DAV:   2    -0.851568880203E+03   -0.13791E-06   -0.19928E-06  3000   0.296E-03
  42 F= -.85947561E+03 E0= -.85947561E+03  d E =-.204690E-04  mag=    -0.0000
       N       E                     dE             d eps       ncg     rms          rms(c)
DAV:   1    -0.851568908075E+03   -0.28010E-04   -0.18372E-04  3920   0.307E-02    0.385E-03
DAV:   2    -0.851568908334E+03   -0.25928E-06   -0.45195E-06  4220   0.434E-03
  43 F= -.85947564E+03 E0= -.85947564E+03  d E =-.268852E-04  mag=    -0.0000
       N       E                     dE             d eps       ncg     rms          rms(c)
DAV:   1    -0.851568939782E+03   -0.31707E-04   -0.30102E-04  3860   0.391E-02    0.537E-03
DAV:   2    -0.851568940154E+03   -0.37243E-06   -0.71110E-06  4520   0.541E-03
  44 F= -.85947567E+03 E0= -.85947567E+03  d E =-.300880E-04  mag=    -0.0000
       N       E                     dE             d eps       ncg     rms          rms(c)
DAV:   1    -0.851568972250E+03   -0.32468E-04   -0.42729E-04  3840   0.463E-02    0.657E-03
DAV:   2    -0.851568972762E+03   -0.51279E-06   -0.98539E-06  4500   0.634E-03
  45 F= -.85947570E+03 E0= -.85947570E+03  d E =-.303447E-04  mag=    -0.0000
       N       E                     dE             d eps       ncg     rms          rms(c)
DAV:   1    -0.851569004477E+03   -0.32228E-04   -0.55272E-04  3860   0.523E-02    0.752E-03
DAV:   2    -0.851569005071E+03   -0.59411E-06   -0.12336E-05  4420   0.705E-03    0.632E-03
DAV:   3    -0.851569004834E+03    0.23703E-06   -0.61777E-07  2280   0.199E-03
  46 F= -.85947573E+03 E0= -.85947573E+03  d E =-.292210E-04  mag=    -0.0000
       N       E                     dE             d eps       ncg     rms          rms(c)
DAV:   1    -0.851569039625E+03   -0.34553E-04   -0.81514E-04  3880   0.627E-02    0.567E-03
DAV:   2    -0.851569041050E+03   -0.14256E-05   -0.17408E-05  4200   0.816E-03    0.454E-03
DAV:   3    -0.851569040977E+03    0.72891E-07   -0.31623E-07  2380   0.139E-03
  47 F= -.85947576E+03 E0= -.85947576E+03  d E =-.322786E-04  mag=     0.0000
       N       E                     dE             d eps       ncg     rms          rms(c)
DAV:   1    -0.851569082157E+03   -0.41106E-04   -0.11537E-03  3880   0.737E-02    0.637E-03
DAV:   2    -0.851569084063E+03   -0.19059E-05   -0.24145E-05  4030   0.954E-03    0.497E-03
DAV:   3    -0.851569083972E+03    0.90971E-07   -0.41132E-07  2520   0.160E-03
  48 F= -.85947580E+03 E0= -.85947580E+03  d E =-.379405E-04  mag=    -0.0000
       N       E                     dE             d eps       ncg     rms          rms(c)
DAV:   1    -0.851569139422E+03   -0.55360E-04   -0.16177E-03  3880   0.865E-02    0.753E-03
DAV:   2    -0.851569141903E+03   -0.24803E-05   -0.32618E-05  3840   0.110E-02    0.575E-03
DAV:   3    -0.851569141757E+03    0.14572E-06   -0.49901E-07  2700   0.180E-03
  49 F= -.85947585E+03 E0= -.85947585E+03  d E =-.513027E-04  mag=    -0.0000
       N       E                     dE             d eps       ncg     rms          rms(c)
DAV:   1    -0.851569218539E+03   -0.76637E-04   -0.22889E-03  3880   0.103E-01    0.897E-03
DAV:   2    -0.851569221863E+03   -0.33242E-05   -0.44861E-05  3840   0.130E-02    0.681E-03
DAV:   3    -0.851569221712E+03    0.15159E-06   -0.71692E-07  2840   0.214E-03
  50 F= -.85947592E+03 E0= -.85947592E+03  d E =-.718345E-04  mag=    -0.0000
       N       E                     dE             d eps       ncg     rms          rms(c)
DAV:   1    -0.851569324899E+03   -0.10304E-03   -0.33538E-03  3880   0.124E-01    0.111E-02
DAV:   2    -0.851569329587E+03   -0.46881E-05   -0.65249E-05  3840   0.159E-02    0.852E-03
DAV:   3    -0.851569329404E+03    0.18257E-06   -0.12139E-06  3140   0.268E-03
  51 F= -.85947602E+03 E0= -.85947602E+03  d E =-.975084E-04  mag=     0.0000
       N       E                     dE             d eps       ncg     rms          rms(c)
DAV:   1    -0.851569455891E+03   -0.12630E-03   -0.50153E-03  3880   0.153E-01    0.139E-02
DAV:   2    -0.851569462645E+03   -0.67537E-05   -0.96985E-05  3860   0.195E-02    0.109E-02
DAV:   3    -0.851569462332E+03    0.31337E-06   -0.20891E-06  3480   0.340E-03
  52 F= -.85947614E+03 E0= -.85947614E+03  d E =-.120296E-03  mag=     0.0000
       N       E                     dE             d eps       ncg     rms          rms(c)
DAV:   1    -0.851569607695E+03   -0.14505E-03   -0.73368E-03  3880   0.184E-01    0.173E-02
DAV:   2    -0.851569616944E+03   -0.92487E-05   -0.13881E-04  3860   0.235E-02    0.136E-02
DAV:   3    -0.851569616549E+03    0.39486E-06   -0.32156E-06  3720   0.418E-03
  53 F= -.85947628E+03 E0= -.85947628E+03  d E =-.138700E-03  mag=     0.0000
       N       E                     dE             d eps       ncg     rms          rms(c)
DAV:   1    -0.851569792034E+03   -0.17509E-03   -0.10561E-02  3880   0.220E-01    0.209E-02
DAV:   2    -0.851569804842E+03   -0.12808E-04   -0.19410E-04  3840   0.278E-02    0.163E-02
DAV:   3    -0.851569804246E+03    0.59602E-06   -0.44876E-06  4120   0.491E-03
  54 F= -.85947645E+03 E0= -.85947645E+03  d E =-.168964E-03  mag=    -0.0000
       N       E                     dE             d eps       ncg     rms          rms(c)
DAV:   1    -0.851570027104E+03   -0.22226E-03   -0.15248E-02  3880   0.263E-01    0.251E-02
DAV:   2    -0.851570045189E+03   -0.18085E-04   -0.27418E-04  3840   0.330E-02    0.196E-02
DAV:   3    -0.851570044303E+03    0.88640E-06   -0.62561E-06  4360   0.582E-03
  55 F= -.85947667E+03 E0= -.85947667E+03  d E =-.217988E-03  mag=     0.0000
       N       E                     dE             d eps       ncg     rms          rms(c)
DAV:   1    -0.851570315246E+03   -0.27006E-03   -0.22183E-02  3880   0.317E-01    0.304E-02
DAV:   2    -0.851570341485E+03   -0.26239E-04   -0.39404E-04  3840   0.397E-02    0.240E-02
DAV:   3    -0.851570339773E+03    0.17121E-05   -0.95967E-06  4540   0.716E-03    0.178E-02
DAV:   4    -0.851570344523E+03   -0.47497E-05   -0.12596E-05  3680   0.862E-03    0.424E-03
DAV:   5    -0.851570344991E+03   -0.46795E-06   -0.33530E-06  3500   0.349E-03
  56 F= -.85947694E+03 E0= -.85947694E+03  d E =-.275204E-03  mag=    -0.0000
       N       E                     dE             d eps       ncg     rms          rms(c)
DAV:   1    -0.851570643843E+03   -0.29932E-03   -0.33726E-02  3900   0.390E-01    0.351E-02
DAV:   2    -0.851570689665E+03   -0.45822E-04   -0.64296E-04  3840   0.507E-02    0.278E-02
DAV:   3    -0.851570685022E+03    0.46433E-05   -0.15254E-05  4640   0.900E-03    0.211E-02
DAV:   4    -0.851570688907E+03   -0.38857E-05   -0.24166E-05  3660   0.117E-02    0.548E-03
DAV:   5    -0.851570689526E+03   -0.61876E-06   -0.54884E-06  4140   0.454E-03
  57 F= -.85947725E+03 E0= -.85947725E+03  d E =-.313726E-03  mag=    -0.0000
       N       E                     dE             d eps       ncg     rms          rms(c)
DAV:   1    -0.851571042769E+03   -0.35386E-03   -0.49684E-02  3900   0.472E-01    0.426E-02
DAV:   2    -0.851571110546E+03   -0.67777E-04   -0.93889E-04  3840   0.611E-02    0.335E-02
DAV:   3    -0.851571103596E+03    0.69495E-05   -0.21345E-05  4640   0.107E-02    0.254E-02
DAV:   4    -0.851571109137E+03   -0.55415E-05   -0.35792E-05  3720   0.142E-02    0.633E-03
DAV:   5    -0.851571109887E+03   -0.74963E-06   -0.78974E-06  4280   0.548E-03
  58 F= -.85947764E+03 E0= -.85947764E+03  d E =-.381797E-03  mag=    -0.0000
       N       E                     dE             d eps       ncg     rms          rms(c)
DAV:   1    -0.851571526509E+03   -0.41737E-03   -0.73910E-02  3900   0.575E-01    0.520E-02
DAV:   2    -0.851571629385E+03   -0.10288E-03   -0.14058E-03  3840   0.747E-02    0.407E-02
DAV:   3    -0.851571619012E+03    0.10373E-04   -0.31990E-05  4620   0.131E-02    0.309E-02
DAV:   4    -0.851571625936E+03   -0.69238E-05   -0.50734E-05  3800   0.169E-02    0.769E-03
DAV:   5    -0.851571627147E+03   -0.12109E-05   -0.11572E-05  4380   0.657E-03    0.498E-03
DAV:   6    -0.851571627124E+03    0.22395E-07   -0.25092E-06  3260   0.387E-03
  59 F= -.85947811E+03 E0= -.85947811E+03  d E =-.469530E-03  mag=    -0.0000
       N       E                     dE             d eps       ncg     rms          rms(c)
DAV:   1    -0.851572099616E+03   -0.47247E-03   -0.11026E-01  3900   0.704E-01    0.631E-02
DAV:   2    -0.851572253513E+03   -0.15390E-03   -0.21012E-03  3840   0.914E-02    0.494E-02
DAV:   3    -0.851572237542E+03    0.15971E-04   -0.48125E-05  4600   0.161E-02    0.373E-02
DAV:   4    -0.851572245817E+03   -0.82745E-05   -0.74859E-05  4100   0.204E-02    0.934E-03
DAV:   5    -0.851572247376E+03   -0.15594E-05   -0.16931E-05  4320   0.798E-03    0.585E-03
DAV:   6    -0.851572247341E+03    0.35026E-07   -0.32711E-06  3400   0.430E-03
  60 F= -.85947867E+03 E0= -.85947867E+03  d E =-.559363E-03  mag=    -0.0000
       N       E                     dE             d eps       ncg     rms          rms(c)
DAV:   1    -0.851572787084E+03   -0.53971E-03   -0.16077E-01  3900   0.850E-01    0.759E-02
DAV:   2    -0.851573013690E+03   -0.22661E-03   -0.30709E-03  3840   0.111E-01    0.593E-02
DAV:   3    -0.851572990838E+03    0.22851E-04   -0.68605E-05  4620   0.193E-02    0.447E-02
DAV:   4    -0.851573003430E+03   -0.12592E-04   -0.11154E-04  4180   0.247E-02    0.110E-02
DAV:   5    -0.851573005104E+03   -0.16734E-05   -0.24300E-05  4320   0.967E-03    0.699E-03
DAV:   6    -0.851573005121E+03   -0.17637E-07   -0.47487E-06  3600   0.505E-03
  61 F= -.85947935E+03 E0= -.85947935E+03  d E =-.683215E-03  mag=    -0.0000
       N       E                     dE             d eps       ncg     rms          rms(c)
DAV:   1    -0.851573595878E+03   -0.59077E-03   -0.23639E-01  3900   0.103E+00    0.917E-02
DAV:   2    -0.851573930676E+03   -0.33480E-03   -0.45176E-03  3860   0.134E-01    0.720E-02
DAV:   3    -0.851573897025E+03    0.33651E-04   -0.10121E-04  4700   0.234E-02    0.545E-02
DAV:   4    -0.851573915007E+03   -0.17983E-04   -0.17041E-04  4240   0.304E-02    0.136E-02
DAV:   5    -0.851573917145E+03   -0.21377E-05   -0.36209E-05  4300   0.119E-02    0.870E-03
DAV:   6    -0.851573917340E+03   -0.19500E-06   -0.75827E-06  3700   0.629E-03
  62 F= -.85948017E+03 E0= -.85948017E+03  d E =-.823796E-03  mag=    -0.0000
       N       E                     dE             d eps       ncg     rms          rms(c)
DAV:   1    -0.851574542283E+03   -0.62514E-03   -0.34733E-01  3900   0.126E+00    0.111E-01
DAV:   2    -0.851575043765E+03   -0.50148E-03   -0.66962E-03  3900   0.163E-01    0.869E-02
DAV:   3    -0.851574994167E+03    0.49599E-04   -0.14659E-04  4720   0.282E-02    0.659E-02
DAV:   4    -0.851575020934E+03   -0.26767E-04   -0.24780E-04  4420   0.366E-02    0.165E-02
DAV:   5    -0.851575024389E+03   -0.34556E-05   -0.50644E-05  4340   0.142E-02    0.106E-02
DAV:   6    -0.851575024655E+03   -0.26543E-06   -0.11637E-05  3660   0.787E-03    0.450E-03
DAV:   7    -0.851575024990E+03   -0.33546E-06   -0.16288E-06  2980   0.277E-03
  63 F= -.85948117E+03 E0= -.85948117E+03  d E =-.998835E-03  mag=     0.0000
       N       E                     dE             d eps       ncg     rms          rms(c)
DAV:   1    -0.851575650894E+03   -0.62624E-03   -0.52085E-01  3900   0.154E+00    0.136E-01
DAV:   2    -0.851576413914E+03   -0.76302E-03   -0.10096E-02  3900   0.200E-01    0.106E-01
DAV:   3    -0.851576336401E+03    0.77513E-04   -0.22017E-04  4700   0.345E-02    0.802E-02
DAV:   4    -0.851576367096E+03   -0.30695E-04   -0.35305E-04  4460   0.439E-02    0.203E-02
DAV:   5    -0.851576374130E+03   -0.70340E-05   -0.72883E-05  4340   0.169E-02    0.127E-02
DAV:   6    -0.851576374081E+03    0.48392E-07   -0.15973E-05  3660   0.942E-03    0.550E-03
DAV:   7    -0.851576374592E+03   -0.51101E-06   -0.27914E-06  3660   0.356E-03
  64 F= -.85948240E+03 E0= -.85948240E+03  d E =-.122450E-02  mag=    -0.0000
       N       E                     dE             d eps       ncg     rms          rms(c)
DAV:   1    -0.851576844131E+03   -0.47005E-03   -0.78597E-01  3900   0.189E+00    0.166E-01
DAV:   2    -0.851578035389E+03   -0.11913E-02   -0.15456E-02  3920   0.246E-01    0.129E-01
DAV:   3    -0.851577920538E+03    0.11485E-03   -0.32857E-04  4700   0.422E-02    0.979E-02
DAV:   4    -0.851577955953E+03   -0.35415E-04   -0.51603E-04  4460   0.536E-02    0.249E-02
DAV:   5    -0.851577966963E+03   -0.11010E-04   -0.10859E-04  4340   0.206E-02    0.155E-02
DAV:   6    -0.851577966772E+03    0.19060E-06   -0.23416E-05  3820   0.115E-02    0.671E-03
DAV:   7    -0.851577967545E+03   -0.77231E-06   -0.43408E-06  4360   0.435E-03
  65 F= -.85948384E+03 E0= -.85948384E+03  d E =-.144258E-02  mag=    -0.0000
       N       E                     dE             d eps       ncg     rms          rms(c)
DAV:   1    -0.851578162958E+03   -0.19619E-03   -0.10919E+00  3900   0.224E+00    0.194E-01
DAV:   2    -0.851579817900E+03   -0.16549E-02   -0.21325E-02  3940   0.290E-01    0.153E-01
DAV:   3    -0.851579650915E+03    0.16699E-03   -0.46256E-04  4760   0.500E-02    0.116E-01
DAV:   4    -0.851579682852E+03   -0.31937E-04   -0.75466E-04  4500   0.647E-02    0.302E-02
DAV:   5    -0.851579696816E+03   -0.13965E-04   -0.15742E-04  4320   0.250E-02    0.191E-02
DAV:   6    -0.851579696862E+03   -0.45977E-07   -0.36412E-05  3980   0.140E-02    0.795E-03
DAV:   7    -0.851579697977E+03   -0.11147E-05   -0.56714E-06  4360   0.495E-03    0.519E-03
DAV:   8    -0.851579698043E+03   -0.66117E-07   -0.13901E-06  3060   0.388E-03
  66 F= -.85948539E+03 E0= -.85948539E+03  d E =-.155566E-02  mag=    -0.0000
       N       E                     dE             d eps       ncg     rms          rms(c)
DAV:   1    -0.851579244533E+03    0.45344E-03   -0.15341E+00  3900   0.266E+00    0.229E-01
DAV:   2    -0.851581611355E+03   -0.23668E-02   -0.30322E-02  3940   0.346E-01    0.181E-01
DAV:   3    -0.851581369929E+03    0.24143E-03   -0.68555E-04  4760   0.606E-02    0.138E-01
DAV:   4    -0.851581370992E+03   -0.10627E-05   -0.99074E-04  4560   0.747E-02    0.373E-02
DAV:   5    -0.851581397199E+03   -0.26207E-04   -0.22666E-04  4280   0.291E-02    0.223E-02
DAV:   6    -0.851581396960E+03    0.23835E-06   -0.42851E-05  4120   0.151E-02    0.972E-03
DAV:   7    -0.851581398890E+03   -0.19293E-05   -0.81257E-06  4400   0.581E-03    0.577E-03
DAV:   8    -0.851581398887E+03    0.23647E-08   -0.18796E-06  3280   0.462E-03
  67 F= -.85948691E+03 E0= -.85948691E+03  d E =-.151460E-02  mag=    -0.0000
       N       E                     dE             d eps       ncg     rms          rms(c)
DAV:   1    -0.851579133826E+03    0.22651E-02   -0.20889E+00  3880   0.315E+00    0.269E-01
DAV:   2    -0.851582447746E+03   -0.33139E-02   -0.42410E-02  4000   0.414E-01    0.220E-01
DAV:   3    -0.851582066216E+03    0.38153E-03   -0.11081E-03  4860   0.744E-02    0.170E-01
DAV:   4    -0.851581960399E+03    0.10582E-03   -0.14300E-03  4440   0.907E-02    0.514E-02
DAV:   5    -0.851582007477E+03   -0.47078E-04   -0.35124E-04  4360   0.361E-02    0.293E-02
DAV:   6    -0.851582006916E+03    0.56133E-06   -0.70150E-05  4100   0.192E-02    0.118E-02
DAV:   7    -0.851582009084E+03   -0.21689E-05   -0.10259E-05  4420   0.665E-03    0.763E-03
DAV:   8    -0.851582009148E+03   -0.63817E-07   -0.30121E-06  3540   0.548E-03
  68 F= -.85948727E+03 E0= -.85948727E+03  d E =-.359136E-03  mag=    -0.0000
       N       E                     dE             d eps       ncg     rms          rms(c)
DAV:   1    -0.851583791749E+03   -0.17827E-02   -0.90140E-02  3840   0.694E-01    0.700E-02
DAV:   2    -0.851583960082E+03   -0.16833E-03   -0.24125E-03  4640   0.101E-01    0.638E-02
DAV:   3    -0.851583914437E+03    0.45645E-04   -0.12601E-04  4920   0.233E-02    0.488E-02
DAV:   4    -0.851583875274E+03    0.39163E-04   -0.84730E-05  4300   0.219E-02    0.223E-02
DAV:   5    -0.851583873020E+03    0.22544E-05   -0.28919E-05  4180   0.114E-02    0.895E-03
DAV:   6    -0.851583873269E+03   -0.24933E-06   -0.30991E-06  2980   0.392E-03
  69 F= -.85948914E+03 E0= -.85948914E+03  d E =-.186978E-02  mag=    -0.0000
       N       E                     dE             d eps       ncg     rms          rms(c)
DAV:   1    -0.851582465647E+03    0.14074E-02   -0.83769E-02  3840   0.672E-01    0.651E-02
DAV:   2    -0.851582632334E+03   -0.16669E-03   -0.22497E-03  4640   0.986E-02    0.589E-02
DAV:   3    -0.851582598775E+03    0.33559E-04   -0.10493E-04  4920   0.213E-02    0.462E-02
DAV:   4    -0.851582566867E+03    0.31908E-04   -0.78052E-05  4260   0.211E-02    0.205E-02
DAV:   5    -0.851582566217E+03    0.65009E-06   -0.25420E-05  4260   0.105E-02    0.902E-03
DAV:   6    -0.851582566416E+03   -0.19892E-06   -0.28999E-06  2980   0.371E-03
  70 F= -.85948782E+03 E0= -.85948782E+03  d E =0.132055E-02  mag=     0.0000
       N       E                     dE             d eps       ncg     rms          rms(c)
DAV:   1    -0.851583227008E+03   -0.66079E-03   -0.47750E-03  3840   0.160E-01    0.159E-02
DAV:   2    -0.851583235482E+03   -0.84743E-05   -0.12860E-04  4620   0.236E-02    0.148E-02
DAV:   3    -0.851583232985E+03    0.24965E-05   -0.64887E-06  4700   0.528E-03    0.115E-02
DAV:   4    -0.851583230462E+03    0.25236E-05   -0.46751E-06  3820   0.518E-03    0.526E-03
DAV:   5    -0.851583230237E+03    0.22483E-06   -0.17307E-06  2580   0.286E-03
  71 F= -.85948848E+03 E0= -.85948848E+03  d E =-.659706E-03  mag=     0.0000
       N       E                     dE             d eps       ncg     rms          rms(c)
DAV:   1    -0.851583911786E+03   -0.68132E-03   -0.15281E-02  3840   0.288E-01    0.282E-02
DAV:   2    -0.851583942068E+03   -0.30282E-04   -0.41232E-04  4640   0.423E-02    0.255E-02
DAV:   3    -0.851583935683E+03    0.63845E-05   -0.19056E-05  4880   0.902E-03    0.200E-02
DAV:   4    -0.851583929425E+03    0.62581E-05   -0.14052E-05  4240   0.897E-03    0.899E-03
DAV:   5    -0.851583929146E+03    0.27911E-06   -0.46293E-06  3340   0.461E-03
  72 F= -.85948917E+03 E0= -.85948917E+03  d E =-.689930E-03  mag=     0.0000
       N       E                     dE             d eps       ncg     rms          rms(c)
DAV:   1    -0.851584008899E+03   -0.79475E-04   -0.23752E-02  3840   0.358E-01    0.339E-02
DAV:   2    -0.851584057519E+03   -0.48620E-04   -0.63513E-04  4580   0.525E-02    0.299E-02
DAV:   3    -0.851584049369E+03    0.81501E-05   -0.26512E-05  4880   0.107E-02    0.236E-02
DAV:   4    -0.851584041710E+03    0.76591E-05   -0.19312E-05  4120   0.106E-02    0.105E-02
DAV:   5    -0.851584041661E+03    0.49135E-07   -0.66627E-06  4160   0.548E-03
  73 F= -.85948926E+03 E0= -.85948926E+03  d E =-.980644E-04  mag=    -0.0000
       N       E                     dE             d eps       ncg     rms          rms(c)
DAV:   1    -0.851583606858E+03    0.43485E-03   -0.26395E-02  3840   0.366E-01    0.333E-02
DAV:   2    -0.851583660964E+03   -0.54106E-04   -0.66895E-04  4380   0.524E-02    0.270E-02
DAV:   3    -0.851583655279E+03    0.56854E-05   -0.20867E-05  4860   0.964E-03    0.211E-02
DAV:   4    -0.851583651742E+03    0.35369E-05   -0.14859E-05  4000   0.951E-03    0.882E-03
DAV:   5    -0.851583652456E+03   -0.71470E-06   -0.52460E-06  3820   0.483E-03
  74 F= -.85948886E+03 E0= -.85948886E+03  d E =0.407818E-03  mag=    -0.0000
       N       E                     dE             d eps       ncg     rms          rms(c)
DAV:   1    -0.851583713726E+03   -0.61985E-04   -0.18695E-04  3980   0.311E-02    0.356E-03
DAV:   2    -0.851583714034E+03   -0.30803E-06   -0.49325E-06  3980   0.457E-03
  75 F= -.85948892E+03 E0= -.85948892E+03  d E =-.610577E-04  mag=    -0.0000
       N       E                     dE             d eps       ncg     rms          rms(c)
DAV:   1    -0.851583821309E+03   -0.10758E-03   -0.71191E-04  3880   0.608E-02    0.713E-03
DAV:   2    -0.851583822447E+03   -0.11377E-05   -0.18161E-05  4600   0.874E-03    0.605E-03
DAV:   3    -0.851583822104E+03    0.34232E-06   -0.69740E-07  2240   0.203E-03
  76 F= -.85948902E+03 E0= -.85948902E+03  d E =-.106960E-03  mag=     0.0000
       N       E                     dE             d eps       ncg     rms          rms(c)
DAV:   1    -0.851583947532E+03   -0.12509E-03   -0.14818E-03  3840   0.875E-02    0.875E-03
DAV:   2    -0.851583950340E+03   -0.28071E-05   -0.35685E-05  4560   0.121E-02    0.733E-03
DAV:   3    -0.851583949988E+03    0.35191E-06   -0.92207E-07  2540   0.231E-03
  77 F= -.85948915E+03 E0= -.85948915E+03  d E =-.126108E-03  mag=    -0.0000
       N       E                     dE             d eps       ncg     rms          rms(c)
DAV:   1    -0.851584061008E+03   -0.11067E-03   -0.24377E-03  3840   0.112E-01    0.108E-02
DAV:   2    -0.851584065722E+03   -0.47145E-05   -0.58614E-05  4540   0.155E-02    0.896E-03
DAV:   3    -0.851584065229E+03    0.49312E-06   -0.15678E-06  3040   0.288E-03
  78 F= -.85948926E+03 E0= -.85948926E+03  d E =-.112613E-03  mag=    -0.0000
       N       E                     dE             d eps       ncg     rms          rms(c)
DAV:   1    -0.851584134793E+03   -0.69070E-04   -0.34551E-03  3840   0.132E-01    0.129E-02
DAV:   2    -0.851584141319E+03   -0.65262E-05   -0.81464E-05  4440   0.181E-02    0.105E-02
DAV:   3    -0.851584140689E+03    0.63052E-06   -0.21495E-06  3420   0.332E-03
  79 F= -.85948934E+03 E0= -.85948934E+03  d E =-.719725E-04  mag=    -0.0000
       N       E                     dE             d eps       ncg     rms          rms(c)
DAV:   1    -0.851584157826E+03   -0.16507E-04   -0.44434E-03  3860   0.148E-01    0.145E-02
DAV:   2    -0.851584166023E+03   -0.81973E-05   -0.10232E-04  4280   0.200E-02    0.115E-02
DAV:   3    -0.851584165368E+03    0.65495E-06   -0.26112E-06  3700   0.361E-03
  80 F= -.85948936E+03 E0= -.85948936E+03  d E =-.201912E-04  mag=     0.0000
       N       E                     dE             d eps       ncg     rms          rms(c)
DAV:   1    -0.851584131517E+03    0.34507E-04   -0.65823E-03  3860   0.177E-01    0.171E-02
DAV:   2    -0.851584143585E+03   -0.12068E-04   -0.14932E-04  4180   0.238E-02    0.131E-02
DAV:   3    -0.851584142864E+03    0.72125E-06   -0.32455E-06  3960   0.402E-03
  81 F= -.85948933E+03 E0= -.85948933E+03  d E =0.286966E-04  mag=     0.0000
       N       E                     dE             d eps       ncg     rms          rms(c)
DAV:   1    -0.851584081484E+03    0.62101E-04   -0.93917E-03  3880   0.208E-01    0.198E-02
DAV:   2    -0.851584098367E+03   -0.16883E-04   -0.20738E-04  3960   0.274E-02    0.145E-02
DAV:   3    -0.851584097703E+03    0.66424E-06   -0.35867E-06  4120   0.427E-03
  82 F= -.85948927E+03 E0= -.85948927E+03  d E =0.534645E-04  mag=    -0.0000
       N       E                     dE             d eps       ncg     rms          rms(c)
DAV:   1    -0.851584053191E+03    0.45176E-04   -0.13233E-02  3880   0.243E-01    0.227E-02
DAV:   2    -0.851584076814E+03   -0.23623E-04   -0.28708E-04  3840   0.317E-02    0.160E-02
DAV:   3    -0.851584076239E+03    0.57496E-06   -0.39971E-06  4120   0.456E-03
  83 F= -.85948924E+03 E0= -.85948924E+03  d E =0.322887E-04  mag=    -0.0000
       N       E                     dE             d eps       ncg     rms          rms(c)
DAV:   1    -0.851584092759E+03   -0.15945E-04   -0.18891E-02  3880   0.290E-01    0.265E-02
DAV:   2    -0.851584126754E+03   -0.33995E-04   -0.40883E-04  3840   0.377E-02    0.183E-02
DAV:   3    -0.851584126019E+03    0.73483E-06   -0.54049E-06  4400   0.526E-03
  84 F= -.85948928E+03 E0= -.85948928E+03  d E =-.359244E-04  mag=     0.0000
       N       E                     dE             d eps       ncg     rms          rms(c)
DAV:   1    -0.851584197592E+03   -0.70838E-04   -0.27470E-02  3880   0.352E-01    0.318E-02
DAV:   2    -0.851584247650E+03   -0.50058E-04   -0.59980E-04  3840   0.460E-02    0.223E-02
DAV:   3    -0.851584246244E+03    0.14063E-05   -0.87331E-06  4700   0.657E-03    0.173E-02
DAV:   4    -0.851584250592E+03   -0.43480E-05   -0.10639E-05  3700   0.787E-03    0.402E-03
DAV:   5    -0.851584251002E+03   -0.40993E-06   -0.24686E-06  3540   0.313E-03
  85 F= -.85948938E+03 E0= -.85948938E+03  d E =-.107453E-03  mag=     0.0000
       N       E                     dE             d eps       ncg     rms          rms(c)
DAV:   1    -0.851584295900E+03   -0.45308E-04   -0.40812E-02  3880   0.432E-01    0.372E-02
DAV:   2    -0.851584376609E+03   -0.80709E-04   -0.94756E-04  3840   0.586E-02    0.265E-02
DAV:   3    -0.851584372814E+03    0.37954E-05   -0.14934E-05  4820   0.856E-03    0.207E-02
DAV:   4    -0.851584375890E+03   -0.30765E-05   -0.19830E-05  3800   0.106E-02    0.574E-03
DAV:   5    -0.851584376673E+03   -0.78299E-06   -0.44381E-06  4020   0.419E-03
  86 F= -.85948949E+03 E0= -.85948949E+03  d E =-.103781E-03  mag=    -0.0000
       N       E                     dE             d eps       ncg     rms          rms(c)
DAV:   1    -0.851584313905E+03    0.61986E-04   -0.58093E-02  3880   0.515E-01    0.441E-02
DAV:   2    -0.851584428906E+03   -0.11500E-03   -0.13452E-03  3840   0.697E-02    0.315E-02
DAV:   3    -0.851584423520E+03    0.53857E-05   -0.20845E-05  4800   0.101E-02    0.246E-02
DAV:   4    -0.851584427866E+03   -0.43457E-05   -0.29009E-05  3880   0.128E-02    0.674E-03
DAV:   5    -0.851584428837E+03   -0.97039E-06   -0.63438E-06  4140   0.503E-03
  87 F= -.85948951E+03 E0= -.85948951E+03  d E =-.251528E-04  mag=    -0.0000
       N       E                     dE             d eps       ncg     rms          rms(c)
DAV:   1    -0.851584312306E+03    0.11556E-03   -0.76354E-02  3900   0.586E-01    0.501E-02
DAV:   2    -0.851584461804E+03   -0.14950E-03   -0.17406E-03  3860   0.785E-02    0.351E-02
DAV:   3    -0.851584455576E+03    0.62283E-05   -0.24212E-05  4680   0.111E-02    0.273E-02
DAV:   4    -0.851584462719E+03   -0.71428E-05   -0.38910E-05  3980   0.147E-02    0.678E-03
DAV:   5    -0.851584463322E+03   -0.60337E-06   -0.76449E-06  4380   0.562E-03
  88 F= -.85948952E+03 E0= -.85948952E+03  d E =-.342975E-05  mag=    -0.0000
       N       E                     dE             d eps       ncg     rms          rms(c)
DAV:   1    -0.851584418642E+03    0.44077E-04   -0.96561E-02  3900   0.658E-01    0.561E-02
DAV:   2    -0.851584606793E+03   -0.18815E-03   -0.21876E-03  3860   0.879E-02    0.393E-02
DAV:   3    -0.851584598971E+03    0.78216E-05   -0.30045E-05  4700   0.124E-02    0.305E-02
DAV:   4    -0.851584607832E+03   -0.88609E-05   -0.49328E-05  4060   0.165E-02    0.726E-03
DAV:   5    -0.851584608419E+03   -0.58669E-06   -0.95323E-06  4380   0.630E-03
  89 F= -.85948963E+03 E0= -.85948963E+03  d E =-.112182E-03  mag=    -0.0000
       N       E                     dE             d eps       ncg     rms          rms(c)
DAV:   1    -0.851584567612E+03    0.40220E-04   -0.12359E-01  3900   0.748E-01    0.635E-02
DAV:   2    -0.851584808421E+03   -0.24081E-03   -0.28122E-03  3880   0.101E-01    0.455E-02
DAV:   3    -0.851584796936E+03    0.11484E-04   -0.43229E-05  4800   0.148E-02    0.353E-02
DAV:   4    -0.851584805027E+03   -0.80902E-05   -0.62242E-05  4140   0.189E-02    0.891E-03
DAV:   5    -0.851584806666E+03   -0.16399E-05   -0.13442E-05  4320   0.730E-03    0.583E-03
DAV:   6    -0.851584806524E+03    0.14191E-06   -0.35313E-06  3500   0.454E-03
  90 F= -.85948979E+03 E0= -.85948979E+03  d E =-.163500E-03  mag=    -0.0000
       N       E                     dE             d eps       ncg     rms          rms(c)
DAV:   1    -0.851584665338E+03    0.14133E-03   -0.15625E-01  3900   0.840E-01    0.699E-02
DAV:   2    -0.851584964048E+03   -0.29871E-03   -0.34975E-03  3900   0.112E-01    0.501E-02
DAV:   3    -0.851584949307E+03    0.14741E-04   -0.53347E-05  4780   0.164E-02    0.387E-02
DAV:   4    -0.851584958625E+03   -0.93183E-05   -0.77655E-05  4380   0.208E-02    0.950E-03
DAV:   5    -0.851584960278E+03   -0.16533E-05   -0.15912E-05  4320   0.789E-03    0.602E-03
DAV:   6    -0.851584960219E+03    0.59314E-07   -0.35769E-06  3600   0.446E-03
  91 F= -.85948991E+03 E0= -.85948991E+03  d E =-.115270E-03  mag=    -0.0000
       N       E                     dE             d eps       ncg     rms          rms(c)
DAV:   1    -0.851584942126E+03    0.18152E-04   -0.18146E-01  3920   0.902E-01    0.746E-02
DAV:   2    -0.851585280515E+03   -0.33839E-03   -0.39937E-03  3900   0.119E-01    0.536E-02
DAV:   3    -0.851585263891E+03    0.16624E-04   -0.60678E-05  4780   0.175E-02    0.414E-02
DAV:   4    -0.851585274851E+03   -0.10959E-04   -0.91005E-05  4420   0.224E-02    0.989E-03
DAV:   5    -0.851585276524E+03   -0.16737E-05   -0.17543E-05  4400   0.828E-03    0.630E-03
DAV:   6    -0.851585276411E+03    0.11327E-06   -0.40430E-06  3580   0.487E-03
  92 F= -.85949018E+03 E0= -.85949018E+03  d E =-.270767E-03  mag=    -0.0000
       N       E                     dE             d eps       ncg     rms          rms(c)
DAV:   1    -0.851585273792E+03    0.27320E-05   -0.21639E-01  3920   0.990E-01    0.812E-02
DAV:   2    -0.851585672742E+03   -0.39895E-03   -0.47564E-03  3900   0.131E-01    0.600E-02
DAV:   3    -0.851585649670E+03    0.23072E-04   -0.81345E-05  4820   0.200E-02    0.464E-02
DAV:   4    -0.851585658007E+03   -0.83369E-05   -0.10871E-04  4400   0.249E-02    0.123E-02
DAV:   5    -0.851585661420E+03   -0.34136E-05   -0.23452E-05  4380   0.930E-03    0.743E-03
DAV:   6    -0.851585661244E+03    0.17671E-06   -0.50614E-06  3640   0.550E-03
  93 F= -.85949051E+03 E0= -.85949051E+03  d E =-.327296E-03  mag=    -0.0000
       N       E                     dE             d eps       ncg     rms          rms(c)
DAV:   1    -0.851585695530E+03   -0.34110E-04   -0.24388E-01  3920   0.105E+00    0.851E-02
DAV:   2    -0.851586135869E+03   -0.44034E-03   -0.52856E-03  3860   0.138E-01    0.629E-02
DAV:   3    -0.851586111072E+03    0.24797E-04   -0.86551E-05  4760   0.210E-02    0.485E-02
DAV:   4    -0.851586124335E+03   -0.13264E-04   -0.12830E-04  4420   0.270E-02    0.120E-02
DAV:   5    -0.851586126929E+03   -0.25938E-05   -0.25550E-05  4400   0.994E-03    0.743E-03
DAV:   6    -0.851586126843E+03    0.86126E-07   -0.53088E-06  3620   0.568E-03
  94 F= -.85949090E+03 E0= -.85949090E+03  d E =-.396168E-03  mag=    -0.0000
       N       E                     dE             d eps       ncg     rms          rms(c)
DAV:   1    -0.851586278320E+03   -0.15139E-03   -0.27158E-01  3920   0.112E+00    0.903E-02
DAV:   2    -0.851586762821E+03   -0.48450E-03   -0.59100E-03  3900   0.149E-01    0.685E-02
DAV:   3    -0.851586732532E+03    0.30289E-04   -0.10678E-04  4820   0.235E-02    0.528E-02
DAV:   4    -0.851586742982E+03   -0.10450E-04   -0.14535E-04  4440   0.293E-02    0.140E-02
DAV:   5    -0.851586747135E+03   -0.41526E-05   -0.32017E-05  4340   0.109E-02    0.827E-03
DAV:   6    -0.851586747137E+03   -0.23720E-08   -0.58510E-06  3660   0.601E-03
  95 F= -.85949144E+03 E0= -.85949144E+03  d E =-.539871E-03  mag=    -0.0000
       N       E                     dE             d eps       ncg     rms          rms(c)
DAV:   1    -0.851586919993E+03   -0.17286E-03   -0.29456E-01  3920   0.118E+00    0.956E-02
DAV:   2    -0.851587422699E+03   -0.50271E-03   -0.62805E-03  3860   0.158E-01    0.731E-02
DAV:   3    -0.851587387504E+03    0.35195E-04   -0.11912E-04  4740   0.253E-02    0.560E-02
DAV:   4    -0.851587401049E+03   -0.13545E-04   -0.16105E-04  4440   0.311E-02    0.151E-02
DAV:   5    -0.851587406309E+03   -0.52603E-05   -0.35367E-05  4400   0.116E-02    0.884E-03
DAV:   6    -0.851587406129E+03    0.18028E-06   -0.67294E-06  3640   0.669E-03
  96 F= -.85949201E+03 E0= -.85949201E+03  d E =-.567315E-03  mag=    -0.0000
       N       E                     dE             d eps       ncg     rms          rms(c)
DAV:   1    -0.851587766914E+03   -0.36061E-03   -0.33935E-01  3920   0.128E+00    0.106E-01
DAV:   2    -0.851588318306E+03   -0.55139E-03   -0.70898E-03  3840   0.173E-01    0.835E-02
DAV:   3    -0.851588268880E+03    0.49426E-04   -0.15367E-04  4720   0.290E-02    0.640E-02
DAV:   4    -0.851588279113E+03   -0.10233E-04   -0.20229E-04  4460   0.351E-02    0.182E-02
DAV:   5    -0.851588286980E+03   -0.78673E-05   -0.47721E-05  4340   0.134E-02    0.104E-02
DAV:   6    -0.851588286573E+03    0.40684E-06   -0.94217E-06  3680   0.807E-03
  97 F= -.85949278E+03 E0= -.85949278E+03  d E =-.775559E-03  mag=    -0.0000
       N       E                     dE             d eps       ncg     rms          rms(c)
DAV:   1    -0.851588739933E+03   -0.45295E-03   -0.42504E-01  3920   0.143E+00    0.123E-01
DAV:   2    -0.851589381518E+03   -0.64159E-03   -0.84793E-03  3880   0.190E-01    0.977E-02
DAV:   3    -0.851589312677E+03    0.68841E-04   -0.19342E-04  4540   0.332E-02    0.739E-02
DAV:   4    -0.851589330825E+03   -0.18148E-04   -0.28627E-04  4520   0.408E-02    0.199E-02
DAV:   5    -0.851589338419E+03   -0.75938E-05   -0.63346E-05  4280   0.157E-02    0.119E-02
DAV:   6    -0.851589338008E+03    0.41023E-06   -0.13493E-05  3740   0.924E-03    0.509E-03
DAV:   7    -0.851589338578E+03   -0.56950E-06   -0.29952E-06  3860   0.367E-03
  98 F= -.85949371E+03 E0= -.85949371E+03  d E =-.930262E-03  mag=    -0.0000
       N       E                     dE             d eps       ncg     rms          rms(c)
DAV:   1    -0.851589747899E+03   -0.40989E-03   -0.59558E-01  3920   0.167E+00    0.150E-01
DAV:   2    -0.851590611075E+03   -0.86318E-03   -0.11601E-02  3940   0.221E-01    0.121E-01
DAV:   3    -0.851590500339E+03    0.11074E-03   -0.29467E-04  4540   0.406E-02    0.907E-02
DAV:   4    -0.851590515450E+03   -0.15111E-04   -0.41246E-04  4520   0.483E-02    0.252E-02
DAV:   5    -0.851590527400E+03   -0.11950E-04   -0.97811E-05  4300   0.192E-02    0.146E-02
DAV:   6    -0.851590526756E+03    0.64327E-06   -0.19831E-05  3980   0.106E-02    0.637E-03
DAV:   7    -0.851590527364E+03   -0.60738E-06   -0.40041E-06  4260   0.415E-03
  99 F= -.85949476E+03 E0= -.85949476E+03  d E =-.104189E-02  mag=     0.0000
       N       E                     dE             d eps       ncg     rms          rms(c)
DAV:   1    -0.851590873090E+03   -0.34633E-03   -0.83958E-01  3880   0.197E+00    0.181E-01
DAV:   2    -0.851592052751E+03   -0.11797E-02   -0.16018E-02  3940   0.258E-01    0.148E-01
DAV:   3    -0.851591885545E+03    0.16721E-03   -0.43841E-04  4720   0.491E-02    0.111E-01
DAV:   4    -0.851591893208E+03   -0.76623E-05   -0.60245E-04  4460   0.584E-02    0.315E-02
DAV:   5    -0.851591910389E+03   -0.17182E-04   -0.14657E-04  4320   0.235E-02    0.180E-02
DAV:   6    -0.851591909597E+03    0.79264E-06   -0.31246E-05  4140   0.134E-02    0.777E-03
DAV:   7    -0.851591910209E+03   -0.61282E-06   -0.54642E-06  4380   0.483E-03
 100 F= -.85949596E+03 E0= -.85949596E+03  d E =-.120336E-02  mag=    -0.0000
       N       E                     dE             d eps       ncg     rms          rms(c)
DAV:   1    -0.851591937080E+03   -0.27483E-04   -0.11099E+00  3900   0.227E+00    0.208E-01
DAV:   2    -0.851593448677E+03   -0.15116E-02   -0.20826E-02  3940   0.296E-01    0.173E-01
DAV:   3    -0.851593208242E+03    0.24044E-03   -0.62944E-04  4740   0.582E-02    0.129E-01
DAV:   4    -0.851593193282E+03    0.14960E-04   -0.80573E-04  4420   0.673E-02    0.381E-02
DAV:   5    -0.851593216712E+03   -0.23429E-04   -0.20390E-04  4280   0.275E-02    0.210E-02
DAV:   6    -0.851593216300E+03    0.41209E-06   -0.39767E-05  4160   0.146E-02    0.912E-03
DAV:   7    -0.851593216927E+03   -0.62692E-06   -0.66399E-06  4420   0.535E-03
 101 F= -.85949705E+03 E0= -.85949705E+03  d E =-.109438E-02  mag=    -0.0000
       N       E                     dE             d eps       ncg     rms          rms(c)
DAV:   1    -0.851593691817E+03   -0.47552E-03   -0.17653E-02  3840   0.308E-01    0.300E-02
DAV:   2    -0.851593725802E+03   -0.33985E-04   -0.47546E-04  4680   0.454E-02    0.277E-02
DAV:   3    -0.851593718112E+03    0.76899E-05   -0.21920E-05  4960   0.968E-03    0.219E-02
DAV:   4    -0.851593709746E+03    0.83659E-05   -0.16377E-05  4220   0.977E-03    0.971E-03
DAV:   5    -0.851593709310E+03    0.43624E-06   -0.64233E-06  3960   0.534E-03
 102 F= -.85949754E+03 E0= -.85949754E+03  d E =-.485344E-03  mag=     0.0000
       N       E                     dE             d eps       ncg     rms          rms(c)
DAV:   1    -0.851593520448E+03    0.18930E-03   -0.26894E-02  3840   0.381E-01    0.352E-02
DAV:   2    -0.851593575642E+03   -0.55194E-04   -0.71396E-04  4640   0.557E-02    0.315E-02
DAV:   3    -0.851593566979E+03    0.86627E-05   -0.28415E-05  4940   0.111E-02    0.252E-02
DAV:   4    -0.851593557890E+03    0.90892E-05   -0.22140E-05  4120   0.115E-02    0.107E-02
DAV:   5    -0.851593557926E+03   -0.36249E-07   -0.80306E-06  4220   0.590E-03
 103 F= -.85949737E+03 E0= -.85949737E+03  d E =0.167237E-03  mag=    -0.0000
       N       E                     dE             d eps       ncg     rms          rms(c)
DAV:   1    -0.851593674438E+03   -0.11655E-03   -0.76372E-04  3860   0.641E-02    0.626E-03
DAV:   2    -0.851593675831E+03   -0.13923E-05   -0.21274E-05  4680   0.959E-03    0.575E-03
DAV:   3    -0.851593675422E+03    0.40863E-06   -0.85264E-07  2180   0.219E-03
 104 F= -.85949749E+03 E0= -.85949749E+03  d E =-.116486E-03  mag=    -0.0000
       N       E                     dE             d eps       ncg     rms          rms(c)
DAV:   1    -0.851593818197E+03   -0.14237E-03   -0.26427E-03  3840   0.119E-01    0.122E-02
DAV:   2    -0.851593823042E+03   -0.48455E-05   -0.66681E-05  4700   0.171E-02    0.109E-02
DAV:   3    -0.851593821928E+03    0.11144E-05   -0.27057E-06  3340   0.365E-03    0.853E-03
DAV:   4    -0.851593820975E+03    0.95227E-06   -0.36789E-06  3660   0.453E-03
 105 F= -.85949763E+03 E0= -.85949763E+03  d E =-.143067E-03  mag=     0.0000
       N       E                     dE             d eps       ncg     rms          rms(c)
DAV:   1    -0.851593885982E+03   -0.64054E-04   -0.49758E-03  3860   0.162E-01    0.152E-02
DAV:   2    -0.851593896045E+03   -0.10063E-04   -0.12700E-04  4540   0.234E-02    0.133E-02
DAV:   3    -0.851593894652E+03    0.13931E-05   -0.44212E-06  4100   0.456E-03    0.106E-02
DAV:   4    -0.851593893439E+03    0.12126E-05   -0.44665E-06  3720   0.509E-03    0.413E-03
DAV:   5    -0.851593893518E+03   -0.79286E-07   -0.11935E-06  2620   0.230E-03
 106 F= -.85949770E+03 E0= -.85949770E+03  d E =-.677314E-04  mag=     0.0000
       N       E                     dE             d eps       ncg     rms          rms(c)
DAV:   1    -0.851593865107E+03    0.28332E-04   -0.73109E-03  3880   0.191E-01    0.169E-02
DAV:   2    -0.851593880038E+03   -0.14930E-04   -0.18055E-04  4320   0.271E-02    0.134E-02
DAV:   3    -0.851593878662E+03    0.13755E-05   -0.49868E-06  4320   0.489E-03    0.104E-02
DAV:   4    -0.851593877976E+03    0.68648E-06   -0.40576E-06  3680   0.491E-03
 107 F= -.85949768E+03 E0= -.85949768E+03  d E =0.232492E-04  mag=     0.0000
       N       E                     dE             d eps       ncg     rms          rms(c)
DAV:   1    -0.851593833100E+03    0.45562E-04   -0.10704E-02  3880   0.222E-01    0.202E-02
DAV:   2    -0.851593853649E+03   -0.20548E-04   -0.24383E-04  3900   0.301E-02    0.145E-02
DAV:   3    -0.851593852577E+03    0.10716E-05   -0.44019E-06  4260   0.480E-03    0.110E-02
DAV:   4    -0.851593853053E+03   -0.47567E-06   -0.39759E-06  3560   0.500E-03
 108 F= -.85949764E+03 E0= -.85949764E+03  d E =0.357905E-04  mag=     0.0000
       N       E                     dE             d eps       ncg     rms          rms(c)
DAV:   1    -0.851593871197E+03   -0.18619E-04   -0.15366E-02  3880   0.262E-01    0.235E-02
DAV:   2    -0.851593900629E+03   -0.29432E-04   -0.34478E-04  3840   0.350E-02    0.159E-02
DAV:   3    -0.851593899561E+03    0.10676E-05   -0.49635E-06  4300   0.513E-03    0.121E-02
DAV:   4    -0.851593900885E+03   -0.13243E-05   -0.48535E-06  3560   0.543E-03    0.331E-03
DAV:   5    -0.851593901195E+03   -0.30965E-06   -0.12912E-06  3080   0.222E-03
 109 F= -.85949767E+03 E0= -.85949767E+03  d E =-.340212E-04  mag=     0.0000
       N       E                     dE             d eps       ncg     rms          rms(c)
DAV:   1    -0.851593991221E+03   -0.90335E-04   -0.27130E-02  3880   0.351E-01    0.307E-02
DAV:   2    -0.851594044908E+03   -0.53687E-04   -0.62695E-04  3840   0.477E-02    0.212E-02
DAV:   3    -0.851594042367E+03    0.25406E-05   -0.96408E-06  4660   0.704E-03    0.163E-02
DAV:   4    -0.851594043721E+03   -0.13542E-05   -0.10300E-05  3700   0.790E-03    0.455E-03
DAV:   5    -0.851594044293E+03   -0.57214E-06   -0.27648E-06  3660   0.322E-03
 110 F= -.85949780E+03 E0= -.85949780E+03  d E =-.124081E-03  mag=     0.0000
       N       E                     dE             d eps       ncg     rms          rms(c)
DAV:   1    -0.851594114761E+03   -0.71039E-04   -0.46205E-02  3880   0.462E-01    0.398E-02
DAV:   2    -0.851594207561E+03   -0.92801E-04   -0.10814E-03  3840   0.630E-02    0.282E-02
DAV:   3    -0.851594203011E+03    0.45502E-05   -0.17459E-05  4820   0.930E-03    0.220E-02
DAV:   4    -0.851594204955E+03   -0.19443E-05   -0.19829E-05  3760   0.109E-02    0.617E-03
DAV:   5    -0.851594205913E+03   -0.95747E-06   -0.51443E-06  4140   0.443E-03
 111 F= -.85949794E+03 E0= -.85949794E+03  d E =-.136700E-03  mag=     0.0000
       N       E                     dE             d eps       ncg     rms          rms(c)
DAV:   1    -0.851594159438E+03    0.45518E-04   -0.73127E-02  3880   0.580E-01    0.494E-02
DAV:   2    -0.851594306802E+03   -0.14736E-03   -0.17057E-03  3840   0.787E-02    0.348E-02
DAV:   3    -0.851594300453E+03    0.63484E-05   -0.25116E-05  4800   0.112E-02    0.272E-02
DAV:   4    -0.851594305120E+03   -0.46665E-05   -0.33993E-05  3840   0.140E-02    0.714E-03
DAV:   5    -0.851594306145E+03   -0.10250E-05   -0.76262E-06  4340   0.552E-03    0.469E-03
DAV:   6    -0.851594305966E+03    0.17879E-06   -0.19772E-06  3240   0.341E-03
 112 F= -.85949800E+03 E0= -.85949800E+03  d E =-.687668E-04  mag=    -0.0000
       N       E                     dE             d eps       ncg     rms          rms(c)
DAV:   1    -0.851594240525E+03    0.65620E-04   -0.10579E-01  3900   0.693E-01    0.578E-02
DAV:   2    -0.851594452078E+03   -0.21155E-03   -0.24335E-03  3840   0.930E-02    0.400E-02
DAV:   3    -0.851594443554E+03    0.85232E-05   -0.31689E-05  4740   0.128E-02    0.312E-02
DAV:   4    -0.851594452702E+03   -0.91475E-05   -0.51831E-05  3960   0.168E-02    0.781E-03
DAV:   5    -0.851594453178E+03   -0.47666E-06   -0.98936E-06  4380   0.655E-03
 113 F= -.85949811E+03 E0= -.85949811E+03  d E =-.110212E-03  mag=    -0.0000
       N       E                     dE             d eps       ncg     rms          rms(c)
DAV:   1    -0.851594431105E+03    0.21597E-04   -0.14905E-01  3900   0.824E-01    0.686E-02
DAV:   2    -0.851594732175E+03   -0.30107E-03   -0.34650E-03  3840   0.111E-01    0.481E-02
DAV:   3    -0.851594719383E+03    0.12792E-04   -0.47114E-05  4800   0.156E-02    0.376E-02
DAV:   4    -0.851594732537E+03   -0.13154E-04   -0.74285E-05  4200   0.203E-02    0.988E-03
DAV:   5    -0.851594733512E+03   -0.97533E-06   -0.14622E-05  4340   0.799E-03    0.657E-03
DAV:   6    -0.851594733488E+03    0.24549E-07   -0.54179E-06  3720   0.518E-03
 114 F= -.85949835E+03 E0= -.85949835E+03  d E =-.239001E-03  mag=     0.0000
       N       E                     dE             d eps       ncg     rms          rms(c)
DAV:   1    -0.851594565902E+03    0.16761E-03   -0.20650E-01  3880   0.972E-01    0.793E-02
DAV:   2    -0.851594982793E+03   -0.41689E-03   -0.48052E-03  3840   0.131E-01    0.556E-02
DAV:   3    -0.851594964963E+03    0.17830E-04   -0.67028E-05  4800   0.184E-02    0.435E-02
DAV:   4    -0.851594980602E+03   -0.15638E-04   -0.94509E-05  4300   0.233E-02    0.111E-02
DAV:   5    -0.851594982819E+03   -0.22167E-05   -0.20135E-05  4320   0.906E-03    0.715E-03
DAV:   6    -0.851594982703E+03    0.11587E-06   -0.55613E-06  3800   0.543E-03
 115 F= -.85949855E+03 E0= -.85949855E+03  d E =-.200211E-03  mag=     0.0000
       N       E                     dE             d eps       ncg     rms          rms(c)
DAV:   1    -0.851594885139E+03    0.97680E-04   -0.23825E-01  3900   0.104E+00    0.840E-02
DAV:   2    -0.851595359819E+03   -0.47468E-03   -0.54972E-03  3860   0.139E-01    0.579E-02
DAV:   3    -0.851595340693E+03    0.19126E-04   -0.72561E-05  4740   0.192E-02    0.452E-02
DAV:   4    -0.851595362288E+03   -0.21595E-04   -0.10604E-04  4380   0.248E-02    0.106E-02
DAV:   5    -0.851595364223E+03   -0.19358E-05   -0.21131E-05  4400   0.922E-03    0.699E-03
DAV:   6    -0.851595363995E+03    0.22841E-06   -0.48000E-06  3700   0.537E-03
 116 F= -.85949888E+03 E0= -.85949888E+03  d E =-.326462E-03  mag=    -0.0000
       N       E                     dE             d eps       ncg     rms          rms(c)
DAV:   1    -0.851595274285E+03    0.89939E-04   -0.26036E-01  3900   0.109E+00    0.869E-02
DAV:   2    -0.851595789511E+03   -0.51523E-03   -0.60275E-03  3880   0.147E-01    0.621E-02
DAV:   3    -0.851595765483E+03    0.24028E-04   -0.91986E-05  4840   0.212E-02    0.486E-02
DAV:   4    -0.851595780801E+03   -0.15318E-04   -0.11106E-04  4420   0.261E-02    0.133E-02
DAV:   5    -0.851595785680E+03   -0.48796E-05   -0.26237E-05  4460   0.988E-03    0.791E-03
DAV:   6    -0.851595785335E+03    0.34510E-06   -0.53399E-06  3660   0.591E-03
 117 F= -.85949924E+03 E0= -.85949924E+03  d E =-.363227E-03  mag=     0.0000
       N       E                     dE             d eps       ncg     rms          rms(c)
DAV:   1    -0.851595811907E+03   -0.26227E-04   -0.29548E-04  4000   0.378E-02    0.408E-03
DAV:   2    -0.851595812416E+03   -0.50860E-06   -0.71612E-06  4380   0.544E-03
 118 F= -.85949927E+03 E0= -.85949927E+03  d E =-.278857E-04  mag=     0.0000
       N       E                     dE             d eps       ncg     rms          rms(c)
DAV:   1    -0.851595850952E+03   -0.39045E-04   -0.10184E-03  3840   0.699E-02    0.871E-03
DAV:   2    -0.851595852325E+03   -0.13729E-05   -0.23256E-05  4440   0.978E-03    0.726E-03
DAV:   3    -0.851595851839E+03    0.48557E-06   -0.89741E-07  2500   0.237E-03
 119 F= -.85949931E+03 E0= -.85949931E+03  d E =-.408680E-04  mag=    -0.0000
       N       E                     dE             d eps       ncg     rms          rms(c)
DAV:   1    -0.851595887905E+03   -0.35580E-04   -0.18005E-03  3840   0.924E-02    0.994E-03
DAV:   2    -0.851595890707E+03   -0.28023E-05   -0.37701E-05  4320   0.123E-02    0.792E-03
DAV:   3    -0.851595890379E+03    0.32801E-06   -0.94229E-07  2760   0.241E-03
 120 F= -.85949935E+03 E0= -.85949935E+03  d E =-.402342E-04  mag=    -0.0000
       N       E                     dE             d eps       ncg     rms          rms(c)
DAV:   1    -0.851595925001E+03   -0.34295E-04   -0.24147E-03  3860   0.106E-01    0.112E-02
DAV:   2    -0.851595928631E+03   -0.36296E-05   -0.48717E-05  4220   0.140E-02    0.868E-03
DAV:   3    -0.851595928320E+03    0.31079E-06   -0.11183E-06  2940   0.263E-03
 121 F= -.85949939E+03 E0= -.85949939E+03  d E =-.393077E-04  mag=    -0.0000
