<?xml version="1.0" encoding="ISO-8859-1"?>
<modeling>
 <generator>
  <i name="program" type="string">vasp </i>
  <i name="version" type="string">6.4.2  </i>
  <i name="subversion" type="string">20Jul23 (build Aug 26 2025 15:10:52) complex                          parallel </i>
  <i name="platform" type="string">LinuxIFC </i>
  <i name="date" type="string">2025 12 02 </i>
  <i name="time" type="string">12:36:19 </i>
 </generator>
 <incar>
  <i type="int" name="ISTART">     0</i>
  <i type="string" name="ALGO">Normal</i>
  <i type="logical" name="ADDGRID"> T  </i>
  <i type="int" name="ISPIN">     2</i>
  <i type="int" name="IMIX">     4</i>
  <i name="AMIX">      0.20000000</i>
  <i name="BMIX">      0.00010000</i>
  <i name="AMIX_MAG">      0.80000000</i>
  <i name="BMIX_MAG">      0.00010000</i>
  <i type="int" name="ICHARG">     2</i>
  <i type="int" name="NELM">   200</i>
  <i type="int" name="IBRION">     3</i>
  <i name="EDIFF">      0.00000100</i>
  <i name="EDIFFG">     -0.03000000</i>
  <i type="int" name="NSW">   500</i>
  <i type="int" name="ISIF">     2</i>
  <i type="int" name="ISYM">     0</i>
  <i name="ENCUT">    520.00000000</i>
  <i name="POTIM">      0.00000000</i>
  <v name="MAGMOM">      0.00000000      0.00000000      0.00000000      0.00000000      0.00000000      0.00000000      0.00000000      0.00000000      0.00000000      0.00000000      0.00000000      0.00000000      0.00000000      0.00000000      0.00000000      0.00000000      0.00000000      0.00000000      0.00000000      0.00000000
      0.00000000      0.00000000      0.00000000      0.00000000      0.00000000      0.00000000      0.00000000      0.00000000      0.00000000      0.00000000      0.00000000      0.00000000      0.00000000      0.00000000      0.00000000      0.00000000      0.00000000      0.00000000      0.00000000      0.00000000
      0.00000000      0.00000000      0.00000000      0.00000000      0.00000000      0.00000000      0.00000000      0.00000000      0.00000000      0.00000000      0.00000000      0.00000000      0.00000000      0.00000000      0.00000000      0.00000000      0.00000000      0.00000000      0.00000000      0.00000000
      0.00000000      0.00000000      0.00000000      0.00000000      0.00000000      0.00000000      0.00000000      0.00000000      0.00000000      0.00000000      0.00000000      0.00000000      0.00000000      0.00000000      0.00000000      0.00000000      0.00000000      0.00000000      0.00000000      0.00000000
      0.00000000      0.00000000      0.00000000      0.00000000      0.00000000      0.00000000      0.00000000      0.00000000      0.00000000      0.00000000      0.00000000      0.00000000      0.00000000      0.00000000      0.00000000      0.00000000      0.00000000      0.00000000      0.00000000</v>
  <i type="string" name="LREAL">Auto</i>
  <i type="int" name="ISMEAR">     0</i>
  <i name="SIGMA">      0.05000000</i>
  <i type="logical" name="LWAVE"> F  </i>
  <i type="logical" name="LCHARG"> F  </i>
  <i type="logical" name="LASPH"> T  </i>
  <i type="int" name="IVDW">    12</i>
  <i name="SPRING">     -5.00000000</i>
 </incar>
 <primitive_cell>
  <structure name="primitive_cell" >
   <crystal>
    <varray name="basis" >
     <v>      17.27103806       0.00000000       0.00000000 </v>
     <v>      -8.63551903      14.95715771       0.00000000 </v>
     <v>       0.00000000       0.00000000      15.00000000 </v>
    </varray>
    <i name="volume">   3874.88459904 </i>
    <varray name="rec_basis" >
     <v>       0.05790040       0.03342881       0.00000000 </v>
     <v>       0.00000000       0.06685762       0.00000000 </v>
     <v>       0.00000000       0.00000000       0.06666667 </v>
    </varray>
   </crystal>
   <varray name="positions" >
    <v>       0.99904781       0.99891946       0.49843646 </v>
    <v>       0.99845041       0.14143311       0.49868124 </v>
    <v>       0.99803870       0.28424894       0.49874756 </v>
    <v>       0.99816398       0.42738479       0.49927373 </v>
    <v>       0.99878065       0.57052001       0.49936243 </v>
    <v>       0.99990196       0.71374560       0.49987912 </v>
    <v>       0.00009285       0.85679712       0.49987707 </v>
    <v>       0.14222714       0.99930088       0.49264821 </v>
    <v>       0.14166862       0.14186785       0.49282682 </v>
    <v>       0.14037164       0.28384101       0.49217479 </v>
    <v>       0.14005438       0.42708903       0.49271393 </v>
    <v>       0.14119051       0.57017791       0.49379153 </v>
    <v>       0.14201895       0.71325939       0.49352390 </v>
    <v>       0.14236511       0.85635511       0.49323163 </v>
    <v>       0.28483969       0.99871951       0.49251172 </v>
    <v>       0.28474004       0.14148280       0.49081085 </v>
    <v>       0.28465311       0.28511234       0.48569346 </v>
    <v>       0.28097389       0.42695189       0.48198214 </v>
    <v>       0.28379811       0.56919433       0.48681158 </v>
    <v>       0.28451042       0.71333108       0.49140427 </v>
    <v>       0.28485289       0.85618554       0.49251664 </v>
    <v>       0.42784131       0.99865109       0.49554541 </v>
    <v>       0.42764977       0.14097823       0.49593382 </v>
    <v>       0.42633769       0.28043423       0.49468788 </v>
    <v>       0.42583185       0.71447768       0.49248410 </v>
    <v>       0.42769054       0.85591560       0.49518627 </v>
    <v>       0.57047718       0.99878172       0.50056894 </v>
    <v>       0.57049025       0.14144360       0.50065294 </v>
    <v>       0.57138549       0.28515509       0.50437704 </v>
    <v>       0.57156474       0.85603093       0.50454685 </v>
    <v>       0.71331142       0.99872622       0.50741386 </v>
    <v>       0.71329575       0.14170595       0.50325855 </v>
    <v>       0.71330645       0.28483853       0.50595528 </v>
    <v>       0.71296251       0.42733528       0.51637319 </v>
    <v>       0.72076900       0.57389239       0.54683080 </v>
    <v>       0.72655500       0.72073467       0.55756489 </v>
    <v>       0.71321452       0.85658178       0.52178215 </v>
    <v>       0.85632609       0.99910815       0.50797036 </v>
    <v>       0.85572894       0.14158076       0.50372240 </v>
    <v>       0.85566176       0.28447808       0.50328474 </v>
    <v>       0.85604785       0.42764175       0.50673867 </v>
    <v>       0.85707663       0.57120972       0.51248365 </v>
    <v>       0.85931774       0.71497943       0.51844860 </v>
    <v>       0.85753351       0.85657321       0.51335776 </v>
    <v>       0.04647473       0.09417212       0.49637972 </v>
    <v>       0.04530678       0.23630294       0.49656984 </v>
    <v>       0.04506603       0.37942388       0.49706698 </v>
    <v>       0.04615996       0.52272207       0.49731085 </v>
    <v>       0.04682581       0.66582360       0.49692947 </v>
    <v>       0.04728169       0.80885813       0.49700534 </v>
    <v>       0.04704519       0.95164114       0.49617708 </v>
    <v>       0.18952666       0.09411659       0.49141759 </v>
    <v>       0.18862434       0.23690801       0.49067048 </v>
    <v>       0.18630483       0.37866344       0.48957985 </v>
    <v>       0.18824569       0.52227703       0.49141036 </v>
    <v>       0.18924753       0.66568553       0.49246675 </v>
    <v>       0.18980541       0.80866283       0.49259478 </v>
    <v>       0.18985260       0.95146567       0.49226241 </v>
    <v>       0.33251733       0.09405379       0.49294841 </v>
    <v>       0.33342565       0.23684981       0.48950743 </v>
    <v>       0.32462418       0.37714911       0.47792599 </v>
    <v>       0.32790627       0.52082195       0.48010784 </v>
    <v>       0.33276009       0.66637370       0.48971639 </v>
    <v>       0.33251622       0.80840083       0.49266687 </v>
    <v>       0.33242458       0.95118210       0.49329798 </v>
    <v>       0.47539937       0.09357610       0.49741825 </v>
    <v>       0.47473459       0.23583469       0.49836333 </v>
    <v>       0.47479654       0.80773061       0.49694306 </v>
    <v>       0.47537865       0.95116645       0.49709599 </v>
    <v>       0.61795980       0.09387940       0.50151372 </v>
    <v>       0.61826275       0.23692625       0.50397984 </v>
    <v>       0.62003755       0.37871774       0.51098611 </v>
    <v>       0.62021036       0.81144686       0.51412198 </v>
    <v>       0.61822760       0.95117524       0.50446479 </v>
    <v>       0.76079893       0.09412607       0.50473666 </v>
    <v>       0.76075229       0.23686237       0.50402053 </v>
    <v>       0.76094975       0.38006399       0.51000432 </v>
    <v>       0.76209541       0.52466785       0.52535404 </v>
    <v>       0.76705767       0.66821264       0.54266156 </v>
    <v>       0.76314891       0.80953552       0.53125457 </v>
    <v>       0.76123803       0.95161614       0.51294856 </v>
    <v>       0.90335069       0.09380310       0.50332849 </v>
    <v>       0.90301254       0.23668649       0.50193443 </v>
    <v>       0.90310437       0.37991259       0.50299959 </v>
    <v>       0.90384125       0.52316526       0.50533464 </v>
    <v>       0.90507296       0.66629889       0.50941246 </v>
    <v>       0.90545843       0.80949058       0.51004670 </v>
    <v>       0.90405733       0.95135940       0.50526750 </v>
    <v>       0.46333750       0.35232460       0.49646302 </v>
    <v>       0.40015413       0.55513175       0.47414467 </v>
    <v>       0.65026792       0.53946145       0.56420539 </v>
    <v>       0.58445422       0.41576829       0.51043156 </v>
    <v>       0.58509173       0.73904825       0.51299005 </v>
    <v>       0.46216672       0.67819835       0.49145481 </v>
    <v>       0.55044114       0.58404915       0.52855087 </v>
    <v>       0.51698370       0.54038515       0.43637982 </v>
    <v>       0.41571685       0.42791411       0.46597783 </v>
    <v>       0.64651803       0.68026699       0.60236091 </v>
    <v>       0.55718142       0.59686889       0.46511209 </v>
   </varray>
  </structure>
  <varray name="primitive_index" >
   <v type="int" >        1 </v>
   <v type="int" >        2 </v>
   <v type="int" >        3 </v>
   <v type="int" >        4 </v>
   <v type="int" >        5 </v>
   <v type="int" >        6 </v>
   <v type="int" >        7 </v>
   <v type="int" >        8 </v>
   <v type="int" >        9 </v>
   <v type="int" >       10 </v>
   <v type="int" >       11 </v>
   <v type="int" >       12 </v>
   <v type="int" >       13 </v>
   <v type="int" >       14 </v>
   <v type="int" >       15 </v>
   <v type="int" >       16 </v>
   <v type="int" >       17 </v>
   <v type="int" >       18 </v>
   <v type="int" >       19 </v>
   <v type="int" >       20 </v>
   <v type="int" >       21 </v>
   <v type="int" >       22 </v>
   <v type="int" >       23 </v>
   <v type="int" >       24 </v>
   <v type="int" >       25 </v>
   <v type="int" >       26 </v>
   <v type="int" >       27 </v>
   <v type="int" >       28 </v>
   <v type="int" >       29 </v>
   <v type="int" >       30 </v>
   <v type="int" >       31 </v>
   <v type="int" >       32 </v>
   <v type="int" >       33 </v>
   <v type="int" >       34 </v>
   <v type="int" >       35 </v>
   <v type="int" >       36 </v>
   <v type="int" >       37 </v>
   <v type="int" >       38 </v>
   <v type="int" >       39 </v>
   <v type="int" >       40 </v>
   <v type="int" >       41 </v>
   <v type="int" >       42 </v>
   <v type="int" >       43 </v>
   <v type="int" >       44 </v>
   <v type="int" >       45 </v>
   <v type="int" >       46 </v>
   <v type="int" >       47 </v>
   <v type="int" >       48 </v>
   <v type="int" >       49 </v>
   <v type="int" >       50 </v>
   <v type="int" >       51 </v>
   <v type="int" >       52 </v>
   <v type="int" >       53 </v>
   <v type="int" >       54 </v>
   <v type="int" >       55 </v>
   <v type="int" >       56 </v>
   <v type="int" >       57 </v>
   <v type="int" >       58 </v>
   <v type="int" >       59 </v>
   <v type="int" >       60 </v>
   <v type="int" >       61 </v>
   <v type="int" >       62 </v>
   <v type="int" >       63 </v>
   <v type="int" >       64 </v>
   <v type="int" >       65 </v>
   <v type="int" >       66 </v>
   <v type="int" >       67 </v>
   <v type="int" >       68 </v>
   <v type="int" >       69 </v>
   <v type="int" >       70 </v>
   <v type="int" >       71 </v>
   <v type="int" >       72 </v>
   <v type="int" >       73 </v>
   <v type="int" >       74 </v>
   <v type="int" >       75 </v>
   <v type="int" >       76 </v>
   <v type="int" >       77 </v>
   <v type="int" >       78 </v>
   <v type="int" >       79 </v>
   <v type="int" >       80 </v>
   <v type="int" >       81 </v>
   <v type="int" >       82 </v>
   <v type="int" >       83 </v>
   <v type="int" >       84 </v>
   <v type="int" >       85 </v>
   <v type="int" >       86 </v>
   <v type="int" >       87 </v>
   <v type="int" >       88 </v>
   <v type="int" >       89 </v>
   <v type="int" >       90 </v>
   <v type="int" >       91 </v>
   <v type="int" >       92 </v>
   <v type="int" >       93 </v>
   <v type="int" >       94 </v>
   <v type="int" >       95 </v>
   <v type="int" >       96 </v>
   <v type="int" >       97 </v>
   <v type="int" >       98 </v>
   <v type="int" >       99 </v>
  </varray>
 </primitive_cell>
 <kpoints>
  <generation param="Gamma">
   <v type="int" name="divisions">       2        2        1 </v>
   <v name="usershift">      0.00000000       0.00000000       0.00000000 </v>
   <v name="genvec1">      0.50000000       0.00000000       0.00000000 </v>
   <v name="genvec2">      0.00000000       0.50000000       0.00000000 </v>
   <v name="genvec3">      0.00000000       0.00000000       1.00000000 </v>
   <v name="shift">      0.00000000       0.00000000       0.00000000 </v>
  </generation>
  <varray name="kpointlist" >
   <v>       0.00000000       0.00000000       0.00000000 </v>
   <v>       0.50000000       0.00000000       0.00000000 </v>
   <v>       0.00000000       0.50000000       0.00000000 </v>
   <v>       0.50000000       0.50000000       0.00000000 </v>
  </varray>
  <varray name="weights" >
   <v>       0.25000000 </v>
   <v>       0.25000000 </v>
   <v>       0.25000000 </v>
   <v>       0.25000000 </v>
  </varray>
 </kpoints>
 <parameters>
  <separator name="general" >
   <i type="string" name="SYSTEM">unknown system</i>
   <i type="logical" name="LCOMPAT"> F  </i>
  </separator>
  <separator name="electronic" >
   <i type="string" name="PREC">normal</i>
   <i name="ENMAX">    520.00000000</i>
   <i name="ENAUG">    644.87300000</i>
   <i name="EDIFF">      0.00000100</i>
   <i type="int" name="IALGO">    38</i>
   <i type="int" name="IWAVPR">    11</i>
   <i type="int" name="NBANDS">   240</i>
   <i type="int" name="NBANDSLOW">    -1</i>
   <i type="int" name="NBANDSHIGH">    -1</i>
   <i name="NELECT">    380.00000000</i>
   <i type="int" name="TURBO">     0</i>
   <i type="int" name="IRESTART">     0</i>
   <i type="int" name="NREBOOT">     0</i>
   <i type="int" name="NMIN">     0</i>
   <i name="EREF">      0.00000000</i>
   <separator name="electronic smearing" >
    <i type="int" name="ISMEAR">     0</i>
    <i name="SIGMA">      0.05000000</i>
    <i name="KSPACING">      0.50000000</i>
    <i type="logical" name="KGAMMA"> T  </i>
    <i type="logical" name="KBLOWUP"> T  </i>
   </separator>
   <separator name="electronic projectors" >
    <i type="logical" name="LREAL"> T  </i>
    <v name="ROPT">     -0.00050000     -0.00050000     -0.00050000     -0.00050000</v>
    <i type="int" name="LMAXPAW">  -100</i>
    <i type="int" name="LMAXMIX">     2</i>
    <i type="logical" name="NLSPLINE"> F  </i>
   </separator>
   <separator name="electronic startup" >
    <i type="int" name="ISTART">     0</i>
    <i type="int" name="ICHARG">     2</i>
    <i type="int" name="INIWAV">     1</i>
   </separator>
   <separator name="electronic spin" >
    <i type="int" name="ISPIN">     2</i>
    <i type="logical" name="LNONCOLLINEAR"> F  </i>
    <v name="MAGMOM">      0.00000000      0.00000000      0.00000000      0.00000000      0.00000000      0.00000000      0.00000000      0.00000000      0.00000000      0.00000000      0.00000000      0.00000000      0.00000000      0.00000000      0.00000000      0.00000000      0.00000000      0.00000000      0.00000000      0.00000000
      0.00000000      0.00000000      0.00000000      0.00000000      0.00000000      0.00000000      0.00000000      0.00000000      0.00000000      0.00000000      0.00000000      0.00000000      0.00000000      0.00000000      0.00000000      0.00000000      0.00000000      0.00000000      0.00000000      0.00000000
      0.00000000      0.00000000      0.00000000      0.00000000      0.00000000      0.00000000      0.00000000      0.00000000      0.00000000      0.00000000      0.00000000      0.00000000      0.00000000      0.00000000      0.00000000      0.00000000      0.00000000      0.00000000      0.00000000      0.00000000
      0.00000000      0.00000000      0.00000000      0.00000000      0.00000000      0.00000000      0.00000000      0.00000000      0.00000000      0.00000000      0.00000000      0.00000000      0.00000000      0.00000000      0.00000000      0.00000000      0.00000000      0.00000000      0.00000000      0.00000000
      0.00000000      0.00000000      0.00000000      0.00000000      0.00000000      0.00000000      0.00000000      0.00000000      0.00000000      0.00000000      0.00000000      0.00000000      0.00000000      0.00000000      0.00000000      0.00000000      0.00000000      0.00000000      0.00000000</v>
    <i name="NUPDOWN">     -1.00000000</i>
    <i type="logical" name="LSORBIT"> F  </i>
    <v name="SAXIS">      0.00000000      0.00000000      1.00000000</v>
    <i type="logical" name="LSPIRAL"> F  </i>
    <v name="QSPIRAL">      0.00000000      0.00000000      0.00000000</v>
    <i type="logical" name="LZEROZ"> F  </i>
   </separator>
   <separator name="electronic exchange-correlation" >
    <i type="logical" name="LASPH"> T  </i>
    <i type="logical" name="LMETAGGA"> F  </i>
   </separator>
   <separator name="electronic convergence" >
    <i type="int" name="NELM">   200</i>
    <i type="int" name="NELMDL">    -5</i>
    <i type="int" name="NELMIN">     2</i>
    <i name="ENINI">    520.00000000</i>
    <separator name="electronic convergence detail" >
     <i type="logical" name="LDIAG"> T  </i>
     <i type="logical" name="LSUBROT"> F  </i>
     <i name="WEIMIN">      0.00100000</i>
     <i name="EBREAK">      0.00000000</i>
     <i name="DEPER">      0.30000000</i>
     <i type="int" name="NRMM">     4</i>
     <i name="TIME">      0.40000000</i>
    </separator>
   </separator>
   <separator name="electronic mixer" >
    <i name="AMIX">      0.20000000</i>
    <i name="BMIX">      0.00010000</i>
    <i name="AMIN">      0.10000000</i>
    <i name="AMIX_MAG">      0.80000000</i>
    <i name="BMIX_MAG">      0.00010000</i>
    <separator name="electronic mixer details" >
     <i type="int" name="IMIX">     4</i>
     <i type="logical" name="MIXFIRST"> F  </i>
     <i type="int" name="MAXMIX">   -45</i>
     <i name="WC">    100.00000000</i>
     <i type="int" name="INIMIX">     1</i>
     <i type="int" name="MIXPRE">     1</i>
     <i type="int" name="MREMOVE">     5</i>
    </separator>
   </separator>
   <separator name="electronic dipolcorrection" >
    <i type="logical" name="LDIPOL"> F  </i>
    <i type="logical" name="LMONO"> F  </i>
    <i type="int" name="IDIPOL">     0</i>
    <i name="EPSILON">      1.00000000</i>
    <v name="DIPOL">   -100.00000000   -100.00000000   -100.00000000</v>
    <i name="EFIELD">      0.00000000</i>
   </separator>
  </separator>
  <separator name="grids" >
   <i type="int" name="NGX">    96</i>
   <i type="int" name="NGY">    96</i>
   <i type="int" name="NGZ">    84</i>
   <i type="int" name="NGXF">   192</i>
   <i type="int" name="NGYF">   192</i>
   <i type="int" name="NGZF">   168</i>
   <i type="logical" name="ADDGRID"> T  </i>
  </separator>
  <separator name="ionic" >
   <i type="int" name="NSW">   500</i>
   <i type="int" name="IBRION">     3</i>
   <i type="int" name="MDALGO">     0</i>
   <i type="int" name="ISIF">     2</i>
   <i name="PSTRESS">      0.00000000</i>
   <i name="EDIFFG">     -0.03000000</i>
   <i type="int" name="NFREE">     0</i>
   <i name="POTIM">      0.00000000</i>
   <i name="SMASS">     -3.00000000</i>
   <i name="SCALEE">      1.00000000</i>
  </separator>
  <separator name="ionic md" >
   <i name="TEBEG">      0.00010000</i>
   <i name="TEEND">      0.00010000</i>
   <i type="int" name="NBLOCK">     1</i>
   <i type="int" name="KBLOCK">   500</i>
   <i type="int" name="NPACO">   256</i>
   <i name="APACO">     10.00000000</i>
  </separator>
  <separator name="symmetry" >
   <i type="int" name="ISYM">     0</i>
   <i name="SYMPREC">      0.00001000</i>
  </separator>
  <separator name="dos" >
   <i type="int" name="LORBIT">     0</i>
   <v name="RWIGS">     -1.00000000     -1.00000000     -1.00000000     -1.00000000</v>
   <i type="int" name="NEDOS">   301</i>
   <i name="EMIN">     10.00000000</i>
   <i name="EMAX">    -10.00000000</i>
   <i name="EFERMI">      0.00000000</i>
  </separator>
  <separator name="writing" >
   <i type="int" name="NWRITE">     2</i>
   <i type="logical" name="LWAVE"> F  </i>
   <i type="logical" name="LDOWNSAMPLE"> F  </i>
   <i type="logical" name="LCHARG"> F  </i>
   <i type="logical" name="LPARD"> F  </i>
   <i type="logical" name="LVTOT"> F  </i>
   <i type="logical" name="LVHAR"> F  </i>
   <i type="logical" name="LELF"> F  </i>
   <i type="logical" name="LOPTICS"> F  </i>
   <v name="STM">      0.00000000      0.00000000      0.00000000      0.00000000      0.00000000      0.00000000      0.00000000</v>
  </separator>
  <separator name="performance" >
   <i type="int" name="NPAR">     5</i>
   <i type="int" name="NSIM">     4</i>
   <i type="int" name="NBLK">    -1</i>
   <i type="logical" name="LPLANE"> T  </i>
   <i type="logical" name="LSCALAPACK"> T  </i>
   <i type="logical" name="LSCAAWARE"> F  </i>
   <i type="logical" name="LSCALU"> F  </i>
   <i type="logical" name="LASYNC"> F  </i>
   <i type="logical" name="LORBITALREAL"> F  </i>
  </separator>
  <separator name="miscellaneous" >
   <i type="int" name="IDIOT">     3</i>
   <i type="int" name="PHON_NSTRUCT">    -1</i>
   <i type="logical" name="LMUSIC"> F  </i>
   <v name="POMASS">     12.01100000      1.00000000     18.99800000     16.00000000</v>
   <v name="DARWINR">      0.00000000      0.00000000      0.00000000      0.00000000</v>
   <v name="DARWINV">      1.00000000      1.00000000      1.00000000      1.00000000</v>
   <i type="logical" name="LCORR"> T  </i>
  </separator>
  <i type="logical" name="GGA_COMPAT"> T  </i>
  <i type="logical" name="LBERRY"> F  </i>
  <i type="int" name="ICORELEVEL">     0</i>
  <i type="logical" name="LDAU"> F  </i>
  <i type="int" name="I_CONSTRAINED_M">     0</i>
  <separator name="electronic exchange-correlation" >
   <i type="string" name="GGA">--</i>
   <i type="int" name="VOSKOWN">     0</i>
   <i type="logical" name="LHFCALC"> F  </i>
   <i type="string" name="PRECFOCK"></i>
   <i type="logical" name="LSYMGRAD"> F  </i>
   <i type="logical" name="LHFONE"> F  </i>
   <i type="logical" name="LRHFCALC"> F  </i>
   <i type="logical" name="LTHOMAS"> F  </i>
   <i type="logical" name="LMODELHF"> F  </i>
   <i type="logical" name="LFOCKACE"> F  </i>
   <i name="ENCUT4O">     -1.00000000</i>
   <i type="int" name="EXXOEP">     0</i>
   <i type="int" name="FOURORBIT">     0</i>
   <i name="AEXX">      0.00000000</i>
   <i name="HFALPHA">      0.00000000</i>
   <i name="MCALPHA">      0.00000000</i>
   <i name="ALDAX">      1.00000000</i>
   <i name="AGGAX">      1.00000000</i>
   <i name="ALDAC">      1.00000000</i>
   <i name="AGGAC">      1.00000000</i>
   <i type="int" name="NKREDX">     1</i>
   <i type="int" name="NKREDY">     1</i>
   <i type="int" name="NKREDZ">     1</i>
   <i type="logical" name="SHIFTRED"> F  </i>
   <i type="logical" name="ODDONLY"> F  </i>
   <i type="logical" name="EVENONLY"> F  </i>
   <i type="int" name="LMAXFOCK">     0</i>
   <i type="int" name="NMAXFOCKAE">     0</i>
   <i type="logical" name="LFOCKAEDFT"> F  </i>
   <i name="HFSCREEN">      0.00000000</i>
   <i name="HFSCREENC">      0.00000000</i>
   <i type="int" name="NBANDSGWLOW">     0</i>
  </separator>
  <separator name="vdW DFT" >
   <i type="logical" name="LUSE_VDW"> F  </i>
   <i type="int" name="IVDW_NL">     1</i>
   <i type="logical" name="LSPIN_VDW"> F  </i>
   <i name="Zab_VDW">     -0.84910000</i>
   <i name="PARAM1">      0.12340000</i>
   <i name="PARAM2">      1.00000000</i>
   <i name="PARAM3">      0.00000000</i>
  </separator>
  <separator name="model GW" >
   <i type="int" name="MODEL_GW">     0</i>
   <i name="MODEL_EPS0">     23.48414909</i>
   <i name="MODEL_ALPHA">      1.00000000</i>
  </separator>
  <separator name="linear response parameters" >
   <i type="logical" name="LEPSILON"> F  </i>
   <i type="logical" name="LRPA"> F  </i>
   <i type="logical" name="LNABLA"> F  </i>
   <i type="logical" name="LVEL"> F  </i>
   <i name="CSHIFT">      0.10000000</i>
   <i name="OMEGAMAX">     -1.00000000</i>
   <i name="DEG_THRESHOLD">      0.00200000</i>
   <i name="RTIME">     -0.10000000</i>
   <i name="WPLASMAI">      0.00000000</i>
   <v name="DFIELD">      0.00000000      0.00000000      0.00000000</v>
   <v name="WPLASMA">      0.00000000      0.00000000      0.00000000      0.00000000      0.00000000      0.00000000      0.00000000      0.00000000      0.00000000</v>
  </separator>
  <separator name="orbital magnetization" >
   <i type="logical" name="NUCIND"> F  </i>
   <v name="MAGPOS">      0.00000000      0.00000000      0.00000000</v>
   <i type="logical" name="LNICSALL"> T  </i>
   <i type="logical" name="ORBITALMAG"> F  </i>
   <i type="logical" name="LMAGBLOCH"> F  </i>
   <i type="logical" name="LCHIMAG"> F  </i>
   <i type="logical" name="LGAUGE"> T  </i>
   <i type="int" name="MAGATOM">     0</i>
   <v name="MAGDIPOL">      0.00000000      0.00000000      0.00000000</v>
   <v name="AVECCONST">      0.00000000      0.00000000      0.00000000</v>
  </separator>
  <separator name="response functions" >
   <i type="logical" name="LALL_IN_ONE"> F  </i>
   <i type="int" name="IALL_IN_ONE">    -1</i>
   <i type="int" name="NBANDS_WAVE">    -1</i>
   <i type="logical" name="LFINITE_TEMPERATURE"> F  </i>
   <i type="logical" name="LADDER"> F  </i>
   <i type="logical" name="LRPAFORCE"> F  </i>
   <i type="logical" name="LFXC"> F  </i>
   <i type="logical" name="LHARTREE"> T  </i>
   <i type="int" name="IBSE">     0</i>
   <v type="int" name="KPOINT">    -1     0     0     0</v>
   <i type="logical" name="LTCTC"> F  </i>
   <i type="logical" name="LTCTE"> F  </i>
   <i type="logical" name="LTETE"> F  </i>
   <i type="logical" name="LTRIPLET"> F  </i>
   <i type="logical" name="LFXCEPS"> F  </i>
   <i type="logical" name="LFXHEG"> F  </i>
   <i type="int" name="NATURALO">     2</i>
   <i type="logical" name="LHOLEGF"> F  </i>
   <i type="logical" name="L2ORDER"> F  </i>
   <i type="logical" name="LDMP1"> F  </i>
   <i type="logical" name="LMP2LT"> F  </i>
   <i type="logical" name="LSMP2LT"> F  </i>
   <i type="logical" name="LGWLF"> F  </i>
   <i name="ENCUTGW">     -1.60000002</i>
   <i name="ENCUTGWSOFT">     -1.60000002</i>
   <i name="ENCUTLF">     -1.00000000</i>
   <i type="logical" name="LESF_SPLINES"> F  </i>
   <i type="int" name="LMAXMP2">    -1</i>
   <i name="SCISSOR">      0.00000000</i>
   <i type="int" name="NOMEGA">     0</i>
   <i type="int" name="NOMEGAR">     0</i>
   <i type="int" name="NBANDSGW">    -1</i>
   <i type="int" name="NBANDSO">    -1</i>
   <i type="int" name="NBANDSV">    -1</i>
   <i type="int" name="NELMGW">     1</i>
   <i type="int" name="NELMHF">     1</i>
   <i type="int" name="DIM">     3</i>
   <i type="int" name="IESPILON">     4</i>
   <i type="int" name="ANTIRES">     0</i>
   <i name="OMEGAMAX">    -30.00000000</i>
   <i name="OMEGAMIN">    -30.00000000</i>
   <i name="OMEGATL">   -200.00000000</i>
   <i type="int" name="OMEGAGRID">     0</i>
   <i name="CSHIFT">     -0.10000000</i>
   <i type="logical" name="LSELFENERGY"> F  </i>
   <i type="logical" name="LSPECTRAL"> F  </i>
   <i type="logical" name="LSPECTRALGW"> F  </i>
   <i type="logical" name="LSINGLES"> F  </i>
   <i type="logical" name="LFERMIGW"> F  </i>
   <i type="logical" name="ODDONLYGW"> F  </i>
   <i type="logical" name="EVENONLYGW"> F  </i>
   <i type="int" name="NKREDLFX">     1</i>
   <i type="int" name="NKREDLFY">     1</i>
   <i type="int" name="NKREDLFZ">     1</i>
   <i type="int" name="MAXMEM">  2800</i>
   <i type="int" name="TELESCOPE">     0</i>
   <i type="int" name="NTAUPAR">    -1</i>
   <i type="int" name="NOMEGAPAR">    -1</i>
   <i name="DAMP_NEWTON">      0.80000001</i>
   <i name="LAMBDA">      1.00000000</i>
  </separator>
  <separator name="External order field" >
   <i name="OFIELD_KAPPA">      0.00000000</i>
   <v name="OFIELD_K">      0.00000000      0.00000000      0.00000000</v>
   <i name="OFIELD_Q6_NEAR">      0.00000000</i>
   <i name="OFIELD_Q6_FAR">      0.00000000</i>
   <i name="OFIELD_A">      0.00000000</i>
  </separator>
  <separator name="optional k-points parameters" >
   <i type="int" name="KPOINTS_OPT_MODE">     1</i>
   <i type="logical" name="LKPOINTS_OPT"> F  </i>
  </separator>
 </parameters>
 <atominfo>
  <atoms>      99 </atoms>
  <types>       4 </types>
  <array name="atoms" >
   <dimension dim="1">ion</dimension>
   <field type="string">element</field>
   <field type="int">atomtype</field>
   <set>
    <rc><c>C </c><c>   1</c></rc>
    <rc><c>C </c><c>   1</c></rc>
    <rc><c>C </c><c>   1</c></rc>
    <rc><c>C </c><c>   1</c></rc>
    <rc><c>C </c><c>   1</c></rc>
    <rc><c>C </c><c>   1</c></rc>
    <rc><c>C </c><c>   1</c></rc>
    <rc><c>C </c><c>   1</c></rc>
    <rc><c>C </c><c>   1</c></rc>
    <rc><c>C </c><c>   1</c></rc>
    <rc><c>C </c><c>   1</c></rc>
    <rc><c>C </c><c>   1</c></rc>
    <rc><c>C </c><c>   1</c></rc>
    <rc><c>C </c><c>   1</c></rc>
    <rc><c>C </c><c>   1</c></rc>
    <rc><c>C </c><c>   1</c></rc>
    <rc><c>C </c><c>   1</c></rc>
    <rc><c>C </c><c>   1</c></rc>
    <rc><c>C </c><c>   1</c></rc>
    <rc><c>C </c><c>   1</c></rc>
    <rc><c>C </c><c>   1</c></rc>
    <rc><c>C </c><c>   1</c></rc>
    <rc><c>C </c><c>   1</c></rc>
    <rc><c>C </c><c>   1</c></rc>
    <rc><c>C </c><c>   1</c></rc>
    <rc><c>C </c><c>   1</c></rc>
    <rc><c>C </c><c>   1</c></rc>
    <rc><c>C </c><c>   1</c></rc>
    <rc><c>C </c><c>   1</c></rc>
    <rc><c>C </c><c>   1</c></rc>
    <rc><c>C </c><c>   1</c></rc>
    <rc><c>C </c><c>   1</c></rc>
    <rc><c>C </c><c>   1</c></rc>
    <rc><c>C </c><c>   1</c></rc>
    <rc><c>C </c><c>   1</c></rc>
    <rc><c>C </c><c>   1</c></rc>
    <rc><c>C </c><c>   1</c></rc>
    <rc><c>C </c><c>   1</c></rc>
    <rc><c>C </c><c>   1</c></rc>
    <rc><c>C </c><c>   1</c></rc>
    <rc><c>C </c><c>   1</c></rc>
    <rc><c>C </c><c>   1</c></rc>
    <rc><c>C </c><c>   1</c></rc>
    <rc><c>C </c><c>   1</c></rc>
    <rc><c>C </c><c>   1</c></rc>
    <rc><c>C </c><c>   1</c></rc>
    <rc><c>C </c><c>   1</c></rc>
    <rc><c>C </c><c>   1</c></rc>
    <rc><c>C </c><c>   1</c></rc>
    <rc><c>C </c><c>   1</c></rc>
    <rc><c>C </c><c>   1</c></rc>
    <rc><c>C </c><c>   1</c></rc>
    <rc><c>C </c><c>   1</c></rc>
    <rc><c>C </c><c>   1</c></rc>
    <rc><c>C </c><c>   1</c></rc>
    <rc><c>C </c><c>   1</c></rc>
    <rc><c>C </c><c>   1</c></rc>
    <rc><c>C </c><c>   1</c></rc>
    <rc><c>C </c><c>   1</c></rc>
    <rc><c>C </c><c>   1</c></rc>
    <rc><c>C </c><c>   1</c></rc>
    <rc><c>C </c><c>   1</c></rc>
    <rc><c>C </c><c>   1</c></rc>
    <rc><c>C </c><c>   1</c></rc>
    <rc><c>C </c><c>   1</c></rc>
    <rc><c>C </c><c>   1</c></rc>
    <rc><c>C </c><c>   1</c></rc>
    <rc><c>C </c><c>   1</c></rc>
    <rc><c>C </c><c>   1</c></rc>
    <rc><c>C </c><c>   1</c></rc>
    <rc><c>C </c><c>   1</c></rc>
    <rc><c>C </c><c>   1</c></rc>
    <rc><c>C </c><c>   1</c></rc>
    <rc><c>C </c><c>   1</c></rc>
    <rc><c>C </c><c>   1</c></rc>
    <rc><c>C </c><c>   1</c></rc>
    <rc><c>C </c><c>   1</c></rc>
    <rc><c>C </c><c>   1</c></rc>
    <rc><c>C </c><c>   1</c></rc>
    <rc><c>C </c><c>   1</c></rc>
    <rc><c>C </c><c>   1</c></rc>
    <rc><c>C </c><c>   1</c></rc>
    <rc><c>C </c><c>   1</c></rc>
    <rc><c>C </c><c>   1</c></rc>
    <rc><c>C </c><c>   1</c></rc>
    <rc><c>C </c><c>   1</c></rc>
    <rc><c>C </c><c>   1</c></rc>
    <rc><c>C </c><c>   1</c></rc>
    <rc><c>H </c><c>   2</c></rc>
    <rc><c>H </c><c>   2</c></rc>
    <rc><c>H </c><c>   2</c></rc>
    <rc><c>H </c><c>   2</c></rc>
    <rc><c>H </c><c>   2</c></rc>
    <rc><c>H </c><c>   2</c></rc>
    <rc><c>H </c><c>   2</c></rc>
    <rc><c>H </c><c>   2</c></rc>
    <rc><c>F </c><c>   3</c></rc>
    <rc><c>F </c><c>   3</c></rc>
    <rc><c>O </c><c>   4</c></rc>
   </set>
  </array>
  <array name="atomtypes" >
   <dimension dim="1">type</dimension>
   <field type="int">atomspertype</field>
   <field type="string">element</field>
   <field>mass</field>
   <field>valence</field>
   <field type="string">pseudopotential</field>
   <set>
    <rc><c>  88</c><c>C </c><c>     12.01100000</c><c>      4.00000000</c><c>  PAW_PBE C 08Apr2002                   </c></rc>
    <rc><c>   8</c><c>H </c><c>      1.00000000</c><c>      1.00000000</c><c>  PAW_PBE H 15Jun2001                   </c></rc>
    <rc><c>   2</c><c>F </c><c>     18.99800000</c><c>      7.00000000</c><c>  PAW_PBE F 08Apr2002                   </c></rc>
    <rc><c>   1</c><c>O </c><c>     16.00000000</c><c>      6.00000000</c><c>  PAW_PBE O 08Apr2002                   </c></rc>
   </set>
  </array>
 </atominfo>
 <structure name="initialpos" >
  <crystal>
   <varray name="basis" >
    <v>      17.27103806       0.00000000       0.00000000 </v>
    <v>      -8.63551903      14.95715771       0.00000000 </v>
    <v>       0.00000000       0.00000000      15.00000000 </v>
   </varray>
   <i name="volume">   3874.88459904 </i>
   <varray name="rec_basis" >
    <v>       0.05790040       0.03342881       0.00000000 </v>
    <v>       0.00000000       0.06685762       0.00000000 </v>
    <v>       0.00000000       0.00000000       0.06666667 </v>
   </varray>
  </crystal>
  <varray name="positions" >
   <v>       0.99904781       0.99891946       0.49843646 </v>
   <v>       0.99845041       0.14143311       0.49868124 </v>
   <v>       0.99803870       0.28424894       0.49874756 </v>
   <v>       0.99816398       0.42738479       0.49927373 </v>
   <v>       0.99878065       0.57052001       0.49936243 </v>
   <v>       0.99990196       0.71374560       0.49987912 </v>
   <v>       0.00009285       0.85679712       0.49987707 </v>
   <v>       0.14222714       0.99930088       0.49264821 </v>
   <v>       0.14166862       0.14186785       0.49282682 </v>
   <v>       0.14037164       0.28384101       0.49217479 </v>
   <v>       0.14005438       0.42708903       0.49271393 </v>
   <v>       0.14119051       0.57017791       0.49379153 </v>
   <v>       0.14201895       0.71325939       0.49352390 </v>
   <v>       0.14236511       0.85635511       0.49323163 </v>
   <v>       0.28483969       0.99871951       0.49251172 </v>
   <v>       0.28474004       0.14148280       0.49081085 </v>
   <v>       0.28465311       0.28511234       0.48569346 </v>
   <v>       0.28097389       0.42695189       0.48198214 </v>
   <v>       0.28379811       0.56919433       0.48681158 </v>
   <v>       0.28451042       0.71333108       0.49140427 </v>
   <v>       0.28485289       0.85618554       0.49251664 </v>
   <v>       0.42784131       0.99865109       0.49554541 </v>
   <v>       0.42764977       0.14097823       0.49593382 </v>
   <v>       0.42633769       0.28043423       0.49468788 </v>
   <v>       0.42583185       0.71447768       0.49248410 </v>
   <v>       0.42769054       0.85591560       0.49518627 </v>
   <v>       0.57047718       0.99878172       0.50056894 </v>
   <v>       0.57049025       0.14144360       0.50065294 </v>
   <v>       0.57138549       0.28515509       0.50437704 </v>
   <v>       0.57156474       0.85603093       0.50454685 </v>
   <v>       0.71331142       0.99872622       0.50741386 </v>
   <v>       0.71329575       0.14170595       0.50325855 </v>
   <v>       0.71330645       0.28483853       0.50595528 </v>
   <v>       0.71296251       0.42733528       0.51637319 </v>
   <v>       0.72076900       0.57389239       0.54683080 </v>
   <v>       0.72655500       0.72073467       0.55756489 </v>
   <v>       0.71321452       0.85658178       0.52178215 </v>
   <v>       0.85632609       0.99910815       0.50797036 </v>
   <v>       0.85572894       0.14158076       0.50372240 </v>
   <v>       0.85566176       0.28447808       0.50328474 </v>
   <v>       0.85604785       0.42764175       0.50673867 </v>
   <v>       0.85707663       0.57120972       0.51248365 </v>
   <v>       0.85931774       0.71497943       0.51844860 </v>
   <v>       0.85753351       0.85657321       0.51335776 </v>
   <v>       0.04647473       0.09417212       0.49637972 </v>
   <v>       0.04530678       0.23630294       0.49656984 </v>
   <v>       0.04506603       0.37942388       0.49706698 </v>
   <v>       0.04615996       0.52272207       0.49731085 </v>
   <v>       0.04682581       0.66582360       0.49692947 </v>
   <v>       0.04728169       0.80885813       0.49700534 </v>
   <v>       0.04704519       0.95164114       0.49617708 </v>
   <v>       0.18952666       0.09411659       0.49141759 </v>
   <v>       0.18862434       0.23690801       0.49067048 </v>
   <v>       0.18630483       0.37866344       0.48957985 </v>
   <v>       0.18824569       0.52227703       0.49141036 </v>
   <v>       0.18924753       0.66568553       0.49246675 </v>
   <v>       0.18980541       0.80866283       0.49259478 </v>
   <v>       0.18985260       0.95146567       0.49226241 </v>
   <v>       0.33251733       0.09405379       0.49294841 </v>
   <v>       0.33342565       0.23684981       0.48950743 </v>
   <v>       0.32462418       0.37714911       0.47792599 </v>
   <v>       0.32790627       0.52082195       0.48010784 </v>
   <v>       0.33276009       0.66637370       0.48971639 </v>
   <v>       0.33251622       0.80840083       0.49266687 </v>
   <v>       0.33242458       0.95118210       0.49329798 </v>
   <v>       0.47539937       0.09357610       0.49741825 </v>
   <v>       0.47473459       0.23583469       0.49836333 </v>
   <v>       0.47479654       0.80773061       0.49694306 </v>
   <v>       0.47537865       0.95116645       0.49709599 </v>
   <v>       0.61795980       0.09387940       0.50151372 </v>
   <v>       0.61826275       0.23692625       0.50397984 </v>
   <v>       0.62003755       0.37871774       0.51098611 </v>
   <v>       0.62021036       0.81144686       0.51412198 </v>
   <v>       0.61822760       0.95117524       0.50446479 </v>
   <v>       0.76079893       0.09412607       0.50473666 </v>
   <v>       0.76075229       0.23686237       0.50402053 </v>
   <v>       0.76094975       0.38006399       0.51000432 </v>
   <v>       0.76209541       0.52466785       0.52535404 </v>
   <v>       0.76705767       0.66821264       0.54266156 </v>
   <v>       0.76314891       0.80953552       0.53125457 </v>
   <v>       0.76123803       0.95161614       0.51294856 </v>
   <v>       0.90335069       0.09380310       0.50332849 </v>
   <v>       0.90301254       0.23668649       0.50193443 </v>
   <v>       0.90310437       0.37991259       0.50299959 </v>
   <v>       0.90384125       0.52316526       0.50533464 </v>
   <v>       0.90507296       0.66629889       0.50941246 </v>
   <v>       0.90545843       0.80949058       0.51004670 </v>
   <v>       0.90405733       0.95135940       0.50526750 </v>
   <v>       0.46333750       0.35232460       0.49646302 </v>
   <v>       0.40015413       0.55513175       0.47414467 </v>
   <v>       0.65026792       0.53946145       0.56420539 </v>
   <v>       0.58445422       0.41576829       0.51043156 </v>
   <v>       0.58509173       0.73904825       0.51299005 </v>
   <v>       0.46216672       0.67819835       0.49145481 </v>
   <v>       0.55044114       0.58404915       0.52855087 </v>
   <v>       0.51698370       0.54038515       0.43637982 </v>
   <v>       0.41571685       0.42791411       0.46597783 </v>
   <v>       0.64651803       0.68026699       0.60236091 </v>
   <v>       0.55718142       0.59686889       0.46511209 </v>
  </varray>
  <varray name="selective"  type="logical" >
   <v type="logical" >  T  T  T </v>
   <v type="logical" >  T  T  T </v>
   <v type="logical" >  T  T  T </v>
   <v type="logical" >  T  T  T </v>
   <v type="logical" >  T  T  T </v>
   <v type="logical" >  T  T  T </v>
   <v type="logical" >  T  T  T </v>
   <v type="logical" >  T  T  T </v>
   <v type="logical" >  T  T  T </v>
   <v type="logical" >  T  T  T </v>
   <v type="logical" >  T  T  T </v>
   <v type="logical" >  T  T  T </v>
   <v type="logical" >  T  T  T </v>
   <v type="logical" >  T  T  T </v>
   <v type="logical" >  T  T  T </v>
   <v type="logical" >  T  T  T </v>
   <v type="logical" >  T  T  T </v>
   <v type="logical" >  T  T  T </v>
   <v type="logical" >  T  T  T </v>
   <v type="logical" >  T  T  T </v>
   <v type="logical" >  T  T  T </v>
   <v type="logical" >  T  T  T </v>
   <v type="logical" >  T  T  T </v>
   <v type="logical" >  T  T  T </v>
   <v type="logical" >  T  T  T </v>
   <v type="logical" >  T  T  T </v>
   <v type="logical" >  T  T  T </v>
   <v type="logical" >  T  T  T </v>
   <v type="logical" >  T  T  T </v>
   <v type="logical" >  T  T  T </v>
   <v type="logical" >  T  T  T </v>
   <v type="logical" >  T  T  T </v>
   <v type="logical" >  T  T  T </v>
   <v type="logical" >  T  T  T </v>
   <v type="logical" >  T  T  T </v>
   <v type="logical" >  T  T  T </v>
   <v type="logical" >  T  T  T </v>
   <v type="logical" >  T  T  T </v>
   <v type="logical" >  T  T  T </v>
   <v type="logical" >  T  T  T </v>
   <v type="logical" >  T  T  T </v>
   <v type="logical" >  T  T  T </v>
   <v type="logical" >  T  T  T </v>
   <v type="logical" >  T  T  T </v>
   <v type="logical" >  T  T  T </v>
   <v type="logical" >  T  T  T </v>
   <v type="logical" >  T  T  T </v>
   <v type="logical" >  T  T  T </v>
   <v type="logical" >  T  T  T </v>
   <v type="logical" >  T  T  T </v>
   <v type="logical" >  T  T  T </v>
   <v type="logical" >  T  T  T </v>
   <v type="logical" >  T  T  T </v>
   <v type="logical" >  T  T  T </v>
   <v type="logical" >  T  T  T </v>
   <v type="logical" >  T  T  T </v>
   <v type="logical" >  T  T  T </v>
   <v type="logical" >  T  T  T </v>
   <v type="logical" >  T  T  T </v>
   <v type="logical" >  T  T  T </v>
   <v type="logical" >  T  T  T </v>
   <v type="logical" >  T  T  T </v>
   <v type="logical" >  T  T  T </v>
   <v type="logical" >  T  T  T </v>
   <v type="logical" >  T  T  T </v>
   <v type="logical" >  T  T  T </v>
   <v type="logical" >  T  T  T </v>
   <v type="logical" >  T  T  T </v>
   <v type="logical" >  T  T  T </v>
   <v type="logical" >  T  T  T </v>
   <v type="logical" >  T  T  T </v>
   <v type="logical" >  T  T  T </v>
   <v type="logical" >  T  T  T </v>
   <v type="logical" >  T  T  T </v>
   <v type="logical" >  T  T  T </v>
   <v type="logical" >  T  T  T </v>
   <v type="logical" >  T  T  T </v>
   <v type="logical" >  T  T  T </v>
   <v type="logical" >  T  T  T </v>
   <v type="logical" >  T  T  T </v>
   <v type="logical" >  T  T  T </v>
   <v type="logical" >  T  T  T </v>
   <v type="logical" >  T  T  T </v>
   <v type="logical" >  T  T  T </v>
   <v type="logical" >  T  T  T </v>
   <v type="logical" >  T  T  T </v>
   <v type="logical" >  T  T  T </v>
   <v type="logical" >  T  T  T </v>
   <v type="logical" >  T  T  T </v>
   <v type="logical" >  T  T  T </v>
   <v type="logical" >  T  T  T </v>
   <v type="logical" >  T  T  T </v>
   <v type="logical" >  T  T  T </v>
   <v type="logical" >  T  T  T </v>
   <v type="logical" >  T  T  T </v>
   <v type="logical" >  T  T  T </v>
   <v type="logical" >  T  T  T </v>
   <v type="logical" >  T  T  T </v>
   <v type="logical" >  T  T  F </v>
  </varray>
  <nose>
   <v>      -3.00000000       0.00000000       0.00010000       0.00010000 </v>
  </nose>
 </structure>
 <calculation>
  <scstep>
   <time name="dav">   69.04   69.54</time>
   <time name="total">   74.05   74.61</time>
   <energy>
    <i name="alphaZ">    186.33367753 </i>
    <i name="ewald">  37824.09433198 </i>
    <i name="hartreedc"> -48980.66318279 </i>
    <i name="XCdc">   1280.27925812 </i>
    <i name="pawpsdc">  10991.97733137 </i>
    <i name="pawaedc"> -11054.15789429 </i>
    <i name="eentropy">     -0.03589685 </i>
    <i name="bandstr">  -1487.13996988 </i>
    <i name="atom">  14800.58670786 </i>
    <i name="e_fr_energy">   3561.27436304 </i>
    <i name="e_wo_entrp">   3561.31025989 </i>
    <i name="e_0_energy">   3561.29231146 </i>
   </energy>
  </scstep>
  <scstep>
   <time name="dav">   86.05   86.65</time>
   <time name="total">   86.05   86.66</time>
   <energy>
    <i name="e_fr_energy">   -198.47588251 </i>
    <i name="e_wo_entrp">   -198.47567941 </i>
    <i name="e_0_energy">   -198.47578096 </i>
   </energy>
  </scstep>
  <scstep>
   <time name="dav">   72.81   73.32</time>
   <time name="total">   72.81   73.33</time>
   <energy>
    <i name="e_fr_energy">   -886.81564140 </i>
    <i name="e_wo_entrp">   -886.81564100 </i>
    <i name="e_0_energy">   -886.81564120 </i>
   </energy>
  </scstep>
  <scstep>
   <time name="dav">   72.80   73.35</time>
   <time name="total">   72.80   73.35</time>
   <energy>
    <i name="e_fr_energy">   -912.35840622 </i>
    <i name="e_wo_entrp">   -912.35840620 </i>
    <i name="e_0_energy">   -912.35840621 </i>
   </energy>
  </scstep>
  <scstep>
   <time name="dav">   81.16   81.76</time>
   <time name="total">   87.07   87.74</time>
   <energy>
    <i name="e_fr_energy">   -913.14372996 </i>
    <i name="e_wo_entrp">   -913.14372994 </i>
    <i name="e_0_energy">   -913.14372995 </i>
   </energy>
  </scstep>
  <scstep>
   <time name="dav">   69.86   70.42</time>
   <time name="total">   81.49   82.15</time>
   <energy>
    <i name="e_fr_energy">   -880.02984313 </i>
    <i name="e_wo_entrp">   -880.02984312 </i>
    <i name="e_0_energy">   -880.02984312 </i>
   </energy>
  </scstep>
  <scstep>
   <time name="dav">   66.94   67.42</time>
   <time name="total">   78.72   79.34</time>
   <energy>
    <i name="e_fr_energy">   -851.90244379 </i>
    <i name="e_wo_entrp">   -851.90244376 </i>
    <i name="e_0_energy">   -851.90244378 </i>
   </energy>
  </scstep>
  <scstep>
   <time name="dav">   70.81   71.33</time>
   <time name="total">   82.60   83.21</time>
   <energy>
    <i name="e_fr_energy">   -851.59508134 </i>
    <i name="e_wo_entrp">   -851.59508130 </i>
    <i name="e_0_energy">   -851.59508132 </i>
   </energy>
  </scstep>
  <scstep>
   <time name="dav">   70.34   70.84</time>
   <time name="total">   82.16   82.75</time>
   <energy>
    <i name="e_fr_energy">   -851.66848519 </i>
    <i name="e_wo_entrp">   -851.66848516 </i>
    <i name="e_0_energy">   -851.66848518 </i>
   </energy>
  </scstep>
  <scstep>
   <time name="dav">   70.98   71.61</time>
   <time name="total">   82.58   83.30</time>
   <energy>
    <i name="e_fr_energy">   -851.53984916 </i>
    <i name="e_wo_entrp">   -851.53984913 </i>
    <i name="e_0_energy">   -851.53984915 </i>
   </energy>
  </scstep>
  <scstep>
   <time name="dav">   70.07   70.57</time>
   <time name="total">   81.74   82.32</time>
   <energy>
    <i name="e_fr_energy">   -851.52539600 </i>
    <i name="e_wo_entrp">   -851.52539598 </i>
    <i name="e_0_energy">   -851.52539599 </i>
   </energy>
  </scstep>
  <scstep>
   <time name="dav">   71.72   72.27</time>
   <time name="total">   83.38   84.02</time>
   <energy>
    <i name="e_fr_energy">   -851.52305661 </i>
    <i name="e_wo_entrp">   -851.52305659 </i>
    <i name="e_0_energy">   -851.52305660 </i>
   </energy>
  </scstep>
  <scstep>
   <time name="dav">   72.00   72.50</time>
   <time name="total">   83.89   84.52</time>
   <energy>
    <i name="e_fr_energy">   -851.52328811 </i>
    <i name="e_wo_entrp">   -851.52328808 </i>
    <i name="e_0_energy">   -851.52328809 </i>
   </energy>
  </scstep>
  <scstep>
   <time name="dav">   72.44   72.96</time>
   <time name="total">   84.32   84.92</time>
   <energy>
    <i name="e_fr_energy">   -851.52325204 </i>
    <i name="e_wo_entrp">   -851.52325201 </i>
    <i name="e_0_energy">   -851.52325202 </i>
   </energy>
  </scstep>
  <scstep>
   <time name="dav">   74.57   75.17</time>
   <time name="total">   86.25   86.93</time>
   <energy>
    <i name="e_fr_energy">   -851.52327397 </i>
    <i name="e_wo_entrp">   -851.52327394 </i>
    <i name="e_0_energy">   -851.52327396 </i>
   </energy>
  </scstep>
  <scstep>
   <time name="dav">   78.58   79.14</time>
   <time name="total">   90.46   91.10</time>
   <energy>
    <i name="e_fr_energy">   -851.52330549 </i>
    <i name="e_wo_entrp">   -851.52330546 </i>
    <i name="e_0_energy">   -851.52330547 </i>
   </energy>
  </scstep>
  <scstep>
   <time name="dav">   71.64   72.16</time>
   <time name="total">   83.31   83.91</time>
   <energy>
    <i name="e_fr_energy">   -851.52329937 </i>
    <i name="e_wo_entrp">   -851.52329934 </i>
    <i name="e_0_energy">   -851.52329936 </i>
   </energy>
  </scstep>
  <scstep>
   <time name="dav">   70.65   71.16</time>
   <time name="total">   82.58   83.18</time>
   <energy>
    <i name="e_fr_energy">   -851.52330077 </i>
    <i name="e_wo_entrp">   -851.52330074 </i>
    <i name="e_0_energy">   -851.52330076 </i>
   </energy>
  </scstep>
  <scstep>
   <time name="dav">   42.64   42.89</time>
   <time name="total">   47.43   47.70</time>
   <energy>
    <i name="alphaZ">    186.33367753 </i>
    <i name="ewald">  37824.09433198 </i>
    <i name="hartreedc"> -50513.05738881 </i>
    <i name="XCdc">   1337.56425600 </i>
    <i name="pawpsdc">  38540.79786417 </i>
    <i name="pawaedc"> -38613.79652804 </i>
    <i name="eentropy">     -0.00000003 </i>
    <i name="bandstr">  -4414.04622093 </i>
    <i name="atom">  14800.58670786 </i>
    <i name="e_fr_energy">   -851.52330027 </i>
    <i name="e_wo_entrp">   -851.52330025 </i>
    <i name="e_0_energy">   -851.52330026 </i>
   </energy>
  </scstep>
  <structure>
   <crystal>
    <varray name="basis" >
     <v>      17.27103806       0.00000000       0.00000000 </v>
     <v>      -8.63551903      14.95715771       0.00000000 </v>
     <v>       0.00000000       0.00000000      15.00000000 </v>
    </varray>
    <i name="volume">   3874.88459904 </i>
    <varray name="rec_basis" >
     <v>       0.05790040       0.03342881       0.00000000 </v>
     <v>       0.00000000       0.06685762       0.00000000 </v>
     <v>       0.00000000       0.00000000       0.06666667 </v>
    </varray>
   </crystal>
   <varray name="positions" >
    <v>       0.99904781       0.99891946       0.49843646 </v>
    <v>       0.99845041       0.14143311       0.49868124 </v>
    <v>       0.99803870       0.28424894       0.49874756 </v>
    <v>       0.99816398       0.42738479       0.49927373 </v>
    <v>       0.99878065       0.57052001       0.49936243 </v>
    <v>       0.99990196       0.71374560       0.49987912 </v>
    <v>       0.00009285       0.85679712       0.49987707 </v>
    <v>       0.14222714       0.99930088       0.49264821 </v>
    <v>       0.14166862       0.14186785       0.49282682 </v>
    <v>       0.14037164       0.28384101       0.49217479 </v>
    <v>       0.14005438       0.42708903       0.49271393 </v>
    <v>       0.14119051       0.57017791       0.49379153 </v>
    <v>       0.14201895       0.71325939       0.49352390 </v>
    <v>       0.14236511       0.85635511       0.49323163 </v>
    <v>       0.28483969       0.99871951       0.49251172 </v>
    <v>       0.28474004       0.14148280       0.49081085 </v>
    <v>       0.28465311       0.28511234       0.48569346 </v>
    <v>       0.28097389       0.42695189       0.48198214 </v>
    <v>       0.28379811       0.56919433       0.48681158 </v>
    <v>       0.28451042       0.71333108       0.49140427 </v>
    <v>       0.28485289       0.85618554       0.49251664 </v>
    <v>       0.42784131       0.99865109       0.49554541 </v>
    <v>       0.42764977       0.14097823       0.49593382 </v>
    <v>       0.42633769       0.28043423       0.49468788 </v>
    <v>       0.42583185       0.71447768       0.49248410 </v>
    <v>       0.42769054       0.85591560       0.49518627 </v>
    <v>       0.57047718       0.99878172       0.50056894 </v>
    <v>       0.57049025       0.14144360       0.50065294 </v>
    <v>       0.57138549       0.28515509       0.50437704 </v>
    <v>       0.57156474       0.85603093       0.50454685 </v>
    <v>       0.71331142       0.99872622       0.50741386 </v>
    <v>       0.71329575       0.14170595       0.50325855 </v>
    <v>       0.71330645       0.28483853       0.50595528 </v>
    <v>       0.71296251       0.42733528       0.51637319 </v>
    <v>       0.72076900       0.57389239       0.54683080 </v>
    <v>       0.72655500       0.72073467       0.55756489 </v>
    <v>       0.71321452       0.85658178       0.52178215 </v>
    <v>       0.85632609       0.99910815       0.50797036 </v>
    <v>       0.85572894       0.14158076       0.50372240 </v>
    <v>       0.85566176       0.28447808       0.50328474 </v>
    <v>       0.85604785       0.42764175       0.50673867 </v>
    <v>       0.85707663       0.57120972       0.51248365 </v>
    <v>       0.85931774       0.71497943       0.51844860 </v>
    <v>       0.85753351       0.85657321       0.51335776 </v>
    <v>       0.04647473       0.09417212       0.49637972 </v>
    <v>       0.04530678       0.23630294       0.49656984 </v>
    <v>       0.04506603       0.37942388       0.49706698 </v>
    <v>       0.04615996       0.52272207       0.49731085 </v>
    <v>       0.04682581       0.66582360       0.49692947 </v>
    <v>       0.04728169       0.80885813       0.49700534 </v>
    <v>       0.04704519       0.95164114       0.49617708 </v>
    <v>       0.18952666       0.09411659       0.49141759 </v>
    <v>       0.18862434       0.23690801       0.49067048 </v>
    <v>       0.18630483       0.37866344       0.48957985 </v>
    <v>       0.18824569       0.52227703       0.49141036 </v>
    <v>       0.18924753       0.66568553       0.49246675 </v>
    <v>       0.18980541       0.80866283       0.49259478 </v>
    <v>       0.18985260       0.95146567       0.49226241 </v>
    <v>       0.33251733       0.09405379       0.49294841 </v>
    <v>       0.33342565       0.23684981       0.48950743 </v>
    <v>       0.32462418       0.37714911       0.47792599 </v>
    <v>       0.32790627       0.52082195       0.48010784 </v>
    <v>       0.33276009       0.66637370       0.48971639 </v>
    <v>       0.33251622       0.80840083       0.49266687 </v>
    <v>       0.33242458       0.95118210       0.49329798 </v>
    <v>       0.47539937       0.09357610       0.49741825 </v>
    <v>       0.47473459       0.23583469       0.49836333 </v>
    <v>       0.47479654       0.80773061       0.49694306 </v>
    <v>       0.47537865       0.95116645       0.49709599 </v>
    <v>       0.61795980       0.09387940       0.50151372 </v>
    <v>       0.61826275       0.23692625       0.50397984 </v>
    <v>       0.62003755       0.37871774       0.51098611 </v>
    <v>       0.62021036       0.81144686       0.51412198 </v>
    <v>       0.61822760       0.95117524       0.50446479 </v>
    <v>       0.76079893       0.09412607       0.50473666 </v>
    <v>       0.76075229       0.23686237       0.50402053 </v>
    <v>       0.76094975       0.38006399       0.51000432 </v>
    <v>       0.76209541       0.52466785       0.52535404 </v>
    <v>       0.76705767       0.66821264       0.54266156 </v>
    <v>       0.76314891       0.80953552       0.53125457 </v>
    <v>       0.76123803       0.95161614       0.51294856 </v>
    <v>       0.90335069       0.09380310       0.50332849 </v>
    <v>       0.90301254       0.23668649       0.50193443 </v>
    <v>       0.90310437       0.37991259       0.50299959 </v>
    <v>       0.90384125       0.52316526       0.50533464 </v>
    <v>       0.90507296       0.66629889       0.50941246 </v>
    <v>       0.90545843       0.80949058       0.51004670 </v>
    <v>       0.90405733       0.95135940       0.50526750 </v>
    <v>       0.46333750       0.35232460       0.49646302 </v>
    <v>       0.40015413       0.55513175       0.47414467 </v>
    <v>       0.65026792       0.53946145       0.56420539 </v>
    <v>       0.58445422       0.41576829       0.51043156 </v>
    <v>       0.58509173       0.73904825       0.51299005 </v>
    <v>       0.46216672       0.67819835       0.49145481 </v>
    <v>       0.55044114       0.58404915       0.52855087 </v>
    <v>       0.51698370       0.54038515       0.43637982 </v>
    <v>       0.41571685       0.42791411       0.46597783 </v>
    <v>       0.64651803       0.68026699       0.60236091 </v>
    <v>       0.55718142       0.59686889       0.46511209 </v>
   </varray>
  </structure>
  <varray name="forces" >
   <v>      -0.00383926      -0.01041298       0.00696638 </v>
   <v>      -0.00919235      -0.01346582       0.00039985 </v>
   <v>      -0.00306476      -0.00084153      -0.00209247 </v>
   <v>       0.00133855       0.00223826      -0.00139446 </v>
   <v>      -0.00002236       0.00158771       0.00294360 </v>
   <v>      -0.00408616       0.00205506       0.00723286 </v>
   <v>      -0.00539530      -0.00449939       0.00631558 </v>
   <v>      -0.00098446      -0.01840320      -0.00305251 </v>
   <v>      -0.00567597      -0.00689336      -0.00338300 </v>
   <v>      -0.00592863       0.01673385      -0.00602867 </v>
   <v>       0.01579796       0.01319364      -0.00756460 </v>
   <v>       0.01492086       0.00407827      -0.00371895 </v>
   <v>       0.00471489      -0.00193411      -0.00191668 </v>
   <v>      -0.00558374      -0.00523199      -0.00312290 </v>
   <v>       0.00232620      -0.00383306      -0.00571579 </v>
   <v>       0.00877010       0.00329295      -0.00364917 </v>
   <v>       0.00282145       0.03259068      -0.00710991 </v>
   <v>       0.01439055       0.05338946      -0.00733119 </v>
   <v>       0.04086450       0.00202099      -0.00923060 </v>
   <v>       0.02398039      -0.00811416      -0.00478383 </v>
   <v>       0.01024535      -0.00873725      -0.00563837 </v>
   <v>       0.00957193      -0.00202137       0.00062948 </v>
   <v>       0.00863053       0.00997337       0.00200900 </v>
   <v>       0.01442993       0.02826548       0.00841032 </v>
   <v>       0.02156479      -0.01707516       0.00238609 </v>
   <v>       0.01376560      -0.01936205       0.00170969 </v>
   <v>       0.00693223      -0.00393531       0.00509059 </v>
   <v>       0.00546996       0.00235701       0.00359874 </v>
   <v>      -0.00187175       0.00446137       0.01161470 </v>
   <v>      -0.00077045      -0.01452298       0.01562609 </v>
   <v>      -0.00092334      -0.00417670       0.01282058 </v>
   <v>       0.00214934      -0.00255261       0.00629476 </v>
   <v>      -0.00175671      -0.00256600       0.00706048 </v>
   <v>      -0.00936831      -0.00503823       0.01075795 </v>
   <v>      -0.00152898       0.00087330       0.01118530 </v>
   <v>      -0.00233953       0.00368534       0.01195494 </v>
   <v>      -0.00690142      -0.00857550       0.02237431 </v>
   <v>      -0.00346334      -0.00614846       0.01087687 </v>
   <v>      -0.00566583      -0.00495603       0.00348631 </v>
   <v>      -0.00155007      -0.00355808       0.00333761 </v>
   <v>      -0.00309293      -0.00447606       0.00390934 </v>
   <v>      -0.00307279       0.00473223       0.00952993 </v>
   <v>      -0.00221135       0.00214072       0.01203369 </v>
   <v>      -0.00488098      -0.00426698       0.01655078 </v>
   <v>       0.01205589       0.01040854      -0.00052929 </v>
   <v>       0.00754621       0.00548025      -0.00469585 </v>
   <v>      -0.00332057      -0.00622816      -0.00409617 </v>
   <v>      -0.00259229      -0.00455235      -0.00146536 </v>
   <v>       0.00363159      -0.00178687       0.00321442 </v>
   <v>       0.00614402       0.00073724       0.00169788 </v>
   <v>       0.00564995       0.00980742       0.00289600 </v>
   <v>      -0.00022730       0.01351660      -0.00418844 </v>
   <v>       0.00523327      -0.01033915      -0.00406342 </v>
   <v>      -0.01908232      -0.02879229      -0.00356682 </v>
   <v>      -0.02310622      -0.01060240      -0.00513918 </v>
   <v>      -0.01306176      -0.00426990      -0.00322202 </v>
   <v>       0.00065338       0.00226113      -0.00471482 </v>
   <v>       0.00182972       0.00802990      -0.00532746 </v>
   <v>      -0.00716638      -0.00188083      -0.00390238 </v>
   <v>      -0.01721493      -0.02189507      -0.00239783 </v>
   <v>       0.01052705      -0.04074263      -0.00358402 </v>
   <v>      -0.03445974      -0.02619634      -0.00458331 </v>
   <v>      -0.02758352       0.00162807      -0.00371098 </v>
   <v>      -0.01492277       0.01502807      -0.00224483 </v>
   <v>      -0.00305087       0.00375566      -0.00450417 </v>
   <v>      -0.00290975      -0.00463331       0.00161671 </v>
   <v>      -0.00114317      -0.01580765       0.00720725 </v>
   <v>      -0.00676083       0.02397042       0.00971901 </v>
   <v>      -0.00713540       0.01084706       0.00269356 </v>
   <v>      -0.00157081       0.00001912       0.00400945 </v>
   <v>       0.00434357      -0.00419108       0.00617496 </v>
   <v>       0.00914156      -0.00501503       0.01759088 </v>
   <v>       0.00295965       0.01258521       0.02542948 </v>
   <v>      -0.00041992       0.00932737       0.01063435 </v>
   <v>       0.00523162       0.00335845       0.00921093 </v>
   <v>       0.00414908       0.00294119       0.00536542 </v>
   <v>       0.00791134       0.00197949       0.00795760 </v>
   <v>       0.00615375      -0.00220265       0.00954113 </v>
   <v>       0.00480414      -0.00305065       0.01053827 </v>
   <v>       0.00451074      -0.00001464       0.01813696 </v>
   <v>       0.00425414       0.00609029       0.01713487 </v>
   <v>       0.01069273       0.00723467       0.00487895 </v>
   <v>       0.00669502       0.00384695       0.00183825 </v>
   <v>       0.00306374       0.00179879       0.00091072 </v>
   <v>       0.00583882       0.00011977       0.00400634 </v>
   <v>       0.00504111      -0.00288846       0.00992312 </v>
   <v>       0.00526348      -0.00049675       0.01262996 </v>
   <v>       0.00929329       0.00795388       0.00819335 </v>
   <v>      -0.00048994      -0.01406941       0.01251609 </v>
   <v>       0.01628596       0.00815330      -0.00909484 </v>
   <v>       0.00296463      -0.00046328       0.01572510 </v>
   <v>      -0.00278479      -0.00289109       0.02682205 </v>
   <v>      -0.00362167      -0.00452041       0.03309158 </v>
   <v>      -0.00584426       0.00398331       0.00183675 </v>
   <v>       0.01198673      -0.02396352      -0.01039837 </v>
   <v>      -0.00713660       0.03139802      -0.03130002 </v>
   <v>       0.00261453      -0.00263451      -0.01193452 </v>
   <v>       0.00078977      -0.01012682       0.00632456 </v>
   <v>      -0.11116900       0.04592377      -0.32217454 </v>
  </varray>
  <varray name="stress" >
   <v>       4.02172106       1.07466656       0.03154936 </v>
   <v>       1.07466339       2.50834143      -0.03096921 </v>
   <v>       0.03154972      -0.03096953      -0.16589917 </v>
  </varray>
  <energy>
   <i name="e_fr_energy">   -859.43261816 </i>
   <i name="e_wo_entrp">   -859.43261813 </i>
   <i name="e_0_energy">   -859.43261814 </i>
  </energy>
  <time name="totalsc"> 1687.22 1699.73</time>
 </calculation>
 <calculation>
  <scstep>
   <time name="dav">   66.67   67.16</time>
   <time name="total">   77.82   78.38</time>
   <energy>
    <i name="alphaZ">    186.33367753 </i>
    <i name="ewald">  37823.94669711 </i>
    <i name="hartreedc"> -50512.90193710 </i>
    <i name="XCdc">   1337.56380454 </i>
    <i name="pawpsdc">  38540.58480098 </i>
    <i name="pawaedc"> -38613.58323221 </i>
    <i name="eentropy">     -0.00000003 </i>
    <i name="bandstr">  -4414.05415668 </i>
    <i name="atom">  14800.58670786 </i>
    <i name="e_fr_energy">   -851.52363799 </i>
    <i name="e_wo_entrp">   -851.52363797 </i>
    <i name="e_0_energy">   -851.52363798 </i>
   </energy>
  </scstep>
  <scstep>
   <time name="dav">   72.91   73.47</time>
   <time name="total">   83.85   84.49</time>
   <energy>
    <i name="e_fr_energy">   -851.52366601 </i>
    <i name="e_wo_entrp">   -851.52366599 </i>
    <i name="e_0_energy">   -851.52366600 </i>
   </energy>
  </scstep>
  <scstep>
   <time name="dav">   69.44   69.93</time>
   <time name="total">   79.13   79.70</time>
   <energy>
    <i name="e_fr_energy">   -851.52366205 </i>
    <i name="e_wo_entrp">   -851.52366202 </i>
    <i name="e_0_energy">   -851.52366204 </i>
   </energy>
  </scstep>
  <scstep>
   <time name="dav">   45.81   46.06</time>
   <time name="total">   53.66   53.97</time>
   <energy>
    <i name="e_fr_energy">   -851.52365896 </i>
    <i name="e_wo_entrp">   -851.52365894 </i>
    <i name="e_0_energy">   -851.52365895 </i>
   </energy>
  </scstep>
  <scstep>
   <time name="dav">   34.98   35.15</time>
   <time name="total">   38.90   39.09</time>
   <energy>
    <i name="alphaZ">    186.33367753 </i>
    <i name="ewald">  37823.94669711 </i>
    <i name="hartreedc"> -50512.90551483 </i>
    <i name="XCdc">   1337.56389244 </i>
    <i name="pawpsdc">  38540.31254153 </i>
    <i name="pawaedc"> -38613.31105055 </i>
    <i name="eentropy">     -0.00000003 </i>
    <i name="bandstr">  -4414.05061034 </i>
    <i name="atom">  14800.58670786 </i>
    <i name="e_fr_energy">   -851.52365928 </i>
    <i name="e_wo_entrp">   -851.52365925 </i>
    <i name="e_0_energy">   -851.52365927 </i>
   </energy>
  </scstep>
  <structure>
   <crystal>
    <varray name="basis" >
     <v>      17.27103806       0.00000000       0.00000000 </v>
     <v>      -8.63551903      14.95715771       0.00000000 </v>
     <v>       0.00000000       0.00000000      15.00000000 </v>
    </varray>
    <i name="volume">   3874.88459904 </i>
    <varray name="rec_basis" >
     <v>       0.05790040       0.03342881       0.00000000 </v>
     <v>       0.00000000       0.06685762       0.00000000 </v>
     <v>       0.00000000       0.00000000       0.06666667 </v>
    </varray>
   </crystal>
   <varray name="positions" >
    <v>       0.99904224       0.99891266       0.49844148 </v>
    <v>       0.99844072       0.14142427       0.49868196 </v>
    <v>       0.99803679       0.28424854       0.49874660 </v>
    <v>       0.99816568       0.42738645       0.49927319 </v>
    <v>       0.99878135       0.57052123       0.49936464 </v>
    <v>       0.99990046       0.71374714       0.49988413 </v>
    <v>       0.00008837       0.85679427       0.49988151 </v>
    <v>       0.14222055       0.99928873       0.49264631 </v>
    <v>       0.14166313       0.14186338       0.49282460 </v>
    <v>       0.14037388       0.28385232       0.49217056 </v>
    <v>       0.14006809       0.42709798       0.49270874 </v>
    <v>       0.14120069       0.57018079       0.49378908 </v>
    <v>       0.14202120       0.71325826       0.49352277 </v>
    <v>       0.14236028       0.85635178       0.49322977 </v>
    <v>       0.28483989       0.99871714       0.49250788 </v>
    <v>       0.28474631       0.14148516       0.49080775 </v>
    <v>       0.28466550       0.28513411       0.48568688 </v>
    <v>       0.28099991       0.42698754       0.48197492 </v>
    <v>       0.28382253       0.56919576       0.48680422 </v>
    <v>       0.28452173       0.71332579       0.49140077 </v>
    <v>       0.28485604       0.85617986       0.49251295 </v>
    <v>       0.42784630       0.99864995       0.49554576 </v>
    <v>       0.42765822       0.14098516       0.49593471 </v>
    <v>       0.42635554       0.28045341       0.49469212 </v>
    <v>       0.42583873       0.71446640       0.49248509 </v>
    <v>       0.42769215       0.85590284       0.49518720 </v>
    <v>       0.57047999       0.99877930       0.50057226 </v>
    <v>       0.57049431       0.14144539       0.50065520 </v>
    <v>       0.57138599       0.28515831       0.50438431 </v>
    <v>       0.57155953       0.85602142       0.50455686 </v>
    <v>       0.71330960       0.99872360       0.50742236 </v>
    <v>       0.71329625       0.14170443       0.50326287 </v>
    <v>       0.71330468       0.28483698       0.50595997 </v>
    <v>       0.71295553       0.42733206       0.51638005 </v>
    <v>       0.72076843       0.57389304       0.54683742 </v>
    <v>       0.72655472       0.72073704       0.55757148 </v>
    <v>       0.71320773       0.85657618       0.52179648 </v>
    <v>       0.85632214       0.99910419       0.50797777 </v>
    <v>       0.85572412       0.14157761       0.50372507 </v>
    <v>       0.85565980       0.28447586       0.50328732 </v>
    <v>       0.85604472       0.42763891       0.50674143 </v>
    <v>       0.85707661       0.57121303       0.51248991 </v>
    <v>       0.85931730       0.71498100       0.51845637 </v>
    <v>       0.85752936       0.85657050       0.51336869 </v>
    <v>       0.04648531       0.09417924       0.49637975 </v>
    <v>       0.04531311       0.23630676       0.49656706 </v>
    <v>       0.04506219       0.37941987       0.49706459 </v>
    <v>       0.04615712       0.52271918       0.49731016 </v>
    <v>       0.04682749       0.66582256       0.49693184 </v>
    <v>       0.04728565       0.80885878       0.49700670 </v>
    <v>       0.04705188       0.95164785       0.49617932 </v>
    <v>       0.18953115       0.09412578       0.49141463 </v>
    <v>       0.18862396       0.23690120       0.49066729 </v>
    <v>       0.18628425       0.37864429       0.48957676 </v>
    <v>       0.18822891       0.52227007       0.49140657 </v>
    <v>       0.18923870       0.66568282       0.49246454 </v>
    <v>       0.18980669       0.80866451       0.49259180 </v>
    <v>       0.18985648       0.95147120       0.49225898 </v>
    <v>       0.33251267       0.09405273       0.49294543 </v>
    <v>       0.33340838       0.23683529       0.48950438 </v>
    <v>       0.32461611       0.37712153       0.47792006 </v>
    <v>       0.32787737       0.52080443       0.48010220 </v>
    <v>       0.33274478       0.66637489       0.48971316 </v>
    <v>       0.33251273       0.80841102       0.49266526 </v>
    <v>       0.33242420       0.95118479       0.49329498 </v>
    <v>       0.47539624       0.09357324       0.49741914 </v>
    <v>       0.47472873       0.23582443       0.49836739 </v>
    <v>       0.47480074       0.80774680       0.49694913 </v>
    <v>       0.47537826       0.95117390       0.49709769 </v>
    <v>       0.61795900       0.09387962       0.50151638 </v>
    <v>       0.61826396       0.23692366       0.50398375 </v>
    <v>       0.62004128       0.37871461       0.51099738 </v>
    <v>       0.62021637       0.81145549       0.51413825 </v>
    <v>       0.61823059       0.95118168       0.50447170 </v>
    <v>       0.76080319       0.09412849       0.50474296 </v>
    <v>       0.76075579       0.23686451       0.50402429 </v>
    <v>       0.76095512       0.38006547       0.51000956 </v>
    <v>       0.76209839       0.52466651       0.52535999 </v>
    <v>       0.76705945       0.66821064       0.54266774 </v>
    <v>       0.76315154       0.80953559       0.53126596 </v>
    <v>       0.76124263       0.95162037       0.51295983 </v>
    <v>       0.90335942       0.09380810       0.50333213 </v>
    <v>       0.90301784       0.23668923       0.50193610 </v>
    <v>       0.90310691       0.37991396       0.50300055 </v>
    <v>       0.90384485       0.52316550       0.50533745 </v>
    <v>       0.90507509       0.66629711       0.50941905 </v>
    <v>       0.90546144       0.80949040       0.51005510 </v>
    <v>       0.90406550       0.95136488       0.50527317 </v>
    <v>       0.46333244       0.35231553       0.49646971 </v>
    <v>       0.40016591       0.55513722       0.47413483 </v>
    <v>       0.65026943       0.53946116       0.56421458 </v>
    <v>       0.58445177       0.41576660       0.51044892 </v>
    <v>       0.58508814       0.73904547       0.51301136 </v>
    <v>       0.46216472       0.67820109       0.49145553 </v>
    <v>       0.55043991       0.58403223       0.52854324 </v>
    <v>       0.51698710       0.54040273       0.43636030 </v>
    <v>       0.41571581       0.42791104       0.46596307 </v>
    <v>       0.64651429       0.68025966       0.60236243 </v>
    <v>       0.55712945       0.59689182       0.46511209 </v>
   </varray>
  </structure>
  <varray name="forces" >
   <v>       0.00323999       0.00210386       0.00603482 </v>
   <v>       0.00335814       0.00320269       0.00044050 </v>
   <v>       0.00207933      -0.00027003      -0.00231765 </v>
   <v>       0.00142265      -0.00011895      -0.00145588 </v>
   <v>       0.00009157      -0.00226165       0.00187190 </v>
   <v>       0.00155593      -0.00003420       0.00685894 </v>
   <v>       0.00049534       0.00094253       0.00581997 </v>
   <v>       0.00103501       0.00374103      -0.00239156 </v>
   <v>       0.00188667       0.00084362      -0.00371069 </v>
   <v>       0.00204967      -0.00526583      -0.00650745 </v>
   <v>       0.00075366      -0.00329535      -0.00553632 </v>
   <v>      -0.00206966      -0.00195715      -0.00444187 </v>
   <v>       0.00034976       0.00024420      -0.00182213 </v>
   <v>       0.00058324       0.00060807      -0.00336541 </v>
   <v>       0.00116916       0.00052435      -0.00576282 </v>
   <v>       0.00045175      -0.00097809      -0.00385955 </v>
   <v>       0.00063598      -0.00672359      -0.00288294 </v>
   <v>       0.00093103      -0.00965534      -0.00427185 </v>
   <v>      -0.00345290       0.00099895      -0.00652540 </v>
   <v>      -0.00222132       0.00093250      -0.00431520 </v>
   <v>       0.00014018       0.00121814      -0.00554740 </v>
   <v>       0.00066003       0.00009203       0.00031734 </v>
   <v>       0.00057372      -0.00256048       0.00146406 </v>
   <v>      -0.00156445      -0.00492544       0.00558491 </v>
   <v>      -0.00126689       0.00104494       0.00298575 </v>
   <v>      -0.00103922       0.00051154       0.00192915 </v>
   <v>       0.00084398       0.00057689       0.00502624 </v>
   <v>       0.00140796      -0.00116429       0.00347940 </v>
   <v>       0.00117980      -0.00364211       0.01141737 </v>
   <v>      -0.00130307       0.00201440       0.01589852 </v>
   <v>       0.00123763       0.00072143       0.01305961 </v>
   <v>       0.00182920      -0.00001170       0.00640949 </v>
   <v>       0.00181302      -0.00042919       0.00719881 </v>
   <v>       0.00179113      -0.00154594       0.01111684 </v>
   <v>       0.00133828      -0.00023249       0.00880297 </v>
   <v>       0.00069067      -0.00141181       0.01277169 </v>
   <v>       0.00076425       0.00098723       0.02248999 </v>
   <v>       0.00211206       0.00101093       0.01048276 </v>
   <v>       0.00175847       0.00084217       0.00372758 </v>
   <v>       0.00261021       0.00046728       0.00328342 </v>
   <v>       0.00168655       0.00225686       0.00235165 </v>
   <v>       0.00080989       0.00044505       0.00768194 </v>
   <v>       0.00211861      -0.00042711       0.01182642 </v>
   <v>       0.00073971       0.00071861       0.01548501 </v>
   <v>      -0.00127544      -0.00279359       0.00070016 </v>
   <v>       0.00063509      -0.00027499      -0.00423659 </v>
   <v>       0.00262539       0.00191424      -0.00306630 </v>
   <v>       0.00223718       0.00045630      -0.00157738 </v>
   <v>       0.00077807       0.00090129       0.00331948 </v>
   <v>      -0.00066722      -0.00031269       0.00222708 </v>
   <v>       0.00020956      -0.00198291       0.00346359 </v>
   <v>       0.00211941      -0.00317780      -0.00361813 </v>
   <v>      -0.00009990       0.00134192      -0.00438203 </v>
   <v>       0.00405317       0.00437074      -0.00618669 </v>
   <v>       0.00543948       0.00210260      -0.00657655 </v>
   <v>       0.00309537       0.00229346      -0.00505884 </v>
   <v>       0.00063318      -0.00000231      -0.00320068 </v>
   <v>       0.00080698      -0.00140731      -0.00529131 </v>
   <v>       0.00302708      -0.00003721      -0.00352496 </v>
   <v>       0.00368864       0.00287736      -0.00165316 </v>
   <v>      -0.00049438       0.00568442      -0.00649811 </v>
   <v>       0.00769631       0.00401541      -0.00858962 </v>
   <v>       0.00531604      -0.00144740      -0.00407619 </v>
   <v>       0.00211187      -0.00470612      -0.00275719 </v>
   <v>       0.00224917      -0.00073738      -0.00442923 </v>
   <v>       0.00252332       0.00004599       0.00189823 </v>
   <v>       0.00064987       0.00103234       0.00787796 </v>
   <v>       0.00118139      -0.00509062       0.00739806 </v>
   <v>       0.00268357      -0.00154694       0.00277916 </v>
   <v>       0.00209752      -0.00056130       0.00422035 </v>
   <v>       0.00111177      -0.00028923       0.00644449 </v>
   <v>      -0.00175349      -0.00094381       0.01673733 </v>
   <v>      -0.00018914      -0.00266854       0.02425507 </v>
   <v>       0.00179296      -0.00154911       0.01098643 </v>
   <v>       0.00154226      -0.00089918       0.00915750 </v>
   <v>       0.00123516      -0.00062692       0.00547739 </v>
   <v>       0.00042367      -0.00083389       0.00809973 </v>
   <v>       0.00067955      -0.00167249       0.01054511 </v>
   <v>       0.00061333       0.00048659       0.01146648 </v>
   <v>      -0.00035020       0.00044100       0.01856189 </v>
   <v>       0.00088250      -0.00097922       0.01767052 </v>
   <v>      -0.00017678      -0.00287448       0.00407618 </v>
   <v>       0.00081614      -0.00121457       0.00199784 </v>
   <v>       0.00073479      -0.00051934       0.00115756 </v>
   <v>       0.00087101       0.00040326       0.00460635 </v>
   <v>       0.00040263       0.00111836       0.01046356 </v>
   <v>      -0.00004405      -0.00044003       0.01323021 </v>
   <v>      -0.00188864      -0.00155038       0.01067749 </v>
   <v>       0.00020884       0.00054995       0.01277263 </v>
   <v>       0.00023676      -0.00096828      -0.00748231 </v>
   <v>       0.00215752      -0.00068421       0.01591753 </v>
   <v>       0.00028905      -0.00431837       0.02680239 </v>
   <v>      -0.00323871       0.00093051       0.03318421 </v>
   <v>       0.00310550      -0.00168059       0.00165258 </v>
   <v>       0.01207469      -0.02382010      -0.00984121 </v>
   <v>      -0.00736549       0.03030530      -0.03181670 </v>
   <v>       0.00462276      -0.00653422      -0.01195580 </v>
   <v>       0.00130764      -0.00944100       0.00595234 </v>
   <v>      -0.10869944       0.04717695      -0.32106082 </v>
[...]
       <r>   -17.7593     4.2474    30.9990 </r>
       <r>   -17.6398     4.1702    31.4973 </r>
       <r>   -17.5203     6.5330    32.2779 </r>
       <r>   -17.4008    15.8482    34.1716 </r>
       <r>   -17.2813    10.5626    35.4338 </r>
       <r>   -17.1618    12.5320    36.9312 </r>
       <r>   -17.0423     3.1627    37.3091 </r>
       <r>   -16.9229     7.3730    38.1901 </r>
       <r>   -16.8034     9.8049    39.3617 </r>
       <r>   -16.6839     5.3339    39.9991 </r>
       <r>   -16.5644     7.0336    40.8395 </r>
       <r>   -16.4449     2.4894    41.1370 </r>
       <r>   -16.3254    16.1783    43.0701 </r>
       <r>   -16.2059    11.6451    44.4616 </r>
       <r>   -16.0864     4.1288    44.9549 </r>
       <r>   -15.9669     3.1369    45.3297 </r>
       <r>   -15.8474     3.4990    45.7478 </r>
       <r>   -15.7280     0.7873    45.8419 </r>
       <r>   -15.6085     3.3096    46.2374 </r>
       <r>   -15.4890     1.9588    46.4714 </r>
       <r>   -15.3695     7.8833    47.4134 </r>
       <r>   -15.2500     9.9682    48.6045 </r>
       <r>   -15.1305     6.0686    49.3296 </r>
       <r>   -15.0110     6.6958    50.1297 </r>
       <r>   -14.8915    14.6155    51.8761 </r>
       <r>   -14.7720     9.2733    52.9842 </r>
       <r>   -14.6525     2.3680    53.2671 </r>
       <r>   -14.5331    10.3701    54.5063 </r>
       <r>   -14.4136    12.3626    55.9835 </r>
       <r>   -14.2941     7.9316    56.9312 </r>
       <r>   -14.1746    10.2065    58.1508 </r>
       <r>   -14.0551    12.0715    59.5932 </r>
       <r>   -13.9356     3.9516    60.0654 </r>
       <r>   -13.8161     5.9347    60.7745 </r>
       <r>   -13.6966     5.5902    61.4425 </r>
       <r>   -13.5771     6.4338    62.2113 </r>
       <r>   -13.4576    10.0317    63.4100 </r>
       <r>   -13.3382     7.6400    64.3229 </r>
       <r>   -13.2187     8.0384    65.2834 </r>
       <r>   -13.0992     5.6644    65.9602 </r>
       <r>   -12.9797     4.4655    66.4938 </r>
       <r>   -12.8602     6.4863    67.2689 </r>
       <r>   -12.7407     9.4430    68.3972 </r>
       <r>   -12.6212     6.8449    69.2151 </r>
       <r>   -12.5017    11.8932    70.6362 </r>
       <r>   -12.3822    10.9642    71.9463 </r>
       <r>   -12.2627    12.6050    73.4525 </r>
       <r>   -12.1433     8.5490    74.4740 </r>
       <r>   -12.0238     6.3471    75.2324 </r>
       <r>   -11.9043     6.3753    75.9942 </r>
       <r>   -11.7848     8.6263    77.0250 </r>
       <r>   -11.6653    10.9070    78.3282 </r>
       <r>   -11.5458     8.3065    79.3208 </r>
       <r>   -11.4263    12.5963    80.8259 </r>
       <r>   -11.3068    10.1455    82.0382 </r>
       <r>   -11.1873    11.6924    83.4353 </r>
       <r>   -11.0678    11.5155    84.8113 </r>
       <r>   -10.9484    10.5564    86.0727 </r>
       <r>   -10.8289    15.0648    87.8728 </r>
       <r>   -10.7094     9.2290    88.9756 </r>
       <r>   -10.5899     3.1284    89.3494 </r>
       <r>   -10.4704     5.4807    90.0043 </r>
       <r>   -10.3509     9.3403    91.1204 </r>
       <r>   -10.2314    12.1769    92.5754 </r>
       <r>   -10.1119    17.2668    94.6386 </r>
       <r>    -9.9924    15.8751    96.5355 </r>
       <r>    -9.8729    20.4505    98.9791 </r>
       <r>    -9.7535    18.1163   101.1438 </r>
       <r>    -9.6340    17.3007   103.2111 </r>
       <r>    -9.5145    11.2976   104.5611 </r>
       <r>    -9.3950    18.6593   106.7907 </r>
       <r>    -9.2755    17.2666   108.8538 </r>
       <r>    -9.1560    16.2366   110.7939 </r>
       <r>    -9.0365    22.8913   113.5292 </r>
       <r>    -8.9170    22.6234   116.2325 </r>
       <r>    -8.7975    28.9149   119.6875 </r>
       <r>    -8.6780    25.3998   122.7226 </r>
       <r>    -8.5586    19.6161   125.0665 </r>
       <r>    -8.4391    17.8765   127.2026 </r>
       <r>    -8.3196    19.6270   129.5478 </r>
       <r>    -8.2001    16.8078   131.5562 </r>
       <r>    -8.0806    19.9770   133.9432 </r>
       <r>    -7.9611    23.2679   136.7235 </r>
       <r>    -7.8416    19.2235   139.0205 </r>
       <r>    -7.7221    18.1135   141.1849 </r>
       <r>    -7.6026    13.8315   142.8376 </r>
       <r>    -7.4832    15.2120   144.6553 </r>
       <r>    -7.3637    10.8223   145.9485 </r>
       <r>    -7.2442    13.2395   147.5304 </r>
       <r>    -7.1247    24.8790   150.5032 </r>
       <r>    -7.0052    18.7254   152.7407 </r>
       <r>    -6.8857    16.4016   154.7006 </r>
       <r>    -6.7662    10.5666   155.9632 </r>
       <r>    -6.6467     8.6767   156.9999 </r>
       <r>    -6.5272    15.3777   158.8374 </r>
       <r>    -6.4077    10.0035   160.0327 </r>
       <r>    -6.2883    12.1499   161.4845 </r>
       <r>    -6.1688    13.0506   163.0439 </r>
       <r>    -6.0493    20.1646   165.4534 </r>
       <r>    -5.9298    11.3671   166.8117 </r>
       <r>    -5.8103    15.0134   168.6056 </r>
       <r>    -5.6908    16.2227   170.5441 </r>
       <r>    -5.5713    15.8924   172.4430 </r>
       <r>    -5.4518    10.4683   173.6939 </r>
       <r>    -5.3323     5.7286   174.3784 </r>
       <r>    -5.2128     3.4600   174.7918 </r>
       <r>    -5.0934     2.2309   175.0584 </r>
       <r>    -4.9739    17.0723   177.0984 </r>
       <r>    -4.8544    19.9658   179.4841 </r>
       <r>    -4.7349    14.8274   181.2558 </r>
       <r>    -4.6154     4.3365   181.7740 </r>
       <r>    -4.4959     9.1041   182.8618 </r>
       <r>    -4.3764     3.2521   183.2504 </r>
       <r>    -4.2569     2.5582   183.5561 </r>
       <r>    -4.1374     8.1846   184.5341 </r>
       <r>    -4.0179     6.4609   185.3061 </r>
       <r>    -3.8985     7.6523   186.2205 </r>
       <r>    -3.7790     7.3024   187.0930 </r>
       <r>    -3.6595     6.7557   187.9003 </r>
       <r>    -3.5400     0.8347   188.0000 </r>
       <r>    -3.4205     0.0078   188.0009 </r>
       <r>    -3.3010     1.7336   188.2081 </r>
       <r>    -3.1815     6.1181   188.9391 </r>
       <r>    -3.0620     2.6014   189.2500 </r>
       <r>    -2.9425     1.6117   189.4425 </r>
       <r>    -2.8230     0.4808   189.5000 </r>
       <r>    -2.7036     0.0050   189.5006 </r>
       <r>    -2.5841     2.2669   189.7715 </r>
       <r>    -2.4646     1.9103   189.9997 </r>
       <r>    -2.3451     0.0024   190.0000 </r>
       <r>    -2.2256     0.8615   190.1030 </r>
       <r>    -2.1061     3.2480   190.4911 </r>
       <r>    -1.9866     0.0747   190.5000 </r>
       <r>    -1.8671     0.0061   190.5007 </r>
       <r>    -1.7476     1.6511   190.6980 </r>
       <r>    -1.6281     2.5681   191.0049 </r>
       <r>    -1.5087     7.0091   191.8424 </r>
       <r>    -1.3892     1.3188   192.0000 </r>
       <r>    -1.2697     0.1843   192.0220 </r>
       <r>    -1.1502     4.6942   192.5829 </r>
       <r>    -1.0307     6.8478   193.4012 </r>
       <r>    -0.9112     3.8984   193.8670 </r>
       <r>    -0.7917    13.6591   195.4991 </r>
       <r>    -0.6722    11.5951   196.8846 </r>
       <r>    -0.5527     4.6534   197.4406 </r>
       <r>    -0.4332    12.9526   198.9883 </r>
       <r>    -0.3138     7.6160   199.8984 </r>
       <r>    -0.1943     4.6926   200.4591 </r>
       <r>    -0.0748     6.5449   201.2411 </r>
       <r>     0.0447     8.6922   202.2798 </r>
       <r>     0.1642     9.9781   203.4721 </r>
       <r>     0.2837    13.2562   205.0560 </r>
       <r>     0.4032     6.7342   205.8607 </r>
       <r>     0.5227     1.1723   206.0008 </r>
       <r>     0.6422     3.3962   206.4066 </r>
       <r>     0.7617    14.4967   208.1388 </r>
       <r>     0.8811     9.5256   209.2770 </r>
       <r>     1.0006     5.9482   209.9878 </r>
       <r>     1.1201     9.8759   211.1678 </r>
       <r>     1.2396     7.7744   212.0968 </r>
       <r>     1.3591     6.1625   212.8332 </r>
       <r>     1.4786    11.0349   214.1517 </r>
       <r>     1.5981    20.0736   216.5503 </r>
       <r>     1.7176    16.4345   218.5141 </r>
       <r>     1.8371    12.2783   219.9812 </r>
       <r>     1.9566     7.1835   220.8396 </r>
       <r>     2.0760    19.4379   223.1622 </r>
       <r>     2.1955    19.6016   225.5044 </r>
       <r>     2.3150    19.3683   227.8187 </r>
       <r>     2.4345    19.2701   230.1213 </r>
       <r>     2.5540    16.3960   232.0804 </r>
       <r>     2.6735    11.4594   233.4497 </r>
       <r>     2.7930    16.4567   235.4161 </r>
       <r>     2.9125    27.1198   238.6567 </r>
       <r>     3.0320    11.1980   239.9947 </r>
       <r>     3.1515     0.0443   240.0000 </r>
       <r>     3.2709     0.0000   240.0000 </r>
       <r>     3.3904     0.0000   240.0000 </r>
       <r>     3.5099     0.0000   240.0000 </r>
       <r>     3.6294     0.0000   240.0000 </r>
       <r>     3.7489     0.0000   240.0000 </r>
       <r>     3.8684     0.0000   240.0000 </r>
       <r>     3.9879     0.0000   240.0000 </r>
       <r>     4.1074     0.0000   240.0000 </r>
       <r>     4.2269     0.0000   240.0000 </r>
       <r>     4.3464     0.0000   240.0000 </r>
       <r>     4.4658     0.0000   240.0000 </r>
       <r>     4.5853     0.0000   240.0000 </r>
      </set>
     </set>
    </array>
   </total>
  </dos>
 </calculation>
 <structure name="finalpos" >
  <crystal>
   <varray name="basis" >
    <v>      17.27103806       0.00000000       0.00000000 </v>
    <v>      -8.63551903      14.95715771       0.00000000 </v>
    <v>       0.00000000       0.00000000      15.00000000 </v>
   </varray>
   <i name="volume">   3874.88459904 </i>
   <varray name="rec_basis" >
    <v>       0.05790040       0.03342881       0.00000000 </v>
    <v>       0.00000000       0.06685762       0.00000000 </v>
    <v>       0.00000000       0.00000000       0.06666667 </v>
   </varray>
  </crystal>
  <varray name="positions" >
   <v>       0.99909677       0.99873490       0.50150980 </v>
   <v>       0.99853267       0.14126713       0.49976477 </v>
   <v>       0.99818827       0.28415154       0.49857701 </v>
   <v>       0.99836467       0.42728437       0.49939156 </v>
   <v>       0.99896219       0.57042051       0.50069118 </v>
   <v>       1.00008750       0.71366298       0.50265700 </v>
   <v>       0.00019315       0.85669953       0.50347721 </v>
   <v>       0.14225211       0.99913133       0.49316681 </v>
   <v>       0.14164363       0.14163760       0.49218919 </v>
   <v>       0.14036501       0.28362831       0.48959127 </v>
   <v>       0.14024761       0.42695962       0.49011829 </v>
   <v>       0.14136176       0.57005344       0.49236872 </v>
   <v>       0.14216481       0.71314763       0.49331626 </v>
   <v>       0.14242886       0.85622894       0.49380818 </v>
   <v>       0.28496280       0.99868517       0.49194748 </v>
   <v>       0.28480196       0.14139681       0.48914776 </v>
   <v>       0.28447376       0.28480650       0.48076439 </v>
   <v>       0.28083267       0.42662262       0.47479325 </v>
   <v>       0.28396734       0.56905328       0.48291826 </v>
   <v>       0.28476400       0.71324731       0.49009881 </v>
   <v>       0.28499966       0.85612080       0.49188266 </v>
   <v>       0.42800027       0.99871251       0.49594069 </v>
   <v>       0.42777029       0.14115875       0.49659003 </v>
   <v>       0.42625285       0.28065673       0.49485743 </v>
   <v>       0.42611918       0.71436678       0.49286288 </v>
   <v>       0.42785412       0.85590298       0.49603680 </v>
   <v>       0.57061671       0.99885212       0.50252477 </v>
   <v>       0.57057632       0.14151232       0.50267101 </v>
   <v>       0.57135704       0.28514167       0.50835913 </v>
   <v>       0.57151754       0.85612812       0.50878840 </v>
   <v>       0.71344519       0.99867584       0.51061577 </v>
   <v>       0.71341917       0.14169669       0.50535405 </v>
   <v>       0.71340068       0.28478919       0.50911697 </v>
   <v>       0.71318625       0.42714949       0.52136450 </v>
   <v>       0.72110360       0.57374589       0.55170514 </v>
   <v>       0.72646211       0.72019662       0.56211258 </v>
   <v>       0.71313047       0.85657682       0.52783244 </v>
   <v>       0.85643798       0.99899129       0.51186977 </v>
   <v>       0.85589349       0.14150848       0.50548878 </v>
   <v>       0.85581427       0.28437369       0.50491375 </v>
   <v>       0.85628706       0.42752284       0.50931669 </v>
   <v>       0.85735463       0.57109431       0.51657034 </v>
   <v>       0.85973484       0.71494237       0.52361640 </v>
   <v>       0.85761713       0.85649687       0.51921015 </v>
   <v>       0.04653771       0.09398089       0.49760147 </v>
   <v>       0.04538777       0.23613392       0.49598217 </v>
   <v>       0.04527246       0.37932322       0.49618969 </v>
   <v>       0.04633466       0.52262141       0.49723695 </v>
   <v>       0.04697978       0.66572851       0.49812745 </v>
   <v>       0.04738249       0.80876824       0.49934642 </v>
   <v>       0.04711603       0.95150555       0.49868840 </v>
   <v>       0.18954465       0.09394832       0.49055656 </v>
   <v>       0.18856256       0.23662795       0.48804700 </v>
   <v>       0.18633839       0.37839612       0.48550981 </v>
   <v>       0.18838275       0.52216087       0.48852368 </v>
   <v>       0.18943748       0.66559500       0.49122887 </v>
   <v>       0.18991442       0.80857329       0.49232351 </v>
   <v>       0.18993358       0.95136605       0.49224563 </v>
   <v>       0.33263117       0.09406837       0.49231759 </v>
   <v>       0.33339949       0.23674780       0.48693011 </v>
   <v>       0.32425056       0.37646383       0.46886610 </v>
   <v>       0.32775087       0.52057629       0.47342924 </v>
   <v>       0.33301996       0.66627962       0.48790402 </v>
   <v>       0.33269384       0.80835771       0.49220841 </v>
   <v>       0.33256995       0.95116929       0.49289181 </v>
   <v>       0.47548116       0.09368274       0.49849538 </v>
   <v>       0.47472889       0.23608725       0.50033645 </v>
   <v>       0.47488232       0.80768458       0.49906109 </v>
   <v>       0.47552392       0.95121559       0.49823896 </v>
   <v>       0.61806113       0.09394168       0.50350724 </v>
   <v>       0.61830716       0.23692049       0.50705963 </v>
   <v>       0.62016990       0.37852993       0.51677126 </v>
   <v>       0.61998671       0.81169835       0.52114939 </v>
   <v>       0.61833919       0.95126782       0.50749521 </v>
   <v>       0.76094405       0.09407226       0.50677621 </v>
   <v>       0.76089443       0.23684237       0.50633198 </v>
   <v>       0.76118292       0.37998358       0.51362512 </v>
   <v>       0.76241552       0.52447128       0.53021499 </v>
   <v>       0.76739253       0.66807016       0.54750914 </v>
   <v>       0.76311641       0.80945167       0.53734807 </v>
   <v>       0.76133078       0.95151584       0.51733052 </v>
   <v>       0.90348931       0.09366541       0.50562505 </v>
   <v>       0.90319340       0.23661389       0.50300361 </v>
   <v>       0.90332481       0.37980973       0.50444801 </v>
   <v>       0.90408212       0.52306685       0.50810280 </v>
   <v>       0.90540052       0.66623066       0.51373100 </v>
   <v>       0.90567129       0.80947347       0.51527351 </v>
   <v>       0.90418096       0.95122020       0.50994509 </v>
   <v>       0.46275591       0.35265102       0.49734504 </v>
   <v>       0.40003551       0.55500622       0.46715522 </v>
   <v>       0.65076576       0.53917468       0.57004992 </v>
   <v>       0.58433947       0.41533906       0.51803954 </v>
   <v>       0.58416148       0.73938409       0.52292676 </v>
   <v>       0.46243062       0.67805525       0.49205440 </v>
   <v>       0.55494522       0.58431619       0.52401447 </v>
   <v>       0.51759809       0.54779795       0.43019976 </v>
   <v>       0.41430754       0.42575025       0.45026274 </v>
   <v>       0.64461709       0.67741667       0.60369873 </v>
   <v>       0.54677853       0.60246518       0.46511209 </v>
  </varray>
  <varray name="selective"  type="logical" >
   <v type="logical" >  T  T  T </v>
   <v type="logical" >  T  T  T </v>
   <v type="logical" >  T  T  T </v>
   <v type="logical" >  T  T  T </v>
   <v type="logical" >  T  T  T </v>
   <v type="logical" >  T  T  T </v>
   <v type="logical" >  T  T  T </v>
   <v type="logical" >  T  T  T </v>
   <v type="logical" >  T  T  T </v>
   <v type="logical" >  T  T  T </v>
   <v type="logical" >  T  T  T </v>
   <v type="logical" >  T  T  T </v>
   <v type="logical" >  T  T  T </v>
   <v type="logical" >  T  T  T </v>
   <v type="logical" >  T  T  T </v>
   <v type="logical" >  T  T  T </v>
   <v type="logical" >  T  T  T </v>
   <v type="logical" >  T  T  T </v>
   <v type="logical" >  T  T  T </v>
   <v type="logical" >  T  T  T </v>
   <v type="logical" >  T  T  T </v>
   <v type="logical" >  T  T  T </v>
   <v type="logical" >  T  T  T </v>
   <v type="logical" >  T  T  T </v>
   <v type="logical" >  T  T  T </v>
   <v type="logical" >  T  T  T </v>
   <v type="logical" >  T  T  T </v>
   <v type="logical" >  T  T  T </v>
   <v type="logical" >  T  T  T </v>
   <v type="logical" >  T  T  T </v>
   <v type="logical" >  T  T  T </v>
   <v type="logical" >  T  T  T </v>
   <v type="logical" >  T  T  T </v>
   <v type="logical" >  T  T  T </v>
   <v type="logical" >  T  T  T </v>
   <v type="logical" >  T  T  T </v>
   <v type="logical" >  T  T  T </v>
   <v type="logical" >  T  T  T </v>
   <v type="logical" >  T  T  T </v>
   <v type="logical" >  T  T  T </v>
   <v type="logical" >  T  T  T </v>
   <v type="logical" >  T  T  T </v>
   <v type="logical" >  T  T  T </v>
   <v type="logical" >  T  T  T </v>
   <v type="logical" >  T  T  T </v>
   <v type="logical" >  T  T  T </v>
   <v type="logical" >  T  T  T </v>
   <v type="logical" >  T  T  T </v>
   <v type="logical" >  T  T  T </v>
   <v type="logical" >  T  T  T </v>
   <v type="logical" >  T  T  T </v>
   <v type="logical" >  T  T  T </v>
   <v type="logical" >  T  T  T </v>
   <v type="logical" >  T  T  T </v>
   <v type="logical" >  T  T  T </v>
   <v type="logical" >  T  T  T </v>
   <v type="logical" >  T  T  T </v>
   <v type="logical" >  T  T  T </v>
   <v type="logical" >  T  T  T </v>
   <v type="logical" >  T  T  T </v>
   <v type="logical" >  T  T  T </v>
   <v type="logical" >  T  T  T </v>
   <v type="logical" >  T  T  T </v>
   <v type="logical" >  T  T  T </v>
   <v type="logical" >  T  T  T </v>
   <v type="logical" >  T  T  T </v>
   <v type="logical" >  T  T  T </v>
   <v type="logical" >  T  T  T </v>
   <v type="logical" >  T  T  T </v>
   <v type="logical" >  T  T  T </v>
   <v type="logical" >  T  T  T </v>
   <v type="logical" >  T  T  T </v>
   <v type="logical" >  T  T  T </v>
   <v type="logical" >  T  T  T </v>
   <v type="logical" >  T  T  T </v>
   <v type="logical" >  T  T  T </v>
   <v type="logical" >  T  T  T </v>
   <v type="logical" >  T  T  T </v>
   <v type="logical" >  T  T  T </v>
   <v type="logical" >  T  T  T </v>
   <v type="logical" >  T  T  T </v>
   <v type="logical" >  T  T  T </v>
   <v type="logical" >  T  T  T </v>
   <v type="logical" >  T  T  T </v>
   <v type="logical" >  T  T  T </v>
   <v type="logical" >  T  T  T </v>
   <v type="logical" >  T  T  T </v>
   <v type="logical" >  T  T  T </v>
   <v type="logical" >  T  T  T </v>
   <v type="logical" >  T  T  T </v>
   <v type="logical" >  T  T  T </v>
   <v type="logical" >  T  T  T </v>
   <v type="logical" >  T  T  T </v>
   <v type="logical" >  T  T  T </v>
   <v type="logical" >  T  T  T </v>
   <v type="logical" >  T  T  T </v>
   <v type="logical" >  T  T  T </v>
   <v type="logical" >  T  T  T </v>
   <v type="logical" >  T  T  F </v>
  </varray>
  <nose>
   <v>      -3.00000000       0.00000000       0.00010000       0.00010000 </v>
  </nose>
 </structure>
</modeling>
