unknown system                          
           1
    17.271038    0.000000    0.000000
    -8.635519   14.957158    0.000000
     0.000000    0.000000   15.000000
   C    H    F    O 
    88     8     2     1
Direct configuration=     1
   0.99904224  0.99891266  0.49844148
   0.99844072  0.14142427  0.49868196
   0.99803679  0.28424854  0.49874660
   0.99816568  0.42738645  0.49927319
   0.99878135  0.57052123  0.49936464
   0.99990046  0.71374714  0.49988413
   0.00008837  0.85679427  0.49988151
   0.14222055  0.99928873  0.49264631
   0.14166313  0.14186338  0.49282460
   0.14037388  0.28385232  0.49217056
   0.14006809  0.42709798  0.49270874
   0.14120069  0.57018079  0.49378908
   0.14202120  0.71325826  0.49352277
   0.14236028  0.85635178  0.49322977
   0.28483989  0.99871714  0.49250788
   0.28474631  0.14148516  0.49080775
   0.28466550  0.28513411  0.48568688
   0.28099991  0.42698754  0.48197492
   0.28382253  0.56919576  0.48680422
   0.28452173  0.71332579  0.49140077
   0.28485604  0.85617986  0.49251295
   0.42784630  0.99864995  0.49554576
   0.42765822  0.14098516  0.49593471
   0.42635554  0.28045341  0.49469212
   0.42583873  0.71446640  0.49248509
   0.42769215  0.85590284  0.49518720
   0.57047999  0.99877930  0.50057226
   0.57049431  0.14144539  0.50065520
   0.57138599  0.28515831  0.50438431
   0.57155953  0.85602142  0.50455686
   0.71330960  0.99872360  0.50742236
   0.71329625  0.14170443  0.50326287
   0.71330468  0.28483698  0.50595997
   0.71295553  0.42733206  0.51638005
   0.72076843  0.57389304  0.54683742
   0.72655472  0.72073704  0.55757148
   0.71320773  0.85657618  0.52179648
   0.85632214  0.99910419  0.50797777
   0.85572412  0.14157761  0.50372507
   0.85565980  0.28447586  0.50328732
   0.85604472  0.42763891  0.50674143
   0.85707661  0.57121303  0.51248991
   0.85931730  0.71498100  0.51845637
   0.85752936  0.85657050  0.51336869
   0.04648531  0.09417924  0.49637975
   0.04531311  0.23630676  0.49656706
   0.04506219  0.37941987  0.49706459
   0.04615712  0.52271918  0.49731016
   0.04682749  0.66582256  0.49693184
   0.04728565  0.80885878  0.49700670
   0.04705188  0.95164785  0.49617932
   0.18953115  0.09412578  0.49141463
   0.18862396  0.23690120  0.49066729
   0.18628425  0.37864429  0.48957676
   0.18822891  0.52227007  0.49140657
   0.18923870  0.66568282  0.49246454
   0.18980669  0.80866451  0.49259180
   0.18985648  0.95147120  0.49225898
   0.33251267  0.09405273  0.49294543
   0.33340838  0.23683529  0.48950438
   0.32461611  0.37712153  0.47792006
   0.32787737  0.52080443  0.48010220
   0.33274478  0.66637489  0.48971316
   0.33251273  0.80841102  0.49266526
   0.33242420  0.95118479  0.49329498
   0.47539624  0.09357324  0.49741914
   0.47472873  0.23582443  0.49836739
   0.47480074  0.80774680  0.49694913
   0.47537826  0.95117390  0.49709769
   0.61795900  0.09387962  0.50151638
   0.61826396  0.23692366  0.50398375
   0.62004128  0.37871461  0.51099738
   0.62021637  0.81145549  0.51413825
   0.61823059  0.95118168  0.50447170
   0.76080319  0.09412849  0.50474296
   0.76075579  0.23686451  0.50402429
   0.76095512  0.38006547  0.51000956
   0.76209839  0.52466651  0.52535999
   0.76705945  0.66821064  0.54266774
   0.76315154  0.80953559  0.53126596
   0.76124263  0.95162037  0.51295983
   0.90335942  0.09380810  0.50333213
   0.90301784  0.23668923  0.50193610
   0.90310691  0.37991396  0.50300055
   0.90384485  0.52316550  0.50533745
   0.90507509  0.66629711  0.50941905
   0.90546144  0.80949040  0.51005510
   0.90406550  0.95136488  0.50527317
   0.46333244  0.35231553  0.49646971
   0.40016591  0.55513722  0.47413483
   0.65026943  0.53946116  0.56421458
   0.58445177  0.41576660  0.51044892
   0.58508814  0.73904547  0.51301136
   0.46216472  0.67820109  0.49145553
   0.55043991  0.58403223  0.52854324
   0.51698710  0.54040273  0.43636030
   0.41571581  0.42791104  0.46596307
   0.64651429  0.68025966  0.60236243
   0.55712945  0.59689182  0.46511209
Direct configuration=     2
   0.99904032  0.99890832  0.49845102
   0.99843559  0.14141894  0.49868348
   0.99803651  0.28424816  0.49874449
   0.99816831  0.42738803  0.49927207
   0.99878141  0.57052079  0.49936836
   0.99990033  0.71374869  0.49989408
   0.00008520  0.85679262  0.49989018
   0.14221687  0.99928084  0.49264296
   0.14165987  0.14186015  0.49281982
   0.14037535  0.28385864  0.49216156
   0.14007986  0.42710369  0.49269970
   0.14120796  0.57018205  0.49378353
   0.14202374  0.71325761  0.49352055
   0.14235673  0.85634944  0.49322581
   0.28484120  0.99871563  0.49250000
   0.28475197  0.14148674  0.49080125
   0.28467435  0.28514855  0.48567661
   0.28102009  0.42701222  0.48196241
   0.28384271  0.56919792  0.48679122
   0.28453097  0.71332190  0.49139397
   0.28485960  0.85617588  0.49250548
   0.42785141  0.99864925  0.49554623
   0.42766536  0.14098976  0.49593611
   0.42636874  0.28046726  0.49469855
   0.42584460  0.71445721  0.49248753
   0.42769326  0.85589194  0.49518926
   0.57048343  0.99877781  0.50057896
   0.57049858  0.14144637  0.50065972
   0.57138595  0.28515869  0.50439897
   0.57155486  0.85601465  0.50457746
   0.71330918  0.99872200  0.50743986
   0.71329804  0.14170326  0.50327178
   0.71330424  0.28483545  0.50596965
   0.71294998  0.42732814  0.51639430
   0.72076873  0.57389353  0.54684909
   0.72655418  0.72073801  0.55758549
   0.71320259  0.85657205  0.52182578
   0.85632051  0.99910158  0.50799259
   0.85572141  0.14157561  0.50373072
   0.85566009  0.28447441  0.50329255
   0.85604406  0.42763826  0.50674588
   0.85707750  0.57121653  0.51250128
   0.85931831  0.71498224  0.51847205
   0.85752653  0.85656877  0.51339017
   0.04649308  0.09418369  0.49638076
   0.04531928  0.23631017  0.49656175
   0.04506141  0.37941791  0.49706053
   0.04615644  0.52271711  0.49730869
   0.04683006  0.66582250  0.49693675
   0.04728884  0.80885933  0.49700989
   0.04705744  0.95165257  0.49618431
   0.18953550  0.09413180  0.49140901
   0.18862412  0.23689622  0.49066051
   0.18627017  0.37863051  0.48956845
   0.18821838  0.52226555  0.49139772
   0.18923385  0.66568230  0.49245864
   0.18980844  0.80866620  0.49258687
   0.18986012  0.95147531  0.49225202
   0.33251059  0.09405198  0.49293962
   0.33339639  0.23682457  0.48949866
   0.32461003  0.37710063  0.47790564
   0.32785776  0.52079171  0.48008756
   0.33273407  0.66637497  0.48970629
   0.33250934  0.80841679  0.49266156
   0.33242521  0.95118687  0.49328894
   0.47539524  0.09357098  0.49742115
   0.47472438  0.23581634  0.49837614
   0.47480348  0.80775767  0.49695976
   0.47537923  0.95117965  0.49710120
   0.61795959  0.09387963  0.50152196
   0.61826578  0.23692135  0.50399192
   0.62004326  0.37871133  0.51101970
   0.62022076  0.81146148  0.51417052
   0.61823399  0.95118653  0.50448607
   0.76080785  0.09413019  0.50475576
   0.76075966  0.23686616  0.50403206
   0.76096008  0.38006634  0.51002037
   0.76210106  0.52466418  0.52537288
   0.76706164  0.66820926  0.54268102
   0.76315385  0.80953607  0.53128948
   0.76124711  0.95162361  0.51298322
   0.90336622  0.09381060  0.50333895
   0.90302284  0.23669097  0.50193964
   0.90310967  0.37991498  0.50300271
   0.90384904  0.52316620  0.50534364
   0.90507789  0.66629655  0.50943291
   0.90546410  0.80949007  0.51007268
   0.90407116  0.95136880  0.50528664
   0.46332816  0.35230819  0.49648350
   0.40017585  0.55514144  0.47411586
   0.65027189  0.53946040  0.56423343
   0.58444827  0.41576208  0.51048429
   0.58508312  0.73904394  0.51305487
   0.46216437  0.67820237  0.49145684
   0.55043749  0.58399779  0.52852809
   0.51699335  0.54043762  0.43632015
   0.41571347  0.42790176  0.46593268
   0.64650725  0.68024521  0.60236514
   0.55702545  0.59693926  0.46511209
Direct configuration=     3
   0.99904709  0.99891229  0.49846418
   0.99844277  0.14142286  0.49868521
   0.99804048  0.28424856  0.49874111
   0.99817102  0.42738799  0.49927030
   0.99878255  0.57051910  0.49937341
   0.99990368  0.71374900  0.49990829
   0.00008757  0.85679466  0.49990262
   0.14222226  0.99928638  0.49263801
   0.14166425  0.14186189  0.49281251
   0.14037472  0.28385121  0.49214828
   0.14007473  0.42709819  0.49268788
   0.14120504  0.57018051  0.49377516
   0.14202511  0.71325889  0.49351729
   0.14235922  0.85635126  0.49321971
   0.28484440  0.99871735  0.49248940
   0.28475189  0.14148511  0.49079129
   0.28466839  0.28513561  0.48566422
   0.28100694  0.42699316  0.48194846
   0.28383394  0.56919793  0.48677339
   0.28452776  0.71332374  0.49138422
   0.28486090  0.85617875  0.49249457
   0.42785270  0.99865001  0.49554644
   0.42766390  0.14098539  0.49593761
   0.42636121  0.28045602  0.49470570
   0.42584419  0.71446160  0.49249165
   0.42769273  0.85589701  0.49519425
   0.57048555  0.99877946  0.50058884
   0.57049999  0.14144464  0.50066627
   0.57138496  0.28515280  0.50442053
   0.57155584  0.85601928  0.50460825
   0.71331296  0.99872393  0.50746493
   0.71330148  0.14170382  0.50328504
   0.71330753  0.28483530  0.50598404
   0.71295223  0.42732561  0.51641584
   0.72077099  0.57389275  0.54686503
   0.72655420  0.72073388  0.55760614
   0.71320536  0.85657374  0.52186828
   0.85632664  0.99910552  0.50801383
   0.85572606  0.14157735  0.50373951
   0.85566519  0.28447585  0.50330020
   0.85604850  0.42764083  0.50675208
   0.85708032  0.57121695  0.51251730
   0.85932171  0.71498178  0.51849523
   0.85753055  0.85657041  0.51342099
   0.04649016  0.09417968  0.49638307
   0.04531903  0.23630807  0.49655477
   0.04506728  0.37942084  0.49705458
   0.04616074  0.52271831  0.49730635
   0.04683185  0.66582463  0.49694301
   0.04728756  0.80885929  0.49701518
   0.04705628  0.95164925  0.49619216
   0.18953630  0.09412767  0.49140077
   0.18862542  0.23689876  0.49065003
   0.18628236  0.37863888  0.48955373
   0.18823057  0.52226991  0.49138327
   0.18923940  0.66568231  0.49245016
   0.18980999  0.80866641  0.49257990
   0.18986038  0.95147303  0.49224169
   0.33251610  0.09405250  0.49293133
   0.33340610  0.23683089  0.48949088
   0.32461501  0.37711126  0.47788212
   0.32787516  0.52079990  0.48006221
   0.33274339  0.66637313  0.48969576
   0.33251091  0.80841098  0.49265566
   0.33242880  0.95118586  0.49328000
   0.47540012  0.09357192  0.49742431
   0.47472679  0.23581951  0.49838958
   0.47480190  0.80774824  0.49697426
   0.47538243  0.95117619  0.49710640
   0.61796237  0.09387942  0.50152947
   0.61826750  0.23692132  0.50400433
   0.62003957  0.37870811  0.51105234
   0.62021703  0.81145785  0.51421790
   0.61823534  0.95118370  0.50450769
   0.76080952  0.09412895  0.50477446
   0.76076146  0.23686523  0.50404363
   0.76096015  0.38006514  0.51003623
   0.76210097  0.52466183  0.52539274
   0.76706320  0.66821024  0.54270129
   0.76315359  0.80953702  0.53132479
   0.76124746  0.95162194  0.51301809
   0.90336501  0.09380845  0.50334787
   0.90302352  0.23668923  0.50194487
   0.90311113  0.37991473  0.50300609
   0.90385074  0.52316751  0.50535330
   0.90508004  0.66629906  0.50945380
   0.90546384  0.80949000  0.51009907
   0.90406959  0.95136665  0.50530842
   0.46332907  0.35231084  0.49650384
   0.40017352  0.55513917  0.47408938
   0.65027477  0.53945906  0.56426117
   0.58444462  0.41575431  0.51053602
   0.58507846  0.73904648  0.51311866
   0.46216826  0.67819898  0.49145856
   0.55043423  0.58394790  0.52850563
   0.51700209  0.54048854  0.43626094
   0.41570997  0.42788493  0.46588661
   0.64649974  0.68022599  0.60236815
   0.55687725  0.59700891  0.46511209
Direct configuration=     4
   0.99905594  0.99891856  0.49848136
   0.99845531  0.14143061  0.49868729
   0.99804683  0.28424932  0.49873646
   0.99817374  0.42738662  0.49926783
   0.99878573  0.57051825  0.49937993
   0.99990882  0.71374870  0.49992695
   0.00009273  0.85679814  0.49991844
   0.14223173  0.99929765  0.49263149
   0.14167217  0.14186514  0.49280291
   0.14037475  0.28384105  0.49213116
   0.14006311  0.42708870  0.49267243
   0.14119955  0.57017904  0.49376475
   0.14202623  0.71326086  0.49351291
   0.14236542  0.85635514  0.49321280
   0.28484857  0.99871973  0.49247562
   0.28474970  0.14148195  0.49077744
   0.28465632  0.28511140  0.48564795
   0.28098306  0.42696015  0.48193170
   0.28381490  0.56919607  0.48674999
   0.28451881  0.71332693  0.49137113
   0.28486065  0.85618441  0.49248023
   0.42785253  0.99865101  0.49554616
   0.42765910  0.14097690  0.49593942
   0.42634480  0.28043348  0.49471458
   0.42584173  0.71447110  0.49249710
   0.42769173  0.85590873  0.49520128
   0.57048719  0.99878184  0.50060234
   0.57050034  0.14144175  0.50067515
   0.57138373  0.28514518  0.50444856
   0.57155974  0.85602711  0.50464923
   0.71331782  0.99872855  0.50749795
   0.71330575  0.14170492  0.50330303
   0.71331276  0.28483665  0.50600252
   0.71295863  0.42732363  0.51644566
   0.72077398  0.57389109  0.54688623
   0.72655464  0.72072584  0.55763394
   0.71321202  0.85657877  0.52192491
   0.85633609  0.99911148  0.50804140
   0.85573547  0.14158135  0.50375099
   0.85567227  0.28447833  0.50331053
   0.85605521  0.42764442  0.50676085
   0.85708357  0.57121450  0.51253896
   0.85932639  0.71498072  0.51852706
   0.85753630  0.85657396  0.51346254
   0.04648341  0.09417233  0.49638656
   0.04531511  0.23630223  0.49654589
   0.04507531  0.37942484  0.49704666
   0.04616675  0.52272064  0.49730322
   0.04683294  0.66582657  0.49695078
   0.04728438  0.80885928  0.49702292
   0.04705290  0.95164264  0.49620283
   0.18953544  0.09411870  0.49138951
   0.18862835  0.23690339  0.49063643
   0.18630414  0.37865463  0.48953354
   0.18825137  0.52227677  0.49136343
   0.18924940  0.66568206  0.49243887
   0.18981139  0.80866587  0.49257045
   0.18985962  0.95146791  0.49222786
   0.33252504  0.09405307  0.49292040
   0.33342502  0.23684365  0.48948062
   0.32462444  0.37713310  0.47784991
   0.32790774  0.52081749  0.48002837
   0.33276243  0.66637159  0.48968151
   0.33251555  0.80839935  0.49264867
   0.33243399  0.95118351  0.49326806
   0.47540733  0.09357565  0.49742738
   0.47473276  0.23582642  0.49840771
   0.47479785  0.80773013  0.49699345
   0.47538669  0.95116777  0.49711344
   0.61796513  0.09387912  0.50153912
   0.61826935  0.23692163  0.50402156
   0.62003354  0.37870314  0.51109626
   0.62020861  0.81145048  0.51428209
   0.61823680  0.95117880  0.50453616
   0.76080981  0.09412649  0.50479913
   0.76076455  0.23686490  0.50405833
   0.76095812  0.38006256  0.51005705
   0.76209842  0.52465882  0.52541891
   0.76706477  0.66821167  0.54272847
   0.76315273  0.80953774  0.53137295
   0.76124672  0.95161786  0.51306262
   0.90336153  0.09380579  0.50335789
   0.90302324  0.23668647  0.50195170
   0.90311312  0.37991427  0.50301081
   0.90385074  0.52316886  0.50536663
   0.90508228  0.66630247  0.50948198
   0.90546525  0.80949364  0.51013282
   0.90407071  0.95136230  0.50533747
   0.46333184  0.35231710  0.49653061
   0.40016653  0.55513386  0.47405437
   0.65027829  0.53945698  0.56429786
   0.58443964  0.41574382  0.51060440
   0.58507269  0.73905056  0.51320318
   0.46217413  0.67819316  0.49146087
   0.55043058  0.58388289  0.52847481
   0.51701398  0.54055715  0.43618244
   0.41570539  0.42786194  0.46582166
   0.64649108  0.68020337  0.60237164
   0.55668275  0.59710014  0.46511209
Direct configuration=     5
   0.99905614  0.99891507  0.49850039
   0.99845697  0.14142778  0.49868925
   0.99805101  0.28424924  0.49873070
   0.99817715  0.42738598  0.49926457
   0.99878991  0.57051983  0.49938804
   0.99991027  0.71375169  0.49994930
   0.00009479  0.85679864  0.49993860
   0.14223455  0.99929826  0.49262355
   0.14167404  0.14186294  0.49279293
   0.14037859  0.28384239  0.49210994
   0.14007481  0.42709131  0.49265692
   0.14120588  0.57018065  0.49375245
   0.14202908  0.71326105  0.49350722
   0.14236575  0.85635326  0.49320754
   0.28485239  0.99871875  0.49245806
   0.28475330  0.14148094  0.49075934
   0.28465686  0.28510997  0.48562590
   0.28098548  0.42696074  0.48190825
   0.28382069  0.56919368  0.48671895
   0.28452047  0.71332378  0.49135429
   0.28486229  0.85618404  0.49246265
   0.42785690  0.99865079  0.49554505
   0.42766235  0.14097759  0.49594241
   0.42634554  0.28043221  0.49472603
   0.42584579  0.71446714  0.49250282
   0.42769348  0.85590727  0.49520926
   0.57049196  0.99878260  0.50061895
   0.57050357  0.14144154  0.50068639
   0.57138359  0.28514208  0.50448370
   0.57156137  0.85602659  0.50469956
   0.71332087  0.99872979  0.50753975
   0.71330941  0.14170512  0.50332559
   0.71331808  0.28483912  0.50602408
   0.71295908  0.42731976  0.51648132
   0.72077527  0.57388916  0.54691216
   0.72655534  0.72071848  0.55766852
   0.71321629  0.85658378  0.52199148
   0.85634118  0.99911202  0.50807618
   0.85573977  0.14158178  0.50376518
   0.85567679  0.28447896  0.50332353
   0.85605875  0.42764555  0.50677298
   0.85708444  0.57121234  0.51256715
   0.85933142  0.71498297  0.51856795
   0.85753874  0.85657601  0.51351576
   0.04648841  0.09417307  0.49639027
   0.04531611  0.23629921  0.49653468
   0.04507794  0.37942385  0.49703676
   0.04616925  0.52272047  0.49729943
   0.04683455  0.66582454  0.49695936
   0.04728572  0.80886038  0.49703310
   0.04705699  0.95164336  0.49621569
   0.18953948  0.09411733  0.49137602
   0.18863050  0.23690032  0.49061932
   0.18630370  0.37865101  0.48951023
   0.18825298  0.52227496  0.49133924
   0.18925114  0.66568093  0.49242467
   0.18981278  0.80866739  0.49256072
   0.18986310  0.95146825  0.49221063
   0.33252840  0.09405171  0.49290652
   0.33342600  0.23683941  0.48946787
   0.32462491  0.37712584  0.47781202
   0.32791041  0.52081802  0.47998892
   0.33276700  0.66637285  0.48966355
   0.33251888  0.80839975  0.49264044
   0.33243843  0.95118368  0.49325308
   0.47541070  0.09357667  0.49743021
   0.47473387  0.23582271  0.49842829
   0.47479531  0.80772815  0.49701670
   0.47538982  0.95116586  0.49712229
   0.61796773  0.09387918  0.50155154
   0.61827220  0.23691945  0.50404371
   0.62003339  0.37869610  0.51115033
   0.62020644  0.81145231  0.51436271
   0.61823857  0.95118173  0.50457037
   0.76081360  0.09412742  0.50482933
   0.76077111  0.23686680  0.50407647
   0.76096124  0.38006230  0.51008098
   0.76209834  0.52465538  0.52545046
   0.76706806  0.66821030  0.54276149
   0.76315510  0.80953790  0.53143403
   0.76125274  0.95161977  0.51311528
   0.90336657  0.09380881  0.50336936
   0.90302877  0.23668775  0.50195973
   0.90311835  0.37991569  0.50301687
   0.90385270  0.52316962  0.50538329
   0.90508555  0.66630134  0.50951569
   0.90547032  0.80949863  0.51017381
   0.90407844  0.95136117  0.50537295
   0.46332925  0.35231349  0.49656267
   0.40017147  0.55513366  0.47400928
   0.65028283  0.53945433  0.56434242
   0.58443179  0.41573190  0.51068806
   0.58506312  0.73905142  0.51330694
   0.46217740  0.67819021  0.49146384
   0.55042735  0.58380496  0.52843472
   0.51702935  0.54064383  0.43608604
   0.41570165  0.42783457  0.46574065
   0.64647666  0.68017636  0.60237509
   0.55644068  0.59720860  0.46511209
Direct configuration=     6
   0.99905299  0.99890574  0.49852132
   0.99845063  0.14141706  0.49869067
   0.99805333  0.28424837  0.49872372
   0.99818242  0.42738690  0.49926042
   0.99879365  0.57052198  0.49939792
   0.99990789  0.71375309  0.49997387
   0.00009503  0.85679775  0.49996380
   0.14223107  0.99928694  0.49261541
   0.14166896  0.14185626  0.49278269
   0.14038334  0.28385008  0.49208466
   0.14008974  0.42709997  0.49263779
   0.14121992  0.57018276  0.49373748
   0.14203290  0.71325930  0.49350019
   0.14236188  0.85634834  0.49320320
   0.28485609  0.99871501  0.49243889
   0.28476221  0.14148069  0.49073670
   0.28466867  0.28512638  0.48559766
   0.28101322  0.42699152  0.48187773
   0.28384748  0.56919330  0.48667997
   0.28453407  0.71331752  0.49133362
   0.28486700  0.85617849  0.49244222
   0.42786599  0.99864967  0.49554258
   0.42767271  0.14098510  0.49594610
   0.42636221  0.28044877  0.49474065
   0.42585549  0.71445290  0.49250725
   0.42769784  0.85589377  0.49521825
   0.57049803  0.99878176  0.50063885
   0.57050960  0.14144382  0.50070006
   0.57138327  0.28514122  0.50452608
   0.57155619  0.85601762  0.50475855
   0.71332176  0.99872622  0.50759033
   0.71331281  0.14170540  0.50335286
   0.71332250  0.28484036  0.50604923
   0.71295465  0.42731460  0.51652394
   0.72077502  0.57388752  0.54694357
   0.72655590  0.72071287  0.55771077
   0.71321621  0.85658598  0.52206970
   0.85634369  0.99910856  0.50811861
   0.85573966  0.14158009  0.50378293
   0.85567731  0.28447802  0.50333847
   0.85606024  0.42764430  0.50678764
   0.85708352  0.57121098  0.51260240
   0.85933807  0.71498853  0.51861813
   0.85754014  0.85657736  0.51357990
   0.04650024  0.09417771  0.49639466
   0.04532423  0.23630040  0.49652089
   0.04507985  0.37942028  0.49702471
   0.04617063  0.52271900  0.49729501
   0.04683680  0.66582080  0.49696766
   0.04729123  0.80886201  0.49704636
   0.04706746  0.95165044  0.49623061
   0.18954764  0.09412379  0.49135968
   0.18863160  0.23689147  0.49059825
   0.18628786  0.37863211  0.48948395
   0.18824106  0.52226732  0.49131081
   0.18924648  0.66568009  0.49240710
   0.18981599  0.80866905  0.49255098
   0.18986988  0.95147247  0.49219183
   0.33252685  0.09404897  0.49288960
   0.33341141  0.23682181  0.48945210
   0.32461785  0.37709488  0.47776968
   0.32788628  0.52079958  0.47994426
   0.33275701  0.66637462  0.48964287
   0.33251903  0.80840974  0.49263020
   0.33244201  0.95118572  0.49323500
   0.47541076  0.09357431  0.49743311
   0.47473126  0.23581310  0.49845009
   0.47479764  0.80773985  0.49704335
   0.47539280  0.95117162  0.49713298
   0.61797169  0.09388016  0.50156767
   0.61827700  0.23691685  0.50406966
   0.62003920  0.37869183  0.51121520
   0.62021367  0.81146662  0.51445906
   0.61824256  0.95119018  0.50461157
   0.76082103  0.09413210  0.50486159
   0.76077953  0.23687011  0.50409865
   0.76097020  0.38006520  0.51010808
   0.76210123  0.52465131  0.52548764
   0.76707203  0.66820526  0.54279950
   0.76316164  0.80953896  0.53150836
   0.76126501  0.95162811  0.51317637
   0.90337869  0.09381322  0.50338220
   0.90303903  0.23669219  0.50196886
   0.90312470  0.37991713  0.50302307
   0.90385746  0.52316965  0.50540360
   0.90508934  0.66629745  0.50955564
   0.90547745  0.80950218  0.51022319
   0.90408842  0.95136397  0.50541662
   0.46332214  0.35230147  0.49659954
   0.40018713  0.55513796  0.47395412
   0.65028822  0.53945103  0.56439450
   0.58442212  0.41571815  0.51078644
   0.58505063  0.73905026  0.51342960
   0.46217886  0.67818955  0.49146747
   0.55042568  0.58371615  0.52838426
   0.51704753  0.54074804  0.43597121
   0.41569813  0.42780259  0.46563934
   0.64645459  0.68014204  0.60237875
   0.55615347  0.59733356  0.46511209
Direct configuration=     7
   0.99905947  0.99890387  0.49854713
   0.99845578  0.14141608  0.49869143
   0.99805914  0.28424729  0.49871410
   0.99818960  0.42738780  0.49925456
   0.99879649  0.57052094  0.49941101
   0.99990738  0.71374903  0.50000365
   0.00010119  0.85680073  0.49999647
   0.14223442  0.99928153  0.49260702
   0.14166896  0.14185185  0.49276989
   0.14038452  0.28384553  0.49205173
   0.14008853  0.42709889  0.49261090
   0.14122617  0.57018206  0.49371673
   0.14203521  0.71325739  0.49349250
   0.14236319  0.85634728  0.49319826
   0.28486250  0.99871322  0.49241590
   0.28476637  0.14147566  0.49070733
   0.28467031  0.28512085  0.48556095
   0.28101862  0.42699187  0.48184304
   0.28385438  0.56919513  0.48663029
   0.28454122  0.71331980  0.49131058
   0.28487232  0.85617721  0.49241661
   0.42787317  0.99864917  0.49553738
   0.42767744  0.14098299  0.49594845
   0.42636570  0.28044650  0.49475845
   0.42586222  0.71444919  0.49251124
   0.42770127  0.85588751  0.49522943
   0.57050243  0.99878397  0.50066531
   0.57051483  0.14144465  0.50071817
   0.57138426  0.28513731  0.50458062
   0.57155130  0.85601807  0.50483589
   0.71332700  0.99872870  0.50765529
   0.71331811  0.14170814  0.50338877
   0.71332877  0.28484100  0.50608245
   0.71295527  0.42731023  0.51657741
   0.72077543  0.57388444  0.54698476
   0.72655501  0.72070452  0.55776861
   0.71322270  0.85659054  0.52217206
   0.85635237  0.99910961  0.50817491
   0.85574448  0.14158200  0.50380730
   0.85568262  0.28447875  0.50335562
   0.85606542  0.42764335  0.50680763
   0.85708406  0.57120747  0.51265001
   0.85934952  0.71499250  0.51868323
   0.85754557  0.85657995  0.51366492
   0.04650238  0.09417204  0.49640077
   0.04533198  0.23630015  0.49650255
   0.04508740  0.37942019  0.49700839
   0.04617782  0.52272005  0.49728916
   0.04683631  0.66582376  0.49697657
   0.04729364  0.80886201  0.49706408
   0.04707349  0.95165149  0.49625011
   0.18955243  0.09412471  0.49133742
   0.18863266  0.23688698  0.49056936
   0.18629244  0.37862957  0.48944874
   0.18824712  0.52226716  0.49127273
   0.18925365  0.66568230  0.49238423
   0.18981951  0.80866684  0.49253888
   0.18987370  0.95147043  0.49216966
   0.33253026  0.09404830  0.49286899
   0.33341193  0.23681823  0.48942928
   0.32461844  0.37708407  0.47771097
   0.32789310  0.52079221  0.47988800
   0.33275790  0.66637025  0.48961671
   0.33252189  0.80841344  0.49261521
   0.33244732  0.95118489  0.49321118
   0.47541461  0.09357315  0.49743710
   0.47473599  0.23581811  0.49847449
   0.47480228  0.80773754  0.49707749
   0.47539851  0.95117367  0.49714700
   0.61797870  0.09388218  0.50159119
   0.61828327  0.23691833  0.50410387
   0.62004700  0.37868663  0.51129758
   0.62021624  0.81147378  0.51457988
   0.61824654  0.95119130  0.50466764
   0.76082525  0.09413085  0.50489979
   0.76078446  0.23687159  0.50412884
   0.76097848  0.38006839  0.51014260
   0.76210277  0.52464595  0.52553747
   0.76707625  0.66820041  0.54284944
   0.76317102  0.80954523  0.53160180
   0.76127647  0.95163556  0.51325607
   0.90338456  0.09380899  0.50340090
   0.90304577  0.23669424  0.50198051
   0.90312907  0.37991687  0.50303074
   0.90386165  0.52316752  0.50542965
   0.90509106  0.66629573  0.50960904
   0.90548441  0.80950398  0.51028824
   0.90409265  0.95136485  0.50547569
   0.46331773  0.35229589  0.49664582
   0.40019433  0.55513666  0.47388216
   0.65029337  0.53944590  0.56446093
   0.58441130  0.41569972  0.51091265
   0.58503859  0.73905637  0.51358828
   0.46218371  0.67818449  0.49147179
   0.55042677  0.58360703  0.52831462
   0.51706833  0.54088212  0.43582042
   0.41569478  0.42776117  0.46549782
   0.64642117  0.68009561  0.60237743
   0.55579040  0.59749382  0.46511209
Direct configuration=     8
   0.99907430  0.99891040  0.49857707
   0.99847430  0.14142464  0.49869162
   0.99807029  0.28424664  0.49870130
   0.99819679  0.42738729  0.49924680
   0.99879991  0.57051822  0.49942786
   0.99990641  0.71374291  0.50003924
   0.00011339  0.85680771  0.50003833
   0.14224908  0.99929070  0.49259724
   0.14167844  0.14185173  0.49275286
   0.14038314  0.28383083  0.49201293
   0.14008711  0.42708881  0.49257633
   0.14122440  0.57018056  0.49368729
   0.14203550  0.71325674  0.49348343
   0.14237255  0.85634885  0.49319168
   0.28486809  0.99871510  0.49238648
   0.28476360  0.14146956  0.49066893
   0.28465563  0.28508581  0.48551270
   0.28099108  0.42694321  0.48180799
   0.28383501  0.56919018  0.48656688
   0.28453772  0.71333096  0.49128366
   0.28487540  0.85618322  0.49238535
   0.42787219  0.99865030  0.49553057
   0.42767532  0.14097718  0.49594919
   0.42634678  0.28042060  0.49478016
   0.42586235  0.71445675  0.49251510
   0.42770240  0.85590189  0.49524416
   0.57050954  0.99878910  0.50070059
   0.57051974  0.14144411  0.50074266
   0.57139065  0.28513254  0.50465116
   0.57155661  0.85603078  0.50493250
   0.71333812  0.99873597  0.50773482
   0.71332715  0.14171365  0.50343319
   0.71333733  0.28484336  0.50612349
   0.71297075  0.42731010  0.51664516
   0.72077766  0.57387958  0.54703908
   0.72655354  0.72069305  0.55784545
   0.71324047  0.85660540  0.52230089
   0.85636770  0.99911332  0.50824126
   0.85575692  0.14158450  0.50384030
   0.85569425  0.28448191  0.50337638
   0.85607542  0.42764382  0.50683540
   0.85708814  0.57120115  0.51271360
   0.85936180  0.71498869  0.51876478
   0.85755490  0.85658027  0.51377142
   0.04649342  0.09415694  0.49640859
   0.04533309  0.23629499  0.49647861
   0.04509549  0.37942237  0.49698692
   0.04619027  0.52272379  0.49728192
   0.04683537  0.66582861  0.49698774
   0.04729093  0.80885806  0.49708857
   0.04707451  0.95164490  0.49627315
   0.18954978  0.09411172  0.49130785
   0.18863200  0.23688612  0.49053326
   0.18631818  0.37864771  0.48940392
   0.18827426  0.52227611  0.49122295
   0.18927242  0.66568536  0.49235485
   0.18982254  0.80866091  0.49252270
   0.18987502  0.95146035  0.49214474
   0.33254304  0.09404827  0.49284603
   0.33343268  0.23683103  0.48940065
   0.32463256  0.37710221  0.47762766
   0.32793758  0.52080934  0.47981517
   0.33278058  0.66636565  0.48958251
   0.33252957  0.80839769  0.49259351
   0.33245628  0.95118080  0.49318074
   0.47542546  0.09357513  0.49744299
   0.47474253  0.23582748  0.49850546
   0.47480420  0.80771426  0.49712228
   0.47540631  0.95116471  0.49716253
   0.61798742  0.09388564  0.50162542
   0.61828870  0.23692167  0.50414942
   0.62004612  0.37867685  0.51140306
   0.62021013  0.81147180  0.51473408
   0.61824855  0.95118403  0.50474412
   0.76082714  0.09412731  0.50494848
   0.76078668  0.23687052  0.50416979
   0.76098221  0.38006745  0.51018713
   0.76210598  0.52464471  0.52560088
   0.76707951  0.66819995  0.54291476
   0.76318011  0.80955730  0.53171506
   0.76128209  0.95163161  0.51335588
   0.90338349  0.09380198  0.50342988
   0.90304749  0.23669163  0.50199535
   0.90313341  0.37991596  0.50303895