 running   50 mpi-ranks, on    1 nodes
 each image running on   10 cores
 distrk:  each k-point on    5 cores,    2 groups
 distr:  one band on    1 cores,    5 groups
 vasp.6.4.2 20Jul23 (build Aug 26 2025 15:10:52) complex                        
  
 POSCAR found type information on POSCAR C H N O 
 01/POSCAR found :  4 types and      97 ions
 Reading from existing POTCAR
 scaLAPACK will be used
 -----------------------------------------------------------------------------
|                                                                             |
|           W    W    AA    RRRRR   N    N  II  N    N   GGGG   !!!           |
|           W    W   A  A   R    R  NN   N  II  NN   N  G    G  !!!           |
|           W    W  A    A  R    R  N N  N  II  N N  N  G       !!!           |
|           W WW W  AAAAAA  RRRRR   N  N N  II  N  N N  G  GGG   !            |
|           WW  WW  A    A  R   R   N   NN  II  N   NN  G    G                |
|           W    W  A    A  R    R  N    N  II  N    N   GGGG   !!!           |
|                                                                             |
|     For optimal performance we recommend to set                             |
|       NCORE = 2 up to number-of-cores-per-socket                            |
|     NCORE specifies how many cores store one orbital (NPAR=cpu/NCORE).      |
|     This setting can greatly improve the performance of VASP for DFT.       |
|     The default, NCORE=1 might be grossly inefficient on modern             |
|     multi-core architectures or massively parallel machines. Do your        |
|     own testing! More info at https://www.vasp.at/wiki/index.php/NCORE      |
|     Unfortunately you need to use the default for GW and RPA                |
|     calculations (for HF NCORE is supported but not extensively tested      |
|     yet).                                                                   |
|                                                                             |
 -----------------------------------------------------------------------------

 Reading from existing POTCAR
 LDA part: xc-table for Pade appr. of Perdew
 POSCAR found type information on POSCAR C H N O 
 00/POSCAR found :  4 types and      97 ions
 POSCAR found type information on POSCAR C H N O 
 06/POSCAR found :  4 types and      97 ions
 Jacobian:    33.6678109620489     
 POSCAR found type information on POSCAR C H N O 
 00/POSCAR found :  4 types and      97 ions
 POSCAR found type information on POSCAR C H N O 
 06/POSCAR found :  4 types and      97 ions
 POSCAR, INCAR and KPOINTS ok, starting setup
 FFT: planning ... GRIDC
 FFT: planning ... GRID_SOFT
 FFT: planning ... GRID
 WAVECAR not read
 entering main loop
       N       E                     dE             d eps       ncg     rms          rms(c)
DAV:   1     0.326015518237E+04    0.32602E+04   -0.13762E+05  4580   0.105E+03
DAV:   2    -0.250878770165E+03   -0.35110E+04   -0.33068E+04  6400   0.258E+02
DAV:   3    -0.864376585899E+03   -0.61350E+03   -0.61076E+03  5330   0.111E+02
DAV:   4    -0.886525536634E+03   -0.22149E+02   -0.22071E+02  5420   0.266E+01
DAV:   5    -0.887152715902E+03   -0.62718E+00   -0.62644E+00  6050   0.381E+00    0.518E+01
DAV:   6    -0.869794059094E+03    0.17359E+02   -0.22025E+01  5160   0.729E+00    0.337E+01
DAV:   7    -0.847629597182E+03    0.22164E+02   -0.32786E+01  5040   0.861E+00    0.204E+01
DAV:   8    -0.842827048849E+03    0.48025E+01   -0.24016E+01  5130   0.734E+00    0.820E+00
DAV:   9    -0.842727097829E+03    0.99951E-01   -0.11010E+00  5000   0.202E+00    0.330E+00
DAV:  10    -0.842633753070E+03    0.93345E-01   -0.45984E-01  4930   0.120E+00    0.972E-01
DAV:  11    -0.842622368153E+03    0.11385E-01   -0.89484E-02  4880   0.532E-01    0.337E-01
DAV:  12    -0.842620528456E+03    0.18397E-02   -0.92636E-03  5310   0.177E-01    0.178E-01
DAV:  13    -0.842620149919E+03    0.37854E-03   -0.26250E-03  5150   0.107E-01    0.819E-02
DAV:  14    -0.842620272350E+03   -0.12243E-03   -0.59612E-04  5190   0.469E-02    0.522E-02
DAV:  15    -0.842620301735E+03   -0.29386E-04   -0.76099E-05  4780   0.169E-02    0.299E-02
DAV:  16    -0.842620316099E+03   -0.14363E-04   -0.34048E-05  4150   0.118E-02    0.102E-02
DAV:  17    -0.842620316116E+03   -0.17710E-07   -0.53538E-06  3520   0.544E-03
   1 F= -.85036536E+03 E0= -.85036536E+03  d E =-.850365E+03  mag=     0.0001
quench:  g(F)=  0.000E+00 g(S)=  0.000E+00 dE (1.order)= 0.000E+00
 bond charge predicted
       N       E                     dE             d eps       ncg     rms          rms(c)
DAV:   1    -0.842620325035E+03   -0.89363E-05   -0.54201E-04  4480   0.467E-02    0.540E-03
DAV:   2    -0.842620325551E+03   -0.51593E-06   -0.11103E-05  2940   0.656E-03
   2 F= -.85036536E+03 E0= -.85036536E+03  d E =-.835244E-05  mag=    -0.0000
quench:  g(F)=  0.000E+00 g(S)=  0.000E+00 dE (1.order)= 0.000E+00
 bond charge predicted
       N       E                     dE             d eps       ncg     rms          rms(c)
DAV:   1    -0.842620333477E+03   -0.84420E-05   -0.12633E-03  4540   0.681E-02    0.962E-03
DAV:   2    -0.842620333889E+03   -0.41199E-06   -0.19351E-05  3360   0.846E-03
   3 F= -.85036537E+03 E0= -.85036537E+03  d E =-.561361E-05  mag=     0.0000
quench:  g(F)=  0.000E+00 g(S)=  0.000E+00 dE (1.order)= 0.000E+00
 bond charge predicted
       N       E                     dE             d eps       ncg     rms          rms(c)
DAV:   1    -0.842620360064E+03   -0.26587E-04   -0.24536E-03  4560   0.936E-02    0.125E-02
DAV:   2    -0.842620361044E+03   -0.98057E-06   -0.32860E-05  3740   0.111E-02
   4 F= -.85036539E+03 E0= -.85036539E+03  d E =-.212334E-04  mag=    -0.0000
quench:  g(F)=  0.000E+00 g(S)=  0.000E+00 dE (1.order)= 0.000E+00
 bond charge predicted
       N       E                     dE             d eps       ncg     rms          rms(c)
DAV:   1    -0.842620396827E+03   -0.36764E-04   -0.44179E-03  4520   0.126E-01    0.171E-02
DAV:   2    -0.842620398623E+03   -0.17952E-05   -0.60048E-05  4400   0.148E-02
   5 F= -.85036542E+03 E0= -.85036542E+03  d E =-.285542E-04  mag=     0.0000
quench:  g(F)=  0.000E+00 g(S)=  0.000E+00 dE (1.order)= 0.000E+00
 reached required accuracy - stopping structural energy minimisation
