 running   50 mpi-ranks, with    1 threads/rank, on    1 nodes
 each image running on   10 cores
 distrk:  each k-point on    5 cores,    2 groups
 distr:  one band on    1 cores,    5 groups
 vasp.6.4.2 20Jul23 (build Jan 24 2024 13:44:02) complex                         
 POSCAR found type information on POSCAR C F N H O 
 01/POSCAR found :  5 types and      97 ions
 scaLAPACK will be used selectively (only on CPU)
 LDA part: xc-table for Pade appr. of Perdew
 POSCAR found type information on POSCAR C F N H O 
 00/POSCAR found :  5 types and      97 ions
 POSCAR found type information on POSCAR C F N H O 
 06/POSCAR found :  5 types and      97 ions
 POSCAR, INCAR and KPOINTS ok, starting setup
 FFT: planning ... GRIDC
 FFT: planning ... GRID_SOFT
 FFT: planning ... GRID
 WAVECAR not read
 entering main loop
       N       E                     dE             d eps       ncg     rms          rms(c)
DAV:   1     0.374819815774E+04    0.37482E+04   -0.15586E+05  4850   0.111E+03
DAV:   2    -0.180653991538E+03   -0.39289E+04   -0.37167E+04  6700   0.275E+02
DAV:   3    -0.861979687838E+03   -0.68133E+03   -0.67808E+03  5570   0.120E+02
DAV:   4    -0.884103519355E+03   -0.22124E+02   -0.22014E+02  5540   0.268E+01
DAV:   5    -0.884786612737E+03   -0.68309E+00   -0.68208E+00  6400   0.402E+00    0.525E+01
DAV:   6    -0.867180230047E+03    0.17606E+02   -0.21143E+01  5420   0.966E+00    0.339E+01
DAV:   7    -0.846576769838E+03    0.20603E+02   -0.35147E+01  5280   0.993E+00    0.206E+01
DAV:   8    -0.841726084936E+03    0.48507E+01   -0.20076E+01  5320   0.700E+00    0.863E+00
DAV:   9    -0.841906732397E+03   -0.18065E+00   -0.11591E+00  5250   0.224E+00    0.407E+00
DAV:  10    -0.841724636086E+03    0.18210E+00   -0.51262E-01  5200   0.132E+00    0.139E+00
DAV:  11    -0.841698463722E+03    0.26172E-01   -0.15417E-01  5190   0.742E-01    0.372E-01
DAV:  12    -0.841697746220E+03    0.71750E-03   -0.23040E-02  5250   0.328E-01    0.151E-01
DAV:  13    -0.841698006024E+03   -0.25980E-03   -0.33494E-03  5290   0.116E-01    0.106E-01
DAV:  14    -0.841698017360E+03   -0.11336E-04   -0.42394E-04  5340   0.430E-02    0.740E-02
DAV:  15    -0.841698085623E+03   -0.68263E-04   -0.26703E-04  5190   0.363E-02    0.295E-02
DAV:  16    -0.841698090651E+03   -0.50275E-05   -0.57143E-05  5080   0.183E-02    0.173E-02
DAV:  17    -0.841698091457E+03   -0.80582E-06   -0.25371E-05  5380   0.121E-02    0.912E-03
DAV:  18    -0.841698090412E+03    0.10449E-05   -0.61731E-06  4930   0.922E-03    0.487E-03
DAV:  19    -0.841698090323E+03    0.89291E-07   -0.26016E-06  4170   0.381E-03
   1 F= -.84952401E+03 E0= -.84952401E+03  d E =-.849524E+03  mag=     0.0000
quench:  g(F)=  0.334E-03 g(S)=  0.000E+00 dE (1.order)=-0.668E-03
 bond charge predicted
       N       E                     dE             d eps       ncg     rms          rms(c)
DAV:   1    -0.841698169117E+03   -0.78706E-04   -0.26319E-03  4700   0.106E-01    0.105E-02
DAV:   2    -0.841698174009E+03   -0.48915E-05   -0.63444E-05  5200   0.154E-02    0.853E-03
DAV:   3    -0.841698173407E+03    0.60182E-06   -0.15997E-06  3630   0.276E-03
   2 F= -.84952409E+03 E0= -.84952409E+03  d E =-.793942E-04  mag=    -0.0000
quench:  g(F)=  0.211E-03 g(S)=  0.000E+00 dE (1.order)=-0.824E-03
 bond charge predicted
       N       E                     dE             d eps       ncg     rms          rms(c)
DAV:   1    -0.841698301733E+03   -0.12772E-03   -0.66530E-03  4720   0.162E-01    0.164E-02
DAV:   2    -0.841698312727E+03   -0.10994E-04   -0.13837E-04  4660   0.223E-02    0.123E-02
DAV:   3    -0.841698312125E+03    0.60193E-06   -0.23310E-06  4380   0.330E-03
   3 F= -.84952422E+03 E0= -.84952422E+03  d E =-.122622E-03  mag=     0.0000
quench:  g(F)=  0.212E-03 g(S)=  0.000E+00 dE (1.order)=-0.122E-02
 bond charge predicted
       N       E                     dE             d eps       ncg     rms          rms(c)
DAV:   1    -0.841698490994E+03   -0.17827E-03   -0.13896E-02  4700   0.234E-01    0.241E-02
DAV:   2    -0.841698512944E+03   -0.21951E-04   -0.28150E-04  4650   0.320E-02    0.183E-02
DAV:   3    -0.841698511820E+03    0.11244E-05   -0.55438E-06  5370   0.495E-03    0.138E-02
DAV:   4    -0.841698513748E+03   -0.19283E-05   -0.56116E-06  4480   0.563E-03    0.412E-03
DAV:   5    -0.841698514158E+03   -0.41026E-06   -0.16237E-06  3700   0.235E-03
   4 F= -.84952440E+03 E0= -.84952440E+03  d E =-.180009E-03  mag=    -0.0000
quench:  g(F)=  0.220E-03 g(S)=  0.000E+00 dE (1.order)=-0.155E-02
 bond charge predicted
       N       E                     dE             d eps       ncg     rms          rms(c)
DAV:   1    -0.841698697187E+03   -0.18344E-03   -0.21173E-02  4700   0.293E-01    0.282E-02
DAV:   2    -0.841698735466E+03   -0.38279E-04   -0.47002E-04  4920   0.417E-02    0.213E-02
DAV:   3    -0.841698732660E+03    0.28056E-05   -0.96356E-06  5750   0.645E-03    0.165E-02
DAV:   4    -0.841698733287E+03   -0.62630E-06   -0.10517E-05  4540   0.762E-03    0.537E-03
DAV:   5    -0.841698733865E+03   -0.57861E-06   -0.28841E-06  3940   0.312E-03
   5 F= -.84952459E+03 E0= -.84952459E+03  d E =-.192971E-03  mag=     0.0000
quench:  g(F)=  0.340E-03 g(S)=  0.000E+00 dE (1.order)=-0.174E-02
 bond charge predicted
       N       E                     dE             d eps       ncg     rms          rms(c)
DAV:   1    -0.841698851412E+03   -0.11813E-03   -0.15441E-02  4680   0.257E-01    0.259E-02
DAV:   2    -0.841698880344E+03   -0.28932E-04   -0.37662E-04  5420   0.377E-02    0.211E-02
DAV:   3    -0.841698876517E+03    0.38264E-05   -0.11395E-05  5830   0.680E-03    0.162E-02
DAV:   4    -0.841698874260E+03    0.22571E-05   -0.10779E-05  4600   0.740E-03    0.628E-03
DAV:   5    -0.841698874653E+03   -0.39244E-06   -0.30558E-06  3760   0.335E-03
   6 F= -.84952471E+03 E0= -.84952471E+03  d E =-.125376E-03  mag=    -0.0000
quench:  g(F)=  0.544E-03 g(S)=  0.000E+00 dE (1.order)=-0.109E-02
 bond charge predicted
       N       E                     dE             d eps       ncg     rms          rms(c)
DAV:   1    -0.841698974596E+03   -0.10034E-03   -0.33171E-03  4620   0.120E-01    0.124E-02
DAV:   2    -0.841698980569E+03   -0.59721E-05   -0.82208E-05  5500   0.176E-02    0.107E-02
DAV:   3    -0.841698979378E+03    0.11909E-05   -0.29594E-06  4070   0.352E-03    0.825E-03
DAV:   4    -0.841698978496E+03    0.88113E-06   -0.41519E-06  4280   0.425E-03
   7 F= -.84952481E+03 E0= -.84952481E+03  d E =-.957666E-04  mag=     0.0000
quench:  g(F)=  0.208E-03 g(S)=  0.000E+00 dE (1.order)=-0.793E-03
 bond charge predicted
       N       E                     dE             d eps       ncg     rms          rms(c)
DAV:   1    -0.841699098845E+03   -0.11947E-03   -0.58806E-03  4700   0.152E-01    0.152E-02
DAV:   2    -0.841699108769E+03   -0.99240E-05   -0.12317E-04  4680   0.211E-02    0.113E-02
DAV:   3    -0.841699108158E+03    0.61063E-06   -0.20492E-06  4200   0.316E-03
   8 F= -.84952492E+03 E0= -.84952492E+03  d E =-.114508E-03  mag=    -0.0000
quench:  g(F)=  0.208E-03 g(S)=  0.000E+00 dE (1.order)=-0.116E-02
 bond charge predicted
       N       E                     dE             d eps       ncg     rms          rms(c)
DAV:   1    -0.841699273977E+03   -0.16521E-03   -0.13339E-02  4660   0.231E-01    0.230E-02
DAV:   2    -0.841699296278E+03   -0.22301E-04   -0.27960E-04  4640   0.319E-02    0.171E-02
DAV:   3    -0.841699295259E+03    0.10188E-05   -0.50688E-06  5260   0.474E-03    0.130E-02
DAV:   4    -0.841699297112E+03   -0.18528E-05   -0.53979E-06  4380   0.546E-03    0.387E-03
DAV:   5    -0.841699297461E+03   -0.34907E-06   -0.15132E-06  3620   0.226E-03
   9 F= -.84952509E+03 E0= -.84952509E+03  d E =-.167701E-03  mag=     0.0000
quench:  g(F)=  0.225E-03 g(S)=  0.000E+00 dE (1.order)=-0.146E-02
 bond charge predicted
       N       E                     dE             d eps       ncg     rms          rms(c)
DAV:   1    -0.841699462292E+03   -0.16518E-03   -0.19768E-02  4660   0.284E-01    0.273E-02
DAV:   2    -0.841699499062E+03   -0.36771E-04   -0.45123E-04  4940   0.407E-02    0.205E-02
DAV:   3    -0.841699496414E+03    0.26482E-05   -0.91600E-06  5810   0.629E-03    0.158E-02
DAV:   4    -0.841699497183E+03   -0.76900E-06   -0.92304E-06  4540   0.709E-03
  10 F= -.84952527E+03 E0= -.84952527E+03  d E =-.172722E-03  mag=    -0.0000
quench:  g(F)=  0.353E-03 g(S)=  0.000E+00 dE (1.order)=-0.154E-02
 bond charge predicted
       N       E                     dE             d eps       ncg     rms          rms(c)
DAV:   1    -0.841699606038E+03   -0.10962E-03   -0.12353E-02  4670   0.231E-01    0.240E-02
DAV:   2    -0.841699628601E+03   -0.22563E-04   -0.30647E-04  5400   0.341E-02    0.193E-02
DAV:   3    -0.841699625258E+03    0.33429E-05   -0.10873E-05  5800   0.655E-03    0.145E-02
DAV:   4    -0.841699623845E+03    0.14135E-05   -0.74377E-06  4460   0.599E-03    0.657E-03
DAV:   5    -0.841699624201E+03   -0.35685E-06   -0.22089E-06  3440   0.296E-03
  11 F= -.84952538E+03 E0= -.84952538E+03  d E =-.115059E-03  mag=     0.0000
quench:  g(F)=  0.470E-03 g(S)=  0.000E+00 dE (1.order)=-0.920E-03
 bond charge predicted
       N       E                     dE             d eps       ncg     rms          rms(c)
DAV:   1    -0.841699716715E+03   -0.92871E-04   -0.32772E-03  4620   0.119E-01    0.122E-02
DAV:   2    -0.841699722801E+03   -0.60859E-05   -0.81909E-05  5420   0.176E-02    0.101E-02
DAV:   3    -0.841699721758E+03    0.10437E-05   -0.27021E-06  4040   0.340E-03    0.776E-03
DAV:   4    -0.841699721146E+03    0.61135E-06   -0.36802E-06  4200   0.394E-03
  12 F= -.84952547E+03 E0= -.84952547E+03  d E =-.884232E-04  mag=     0.0000
quench:  g(F)=  0.201E-03 g(S)=  0.000E+00 dE (1.order)=-0.768E-03
 bond charge predicted
       N       E                     dE             d eps       ncg     rms          rms(c)
DAV:   1    -0.841699837253E+03   -0.11550E-03   -0.59779E-03  4700   0.154E-01    0.152E-02
DAV:   2    -0.841699847496E+03   -0.10243E-04   -0.12746E-04  4640   0.214E-02    0.113E-02
DAV:   3    -0.841699846921E+03    0.57542E-06   -0.19437E-06  4220   0.309E-03
  13 F= -.84952558E+03 E0= -.84952558E+03  d E =-.111482E-03  mag=     0.0000
quench:  g(F)=  0.206E-03 g(S)=  0.000E+00 dE (1.order)=-0.113E-02
 bond charge predicted
       N       E                     dE             d eps       ncg     rms          rms(c)
DAV:   1    -0.841700009343E+03   -0.16185E-03   -0.13675E-02  4580   0.233E-01    0.231E-02
DAV:   2    -0.841700031993E+03   -0.22651E-04   -0.28273E-04  4590   0.318E-02    0.170E-02
DAV:   3    -0.841700031036E+03    0.95695E-06   -0.49163E-06  5210   0.462E-03
  14 F= -.84952574E+03 E0= -.84952574E+03  d E =-.162812E-03  mag=    -0.0000
quench:  g(F)=  0.217E-03 g(S)=  0.000E+00 dE (1.order)=-0.140E-02
 bond charge predicted
       N       E                     dE             d eps       ncg     rms          rms(c)
DAV:   1    -0.841700204490E+03   -0.17250E-03   -0.20065E-02  4580   0.284E-01    0.289E-02
DAV:   2    -0.841700236454E+03   -0.31964E-04   -0.41269E-04  4780   0.387E-02    0.223E-02
DAV:   3    -0.841700234399E+03    0.20558E-05   -0.90113E-06  5690   0.619E-03    0.167E-02
DAV:   4    -0.841700236597E+03   -0.21985E-05   -0.91633E-06  4520   0.687E-03    0.539E-03
DAV:   5    -0.841700237217E+03   -0.61956E-06   -0.25812E-06  3740   0.296E-03
  15 F= -.84952593E+03 E0= -.84952593E+03  d E =-.188551E-03  mag=    -0.0000
quench:  g(F)=  0.322E-03 g(S)=  0.000E+00 dE (1.order)=-0.150E-02
 bond charge predicted
       N       E                     dE             d eps       ncg     rms          rms(c)
DAV:   1    -0.841700345762E+03   -0.10916E-03   -0.17323E-02  4600   0.271E-01    0.266E-02
DAV:   2    -0.841700377593E+03   -0.31831E-04   -0.40954E-04  5240   0.390E-02    0.214E-02
DAV:   3    -0.841700373551E+03    0.40420E-05   -0.12423E-05  5800   0.699E-03    0.163E-02
DAV:   4    -0.841700371789E+03    0.17617E-05   -0.96798E-06  4600   0.700E-03    0.700E-03
DAV:   5    -0.841700372299E+03   -0.50948E-06   -0.29972E-06  3680   0.329E-03
  16 F= -.84952605E+03 E0= -.84952605E+03  d E =-.115745E-03  mag=    -0.0000
quench:  g(F)=  0.459E-03 g(S)=  0.000E+00 dE (1.order)=-0.957E-03
 bond charge predicted
       N       E                     dE             d eps       ncg     rms          rms(c)
DAV:   1    -0.841700469922E+03   -0.98133E-04   -0.35891E-03  4560   0.125E-01    0.130E-02
DAV:   2    -0.841700476211E+03   -0.62887E-05   -0.89156E-05  5400   0.182E-02    0.111E-02
DAV:   3    -0.841700474832E+03    0.13788E-05   -0.36094E-06  4420   0.374E-03    0.838E-03
DAV:   4    -0.841700474026E+03    0.80597E-06   -0.36340E-06  4080   0.394E-03
  17 F= -.84952615E+03 E0= -.84952615E+03  d E =-.991833E-04  mag=    -0.0000
quench:  g(F)=  0.193E-03 g(S)=  0.000E+00 dE (1.order)=-0.744E-03
 bond charge predicted
       N       E                     dE             d eps       ncg     rms          rms(c)
DAV:   1    -0.841700582017E+03   -0.10718E-03   -0.60955E-03  4620   0.156E-01    0.150E-02
DAV:   2    -0.841700592840E+03   -0.10823E-04   -0.13128E-04  4600   0.217E-02    0.110E-02
DAV:   3    -0.841700592275E+03    0.56456E-06   -0.18191E-06  4140   0.301E-03
  18 F= -.84952625E+03 E0= -.84952625E+03  d E =-.105302E-03  mag=    -0.0000
quench:  g(F)=  0.194E-03 g(S)=  0.000E+00 dE (1.order)=-0.106E-02
 bond charge predicted
       N       E                     dE             d eps       ncg     rms          rms(c)
DAV:   1    -0.841700739420E+03   -0.14658E-03   -0.13434E-02  4540   0.231E-01    0.225E-02
DAV:   2    -0.841700762423E+03   -0.23003E-04   -0.28204E-04  4600   0.317E-02    0.165E-02
DAV:   3    -0.841700761536E+03    0.88721E-06   -0.46157E-06  5180   0.454E-03
  19 F= -.84952641E+03 E0= -.84952641E+03  d E =-.155378E-03  mag=    -0.0000
quench:  g(F)=  0.216E-03 g(S)=  0.000E+00 dE (1.order)=-0.132E-02
 bond charge predicted
       N       E                     dE             d eps       ncg     rms          rms(c)
DAV:   1    -0.841700940991E+03   -0.17857E-03   -0.20035E-02  4540   0.283E-01    0.287E-02
DAV:   2    -0.841700974084E+03   -0.33093E-04   -0.42067E-04  4700   0.390E-02    0.219E-02
DAV:   3    -0.841700972275E+03    0.18092E-05   -0.86154E-06  5680   0.611E-03    0.166E-02
DAV:   4    -0.841700974715E+03   -0.24408E-05   -0.83556E-06  4420   0.680E-03    0.510E-03
DAV:   5    -0.841700975367E+03   -0.65123E-06   -0.25115E-06  3740   0.287E-03
  20 F= -.84952659E+03 E0= -.84952659E+03  d E =-.181792E-03  mag=    -0.0000
quench:  g(F)=  0.311E-03 g(S)=  0.000E+00 dE (1.order)=-0.135E-02
 bond charge predicted
       N       E                     dE             d eps       ncg     rms          rms(c)
DAV:   1    -0.841701070401E+03   -0.95686E-04   -0.16218E-02  4540   0.261E-01    0.267E-02
DAV:   2    -0.841701099662E+03   -0.29261E-04   -0.38793E-04  5220   0.381E-02    0.216E-02
DAV:   3    -0.841701095874E+03    0.37884E-05   -0.12722E-05  5740   0.722E-03    0.165E-02
DAV:   4    -0.841701093832E+03    0.20420E-05   -0.94878E-06  4540   0.702E-03    0.693E-03
DAV:   5    -0.841701094287E+03   -0.45478E-06   -0.31054E-06  3700   0.344E-03
  21 F= -.84952670E+03 E0= -.84952670E+03  d E =-.113542E-03  mag=     0.0000
quench:  g(F)=  0.408E-03 g(S)=  0.000E+00 dE (1.order)=-0.882E-03
 bond charge predicted
       N       E                     dE             d eps       ncg     rms          rms(c)
DAV:   1    -0.841701196480E+03   -0.10265E-03   -0.38201E-03  4580   0.129E-01    0.137E-02
DAV:   2    -0.841701203325E+03   -0.68450E-05   -0.98972E-05  5340   0.194E-02    0.116E-02
DAV:   3    -0.841701201913E+03    0.14128E-05   -0.40689E-06  4600   0.409E-03    0.878E-03
DAV:   4    -0.841701201039E+03    0.87376E-06   -0.32267E-06  4040   0.387E-03
  22 F= -.84952680E+03 E0= -.84952680E+03  d E =-.953473E-04  mag=    -0.0000
quench:  g(F)=  0.185E-03 g(S)=  0.000E+00 dE (1.order)=-0.725E-03
 bond charge predicted
       N       E                     dE             d eps       ncg     rms          rms(c)
DAV:   1    -0.841701305310E+03   -0.10340E-03   -0.53153E-03  4560   0.145E-01    0.145E-02
DAV:   2    -0.841701314108E+03   -0.87984E-05   -0.11126E-04  4560   0.201E-02    0.111E-02
DAV:   3    -0.841701313516E+03    0.59208E-06   -0.19941E-06  4080   0.312E-03
  23 F= -.84952690E+03 E0= -.84952690E+03  d E =-.100349E-03  mag=    -0.0000
quench:  g(F)=  0.192E-03 g(S)=  0.000E+00 dE (1.order)=-0.101E-02
 bond charge predicted
       N       E                     dE             d eps       ncg     rms          rms(c)
DAV:   1    -0.841701457224E+03   -0.14312E-03   -0.11703E-02  4540   0.216E-01    0.215E-02
DAV:   2    -0.841701476362E+03   -0.19138E-04   -0.23967E-04  4700   0.296E-02    0.164E-02
DAV:   3    -0.841701475377E+03    0.98511E-06   -0.44402E-06  5160   0.442E-03
  24 F= -.84952704E+03 E0= -.84952704E+03  d E =-.144118E-03  mag=    -0.0000
quench:  g(F)=  0.215E-03 g(S)=  0.000E+00 dE (1.order)=-0.118E-02
 bond charge predicted
       N       E                     dE             d eps       ncg     rms          rms(c)
DAV:   1    -0.841701626414E+03   -0.15005E-03   -0.17086E-02  4540   0.263E-01    0.272E-02
DAV:   2    -0.841701654084E+03   -0.27670E-04   -0.36057E-04  4880   0.366E-02    0.213E-02
DAV:   3    -0.841701652075E+03    0.20088E-05   -0.89390E-06  5700   0.615E-03    0.161E-02
DAV:   4    -0.841701653354E+03   -0.12797E-05   -0.79476E-06  4420   0.652E-03    0.554E-03
DAV:   5    -0.841701654040E+03   -0.68555E-06   -0.24040E-06  3720   0.287E-03
  25 F= -.84952720E+03 E0= -.84952720E+03  d E =-.158742E-03  mag=    -0.0000
quench:  g(F)=  0.282E-03 g(S)=  0.000E+00 dE (1.order)=-0.115E-02
 bond charge predicted
       N       E                     dE             d eps       ncg     rms          rms(c)
DAV:   1    -0.841701742456E+03   -0.89102E-04   -0.12458E-02  4560   0.232E-01    0.234E-02
DAV:   2    -0.841701766162E+03   -0.23706E-04   -0.30730E-04  5280   0.341E-02    0.192E-02
DAV:   3    -0.841701763012E+03    0.31499E-05   -0.96304E-06  5820   0.614E-03    0.148E-02
DAV:   4    -0.841701761202E+03    0.18099E-05   -0.83818E-06  4510   0.647E-03    0.599E-03
DAV:   5    -0.841701761532E+03   -0.32975E-06   -0.24094E-06  3560   0.297E-03
  26 F= -.84952729E+03 E0= -.84952729E+03  d E =-.933193E-04  mag=    -0.0000
quench:  g(F)=  0.339E-03 g(S)=  0.000E+00 dE (1.order)=-0.733E-03
 bond charge predicted
       N       E                     dE             d eps       ncg     rms          rms(c)
DAV:   1    -0.841701839567E+03   -0.78365E-04   -0.27149E-03  4520   0.109E-01    0.114E-02
DAV:   2    -0.841701844453E+03   -0.48856E-05   -0.68807E-05  5340   0.161E-02    0.974E-03
DAV:   3    -0.841701843486E+03    0.96671E-06   -0.26655E-06  4030   0.331E-03
  27 F= -.84952737E+03 E0= -.84952737E+03  d E =-.787807E-04  mag=     0.0000
quench:  g(F)=  0.174E-03 g(S)=  0.000E+00 dE (1.order)=-0.701E-03
 bond charge predicted
       N       E                     dE             d eps       ncg     rms          rms(c)
DAV:   1    -0.841701941772E+03   -0.97319E-04   -0.55329E-03  4580   0.148E-01    0.156E-02
DAV:   2    -0.841701950690E+03   -0.89176E-05   -0.11478E-04  4580   0.204E-02    0.121E-02
DAV:   3    -0.841701950032E+03    0.65790E-06   -0.20217E-06  4120   0.316E-03
  28 F= -.84952747E+03 E0= -.84952747E+03  d E =-.937616E-04  mag=     0.0000
quench:  g(F)=  0.189E-03 g(S)=  0.000E+00 dE (1.order)=-0.941E-03
 bond charge predicted
       N       E                     dE             d eps       ncg     rms          rms(c)
DAV:   1    -0.841702073133E+03   -0.12244E-03   -0.10297E-02  4560   0.204E-01    0.203E-02
DAV:   2    -0.841702090032E+03   -0.16898E-04   -0.21306E-04  4640   0.280E-02    0.158E-02
DAV:   3    -0.841702088828E+03    0.12036E-05   -0.44852E-06  5140   0.444E-03    0.120E-02
DAV:   4    -0.841702089700E+03   -0.87201E-06   -0.57618E-06  4300   0.546E-03
  29 F= -.84952759E+03 E0= -.84952759E+03  d E =-.125687E-03  mag=    -0.0000
quench:  g(F)=  0.207E-03 g(S)=  0.000E+00 dE (1.order)=-0.105E-02
 bond charge predicted
       N       E                     dE             d eps       ncg     rms          rms(c)
DAV:   1    -0.841702196836E+03   -0.10801E-03   -0.11787E-02  4560   0.222E-01    0.225E-02
DAV:   2    -0.841702217423E+03   -0.20587E-04   -0.26852E-04  4920   0.316E-02    0.181E-02
DAV:   3    -0.841702214948E+03    0.24747E-05   -0.79913E-06  5760   0.573E-03    0.137E-02
DAV:   4    -0.841702214276E+03    0.67208E-06   -0.70360E-06  4300   0.599E-03
  30 F= -.84952770E+03 E0= -.84952770E+03  d E =-.107948E-03  mag=     0.0000
quench:  g(F)=  0.261E-03 g(S)=  0.000E+00 dE (1.order)=-0.100E-02
 bond charge predicted
       N       E                     dE             d eps       ncg     rms          rms(c)
DAV:   1    -0.841702295830E+03   -0.80881E-04   -0.50909E-03  4560   0.147E-01    0.160E-02
DAV:   2    -0.841702304328E+03   -0.84978E-05   -0.12311E-04  5280   0.214E-02    0.136E-02
DAV:   3    -0.841702302378E+03    0.19497E-05   -0.52477E-06  5120   0.456E-03    0.100E-02
DAV:   4    -0.841702301389E+03    0.98933E-06   -0.47899E-06  4280   0.462E-03
  31 F= -.84952778E+03 E0= -.84952778E+03  d E =-.829486E-04  mag=    -0.0000
quench:  g(F)=  0.279E-03 g(S)=  0.000E+00 dE (1.order)=-0.683E-03
 bond charge predicted
       N       E                     dE             d eps       ncg     rms          rms(c)
DAV:   1    -0.841702372125E+03   -0.69747E-04   -0.29842E-03  4540   0.111E-01    0.114E-02
DAV:   2    -0.841702377232E+03   -0.51069E-05   -0.67682E-05  4990   0.157E-02    0.933E-03
DAV:   3    -0.841702376555E+03    0.67733E-06   -0.19596E-06  3820   0.296E-03
  32 F= -.84952785E+03 E0= -.84952785E+03  d E =-.671086E-04  mag=    -0.0000
quench:  g(F)=  0.170E-03 g(S)=  0.000E+00 dE (1.order)=-0.683E-03
 bond charge predicted
       N       E                     dE             d eps       ncg     rms          rms(c)
DAV:   1    -0.841702467741E+03   -0.90509E-04   -0.51762E-03  4540   0.145E-01    0.151E-02
DAV:   2    -0.841702475961E+03   -0.82204E-05   -0.10798E-04  4620   0.200E-02    0.120E-02
DAV:   3    -0.841702475201E+03    0.76088E-06   -0.25135E-06  4300   0.341E-03
  33 F= -.84952794E+03 E0= -.84952794E+03  d E =-.906357E-04  mag=     0.0000
quench:  g(F)=  0.186E-03 g(S)=  0.000E+00 dE (1.order)=-0.879E-03
 bond charge predicted
       N       E                     dE             d eps       ncg     rms          rms(c)
DAV:   1    -0.841702589392E+03   -0.11343E-03   -0.85253E-03  4540   0.186E-01    0.194E-02
DAV:   2    -0.841702602885E+03   -0.13493E-04   -0.17888E-04  4680   0.257E-02    0.155E-02
DAV:   3    -0.841702601559E+03    0.13252E-05   -0.48432E-06  5200   0.455E-03    0.116E-02
DAV:   4    -0.841702602111E+03   -0.55144E-06   -0.51232E-06  4260   0.498E-03
  34 F= -.84952805E+03 E0= -.84952805E+03  d E =-.107915E-03  mag=     0.0000
quench:  g(F)=  0.197E-03 g(S)=  0.000E+00 dE (1.order)=-0.977E-03
 bond charge predicted
       N       E                     dE             d eps       ncg     rms          rms(c)
DAV:   1    -0.841702686295E+03   -0.84735E-04   -0.79473E-03  4560   0.184E-01    0.189E-02
DAV:   2    -0.841702699690E+03   -0.13396E-04   -0.18110E-04  5120   0.261E-02    0.155E-02
DAV:   3    -0.841702697706E+03    0.19840E-05   -0.62252E-06  5600   0.496E-03    0.116E-02
DAV:   4    -0.841702697167E+03    0.53931E-06   -0.49162E-06  4280   0.492E-03
  35 F= -.84952814E+03 E0= -.84952814E+03  d E =-.880809E-04  mag=     0.0000
quench:  g(F)=  0.252E-03 g(S)=  0.000E+00 dE (1.order)=-0.972E-03
 bond charge predicted
       N       E                     dE             d eps       ncg     rms          rms(c)
DAV:   1    -0.841702776178E+03   -0.78472E-04   -0.38909E-03  4540   0.129E-01    0.135E-02
DAV:   2    -0.841702782966E+03   -0.67883E-05   -0.94878E-05  5340   0.188E-02    0.113E-02
DAV:   3    -0.841702781704E+03    0.12630E-05   -0.36108E-06  4260   0.381E-03    0.842E-03
DAV:   4    -0.841702781184E+03    0.51985E-06   -0.38303E-06  4140   0.398E-03
  36 F= -.84952821E+03 E0= -.84952821E+03  d E =-.733908E-04  mag=     0.0000
quench:  g(F)=  0.267E-03 g(S)=  0.000E+00 dE (1.order)=-0.699E-03
 bond charge predicted
       N       E                     dE             d eps       ncg     rms          rms(c)
DAV:   1    -0.841702852265E+03   -0.70562E-04   -0.34051E-03  4540   0.119E-01    0.122E-02
DAV:   2    -0.841702858181E+03   -0.59151E-05   -0.76771E-05  4920   0.169E-02    0.966E-03
DAV:   3    -0.841702857584E+03    0.59670E-06   -0.18409E-06  3960   0.290E-03
  37 F= -.84952828E+03 E0= -.84952828E+03  d E =-.703961E-04  mag=     0.0000
quench:  g(F)=  0.175E-03 g(S)=  0.000E+00 dE (1.order)=-0.686E-03
 bond charge predicted
       N       E                     dE             d eps       ncg     rms          rms(c)
DAV:   1    -0.841702959902E+03   -0.10172E-03   -0.61801E-03  4540   0.159E-01    0.166E-02
DAV:   2    -0.841702970136E+03   -0.10234E-04   -0.13421E-04  4660   0.223E-02    0.129E-02
DAV:   3    -0.841702969287E+03    0.84927E-06   -0.31594E-06  4600   0.377E-03
  38 F= -.84952838E+03 E0= -.84952838E+03  d E =-.940121E-04  mag=     0.0000
quench:  g(F)=  0.186E-03 g(S)=  0.000E+00 dE (1.order)=-0.833E-03
 bond charge predicted
       N       E                     dE             d eps       ncg     rms          rms(c)
DAV:   1    -0.841703069266E+03   -0.99130E-04   -0.86936E-03  4540   0.190E-01    0.203E-02
DAV:   2    -0.841703083791E+03   -0.14525E-04   -0.19265E-04  4920   0.269E-02    0.162E-02
DAV:   3    -0.841703082367E+03    0.14235E-05   -0.52082E-06  5400   0.467E-03    0.122E-02
DAV:   4    -0.841703083085E+03   -0.71777E-06   -0.54352E-06  4240   0.526E-03
  39 F= -.84952848E+03 E0= -.84952848E+03  d E =-.105819E-03  mag=     0.0000
quench:  g(F)=  0.192E-03 g(S)=  0.000E+00 dE (1.order)=-0.906E-03
 bond charge predicted
       N       E                     dE             d eps       ncg     rms          rms(c)
DAV:   1    -0.841703176781E+03   -0.94414E-04   -0.74426E-03  4560   0.178E-01    0.187E-02
DAV:   2    -0.841703189725E+03   -0.12944E-04   -0.17596E-04  5160   0.257E-02    0.150E-02
DAV:   3    -0.841703187848E+03    0.18770E-05   -0.64394E-06  5580   0.505E-03    0.113E-02
DAV:   4    -0.841703187250E+03    0.59797E-06   -0.40150E-06  4160   0.448E-03
  40 F= -.84952857E+03 E0= -.84952857E+03  d E =-.854594E-04  mag=    -0.0000
quench:  g(F)=  0.251E-03 g(S)=  0.000E+00 dE (1.order)=-0.861E-03
 bond charge predicted
       N       E                     dE             d eps       ncg     rms          rms(c)
DAV:   1    -0.841703257166E+03   -0.69319E-04   -0.38777E-03  4560   0.129E-01    0.136E-02
DAV:   2    -0.841703264104E+03   -0.69376E-05   -0.95661E-05  5260   0.189E-02    0.112E-02
DAV:   3    -0.841703262932E+03    0.11723E-05   -0.33835E-06  4280   0.368E-03    0.842E-03
DAV:   4    -0.841703262573E+03    0.35889E-06   -0.39599E-06  4160   0.407E-03
  41 F= -.84952864E+03 E0= -.84952864E+03  d E =-.738017E-04  mag=     0.0000
quench:  g(F)=  0.222E-03 g(S)=  0.000E+00 dE (1.order)=-0.629E-03
 bond charge predicted
       N       E                     dE             d eps       ncg     rms          rms(c)
DAV:   1    -0.841703343098E+03   -0.80167E-04   -0.39786E-03  4560   0.129E-01    0.131E-02
DAV:   2    -0.841703349966E+03   -0.68679E-05   -0.90178E-05  4680   0.183E-02    0.103E-02
DAV:   3    -0.841703349288E+03    0.67856E-06   -0.21549E-06  4220   0.313E-03
  42 F= -.84952871E+03 E0= -.84952871E+03  d E =-.746403E-04  mag=    -0.0000
quench:  g(F)=  0.174E-03 g(S)=  0.000E+00 dE (1.order)=-0.659E-03
 bond charge predicted
       N       E                     dE             d eps       ncg     rms          rms(c)
DAV:   1    -0.841703442093E+03   -0.92127E-04   -0.63859E-03  4540   0.162E-01    0.173E-02
DAV:   2    -0.841703452444E+03   -0.10351E-04   -0.13739E-04  4680   0.226E-02    0.136E-02
DAV:   3    -0.841703451440E+03    0.10045E-05   -0.35391E-06  4760   0.391E-03    0.102E-02
DAV:   4    -0.841703451977E+03   -0.53710E-06   -0.42233E-06  4180   0.448E-03
  43 F= -.84952881E+03 E0= -.84952881E+03  d E =-.971075E-04  mag=    -0.0000
quench:  g(F)=  0.177E-03 g(S)=  0.000E+00 dE (1.order)=-0.778E-03
 bond charge predicted
       N       E                     dE             d eps       ncg     rms          rms(c)
DAV:   1    -0.841703550151E+03   -0.98711E-04   -0.80530E-03  4560   0.184E-01    0.187E-02
DAV:   2    -0.841703563988E+03   -0.13837E-04   -0.18150E-04  4820   0.260E-02    0.149E-02
DAV:   3    -0.841703562424E+03    0.15636E-05   -0.51906E-06  5340   0.460E-03    0.113E-02
DAV:   4    -0.841703562299E+03    0.12493E-06   -0.44565E-06  4140   0.479E-03
  44 F= -.84952891E+03 E0= -.84952891E+03  d E =-.949591E-04  mag=    -0.0000
quench:  g(F)=  0.194E-03 g(S)=  0.000E+00 dE (1.order)=-0.851E-03
 bond charge predicted
       N       E                     dE             d eps       ncg     rms          rms(c)
DAV:   1    -0.841703637109E+03   -0.74685E-04   -0.57215E-03  4520   0.157E-01    0.164E-02
DAV:   2    -0.841703647076E+03   -0.99672E-05   -0.13699E-04  5200   0.226E-02    0.135E-02
DAV:   3    -0.841703645473E+03    0.16034E-05   -0.49701E-06  5110   0.436E-03    0.101E-02
DAV:   4    -0.841703644873E+03    0.59983E-06   -0.41860E-06  4140   0.439E-03
  45 F= -.84952899E+03 E0= -.84952899E+03  d E =-.801004E-04  mag=     0.0000
quench:  g(F)=  0.213E-03 g(S)=  0.000E+00 dE (1.order)=-0.819E-03
 bond charge predicted
       N       E                     dE             d eps       ncg     rms          rms(c)
DAV:   1    -0.841703722559E+03   -0.77087E-04   -0.36655E-03  4520   0.125E-01    0.128E-02
DAV:   2    -0.841703729044E+03   -0.64842E-05   -0.87031E-05  5100   0.180E-02    0.105E-02
DAV:   3    -0.841703728144E+03    0.89948E-06   -0.26141E-06  4080   0.333E-03
  46 F= -.84952906E+03 E0= -.84952906E+03  d E =-.727487E-04  mag=     0.0000
quench:  g(F)=  0.237E-03 g(S)=  0.000E+00 dE (1.order)=-0.693E-03
 bond charge predicted
       N       E                     dE             d eps       ncg     rms          rms(c)
DAV:   1    -0.841703816856E+03   -0.87813E-04   -0.54597E-03  4540   0.150E-01    0.159E-02
DAV:   2    -0.841703826053E+03   -0.91964E-05   -0.12101E-04  4620   0.211E-02    0.124E-02
DAV:   3    -0.841703825314E+03    0.73863E-06   -0.26812E-06  4420   0.347E-03
  47 F= -.84952915E+03 E0= -.84952915E+03  d E =-.891546E-04  mag=     0.0000
quench:  g(F)=  0.171E-03 g(S)=  0.000E+00 dE (1.order)=-0.642E-03
 bond charge predicted
       N       E                     dE             d eps       ncg     rms          rms(c)
DAV:   1    -0.841703935679E+03   -0.10963E-03   -0.89634E-03  4540   0.192E-01    0.198E-02
DAV:   2    -0.841703950862E+03   -0.15183E-04   -0.19489E-04  4780   0.269E-02    0.155E-02
DAV:   3    -0.841703949724E+03    0.11381E-05   -0.44441E-06  5200   0.437E-03    0.117E-02
DAV:   4    -0.841703950498E+03   -0.77441E-06   -0.47914E-06  4200   0.495E-03
  48 F= -.84952926E+03 E0= -.84952926E+03  d E =-.111610E-03  mag=    -0.0000
quench:  g(F)=  0.174E-03 g(S)=  0.000E+00 dE (1.order)=-0.753E-03
 bond charge predicted
       N       E                     dE             d eps       ncg     rms          rms(c)
DAV:   1    -0.841704036056E+03   -0.86333E-04   -0.98397E-03  4560   0.205E-01    0.207E-02
DAV:   2    -0.841704054283E+03   -0.18227E-04   -0.23539E-04  5140   0.296E-02    0.163E-02
DAV:   3    -0.841704052489E+03    0.17941E-05   -0.62798E-06  5580   0.504E-03    0.125E-02
DAV:   4    -0.841704052292E+03    0.19639E-06   -0.52305E-06  4280   0.528E-03
  49 F= -.84952935E+03 E0= -.84952935E+03  d E =-.942394E-04  mag=    -0.0000
quench:  g(F)=  0.189E-03 g(S)=  0.000E+00 dE (1.order)=-0.806E-03
 bond charge predicted
       N       E                     dE             d eps       ncg     rms          rms(c)
DAV:   1    -0.841704134902E+03   -0.82413E-04   -0.50908E-03  4540   0.148E-01    0.153E-02
DAV:   2    -0.841704144342E+03   -0.94404E-05   -0.12726E-04  5260   0.218E-02    0.127E-02
DAV:   3    -0.841704142885E+03    0.14575E-05   -0.44240E-06  4860   0.417E-03    0.961E-03
DAV:   4    -0.841704142096E+03    0.78875E-06   -0.38187E-06  4140   0.421E-03
  50 F= -.84952944E+03 E0= -.84952944E+03  d E =-.810599E-04  mag=    -0.0000
quench:  g(F)=  0.212E-03 g(S)=  0.000E+00 dE (1.order)=-0.780E-03
 bond charge predicted
       N       E                     dE             d eps       ncg     rms          rms(c)
DAV:   1    -0.841704216838E+03   -0.73953E-04   -0.40363E-03  4540   0.130E-01    0.129E-02
DAV:   2    -0.841704224216E+03   -0.73779E-05   -0.94835E-05  4790   0.187E-02    0.102E-02
DAV:   3    -0.841704223535E+03    0.68080E-06   -0.21789E-06  4120   0.310E-03
  51 F= -.84952951E+03 E0= -.84952951E+03  d E =-.740078E-04  mag=    -0.0000
quench:  g(F)=  0.222E-03 g(S)=  0.000E+00 dE (1.order)=-0.631E-03
 bond charge predicted
       N       E                     dE             d eps       ncg     rms          rms(c)
DAV:   1    -0.841704321408E+03   -0.97192E-04   -0.68012E-03  4540   0.167E-01    0.168E-02
DAV:   2    -0.841704333242E+03   -0.11834E-04   -0.15043E-04  4620   0.234E-02    0.130E-02
DAV:   3    -0.841704332421E+03    0.82085E-06   -0.30427E-06  4640   0.367E-03
  52 F= -.84952961E+03 E0= -.84952961E+03  d E =-.977657E-04  mag=    -0.0000
quench:  g(F)=  0.170E-03 g(S)=  0.000E+00 dE (1.order)=-0.637E-03
 bond charge predicted
       N       E                     dE             d eps       ncg     rms          rms(c)
DAV:   1    -0.841704444472E+03   -0.11123E-03   -0.10305E-02  4540   0.207E-01    0.210E-02
DAV:   2    -0.841704462264E+03   -0.17793E-04   -0.22816E-04  4620   0.289E-02    0.163E-02
DAV:   3    -0.841704460997E+03    0.12673E-05   -0.51390E-06  5340   0.462E-03    0.123E-02
DAV:   4    -0.841704461988E+03   -0.99095E-06   -0.52533E-06  4200   0.515E-03
  53 F= -.84952972E+03 E0= -.84952972E+03  d E =-.115483E-03  mag=    -0.0000
quench:  g(F)=  0.178E-03 g(S)=  0.000E+00 dE (1.order)=-0.745E-03
 bond charge predicted
       N       E                     dE             d eps       ncg     rms          rms(c)
DAV:   1    -0.841704553628E+03   -0.92630E-04   -0.96681E-03  4560   0.203E-01    0.200E-02
DAV:   2    -0.841704571186E+03   -0.17559E-04   -0.22690E-04  5100   0.290E-02    0.161E-02
DAV:   3    -0.841704569276E+03    0.19106E-05   -0.63313E-06  5580   0.496E-03    0.122E-02
DAV:   4    -0.841704568877E+03    0.39833E-06   -0.52400E-06  4240   0.516E-03
  54 F= -.84952982E+03 E0= -.84952982E+03  d E =-.936245E-04  mag=     0.0000
quench:  g(F)=  0.195E-03 g(S)=  0.000E+00 dE (1.order)=-0.767E-03
 bond charge predicted
       N       E                     dE             d eps       ncg     rms          rms(c)
DAV:   1    -0.841704650157E+03   -0.80881E-04   -0.45035E-03  4500   0.139E-01    0.144E-02
DAV:   2    -0.841704658257E+03   -0.81003E-05   -0.11078E-04  5300   0.202E-02    0.120E-02
DAV:   3    -0.841704656960E+03    0.12973E-05   -0.39619E-06  4700   0.386E-03    0.897E-03
DAV:   4    -0.841704656365E+03    0.59490E-06   -0.35665E-06  4060   0.396E-03
  55 F= -.84952990E+03 E0= -.84952990E+03  d E =-.796021E-04  mag=    -0.0000
quench:  g(F)=  0.212E-03 g(S)=  0.000E+00 dE (1.order)=-0.711E-03
 bond charge predicted
       N       E                     dE             d eps       ncg     rms          rms(c)
DAV:   1    -0.841704736204E+03   -0.79244E-04   -0.42584E-03  4560   0.133E-01    0.130E-02
DAV:   2    -0.841704743958E+03   -0.77545E-05   -0.98367E-05  4580   0.190E-02    0.101E-02
DAV:   3    -0.841704743322E+03    0.63601E-06   -0.20026E-06  4180   0.303E-03
  56 F= -.84952997E+03 E0= -.84952997E+03  d E =-.779897E-04  mag=     0.0000
quench:  g(F)=  0.191E-03 g(S)=  0.000E+00 dE (1.order)=-0.613E-03
 bond charge predicted
       N       E                     dE             d eps       ncg     rms          rms(c)
DAV:   1    -0.841704850003E+03   -0.10604E-03   -0.80100E-03  4560   0.182E-01    0.182E-02
DAV:   2    -0.841704864114E+03   -0.14111E-04   -0.17892E-04  4540   0.255E-02    0.138E-02
DAV:   3    -0.841704863264E+03    0.85059E-06   -0.33873E-06  5000   0.385E-03
  57 F= -.84953008E+03 E0= -.84953008E+03  d E =-.107273E-03  mag=     0.0000
quench:  g(F)=  0.169E-03 g(S)=  0.000E+00 dE (1.order)=-0.656E-03
 bond charge predicted
       N       E                     dE             d eps       ncg     rms          rms(c)
DAV:   1    -0.841704979646E+03   -0.11553E-03   -0.11865E-02  4540   0.222E-01    0.223E-02
DAV:   2    -0.841705000216E+03   -0.20570E-04   -0.26505E-04  4660   0.312E-02    0.173E-02
DAV:   3    -0.841704998822E+03    0.13933E-05   -0.57702E-06  5460   0.493E-03    0.132E-02
DAV:   4    -0.841705000151E+03   -0.13288E-05   -0.57909E-06  4240   0.554E-03    0.460E-03
DAV:   5    -0.841705000630E+03   -0.47919E-06   -0.16248E-06  3520   0.240E-03
  58 F= -.84953020E+03 E0= -.84953020E+03  d E =-.120066E-03  mag=    -0.0000
quench:  g(F)=  0.175E-03 g(S)=  0.000E+00 dE (1.order)=-0.751E-03
 bond charge predicted
       N       E                     dE             d eps       ncg     rms          rms(c)
DAV:   1    -0.841705086126E+03   -0.85975E-04   -0.98695E-03  4560   0.206E-01    0.200E-02
DAV:   2    -0.841705104871E+03   -0.18745E-04   -0.23774E-04  5180   0.296E-02    0.160E-02
DAV:   3    -0.841705102795E+03    0.20752E-05   -0.64785E-06  5560   0.504E-03    0.123E-02
DAV:   4    -0.841705101892E+03    0.90290E-06   -0.56291E-06  4340   0.536E-03
  59 F= -.84953029E+03 E0= -.84953029E+03  d E =-.907690E-04  mag=    -0.0000
quench:  g(F)=  0.197E-03 g(S)=  0.000E+00 dE (1.order)=-0.766E-03
 bond charge predicted
       N       E                     dE             d eps       ncg     rms          rms(c)
DAV:   1    -0.841705179224E+03   -0.76428E-04   -0.39614E-03  4520   0.131E-01    0.132E-02
DAV:   2    -0.841705186801E+03   -0.75770E-05   -0.99988E-05  5380   0.193E-02    0.109E-02
DAV:   3    -0.841705185716E+03    0.10849E-05   -0.31758E-06  4220   0.355E-03    0.830E-03
DAV:   4    -0.841705185104E+03    0.61180E-06   -0.37686E-06  4200   0.399E-03
  60 F= -.84953037E+03 E0= -.84953037E+03  d E =-.776426E-04  mag=    -0.0000
quench:  g(F)=  0.221E-03 g(S)=  0.000E+00 dE (1.order)=-0.696E-03
 bond charge predicted
       N       E                     dE             d eps       ncg     rms          rms(c)
DAV:   1    -0.841705269751E+03   -0.84035E-04   -0.48367E-03  4560   0.141E-01    0.135E-02
DAV:   2    -0.841705278830E+03   -0.90793E-05   -0.11171E-04  4600   0.202E-02    0.100E-02
DAV:   3    -0.841705278361E+03    0.46936E-06   -0.17455E-06  4020   0.291E-03
  61 F= -.84953045E+03 E0= -.84953045E+03  d E =-.815269E-04  mag=    -0.0000
quench:  g(F)=  0.180E-03 g(S)=  0.000E+00 dE (1.order)=-0.592E-03
 reached required accuracy - stopping structural energy minimisation
