  93  93   0   0
  0.4166543E+02  0.1727104E-08  0.1727104E-08  0.1500000E-08  0.1000000E-15
   1.0000000000000000E-004
  CAR 
 unknown system                          
      5.89857453    -30.93259427  301     -2.87137334      1.00000000
    -30.933  0.0000E+00  0.0000E+00  0.0000E+00  0.0000E+00
    -30.810  0.0000E+00  0.0000E+00  0.0000E+00  0.0000E+00
    -30.687  0.0000E+00  0.0000E+00  0.0000E+00  0.0000E+00
    -30.564  0.0000E+00  0.0000E+00  0.0000E+00  0.0000E+00
    -30.442  0.0000E+00  0.0000E+00  0.0000E+00  0.0000E+00
    -30.319  0.0000E+00  0.0000E+00  0.0000E+00  0.0000E+00
    -30.196  0.0000E+00  0.0000E+00  0.0000E+00  0.0000E+00
    -30.073  0.0000E+00  0.0000E+00  0.0000E+00  0.0000E+00
    -29.950  0.0000E+00  0.0000E+00  0.0000E+00  0.0000E+00
    -29.828  0.0000E+00  0.0000E+00  0.0000E+00  0.0000E+00
    -29.705  0.0000E+00  0.0000E+00  0.0000E+00  0.0000E+00
    -29.582  0.0000E+00  0.0000E+00  0.0000E+00  0.0000E+00
    -29.459  0.2172E-09  0.2172E-09  0.2667E-10  0.2667E-10
    -29.337  0.5494E-03  0.5494E-03  0.6745E-04  0.6745E-04
    -29.214  0.4663E-01  0.4663E-01  0.5792E-02  0.5792E-02
    -29.091  0.7121E-02  0.7121E-02  0.6667E-02  0.6667E-02
    -28.968  0.1351E-06  0.1351E-06  0.6667E-02  0.6667E-02
    -28.845  0.0000E+00  0.0000E+00  0.6667E-02  0.6667E-02
    -28.723  0.0000E+00  0.0000E+00  0.6667E-02  0.6667E-02
    -28.600  0.0000E+00  0.0000E+00  0.6667E-02  0.6667E-02
    -28.477  0.0000E+00  0.0000E+00  0.6667E-02  0.6667E-02
    -28.354  0.0000E+00  0.0000E+00  0.6667E-02  0.6667E-02
    -28.232  0.0000E+00  0.0000E+00  0.6667E-02  0.6667E-02
    -28.109  0.0000E+00  0.0000E+00  0.6667E-02  0.6667E-02
    -27.986  0.0000E+00  0.0000E+00  0.6667E-02  0.6667E-02
    -27.863  0.0000E+00  0.0000E+00  0.6667E-02  0.6667E-02
    -27.741  0.0000E+00  0.0000E+00  0.6667E-02  0.6667E-02
    -27.618  0.0000E+00  0.0000E+00  0.6667E-02  0.6667E-02
    -27.495  0.0000E+00  0.0000E+00  0.6667E-02  0.6667E-02
    -27.372  0.0000E+00  0.0000E+00  0.6667E-02  0.6667E-02
    -27.249  0.0000E+00  0.0000E+00  0.6667E-02  0.6667E-02
    -27.127  0.0000E+00  0.0000E+00  0.6667E-02  0.6667E-02
    -27.004  0.0000E+00  0.0000E+00  0.6667E-02  0.6667E-02
    -26.881  0.0000E+00  0.0000E+00  0.6667E-02  0.6667E-02
    -26.758  0.0000E+00  0.0000E+00  0.6667E-02  0.6667E-02
    -26.636  0.0000E+00  0.0000E+00  0.6667E-02  0.6667E-02
    -26.513  0.0000E+00  0.0000E+00  0.6667E-02  0.6667E-02
    -26.390  0.0000E+00  0.0000E+00  0.6667E-02  0.6667E-02
    -26.267  0.0000E+00  0.0000E+00  0.6667E-02  0.6667E-02
    -26.145  0.0000E+00  0.0000E+00  0.6667E-02  0.6667E-02
    -26.022  0.0000E+00  0.0000E+00  0.6667E-02  0.6667E-02
    -25.899  0.0000E+00  0.0000E+00  0.6667E-02  0.6667E-02
    -25.776  0.0000E+00  0.0000E+00  0.6667E-02  0.6667E-02
    -25.653  0.0000E+00  0.0000E+00  0.6667E-02  0.6667E-02
    -25.531  0.0000E+00  0.0000E+00  0.6667E-02  0.6667E-02
    -25.408  0.0000E+00  0.0000E+00  0.6667E-02  0.6667E-02
    -25.285  0.0000E+00  0.0000E+00  0.6667E-02  0.6667E-02
    -25.162  0.0000E+00  0.0000E+00  0.6667E-02  0.6667E-02
    -25.040  0.0000E+00  0.0000E+00  0.6667E-02  0.6667E-02
    -24.917  0.0000E+00  0.0000E+00  0.6667E-02  0.6667E-02
    -24.794  0.0000E+00  0.0000E+00  0.6667E-02  0.6667E-02
    -24.671  0.0000E+00  0.0000E+00  0.6667E-02  0.6667E-02
    -24.549  0.0000E+00  0.0000E+00  0.6667E-02  0.6667E-02
    -24.426  0.0000E+00  0.0000E+00  0.6667E-02  0.6667E-02
    -24.303  0.0000E+00  0.0000E+00  0.6667E-02  0.6667E-02
    -24.180  0.0000E+00  0.0000E+00  0.6667E-02  0.6667E-02
    -24.057  0.0000E+00  0.0000E+00  0.6667E-02  0.6667E-02
    -23.935  0.0000E+00  0.0000E+00  0.6667E-02  0.6667E-02
    -23.812  0.0000E+00  0.0000E+00  0.6667E-02  0.6667E-02
    -23.689  0.0000E+00  0.0000E+00  0.6667E-02  0.6667E-02
    -23.566  0.0000E+00  0.0000E+00  0.6667E-02  0.6667E-02
    -23.444  0.0000E+00  0.0000E+00  0.6667E-02  0.6667E-02
    -23.321  0.0000E+00  0.0000E+00  0.6667E-02  0.6667E-02
    -23.198  0.0000E+00  0.0000E+00  0.6667E-02  0.6667E-02
    -23.075  0.0000E+00  0.0000E+00  0.6667E-02  0.6667E-02
    -22.953  0.0000E+00  0.0000E+00  0.6667E-02  0.6667E-02
    -22.830  0.1311E-08  0.1311E-08  0.6667E-02  0.6667E-02
    -22.707  0.7239E-03  0.7239E-03  0.6756E-02  0.6756E-02
    -22.584  0.4254E-01  0.4254E-01  0.1198E-01  0.1198E-01
    -22.461  0.1261E-01  0.1261E-01  0.1353E-01  0.1353E-01
    -22.339  0.3933E-01  0.3933E-01  0.1835E-01  0.1835E-01
    -22.216  0.1340E-01  0.1340E-01  0.2000E-01  0.2000E-01
    -22.093  0.3710E-02  0.3710E-02  0.2045E-01  0.2045E-01
    -21.970  0.2995E-01  0.2995E-01  0.2413E-01  0.2413E-01
    -21.848  0.4681E-01  0.4681E-01  0.2988E-01  0.2988E-01
    -21.725  0.2789E-01  0.2789E-01  0.3330E-01  0.3330E-01
    -21.602  0.1807E-01  0.1807E-01  0.3552E-01  0.3552E-01
    -21.479  0.1961E-01  0.1961E-01  0.3793E-01  0.3793E-01
    -21.356  0.2182E-01  0.2182E-01  0.4061E-01  0.4061E-01
    -21.234  0.1792E-01  0.1792E-01  0.4281E-01  0.4281E-01
    -21.111  0.6866E-02  0.6866E-02  0.4365E-01  0.4365E-01
    -20.988  0.2232E-01  0.2232E-01  0.4639E-01  0.4639E-01
    -20.865  0.2289E-01  0.2289E-01  0.4920E-01  0.4920E-01
    -20.743  0.2192E-01  0.2192E-01  0.5189E-01  0.5189E-01
    -20.620  0.1812E-01  0.1812E-01  0.5412E-01  0.5412E-01
    -20.497  0.2104E-01  0.2104E-01  0.5670E-01  0.5670E-01
    -20.374  0.2047E-01  0.2047E-01  0.5921E-01  0.5921E-01
    -20.252  0.2034E-01  0.2034E-01  0.6171E-01  0.6171E-01
    -20.129  0.2267E-01  0.2267E-01  0.6449E-01  0.6449E-01
    -20.006  0.1969E-01  0.1969E-01  0.6691E-01  0.6691E-01
    -19.883  0.2684E-01  0.2684E-01  0.7021E-01  0.7021E-01
    -19.760  0.1686E-01  0.1686E-01  0.7228E-01  0.7228E-01
    -19.638  0.2563E-01  0.2563E-01  0.7542E-01  0.7542E-01
    -19.515  0.2107E-01  0.2107E-01  0.7801E-01  0.7801E-01
    -19.392  0.1980E-01  0.1980E-01  0.8044E-01  0.8044E-01
    -19.269  0.2601E-01  0.2601E-01  0.8363E-01  0.8363E-01
    -19.147  0.2099E-01  0.2099E-01  0.8621E-01  0.8621E-01
    -19.024  0.1861E-01  0.1861E-01  0.8849E-01  0.8849E-01
    -18.901  0.1938E-01  0.1938E-01  0.9087E-01  0.9087E-01
    -18.778  0.2872E-01  0.2872E-01  0.9440E-01  0.9440E-01
    -18.656  0.2254E-01  0.2254E-01  0.9717E-01  0.9717E-01
    -18.533  0.2631E-01  0.2631E-01  0.1004E+00  0.1004E+00
    -18.410  0.2247E-01  0.2247E-01  0.1032E+00  0.1032E+00
    -18.287  0.2744E-01  0.2744E-01  0.1065E+00  0.1065E+00
    -18.164  0.2695E-01  0.2695E-01  0.1098E+00  0.1098E+00
    -18.042  0.1931E-01  0.1931E-01  0.1122E+00  0.1122E+00
    -17.919  0.2367E-01  0.2367E-01  0.1151E+00  0.1151E+00
    -17.796  0.2488E-01  0.2488E-01  0.1182E+00  0.1182E+00
    -17.673  0.3515E-01  0.3515E-01  0.1225E+00  0.1225E+00
    -17.551  0.2229E-01  0.2229E-01  0.1252E+00  0.1252E+00
    -17.428  0.1921E-01  0.1921E-01  0.1276E+00  0.1276E+00
    -17.305  0.2474E-01  0.2474E-01  0.1306E+00  0.1306E+00
    -17.182  0.4020E-01  0.4020E-01  0.1355E+00  0.1355E+00
    -17.060  0.3667E-01  0.3667E-01  0.1401E+00  0.1401E+00
    -16.937  0.1254E-01  0.1254E-01  0.1416E+00  0.1416E+00
    -16.814  0.1795E-01  0.1795E-01  0.1438E+00  0.1438E+00
    -16.691  0.4205E-01  0.4205E-01  0.1490E+00  0.1490E+00
    -16.568  0.1734E-01  0.1734E-01  0.1511E+00  0.1511E+00
    -16.446  0.8552E-02  0.8552E-02  0.1521E+00  0.1521E+00
    -16.323  0.9135E-02  0.9135E-02  0.1533E+00  0.1533E+00
    -16.200  0.1290E-01  0.1290E-01  0.1548E+00  0.1548E+00
    -16.077  0.9227E-02  0.9227E-02  0.1560E+00  0.1560E+00
    -15.955  0.1409E-01  0.1409E-01  0.1577E+00  0.1577E+00
    -15.832  0.2044E-01  0.2044E-01  0.1602E+00  0.1602E+00
    -15.709  0.2114E-01  0.2114E-01  0.1628E+00  0.1628E+00
    -15.586  0.2132E-01  0.2132E-01  0.1654E+00  0.1654E+00
    -15.464  0.2473E-01  0.2473E-01  0.1685E+00  0.1685E+00
    -15.341  0.3496E-01  0.3496E-01  0.1728E+00  0.1728E+00
    -15.218  0.2447E-01  0.2447E-01  0.1758E+00  0.1758E+00
    -15.095  0.3337E-01  0.3337E-01  0.1799E+00  0.1799E+00
    -14.972  0.3525E-01  0.3525E-01  0.1842E+00  0.1842E+00
    -14.850  0.2822E-01  0.2822E-01  0.1876E+00  0.1876E+00
    -14.727  0.2059E-01  0.2059E-01  0.1902E+00  0.1902E+00
    -14.604  0.2813E-01  0.2813E-01  0.1936E+00  0.1936E+00
    -14.481  0.3415E-01  0.3415E-01  0.1978E+00  0.1978E+00
    -14.359  0.2241E-01  0.2241E-01  0.2006E+00  0.2006E+00
    -14.236  0.2173E-01  0.2173E-01  0.2032E+00  0.2032E+00
    -14.113  0.1812E-01  0.1812E-01  0.2055E+00  0.2055E+00
    -13.990  0.2211E-01  0.2211E-01  0.2082E+00  0.2082E+00
    -13.867  0.2543E-01  0.2543E-01  0.2113E+00  0.2113E+00
    -13.745  0.2790E-01  0.2790E-01  0.2147E+00  0.2147E+00
    -13.622  0.2977E-01  0.2977E-01  0.2184E+00  0.2184E+00
    -13.499  0.1482E-01  0.1482E-01  0.2202E+00  0.2202E+00
    -13.376  0.1831E-01  0.1831E-01  0.2225E+00  0.2225E+00
    -13.254  0.2242E-01  0.2242E-01  0.2252E+00  0.2252E+00
    -13.131  0.1280E-01  0.1280E-01  0.2268E+00  0.2268E+00
    -13.008  0.2264E-01  0.2264E-01  0.2296E+00  0.2296E+00
    -12.885  0.3707E-01  0.3707E-01  0.2341E+00  0.2341E+00
    -12.763  0.4167E-01  0.4167E-01  0.2392E+00  0.2392E+00
    -12.640  0.1879E-01  0.1879E-01  0.2415E+00  0.2415E+00
    -12.517  0.2224E-01  0.2224E-01  0.2443E+00  0.2443E+00
    -12.394  0.3383E-01  0.3383E-01  0.2484E+00  0.2484E+00
    -12.271  0.2436E-01  0.2436E-01  0.2514E+00  0.2514E+00
    -12.149  0.3653E-01  0.3653E-01  0.2559E+00  0.2559E+00
    -12.026  0.2426E-01  0.2426E-01  0.2589E+00  0.2589E+00
    -11.903  0.3339E-01  0.3339E-01  0.2630E+00  0.2630E+00
    -11.780  0.3720E-01  0.3720E-01  0.2675E+00  0.2675E+00
    -11.658  0.2867E-01  0.2867E-01  0.2711E+00  0.2711E+00
    -11.535  0.3365E-01  0.3365E-01  0.2752E+00  0.2752E+00
    -11.412  0.2866E-01  0.2866E-01  0.2787E+00  0.2787E+00
    -11.289  0.2868E-01  0.2868E-01  0.2822E+00  0.2822E+00
    -11.167  0.2920E-01  0.2920E-01  0.2858E+00  0.2858E+00
    -11.044  0.4173E-01  0.4173E-01  0.2909E+00  0.2909E+00
    -10.921  0.3547E-01  0.3547E-01  0.2953E+00  0.2953E+00
    -10.798  0.2567E-01  0.2567E-01  0.2984E+00  0.2984E+00
    -10.675  0.3074E-01  0.3074E-01  0.3022E+00  0.3022E+00
    -10.553  0.4243E-01  0.4243E-01  0.3074E+00  0.3074E+00
    -10.430  0.3326E-01  0.3326E-01  0.3115E+00  0.3115E+00
    -10.307  0.3389E-01  0.3389E-01  0.3157E+00  0.3157E+00
    -10.184  0.5765E-01  0.5765E-01  0.3227E+00  0.3227E+00
    -10.062  0.5278E-01  0.5278E-01  0.3292E+00  0.3292E+00
     -9.939  0.7344E-01  0.7344E-01  0.3382E+00  0.3382E+00
     -9.816  0.6002E-01  0.6002E-01  0.3456E+00  0.3456E+00
     -9.693  0.7379E-01  0.7379E-01  0.3547E+00  0.3547E+00
     -9.571  0.9294E-01  0.9294E-01  0.3661E+00  0.3661E+00
     -9.448  0.7180E-01  0.7180E-01  0.3749E+00  0.3749E+00
     -9.325  0.5964E-01  0.5964E-01  0.3822E+00  0.3822E+00
     -9.202  0.7168E-01  0.7168E-01  0.3910E+00  0.3910E+00
     -9.079  0.6605E-01  0.6605E-01  0.3991E+00  0.3991E+00
     -8.957  0.7272E-01  0.7272E-01  0.4080E+00  0.4080E+00
     -8.834  0.6808E-01  0.6808E-01  0.4164E+00  0.4164E+00
     -8.711  0.6337E-01  0.6337E-01  0.4242E+00  0.4242E+00
     -8.588  0.4617E-01  0.4617E-01  0.4299E+00  0.4299E+00
     -8.466  0.6563E-01  0.6563E-01  0.4379E+00  0.4379E+00
     -8.343  0.6523E-01  0.6523E-01  0.4459E+00  0.4459E+00
     -8.220  0.4306E-01  0.4306E-01  0.4512E+00  0.4512E+00
     -8.097  0.4543E-01  0.4543E-01  0.4568E+00  0.4568E+00
     -7.974  0.4695E-01  0.4695E-01  0.4625E+00  0.4625E+00
     -7.852  0.5223E-01  0.5223E-01  0.4690E+00  0.4690E+00
     -7.729  0.3815E-01  0.3815E-01  0.4736E+00  0.4736E+00
     -7.606  0.4108E-01  0.4108E-01  0.4787E+00  0.4787E+00
     -7.483  0.6355E-01  0.6355E-01  0.4865E+00  0.4865E+00
     -7.361  0.4898E-01  0.4898E-01  0.4925E+00  0.4925E+00
     -7.238  0.5791E-01  0.5791E-01  0.4996E+00  0.4996E+00
     -7.115  0.3427E-01  0.3427E-01  0.5038E+00  0.5038E+00
     -6.992  0.5001E-01  0.5001E-01  0.5100E+00  0.5100E+00
     -6.870  0.4290E-01  0.4290E-01  0.5152E+00  0.5152E+00
     -6.747  0.5012E-01  0.5012E-01  0.5214E+00  0.5214E+00
     -6.624  0.4144E-01  0.4144E-01  0.5265E+00  0.5265E+00
     -6.501  0.3518E-01  0.3518E-01  0.5308E+00  0.5308E+00
     -6.378  0.4412E-01  0.4412E-01  0.5362E+00  0.5362E+00
     -6.256  0.3115E-01  0.3115E-01  0.5400E+00  0.5400E+00
     -6.133  0.4180E-01  0.4180E-01  0.5452E+00  0.5452E+00
     -6.010  0.2841E-01  0.2841E-01  0.5486E+00  0.5486E+00
     -5.887  0.5442E-01  0.5442E-01  0.5553E+00  0.5553E+00
     -5.765  0.3338E-01  0.3338E-01  0.5594E+00  0.5594E+00
     -5.642  0.2586E-01  0.2586E-01  0.5626E+00  0.5626E+00
     -5.519  0.2358E-01  0.2358E-01  0.5655E+00  0.5655E+00
     -5.396  0.1963E-01  0.1963E-01  0.5679E+00  0.5679E+00
     -5.274  0.4321E-01  0.4321E-01  0.5732E+00  0.5732E+00
     -5.151  0.3694E-01  0.3694E-01  0.5777E+00  0.5777E+00
     -5.028  0.4279E-01  0.4279E-01  0.5830E+00  0.5830E+00
     -4.905  0.1339E-01  0.1339E-01  0.5846E+00  0.5846E+00
     -4.782  0.4928E-01  0.4928E-01  0.5907E+00  0.5907E+00
     -4.660  0.3914E-01  0.3914E-01  0.5955E+00  0.5955E+00
     -4.537  0.4377E-01  0.4377E-01  0.6009E+00  0.6009E+00
     -4.414  0.3388E-01  0.3388E-01  0.6050E+00  0.6050E+00
     -4.291  0.5641E-01  0.5641E-01  0.6120E+00  0.6120E+00
     -4.169  0.5030E-01  0.5030E-01  0.6181E+00  0.6181E+00
     -4.046  0.3224E-01  0.3224E-01  0.6221E+00  0.6221E+00
     -3.923  0.1644E-01  0.1644E-01  0.6241E+00  0.6241E+00
     -3.800  0.3426E-01  0.3426E-01  0.6283E+00  0.6283E+00
     -3.678  0.1195E-01  0.1195E-01  0.6298E+00  0.6298E+00
     -3.555  0.6855E-02  0.6855E-02  0.6306E+00  0.6306E+00
     -3.432  0.2362E-02  0.2362E-02  0.6309E+00  0.6309E+00
     -3.309  0.6343E-02  0.6343E-02  0.6317E+00  0.6317E+00
     -3.186  0.6260E-02  0.6260E-02  0.6325E+00  0.6325E+00
     -3.064  0.1663E-02  0.1663E-02  0.6327E+00  0.6327E+00
     -2.941  0.4675E-02  0.4675E-02  0.6332E+00  0.6332E+00
     -2.818  0.1170E-02  0.1170E-02  0.6334E+00  0.6334E+00
     -2.695  0.4397E-02  0.4397E-02  0.6339E+00  0.6339E+00
     -2.573  0.2050E-02  0.2050E-02  0.6342E+00  0.6342E+00
     -2.450  0.6082E-02  0.6082E-02  0.6349E+00  0.6349E+00
     -2.327  0.7439E-02  0.7439E-02  0.6358E+00  0.6358E+00
     -2.204  0.4391E-02  0.4391E-02  0.6364E+00  0.6364E+00
     -2.082  0.5494E-02  0.5494E-02  0.6370E+00  0.6370E+00
     -1.959  0.1397E-01  0.1397E-01  0.6388E+00  0.6388E+00
     -1.836  0.1375E-01  0.1375E-01  0.6404E+00  0.6404E+00
     -1.713  0.1364E-01  0.1364E-01  0.6421E+00  0.6421E+00
     -1.590  0.1689E-01  0.1689E-01  0.6442E+00  0.6442E+00
     -1.468  0.1302E-01  0.1302E-01  0.6458E+00  0.6458E+00
     -1.345  0.1559E-02  0.1559E-02  0.6460E+00  0.6460E+00
     -1.222  0.2568E-01  0.2568E-01  0.6491E+00  0.6491E+00
     -1.099  0.3722E-01  0.3722E-01  0.6537E+00  0.6537E+00
     -0.977  0.2256E-01  0.2256E-01  0.6565E+00  0.6565E+00
     -0.854  0.4540E-01  0.4540E-01  0.6621E+00  0.6621E+00
     -0.731  0.4253E-01  0.4253E-01  0.6673E+00  0.6673E+00
     -0.608  0.2359E-01  0.2359E-01  0.6702E+00  0.6702E+00
     -0.485  0.1355E-01  0.1355E-01  0.6718E+00  0.6718E+00
     -0.363  0.2221E-01  0.2221E-01  0.6746E+00  0.6746E+00
     -0.240  0.3404E-01  0.3404E-01  0.6787E+00  0.6787E+00
     -0.117  0.3572E-01  0.3572E-01  0.6831E+00  0.6831E+00
      0.006  0.1434E-01  0.1434E-01  0.6849E+00  0.6849E+00
      0.128  0.1598E-01  0.1598E-01  0.6868E+00  0.6868E+00
      0.251  0.1142E-01  0.1142E-01  0.6882E+00  0.6882E+00
      0.374  0.1861E-01  0.1861E-01  0.6905E+00  0.6905E+00
      0.497  0.2644E-01  0.2644E-01  0.6938E+00  0.6938E+00
      0.619  0.2775E-01  0.2775E-01  0.6972E+00  0.6972E+00
      0.742  0.1805E-01  0.1805E-01  0.6994E+00  0.6994E+00
      0.865  0.2758E-01  0.2758E-01  0.7028E+00  0.7028E+00
      0.988  0.3540E-01  0.3540E-01  0.7071E+00  0.7071E+00
      1.111  0.2552E-01  0.2552E-01  0.7103E+00  0.7103E+00
      1.233  0.3823E-01  0.3823E-01  0.7150E+00  0.7150E+00
      1.356  0.3604E-01  0.3604E-01  0.7194E+00  0.7194E+00
      1.479  0.3478E-01  0.3478E-01  0.7237E+00  0.7237E+00
      1.602  0.2864E-01  0.2864E-01  0.7272E+00  0.7272E+00
      1.724  0.3684E-01  0.3684E-01  0.7317E+00  0.7317E+00
      1.847  0.4798E-01  0.4798E-01  0.7376E+00  0.7376E+00
      1.970  0.6643E-01  0.6643E-01  0.7457E+00  0.7457E+00
      2.093  0.5304E-01  0.5304E-01  0.7523E+00  0.7523E+00
      2.215  0.2572E-01  0.2572E-01  0.7554E+00  0.7554E+00
      2.338  0.7440E-01  0.7440E-01  0.7645E+00  0.7645E+00
      2.461  0.6425E-01  0.6425E-01  0.7724E+00  0.7724E+00
      2.584  0.6750E-01  0.6750E-01  0.7807E+00  0.7807E+00
      2.707  0.6608E-01  0.6608E-01  0.7888E+00  0.7888E+00
      2.829  0.8444E-01  0.8443E-01  0.7992E+00  0.7992E+00
      2.952  0.7586E-01  0.7586E-01  0.8085E+00  0.8085E+00
      3.075  0.4838E-01  0.4838E-01  0.8145E+00  0.8145E+00
      3.198  0.5666E-01  0.5666E-01  0.8214E+00  0.8214E+00
      3.320  0.8814E-01  0.8814E-01  0.8322E+00  0.8322E+00
      3.443  0.8171E-01  0.8171E-01  0.8423E+00  0.8423E+00
      3.566  0.6105E-01  0.6105E-01  0.8498E+00  0.8498E+00
      3.689  0.6204E-01  0.6204E-01  0.8574E+00  0.8574E+00
      3.811  0.7315E-01  0.7315E-01  0.8664E+00  0.8664E+00
      3.934  0.8038E-01  0.8038E-01  0.8762E+00  0.8762E+00
      4.057  0.5600E-01  0.5596E-01  0.8831E+00  0.8831E+00
      4.180  0.2711E-01  0.2702E-01  0.8864E+00  0.8864E+00
      4.303  0.1923E-02  0.2053E-02  0.8867E+00  0.8867E+00
      4.425  0.2269E-04  0.2301E-04  0.8867E+00  0.8867E+00
      4.548  0.1092E-10  0.1128E-10  0.8867E+00  0.8867E+00
      4.671  0.0000E+00  0.0000E+00  0.8867E+00  0.8867E+00
      4.794  0.0000E+00  0.0000E+00  0.8867E+00  0.8867E+00
      4.916  0.0000E+00  0.0000E+00  0.8867E+00  0.8867E+00
      5.039  0.0000E+00  0.0000E+00  0.8867E+00  0.8867E+00
      5.162  0.0000E+00  0.0000E+00  0.8867E+00  0.8867E+00
      5.285  0.0000E+00  0.0000E+00  0.8867E+00  0.8867E+00
      5.407  0.0000E+00  0.0000E+00  0.8867E+00  0.8867E+00
      5.530  0.0000E+00  0.0000E+00  0.8867E+00  0.8867E+00
      5.653  0.0000E+00  0.0000E+00  0.8867E+00  0.8867E+00
      5.776  0.0000E+00  0.0000E+00  0.8867E+00  0.8867E+00
      5.899  0.0000E+00  0.0000E+00  0.8867E+00  0.8867E+00
