 vasp.6.4.2 20Jul23 (build Jan 24 2024 13:44:02) complex                         
 executed on              LinuxNV date 2025.11.25  12:25:00
 running   48 mpi-ranks, with    1 threads/rank, on    1 nodes
 distrk:  each k-point on   48 cores,    1 groups
 distr:  one band on NCORE=  24 cores,    2 groups
 OpenACC runtime initialized ...    0 GPUs detected


--------------------------------------------------------------------------------------------------------


 INCAR:
   ENCUT = 520
   EDIFF = 1E-6
   NELM = 200
   ALGO = Normal
   ISMEAR = 0
   SIGMA = 0.05
   LASPH = .TRUE.
   ADDGRID = .TRUE.
   LREAL = .FALSE.
   ISYM = 0
   ISPIN = 2
   MAGMOM = 93*0.6
   IMIX = 4
   AMIX = 0.20
   BMIX = 1E-4
   AMIX_MAG = 0.80
   BMIX_MAG = 1E-4
   IBRION = 2
   POTIM = 0.1
   ISIF = 2
   EDIFFG = -0.01
   NSW = 300
   IVDW = 12
   ISTART = 0
   ICHARG = 2
   LWAVE = .FALSE.
   LCHARG = .FALSE.
   NPAR = 2
   NCORE = 24

 POTCAR:    PAW_PBE C 08Apr2002                   
 POTCAR:    PAW_PBE F 08Apr2002                   
 POTCAR:    PAW_PBE N 08Apr2002                   
 POTCAR:    PAW_PBE H 15Jun2001                   
 POTCAR:    PAW_PBE O 08Apr2002                   
 POTCAR:    PAW_PBE C 08Apr2002                   
   SHA256 =  253f7b50bb8d59471dbedb8285d89021f4a42ed1a2c5d38a03a736e69125dd95 C/POTCAR              
   COPYR  = (c) Copyright 08Apr2002 Georg Kresse                                                    
   COPYR  = This file is part of the software VASP. Any use, copying, and all other rights are regul
   COPYR  = If you do not have a valid VASP license, you may not use, copy or distribute this file. 
   VRHFIN =C: s2p2                                                                                  
   LEXCH  = PE                                                                                      
   EATOM  =   147.1560 eV,   10.8157 Ry                                                             
                                                                                                    
   TITEL  = PAW_PBE C 08Apr2002                                                                     
   LULTRA =        F    use ultrasoft PP ?                                                          
   IUNSCR =        1    unscreen: 0-lin 1-nonlin 2-no                                               
   RPACOR =    1.200    partial core radius                                                         
   POMASS =   12.011; ZVAL   =    4.000    mass and valenz                                          
   RCORE  =    1.500    outmost cutoff radius                                                       
   RWIGS  =    1.630; RWIGS  =    0.863    wigner-seitz radius (au A)                               
   ENMAX  =  400.000; ENMIN  =  300.000 eV                                                          
   ICORE  =        2    local potential                                                             
   LCOR   =        T    correct aug charges                                                         
   LPAW   =        T    paw PP                                                                      
   EAUG   =  644.873                                                                                
   DEXC   =    0.000                                                                                
   RMAX   =    1.529    core radius for proj-oper                                                   
   RAUG   =    1.300    factor for augmentation sphere                                              
   RDEP   =    1.501    radius for radial grids                                                     
   RDEPT  =    1.300    core radius for aug-charge                                                  
                                                                                                    
   Atomic configuration                                                                             
    4 entries                                                                                       
     n  l   j            E        occ.                                                              
     1  0  0.50      -273.3789   2.0000                                                             
     2  0  0.50       -13.7508   2.0000                                                             
     2  1  0.50        -5.2854   2.0000                                                             
     3  2  1.50        -5.4423   0.0000                                                             
   Description                                                                                      
     l       E           TYP  RCUT    TYP  RCUT                                                     
     0    -13.7508458     23  1.200                                                                 
     0     -8.2022199     23  1.200                                                                 
     1     -5.2854383     23  1.500                                                                 
     1     34.0145650     23  1.500                                                                 
     2     -5.4423304      7  1.500                                                                 
  local pseudopotential read in
  partial core-charges read in
  partial kinetic energy density read in
  atomic valenz-charges read in
  non local Contribution for L=            0  read in
    real space projection operators read in
  non local Contribution for L=            0  read in
    real space projection operators read in
  non local Contribution for L=            1  read in
    real space projection operators read in
  non local Contribution for L=            1  read in
    real space projection operators read in
    PAW grid and wavefunctions read in
 
   number of l-projection  operators is LMAX  =            4
   number of lm-projection operators is LMMAX =            8
 
 POTCAR:    PAW_PBE F 08Apr2002                   
   SHA256 =  53c630871ac675939349fc2b976745ee17808dedc90b5bdde026bc81f0faf456 F/POTCAR              
   COPYR  = (c) Copyright 08Apr2002 Georg Kresse                                                    
   COPYR  = This file is part of the software VASP. Any use, copying, and all other rights are regul
   COPYR  = If you do not have a valid VASP license, you may not use, copy or distribute this file. 
   VRHFIN =F: s2p5                                                                                  
   LEXCH  = PE                                                                                      
   EATOM  =   659.6475 eV,   48.4827 Ry                                                             
                                                                                                    
   TITEL  = PAW_PBE F 08Apr2002                                                                     
   LULTRA =        F    use ultrasoft PP ?                                                          
   IUNSCR =        1    unscreen: 0-lin 1-nonlin 2-no                                               
   RPACOR =    1.200    partial core radius                                                         
   POMASS =   18.998; ZVAL   =    7.000    mass and valenz                                          
   RCORE  =    1.520    outmost cutoff radius                                                       
   RWIGS  =    1.500; RWIGS  =    0.794    wigner-seitz radius (au A)                               
   ENMAX  =  400.000; ENMIN  =  300.000 eV                                                          
   ICORE  =        2    local potential                                                             
   LCOR   =        T    correct aug charges                                                         
   LPAW   =        T    paw PP                                                                      
   EAUG   =  613.614                                                                                
   RMAX   =    1.555    core radius for proj-oper                                                   
   RAUG   =    1.300    factor for augmentation sphere                                              
   RDEP   =    1.539    radius for radial grids                                                     
   RDEPT  =    1.299    core radius for aug-charge                                                  
                                                                                                    
   Atomic configuration                                                                             
    4 entries                                                                                       
     n  l   j            E        occ.                                                              
     1  0  0.50      -663.3661   2.0000                                                             
     2  0  0.50       -29.8995   2.0000                                                             
     2  1  0.50       -11.1114   5.0000                                                             
     3  2  1.50       -10.8847   0.0000                                                             
   Description                                                                                      
     l       E           TYP  RCUT    TYP  RCUT                                                     
     0    -29.8995018     23  1.200                                                                 
     0     -9.5240782     23  1.200                                                                 
     1    -11.1113914     23  1.520                                                                 
     1      1.3605826     23  1.520                                                                 
     2    -10.8846608      7  1.500                                                                 
  local pseudopotential read in
  partial core-charges read in
  partial kinetic energy density read in
  atomic valenz-charges read in
  non local Contribution for L=            0  read in
    real space projection operators read in
  non local Contribution for L=            0  read in
    real space projection operators read in
  non local Contribution for L=            1  read in
    real space projection operators read in
  non local Contribution for L=            1  read in
    real space projection operators read in
    PAW grid and wavefunctions read in
 
   number of l-projection  operators is LMAX  =            4
   number of lm-projection operators is LMMAX =            8
 
 POTCAR:    PAW_PBE N 08Apr2002                   
   SHA256 =  e053789ff3a61a86a1b75d8a110fcc91f86041011e7b0817c7c99e4e8a6349d7 N/POTCAR              
   COPYR  = (c) Copyright 08Apr2002 Georg Kresse                                                    
   COPYR  = This file is part of the software VASP. Any use, copying, and all other rights are regul
   COPYR  = If you do not have a valid VASP license, you may not use, copy or distribute this file. 
   VRHFIN =N: s2p3                                                                                  
   LEXCH  = PE                                                                                      
   EATOM  =   264.5486 eV,   19.4438 Ry                                                             
                                                                                                    
   TITEL  = PAW_PBE N 08Apr2002                                                                     
   LULTRA =        F    use ultrasoft PP ?                                                          
   IUNSCR =        1    unscreen: 0-lin 1-nonlin 2-no                                               
   RPACOR =    1.200    partial core radius                                                         
   POMASS =   14.001; ZVAL   =    5.000    mass and valenz                                          
   RCORE  =    1.500    outmost cutoff radius                                                       
   RWIGS  =    1.400; RWIGS  =    0.741    wigner-seitz radius (au A)                               
   ENMAX  =  400.000; ENMIN  =  300.000 eV                                                          
   ICORE  =        2    local potential                                                             
   LCOR   =        T    correct aug charges                                                         
   LPAW   =        T    paw PP                                                                      
   EAUG   =  627.112                                                                                
   DEXC   =    0.000                                                                                
   RMAX   =    1.529    core radius for proj-oper                                                   
   RAUG   =    1.300    factor for augmentation sphere                                              
   RDEP   =    1.514    radius for radial grids                                                     
   RDEPT  =    1.338    core radius for aug-charge                                                  
                                                                                                    
   Atomic configuration                                                                             
    4 entries                                                                                       
     n  l   j            E        occ.                                                              
     1  0  0.50      -384.7179   2.0000                                                             
     2  0  0.50       -18.5828   2.0000                                                             
     2  1  0.50        -7.0898   3.0000                                                             
     3  2  1.50        -6.8029   0.0000                                                             
   Description                                                                                      
     l       E           TYP  RCUT    TYP  RCUT                                                     
     0    -18.5828119     23  1.200                                                                 
     0    -13.5018863     23  1.200                                                                 
     1     -7.0897853     23  1.500                                                                 
     1      9.5240782     23  1.500                                                                 
     2     -6.8029130      7  1.500                                                                 
  local pseudopotential read in
  partial core-charges read in
  partial kinetic energy density read in
  atomic valenz-charges read in
  non local Contribution for L=            0  read in
    real space projection operators read in
  non local Contribution for L=            0  read in
    real space projection operators read in
  non local Contribution for L=            1  read in
    real space projection operators read in
  non local Contribution for L=            1  read in
    real space projection operators read in
    PAW grid and wavefunctions read in
 
   number of l-projection  operators is LMAX  =            4
   number of lm-projection operators is LMMAX =            8
 
 POTCAR:    PAW_PBE H 15Jun2001                   
   SHA256 =  030f79b5d3ab3cf0e668861823c8fb652ff669f3e15e46930bd03bfd63a607b6 H/POTCAR              
   COPYR  = (c) Copyright 15Jun2001 Georg Kresse                                                    
   COPYR  = This file is part of the software VASP. Any use, copying, and all other rights are regul
   COPYR  = If you do not have a valid VASP license, you may not use, copy or distribute this file. 
   VRHFIN =H: ultrasoft test                                                                        
   LEXCH  = PE                                                                                      
   EATOM  =    12.4884 eV,    0.9179 Ry                                                             
                                                                                                    
   TITEL  = PAW_PBE H 15Jun2001                                                                     
   LULTRA =        F    use ultrasoft PP ?                                                          
   IUNSCR =        0    unscreen: 0-lin 1-nonlin 2-no                                               
   RPACOR =    0.000    partial core radius                                                         
   POMASS =    1.000; ZVAL   =    1.000    mass and valenz                                          
   RCORE  =    1.100    outmost cutoff radius                                                       
   RWIGS  =    0.700; RWIGS  =    0.370    wigner-seitz radius (au A)                               
   ENMAX  =  250.000; ENMIN  =  200.000 eV                                                          
   RCLOC  =    0.701    cutoff for local pot                                                        
   LCOR   =        T    correct aug charges                                                         
   LPAW   =        T    paw PP                                                                      
   EAUG   =  400.000                                                                                
   RMAX   =    1.123    core radius for proj-oper                                                   
   RAUG   =    1.200    factor for augmentation sphere                                              
   RDEP   =    1.112    radius for radial grids                                                     
   RDEPT  =    0.926    core radius for aug-charge                                                  
                                                                                                    
   Atomic configuration                                                                             
    2 entries                                                                                       
     n  l   j            E        occ.                                                              
     1  0  0.50        -6.4927   1.0000                                                             
     2  1  0.50        -3.4015   0.0000                                                             
   Description                                                                                      
     l       E           TYP  RCUT    TYP  RCUT                                                     
     0     -6.4927494     23  1.100                                                                 
     0      6.8029130     23  1.100                                                                 
     1     -4.0817478     23  1.100                                                                 
  local pseudopotential read in
  atomic valenz-charges read in
  non local Contribution for L=            0  read in
    real space projection operators read in
  non local Contribution for L=            0  read in
    real space projection operators read in
  non local Contribution for L=            1  read in
    real space projection operators read in
    PAW grid and wavefunctions read in
 
   number of l-projection  operators is LMAX  =            3
   number of lm-projection operators is LMMAX =            5
 
 POTCAR:    PAW_PBE O 08Apr2002                   
   SHA256 =  818f92134a0a090dccd8ba1447fa70422a3b330e708bb4f08108d8ae51209ddf O/POTCAR              
   COPYR  = (c) Copyright 08Apr2002 Georg Kresse                                                    
   COPYR  = This file is part of the software VASP. Any use, copying, and all other rights are regul
   COPYR  = If you do not have a valid VASP license, you may not use, copy or distribute this file. 
   VRHFIN =O: s2p4                                                                                  
   LEXCH  = PE                                                                                      
   EATOM  =   432.3788 eV,   31.7789 Ry                                                             
                                                                                                    
   TITEL  = PAW_PBE O 08Apr2002                                                                     
   LULTRA =        F    use ultrasoft PP ?                                                          
   IUNSCR =        1    unscreen: 0-lin 1-nonlin 2-no                                               
   RPACOR =    1.200    partial core radius                                                         
   POMASS =   16.000; ZVAL   =    6.000    mass and valenz                                          
   RCORE  =    1.520    outmost cutoff radius                                                       
   RWIGS  =    1.550; RWIGS  =    0.820    wigner-seitz radius (au A)                               
   ENMAX  =  400.000; ENMIN  =  300.000 eV                                                          
   ICORE  =        2    local potential                                                             
   LCOR   =        T    correct aug charges                                                         
   LPAW   =        T    paw PP                                                                      
   EAUG   =  605.392                                                                                
   DEXC   =    0.000                                                                                
   RMAX   =    1.553    core radius for proj-oper                                                   
   RAUG   =    1.300    factor for augmentation sphere                                              
   RDEP   =    1.550    radius for radial grids                                                     
   RDEPT  =    1.329    core radius for aug-charge                                                  
                                                                                                    
   Atomic configuration                                                                             
    4 entries                                                                                       
     n  l   j            E        occ.                                                              
     1  0  0.50      -514.6923   2.0000                                                             
     2  0  0.50       -23.9615   2.0000                                                             
     2  1  0.50        -9.0305   4.0000                                                             
     3  2  1.50        -9.5241   0.0000                                                             
   Description                                                                                      
     l       E           TYP  RCUT    TYP  RCUT                                                     
     0    -23.9615318     23  1.200                                                                 
     0     -9.5240782     23  1.200                                                                 
     1     -9.0304911     23  1.520                                                                 
     1      8.1634956     23  1.520                                                                 
     2     -9.5240782      7  1.500                                                                 
  local pseudopotential read in
  partial core-charges read in
  partial kinetic energy density read in
  kinetic energy density of atom read in
  atomic valenz-charges read in
  non local Contribution for L=            0  read in
    real space projection operators read in
  non local Contribution for L=            0  read in
    real space projection operators read in
  non local Contribution for L=            1  read in
    real space projection operators read in
  non local Contribution for L=            1  read in
    real space projection operators read in
    PAW grid and wavefunctions read in
 
   number of l-projection  operators is LMAX  =            4
   number of lm-projection operators is LMMAX =            8
 
 -----------------------------------------------------------------------------
|                                                                             |
|               ----> ADVICE to this user running VASP <----                  |
|                                                                             |
|     You have a (more or less) 'large supercell' and for larger cells it     |
|     might be more efficient to use real-space projection operators.         |
|     Therefore, try LREAL= Auto in the INCAR file.                           |
|     Mind: For very accurate calculation, you might also keep the            |
|     reciprocal projection scheme (i.e. LREAL=.FALSE.).                      |
|                                                                             |
 -----------------------------------------------------------------------------

  PAW_PBE C 08Apr2002                   :
 energy of atom  1       EATOM= -147.1560
 kinetic energy error for atom=    0.0071 (will be added to EATOM!!)
  PAW_PBE F 08Apr2002                   :
 energy of atom  2       EATOM= -659.6475
 kinetic energy error for atom=    0.0323 (will be added to EATOM!!)
  PAW_PBE N 08Apr2002                   :
 energy of atom  3       EATOM= -264.5486
 kinetic energy error for atom=    0.0125 (will be added to EATOM!!)
  PAW_PBE H 15Jun2001                   :
 energy of atom  4       EATOM=  -12.4884
 kinetic energy error for atom=    0.0014 (will be added to EATOM!!)
  PAW_PBE O 08Apr2002                   :
 energy of atom  5       EATOM= -432.3788
 kinetic energy error for atom=    0.0208 (will be added to EATOM!!)
 
 
 POSCAR: C    F    N    H    O
  positions in direct lattice
  No initial velocities read in
 exchange correlation table for  LEXCH =        8
   RHO(1)=    0.500       N(1)  =     2000
   RHO(2)=  100.500       N(2)  =     4000
 


--------------------------------------------------------------------------------------------------------


 ion  position               nearest neighbor table
   1  1.000  1.000  0.495-  47 1.43  41 1.43  80 1.43
   2  0.000  0.143  0.495-  42 1.43  41 1.43  74 1.43
   3  0.000  0.286  0.497-  43 1.43  75 1.43  42 1.43
   4  1.000  0.429  0.498-  43 1.42  44 1.43  76 1.43
   5  0.000  0.572  0.498-  45 1.43  44 1.43  77 1.43
   6  0.001  0.715  0.497-  45 1.42  46 1.43  78 1.43
   7  0.000  0.857  0.496-  47 1.43  46 1.43  79 1.43
   8  0.144  0.001  0.495-  48 1.43  54 1.43  47 1.43
   9  0.144  0.144  0.493-  48 1.43  49 1.43  41 1.43
  10  0.144  0.286  0.493-  50 1.42  49 1.43  42 1.43
  11  0.143  0.429  0.495-  50 1.42  51 1.42  43 1.43
  12  0.144  0.572  0.496-  51 1.43  52 1.43  44 1.43
  13  0.144  0.714  0.497-  52 1.42  53 1.43  45 1.43
  14  0.144  0.858  0.497-  54 1.43  53 1.43  46 1.43
  15  0.286  0.001  0.495-  54 1.42  59 1.42  55 1.43
  16  0.287  0.144  0.491-  55 1.42  48 1.43  56 1.44
  17  0.289  0.290  0.485-  82 1.41  49 1.45  56 1.48
  18  0.285  0.433  0.485-  88 1.36  50 1.43  82 1.44
  19  0.289  0.569  0.491-  88 1.34  51 1.45  57 1.50
  20  0.287  0.714  0.495-  58 1.42  52 1.43  57 1.44
  21  0.287  0.857  0.496-  53 1.42  59 1.42  58 1.43
  22  0.429  0.000  0.495-  59 1.43  63 1.43  60 1.43
  23  0.430  0.144  0.493-  55 1.42  60 1.43  61 1.44
  24  0.429  0.856  0.495-  58 1.42  63 1.43  62 1.44
  25  0.572  1.000  0.495-  63 1.42  64 1.43  66 1.43
  26  0.572  0.144  0.495-  60 1.42  64 1.43  65 1.43
  27  0.574  0.291  0.493-  89 1.35  65 1.44  61 1.48
  28  0.574  0.855  0.493-  90 1.35  66 1.44  62 1.48
  29  0.714  1.000  0.494-  73 1.42  66 1.42  67 1.43
  30  0.714  0.143  0.496-  68 1.42  67 1.42  64 1.43
  31  0.714  0.286  0.496-  65 1.42  69 1.42  68 1.43
  32  0.709  0.426  0.494-  89 1.34  69 1.44  70 1.49
  33  0.709  0.855  0.491-  90 1.35  73 1.44  72 1.48
  34  0.857  0.999  0.494-  74 1.43  80 1.43  73 1.43
  35  0.857  0.143  0.496-  67 1.42  75 1.43  74 1.43
  36  0.857  0.286  0.497-  68 1.42  75 1.43  76 1.43
  37  0.856  0.429  0.497-  76 1.42  77 1.43  69 1.43
  38  0.857  0.571  0.496-  78 1.42  77 1.42  70 1.45
  39  0.858  0.714  0.494-  78 1.42  79 1.42  71 1.43
  40  0.855  0.856  0.493-  79 1.43  80 1.43  72 1.45
  41  0.048  0.096  0.495-   2 1.43   1 1.43   9 1.43
  42  0.048  0.238  0.495-   2 1.43   3 1.43  10 1.43
  43  0.047  0.381  0.497-   4 1.42   3 1.43  11 1.43
  44  0.048  0.524  0.497-   4 1.43   5 1.43  12 1.43
  45  0.048  0.667  0.498-   6 1.42   5 1.43  13 1.43
  46  0.048  0.810  0.497-   6 1.43   7 1.43  14 1.43
  47  0.048  0.953  0.495-   7 1.43   1 1.43   8 1.43
  48  0.192  0.096  0.493-   8 1.43   9 1.43  16 1.43
  49  0.193  0.240  0.491-  10 1.43   9 1.43  17 1.45
  50  0.190  0.382  0.492-  11 1.42  10 1.42  18 1.43
  51  0.192  0.524  0.495-  11 1.42  12 1.43  19 1.45
  52  0.192  0.667  0.496-  13 1.42  12 1.43  20 1.43
  53  0.191  0.810  0.497-  21 1.42  14 1.43  13 1.43
  54  0.191  0.953  0.495-  15 1.42  14 1.43   8 1.43
  55  0.334  0.096  0.493-  16 1.42  23 1.42  15 1.43
  56  0.339  0.240  0.487-  85 1.35  16 1.44  17 1.48
  57  0.339  0.669  0.493-  86 1.35  20 1.44  19 1.50
  58  0.334  0.809  0.496-  24 1.42  20 1.42  21 1.43
  59  0.334  0.953  0.496-  21 1.42  15 1.42  22 1.43
  60  0.477  0.096  0.494-  26 1.42  22 1.43  23 1.43
  61  0.475  0.240  0.491-  85 1.35  23 1.44  27 1.48
  62  0.474  0.805  0.494-  86 1.35  24 1.44  28 1.48
  63  0.477  0.952  0.495-  25 1.42  22 1.43  24 1.43
  64  0.619  0.095  0.495-  30 1.43  26 1.43  25 1.43
  65  0.619  0.239  0.495-  31 1.42  26 1.43  27 1.44
  66  0.619  0.951  0.494-  29 1.42  25 1.43  28 1.44
  67  0.762  0.095  0.496-  35 1.42  30 1.42  29 1.43
  68  0.762  0.238  0.496-  36 1.42  30 1.42  31 1.43
  69  0.761  0.381  0.496-  31 1.42  37 1.43  32 1.44
  70  0.760  0.526  0.493-  87 1.34  38 1.45  32 1.49
  71  0.763  0.663  0.489-  87 1.36  39 1.43  81 1.44
  72  0.758  0.806  0.489-  81 1.41  40 1.45  33 1.48
  73  0.761  0.952  0.493-  29 1.42  34 1.43  33 1.44
  74  0.904  0.095  0.495-  34 1.43  35 1.43   2 1.43
  75  0.905  0.238  0.497-  35 1.43   3 1.43  36 1.43
  76  0.904  0.381  0.498-  37 1.42  36 1.43   4 1.43
  77  0.905  0.524  0.497-  38 1.42  37 1.43   5 1.43
  78  0.906  0.667  0.496-  39 1.42  38 1.42   6 1.43
  79  0.904  0.809  0.495-  39 1.42  40 1.43   7 1.43
  80  0.904  0.951  0.494-  34 1.43  40 1.43   1 1.43
  81  0.717  0.712  0.483-  83 1.33  72 1.41  71 1.44
  82  0.331  0.383  0.477-  84 1.33  17 1.41  18 1.44
  83  0.629  0.664  0.469-  81 1.33
  84  0.418  0.431  0.458-  82 1.33
  85  0.429  0.285  0.488-  56 1.35  61 1.35
  86  0.429  0.715  0.493-  57 1.35  62 1.35
  87  0.716  0.572  0.489-  70 1.34  71 1.36
  88  0.332  0.524  0.485-  19 1.34  18 1.36
  89  0.620  0.381  0.493-  32 1.34  27 1.35
  90  0.619  0.811  0.491-  33 1.35  28 1.35
  91  0.489  0.567  0.563-  93 0.98
  92  0.543  0.518  0.566-  93 0.97
  93  0.514  0.541  0.605-  92 0.97  91 0.98
 

IMPORTANT INFORMATION: All symmetrisations will be switched off!
NOSYMM: (Re-)initialisation of all symmetry stuff for point group C_1.


----------------------------------------------------------------------------------------

                                     Primitive cell                                     

  volume of cell :    3874.8846

  direct lattice vectors                    reciprocal lattice vectors
    17.271038055  0.000000000  0.000000000     0.057900399  0.033428811 -0.000000000
    -8.635519028 14.957157706  0.000000000     0.000000000  0.066857622  0.000000000
     0.000000000  0.000000000 15.000000000     0.000000000 -0.000000000  0.066666667

  length of vectors
    17.271038055 17.271038055 15.000000000     0.066857622  0.066857622  0.066666667

  position of ions in fractional coordinates (direct lattice)
     0.999888527  0.999910105  0.494721765
     0.000129580  0.142921546  0.495201691
     0.000089188  0.285826418  0.496690889
     0.999807599  0.428821741  0.497591257
     0.000160431  0.571613884  0.497512432
     0.001061089  0.714612989  0.497112605
     0.000211309  0.857470442  0.495741506
     0.143726058  0.001002962  0.494522992
     0.144176895  0.144324692  0.493072017
     0.143678237  0.286365924  0.492949604
     0.142724985  0.429161888  0.495119341
     0.143817802  0.571688117  0.496409609
     0.144069649  0.714437293  0.497235352
     0.143606085  0.857672477  0.496639574
     0.286499331  0.000507788  0.494999453
     0.287259327  0.144115754  0.491044253
     0.289481122  0.289567067  0.484847095
     0.285112293  0.432751182  0.485154093
     0.288515564  0.569427115  0.491221454
     0.287450719  0.714257241  0.495313412
     0.286531689  0.857485203  0.496380806
     0.429353460  0.000405241  0.494779153
     0.429603134  0.144352173  0.492777499
     0.429421620  0.856412309  0.494773847
     0.571530749  0.999921396  0.494687965
     0.571665291  0.143591873  0.494587474
     0.573877862  0.290566770  0.493297761
     0.573589255  0.855405986  0.493223289
     0.713841053  0.999519941  0.494491830
     0.714322559  0.143082405  0.495866009
     0.713936486  0.286359091  0.496002228
     0.709439920  0.426327993  0.494396517
     0.709311361  0.855498048  0.490871773
     0.856510780  0.999336361  0.494316593
     0.856907402  0.142631419  0.495933689
     0.856904987  0.285801389  0.497112263
     0.856493451  0.428799606  0.496920003
     0.856576253  0.571384871  0.495681382
     0.858241504  0.714080235  0.493924329
     0.855304784  0.855556691  0.493399923
     0.048270854  0.095768302  0.494565054
     0.047944353  0.238217868  0.495345074
     0.047173965  0.381125590  0.497031364
     0.048181862  0.524193788  0.497446456
     0.048498779  0.666985582  0.497531656
     0.048121042  0.809916926  0.496678938
     0.048062972  0.952757926  0.495139398
     0.191647533  0.096343695  0.492682052
     0.192760056  0.240064580  0.490986393
     0.189892755  0.381571854  0.492096058
     0.191731318  0.524344706  0.494583561
     0.191834248  0.666985903  0.496329053
     0.191387682  0.809987002  0.496989718
     0.191356350  0.953074529  0.495481530
     0.334413985  0.096245072  0.492989719
     0.338796181  0.240157868  0.487270262
     0.338850073  0.669398748  0.493238588
     0.334342917  0.809425295  0.495668884
     0.333937365  0.952710679  0.495600236
     0.476767100  0.095902290  0.494031777
     0.474626505  0.240414796  0.491381449
     0.474394090  0.805237549  0.493767092
     0.476624139  0.952213366  0.494777866
     0.618924073  0.095418946  0.495111752
     0.618862285  0.239392545  0.494754435
     0.618686123  0.951477844  0.494154384
     0.761766700  0.095263402  0.495579263
     0.761757165  0.238317623  0.496483620
     0.760831975  0.381496976  0.495971935
     0.759751761  0.526235236  0.493304148
     0.762917879  0.662802709  0.489160300
     0.758450972  0.805955125  0.489119213
     0.760894484  0.951574444  0.493314381
     0.904482511  0.094663257  0.495271680
     0.904624176  0.238054761  0.496824419
     0.904241546  0.381335018  0.497534658
     0.904519255  0.524093103  0.497015509
     0.905514578  0.666567233  0.495947162
     0.904419098  0.809288448  0.494517961
     0.903960314  0.951347511  0.494472977
     0.716515193  0.712139496  0.483010485
     0.331157937  0.383207056  0.476809348
     0.628593298  0.663710464  0.469000552
     0.418300570  0.430886359  0.458348662
     0.428794222  0.284598804  0.488161203
     0.428780954  0.714801037  0.492805395
     0.715977714  0.571789659  0.489233381
     0.332139690  0.523787390  0.485325757
     0.619525302  0.380973584  0.493250654
     0.619347168  0.811142870  0.491329099
     0.489482630  0.567315588  0.563285449
     0.542960742  0.518273931  0.566011503
     0.513641030  0.541198327  0.604663908

  ion indices of the primitive-cell ions
   primitive index   ion index
                 1           1
                 2           2
                 3           3
                 4           4
                 5           5
                 6           6
                 7           7
                 8           8
                 9           9
                10          10
                11          11
                12          12
                13          13
                14          14
                15          15
                16          16
                17          17
                18          18
                19          19
                20          20
                21          21
                22          22
                23          23
                24          24
                25          25
                26          26
                27          27
                28          28
                29          29
                30          30
                31          31
                32          32
                33          33
                34          34
                35          35
                36          36
                37          37
                38          38
                39          39
                40          40
                41          41
                42          42
                43          43
                44          44
                45          45
                46          46
                47          47
                48          48
                49          49
                50          50
                51          51
                52          52
                53          53
                54          54
                55          55
                56          56
                57          57
                58          58
                59          59
                60          60
                61          61
                62          62
                63          63
                64          64
                65          65
                66          66
                67          67
                68          68
                69          69
                70          70
                71          71
                72          72
                73          73
                74          74
                75          75
                76          76
                77          77
                78          78
                79          79
                80          80
                81          81
                82          82
                83          83
                84          84
                85          85
                86          86
                87          87
                88          88
                89          89
                90          90
                91          91
                92          92
                93          93

----------------------------------------------------------------------------------------

 
 
 KPOINTS: Automatic mesh                          

Automatic generation of k-mesh.
 Grid dimensions read from file:
 generate k-points for:    4    4    1

 Generating k-lattice:

  Cartesian coordinates                     Fractional coordinates (reciprocal lattice)
     0.014475100  0.008357203 -0.000000000     0.250000000  0.000000000  0.000000000
     0.000000000  0.016714406  0.000000000     0.000000000  0.250000000  0.000000000
     0.000000000 -0.000000000  0.066666667     0.000000000  0.000000000  1.000000000

  Length of vectors
     0.016714406  0.016714406  0.066666667

  Shift w.r.t. Gamma in fractional coordinates (k-lattice)
     0.000000000  0.000000000  0.000000000

 
 Subroutine IBZKPT returns following result:
 ===========================================
 
 Found     10 irreducible k-points:
 
 Following reciprocal coordinates:
            Coordinates               Weight
  0.000000  0.000000  0.000000      1.000000
  0.250000  0.000000  0.000000      2.000000
  0.000000  0.250000  0.000000      2.000000
 -0.250000  0.250000  0.000000      2.000000
  0.500000  0.000000  0.000000      1.000000
  0.000000  0.500000  0.000000      1.000000
  0.500000  0.500000  0.000000      1.000000
  0.250000  0.250000  0.000000      2.000000
 -0.250000  0.500000  0.000000      2.000000
  0.500000  0.250000  0.000000      2.000000
 
 Following cartesian coordinates:
            Coordinates               Weight
  0.000000  0.000000  0.000000      1.000000
  0.014475  0.008357  0.000000      2.000000
  0.000000  0.016714  0.000000      2.000000
 -0.014475  0.008357  0.000000      2.000000
  0.028950  0.016714  0.000000      1.000000
  0.000000  0.033429  0.000000      1.000000
  0.028950  0.050143  0.000000      1.000000
  0.014475  0.025072  0.000000      2.000000
 -0.014475  0.025072  0.000000      2.000000
  0.028950  0.033429  0.000000      2.000000
 


--------------------------------------------------------------------------------------------------------




 Dimension of arrays:
   k-points           NKPTS =     10   k-points in BZ     NKDIM =     10   number of bands    NBANDS=    266
   number of dos      NEDOS =    301   number of ions     NIONS =     93
   non local maximal  LDIM  =      4   non local SUM 2l+1 LMDIM =      8
   total plane-waves  NPLWV = 774144
   max r-space proj   IRMAX =      1   max aug-charges    IRDMAX=  20933
   dimension x,y,z NGX =    96 NGY =   96 NGZ =   84
   dimension x,y,z NGXF=   192 NGYF=  192 NGZF=  168
   support grid    NGXF=   384 NGYF=  384 NGZF=  336
   ions per type =              82   2   6   2   1
   NGX,Y,Z   is equivalent  to a cutoff of   9.24,  9.24,  9.31 a.u.
   NGXF,Y,Z  is equivalent  to a cutoff of  18.48, 18.48, 18.62 a.u.

 SYSTEM =  unknown system                          
 POSCAR =  C    F    N    H    O                   

 Startparameter for this run:
   NWRITE =      2    write-flag & timer
   PREC   = normal    normal or accurate (medium, high low for compatibility)
   ISTART =      0    job   : 0-new  1-cont  2-samecut
   ICHARG =      2    charge: 1-file 2-atom 10-const
   ISPIN  =      2    spin polarized calculation?
   LNONCOLLINEAR =      F non collinear calculations
   LSORBIT =      F    spin-orbit coupling
   INIWAV =      1    electr: 0-lowe 1-rand  2-diag
   LASPH  =      T    aspherical Exc in radial PAW
 Electronic Relaxation 1
   ENCUT  =  520.0 eV  38.22 Ry    6.18 a.u.  32.11 32.11 27.89*2*pi/ulx,y,z
   ENINI  =  520.0     initial cutoff
   ENAUG  =  644.9 eV  augmentation charge cutoff
   NELM   =    200;   NELMIN=  2; NELMDL= -5     # of ELM steps 
   EDIFF  = 0.1E-05   stopping-criterion for ELM
   LREAL  =      F    real-space projection
   NLSPLINE    = F    spline interpolate recip. space projectors
   LCOMPAT=      F    compatible to vasp.4.4
   GGA_COMPAT  = T    GGA compatible to vasp.4.4-vasp.4.6
   LMAXPAW     = -100 max onsite density
   LMAXMIX     =    2 max onsite mixed and CHGCAR
   VOSKOWN=      0    Vosko Wilk Nusair interpolation
   ROPT   =    0.00000   0.00000   0.00000   0.00000
   ROPT   =    0.00000
 Ionic relaxation
   EDIFFG = -.1E-01   stopping-criterion for IOM
   NSW    =    300    number of steps for IOM
   NBLOCK =      1;   KBLOCK =    300    inner block; outer block 
   IBRION =      2    ionic relax: 0-MD 1-quasi-New 2-CG
   NFREE  =      1    steps in history (QN), initial steepest desc. (CG)
   ISIF   =      2    stress and relaxation
   IWAVPR =     11    prediction:  0-non 1-charg 2-wave 3-comb
   ISYM   =      0    0-nonsym 1-usesym 2-fastsym
   LCORR  =      T    Harris-Foulkes like correction to forces

   POTIM  = 0.1000    time-step for ionic-motion
   TEIN   =    0.0    initial temperature
   TEBEG  =    0.0;   TEEND  =   0.0 temperature during run
   SMASS  =  -3.00    Nose mass-parameter (am)
   estimated Nose-frequenzy (Omega)   =  0.10E-29 period in steps = 0.63E+47 mass=  -0.682E-26a.u.
   SCALEE = 1.0000    scale energy and forces
   NPACO  =    256;   APACO  = 10.0  distance and # of slots for P.C.
   PSTRESS=    0.0 pullay stress

  Mass of Ions in am
   POMASS =  12.01 19.00 14.00  1.00 16.00
  Ionic Valenz
   ZVAL   =   4.00  7.00  5.00  1.00  6.00
  Atomic Wigner-Seitz radii
   RWIGS  =  -1.00 -1.00 -1.00 -1.00 -1.00
  virtual crystal weights 
   VCA    =   1.00  1.00  1.00  1.00  1.00
   NELECT =     380.0000    total number of electrons
   NUPDOWN=      -1.0000    fix difference up-down

 DOS related values:
   EMIN   =  10.00;   EMAX   =-10.00  energy-range for DOS
   EFERMI =   0.00;   METHOD = LEGACY      
   ISMEAR =     0;   SIGMA  =   0.05  broadening in eV -4-tet -1-fermi 0-gaus

 Electronic relaxation 2 (details)
   IALGO  =     38    algorithm
   LDIAG  =      T    sub-space diagonalisation (order eigenvalues)
   LSUBROT=      F    optimize rotation matrix (better conditioning)
   TURBO    =      0    0=normal 1=particle mesh
   IRESTART =      0    0=no restart 2=restart with 2 vectors
   NREBOOT  =      0    no. of reboots
   NMIN     =      0    reboot dimension
   EREF     =   0.00    reference energy to select bands
   IMIX   =      4    mixing-type and parameters
     AMIX     =   0.20;   BMIX     =  0.00
     AMIX_MAG =   0.80;   BMIX_MAG =  0.00
     AMIN     =   0.10
     WC   =   100.;   INIMIX=   1;  MIXPRE=   1;  MAXMIX= -45

 Intra band minimization:
   WEIMIN = 0.0010     energy-eigenvalue tresh-hold
   EBREAK =  0.94E-09  absolut break condition
   DEPER  =   0.30     relativ break condition  

   TIME   =   0.40     timestep for ELM

  volume/ion in A,a.u.               =      41.67       281.17
  Fermi-wavevector in a.u.,A,eV,Ry     =   0.754947  1.426643  7.754571  0.569945
  Thomas-Fermi vector in A             =   1.852730
 
 Write flags
   LWAVE        =      F    write WAVECAR
   LDOWNSAMPLE  =      F    k-point downsampling of WAVECAR
   LCHARG       =      F    write CHGCAR
   LVTOT        =      F    write LOCPOT, total local potential
   LVHAR        =      F    write LOCPOT, Hartree potential only
   LELF         =      F    write electronic localiz. function (ELF)
   LORBIT       =      0    0 simple, 1 ext, 2 COOP (PROOUT), +10 PAW based schemes


 Dipole corrections
   LMONO  =      F    monopole corrections only (constant potential shift)
   LDIPOL =      F    correct potential (dipole corrections)
   IDIPOL =      0    1-x, 2-y, 3-z, 4-all directions 
   EPSILON=  1.0000000 bulk dielectric constant

 Exchange correlation treatment:
   GGA     =    --    GGA type
   LEXCH   =     8    internal setting for exchange type
   LIBXC   =     F    Libxc                    
   VOSKOWN =     0    Vosko Wilk Nusair interpolation
   LHFCALC =     F    Hartree Fock is set to
   LHFONE  =     F    Hartree Fock one center treatment
   AEXX    =    0.0000 exact exchange contribution

 Linear response parameters
   LEPSILON=     F    determine dielectric tensor
   LRPA    =     F    only Hartree local field effects (RPA)
   LNABLA  =     F    use nabla operator in PAW spheres
   LVEL    =     F    velocity operator in full k-point grid
   CSHIFT  =0.1000    complex shift for real part using Kramers Kronig
   OMEGAMAX=  -1.0    maximum frequency
   DEG_THRESHOLD= 0.2000000E-02 threshold for treating states as degnerate
   RTIME   =   -0.100 relaxation time in fs
  (WPLASMAI=    0.000 imaginary part of plasma frequency in eV, 0.658/RTIME)
   DFIELD  = 0.0000000 0.0000000 0.0000000 field for delta impulse in time
 
  Optional k-point grid parameters
   LKPOINTS_OPT  =     F    use optional k-point grid
   KPOINTS_OPT_MODE=     1    mode for optional k-point grid
 
 Orbital magnetization related:
   ORBITALMAG=     F  switch on orbital magnetization
   LCHIMAG   =     F  perturbation theory with respect to B field
   DQ        =  0.001000  dq finite difference perturbation B field
   LLRAUG    =     F  two centre corrections for induced B field
   LBONE     =     F  B-component reconstruction in AE one-centre
   LVGVCALC  =     T  calculate vGv susceptibility
   LVGVAPPL  =     F  apply vGv susceptibility instead of pGv for G=0

 Random number generation:
   RANDOM_GENERATOR = DEFAULT
   PCG_SEED         = not used


--------------------------------------------------------------------------------------------------------


 conjugate gradient relaxation of ions
   using selective dynamics as specified on POSCAR
 charge density and potential will be updated during run
 spin polarized calculation
 Variant of blocked Davidson
 Davidson routine will perform the subspace rotation
 perform sub-space diagonalisation
    after iterative eigenvector-optimisation
 modified Broyden-mixing scheme, WC =      100.0
 initial mixing is a Kerker type mixing with AMIX =  0.2000 and BMIX =      0.0001
 Hartree-type preconditioning will be used
 using additional bands            76
 reciprocal scheme for non local part
 use partial core corrections
 calculate Harris-corrections to forces 
   (improved forces if not selfconsistent)
 use gradient corrections 
 use of overlap-Matrix (Vanderbilt PP)
 Gauss-broadening in eV      SIGMA  =   0.05


--------------------------------------------------------------------------------------------------------


  energy-cutoff  :      520.00
  volume of cell :     3874.88
      direct lattice vectors                 reciprocal lattice vectors
    17.271038055  0.000000000  0.000000000     0.057900399  0.033428811 -0.000000000
    -8.635519028 14.957157706  0.000000000     0.000000000  0.066857622  0.000000000
     0.000000000  0.000000000 15.000000000     0.000000000 -0.000000000  0.066666667

  length of vectors
    17.271038055 17.271038055 15.000000000     0.066857622  0.066857622  0.066666667


 
 k-points in units of 2pi/SCALE and weight: Automatic mesh                          
   0.00000000  0.00000000  0.00000000       0.063
   0.01447510  0.00835720  0.00000000       0.125
   0.00000000  0.01671441  0.00000000       0.125
  -0.01447510  0.00835720  0.00000000       0.125
   0.02895020  0.01671441  0.00000000       0.063
   0.00000000  0.03342881  0.00000000       0.063
   0.02895020  0.05014322  0.00000000       0.063
   0.01447510  0.02507161  0.00000000       0.125
  -0.01447510  0.02507161  0.00000000       0.125
   0.02895020  0.03342881  0.00000000       0.125
 
 k-points in reciprocal lattice and weights: Automatic mesh                          
   0.00000000  0.00000000  0.00000000       0.063
   0.25000000  0.00000000  0.00000000       0.125
   0.00000000  0.25000000  0.00000000       0.125
  -0.25000000  0.25000000  0.00000000       0.125
   0.50000000  0.00000000  0.00000000       0.063
   0.00000000  0.50000000  0.00000000       0.063
   0.50000000  0.50000000  0.00000000       0.063
   0.25000000  0.25000000  0.00000000       0.125
  -0.25000000  0.50000000  0.00000000       0.125
   0.50000000  0.25000000  0.00000000       0.125
 
 position of ions in fractional coordinates (direct lattice) 
   0.99988853  0.99991010  0.49472177
   0.00012958  0.14292155  0.49520169
   0.00008919  0.28582642  0.49669089
   0.99980760  0.42882174  0.49759126
   0.00016043  0.57161388  0.49751243
   0.00106109  0.71461299  0.49711261
   0.00021131  0.85747044  0.49574151
   0.14372606  0.00100296  0.49452299
   0.14417690  0.14432469  0.49307202
   0.14367824  0.28636592  0.49294960
   0.14272499  0.42916189  0.49511934
   0.14381780  0.57168812  0.49640961
   0.14406965  0.71443729  0.49723535
   0.14360609  0.85767248  0.49663957
   0.28649933  0.00050779  0.49499945
   0.28725933  0.14411575  0.49104425
   0.28948112  0.28956707  0.48484710
   0.28511229  0.43275118  0.48515409
   0.28851556  0.56942712  0.49122145
   0.28745072  0.71425724  0.49531341
   0.28653169  0.85748520  0.49638081
   0.42935346  0.00040524  0.49477915
   0.42960313  0.14435217  0.49277750
   0.42942162  0.85641231  0.49477385
   0.57153075  0.99992140  0.49468796
   0.57166529  0.14359187  0.49458747
   0.57387786  0.29056677  0.49329776
   0.57358926  0.85540599  0.49322329
   0.71384105  0.99951994  0.49449183
   0.71432256  0.14308240  0.49586601
   0.71393649  0.28635909  0.49600223
   0.70943992  0.42632799  0.49439652
   0.70931136  0.85549805  0.49087177
   0.85651078  0.99933636  0.49431659
   0.85690740  0.14263142  0.49593369
   0.85690499  0.28580139  0.49711226
   0.85649345  0.42879961  0.49692000
   0.85657625  0.57138487  0.49568138
   0.85824150  0.71408023  0.49392433
   0.85530478  0.85555669  0.49339992
   0.04827085  0.09576830  0.49456505
   0.04794435  0.23821787  0.49534507
   0.04717396  0.38112559  0.49703136
   0.04818186  0.52419379  0.49744646
   0.04849878  0.66698558  0.49753166
   0.04812104  0.80991693  0.49667894
   0.04806297  0.95275793  0.49513940
   0.19164753  0.09634370  0.49268205
   0.19276006  0.24006458  0.49098639
   0.18989275  0.38157185  0.49209606
   0.19173132  0.52434471  0.49458356
   0.19183425  0.66698590  0.49632905
   0.19138768  0.80998700  0.49698972
   0.19135635  0.95307453  0.49548153
   0.33441399  0.09624507  0.49298972
   0.33879618  0.24015787  0.48727026
   0.33885007  0.66939875  0.49323859
   0.33434292  0.80942530  0.49566888
   0.33393736  0.95271068  0.49560024
   0.47676710  0.09590229  0.49403178
   0.47462650  0.24041480  0.49138145
   0.47439409  0.80523755  0.49376709
   0.47662414  0.95221337  0.49477787
   0.61892407  0.09541895  0.49511175
   0.61886228  0.23939254  0.49475443
   0.61868612  0.95147784  0.49415438
   0.76176670  0.09526340  0.49557926
   0.76175717  0.23831762  0.49648362
   0.76083198  0.38149698  0.49597193
   0.75975176  0.52623524  0.49330415
   0.76291788  0.66280271  0.48916030
   0.75845097  0.80595512  0.48911921
   0.76089448  0.95157444  0.49331438
   0.90448251  0.09466326  0.49527168
   0.90462418  0.23805476  0.49682442
   0.90424155  0.38133502  0.49753466
   0.90451925  0.52409310  0.49701551
   0.90551458  0.66656723  0.49594716
   0.90441910  0.80928845  0.49451796
   0.90396031  0.95134751  0.49447298
   0.71651519  0.71213950  0.48301049
   0.33115794  0.38320706  0.47680935
   0.62859330  0.66371046  0.46900055
   0.41830057  0.43088636  0.45834866
   0.42879422  0.28459880  0.48816120
   0.42878095  0.71480104  0.49280540
   0.71597771  0.57178966  0.48923338
   0.33213969  0.52378739  0.48532576
   0.61952530  0.38097358  0.49325065
   0.61934717  0.81114287  0.49132910
   0.48948263  0.56731559  0.56328545
   0.54296074  0.51827393  0.56601150
   0.51364103  0.54119833  0.60466391
 
 position of ions in cartesian coordinates  (Angst):
   8.63437006 14.95581313  7.42082648
  -1.23196375  2.13770011  7.42802537
  -2.46671910  4.27515081  7.45036333
  13.56461678  6.41395441  7.46386886
  -4.93341177  8.54971901  7.46268648
  -6.15272795 10.68857918  7.45668908
  -7.40105280 12.82532063  7.43612259
   2.47363712  0.01500146  7.41784489
   1.24376602  2.15868718  7.39608026
   0.00855391  4.28322029  7.39424406
  -1.24102700  6.41904204  7.42679011
  -2.45294088  8.55082932  7.44614414
  -3.68130444 10.68595126  7.45853028
  -4.92622083 12.82834250  7.44959361
   4.94375584  0.00759507  7.42499179
   3.71675243  2.15556207  7.36566380
   2.49907757  4.33110028  7.27270643
   1.18715420  6.47272767  7.27731140
   0.06566460  8.51701117  7.36832181
  -1.20340968 10.68325819  7.42970118
  -2.45613009 12.82554141  7.44571209
   7.41188048  0.00606125  7.42168730
   6.17313613  2.15909822  7.39166249
   0.02099234 12.80949397  7.42160771
   1.23608908 14.95598201  7.42031947
   8.63326265  2.14772629  7.41881212
   7.40227152  4.34605301  7.39946641
   2.51960719 12.79444223  7.39834933
   3.69740252 14.94997739  7.41737744
  11.10150128  2.14010609  7.43799014
   9.85756484  4.28311808  7.44003342
   8.57120036  6.37665502  7.41594776
   4.86287385 12.79581922  7.36307660
   6.16304212 14.94723155  7.41474890
  13.56798403  2.13336062  7.43900534
  12.33159530  4.27477645  7.45668395
  11.08962383  6.41362332  7.45380004
   9.85975614  8.54629362  7.43522072
   8.65626823 10.68061069  7.40886494
   7.38382538 12.79669636  7.40099884
   0.00667876  1.43242159  7.41847580
  -1.22908618  3.56306222  7.43017610
  -2.47647394  5.70055555  7.45547046
  -3.69453466  7.84044916  7.46169684
  -4.92214243  9.97620853  7.46297484
  -6.16295267 12.11405519  7.45018407
  -7.39746179 14.25055056  7.42709097
   2.47797401  1.44102784  7.39023077
   1.25608402  3.59068378  7.36479590
  -0.01542601  5.70723040  7.38144087
  -1.21658980  7.84270646  7.41875341
  -2.44659286  9.97621333  7.44493580
  -3.68919423 12.11510333  7.45484577
  -4.92537043 14.25528604  7.43222295
   4.94455051  1.43955273  7.39484578
   3.77747390  3.59207911  7.30905393
   0.07168689 10.01230264  7.39857882
  -1.21535830 12.10670179  7.43503326
  -2.45970627 14.24984388  7.43400354
   7.40609667  1.43442568  7.41047665
   6.12118588  3.59592202  7.37072174
   1.23963421 12.04406502  7.40650638
   0.00893700 14.24240549  7.42166799
   9.86546909  1.42719623  7.42667628
   8.62111519  3.58063205  7.42131652
   2.46884654 14.23140417  7.41231577
  12.33385274  1.42486972  7.43368894
  11.09834062  3.56455428  7.44725430
   9.84593360  5.70611044  7.43957902
   8.57738719  7.87098341  7.39956222
   7.45273831  9.91364465  7.33740450
   6.13939479 12.05479790  7.33678820
   4.92409838 14.23284903  7.39971571
  14.80388551  1.41589326  7.42907520
  13.56807215  3.56062260  7.45236628
  12.32416435  5.70368801  7.46301987
  11.09617051  7.83894319  7.45523264
   9.88302272  9.96995122  7.43920744
   8.63163086 12.10465495  7.41776942
   7.39695346 14.22945476  7.41709466
   6.22526699 10.65158275  7.24515728
   2.41024950  5.73168837  7.15214022
   5.12497443  9.92722208  7.03500828
   3.50355770  6.44483523  6.87522993
   4.94806295  4.25678919  7.32241804
   1.23281421 10.69139184  7.39208093
   7.42797787  8.55234810  7.33850071
   1.21322126  7.83437059  7.27988636
   7.40994044  5.69828198  7.39875981
   3.69212882 12.13239183  7.36993648
   3.55480858  8.48542871  8.44928174
   4.90193124  7.75190491  8.49017255
   4.19758532  8.09478873  9.06995862
 


--------------------------------------------------------------------------------------------------------


 k-point   1 :   0.0000 0.0000 0.0000  plane waves:  104449
 k-point   2 :   0.2500 0.0000 0.0000  plane waves:  104316
 k-point   3 :   0.0000 0.2500 0.0000  plane waves:  104316
 k-point   4 :  -0.2500 0.2500 0.0000  plane waves:  104316
 k-point   5 :   0.5000 0.0000 0.0000  plane waves:  104264
 k-point   6 :   0.0000 0.5000 0.0000  plane waves:  104264
 k-point   7 :   0.5000 0.5000 0.0000  plane waves:  104264
 k-point   8 :   0.2500 0.2500 0.0000  plane waves:  104338
 k-point   9 :  -0.2500 0.5000 0.0000  plane waves:  104338
 k-point  10 :   0.5000 0.2500 0.0000  plane waves:  104338

 maximum and minimum number of plane-waves per node :      4390     4315

 maximum number of plane-waves:    104449
 maximum index in each direction: 
   IXMAX=   32   IYMAX=   32   IZMAX=   27
   IXMIN=  -32   IYMIN=  -32   IZMIN=  -27


 parallel 3D FFT for wavefunctions:
    minimum data exchange during FFTs selected (reduces bandwidth)
 parallel 3D FFT for charge:
    minimum data exchange during FFTs selected (reduces bandwidth)


 total amount of memory used by VASP MPI-rank0   273439. kBytes
=======================================================================

   base      :      30000. kBytes
   nonl-proj :      20439. kBytes
   fftplans  :      19907. kBytes
   grid      :      16146. kBytes
   one-center:         24. kBytes
   wavefun   :     186923. kBytes
 
     INWAV:  cpu time      0.0000: real time      0.0003
 Broyden mixing: mesh for mixing (old mesh)
   NGX = 65   NGY = 65   NGZ = 55
  (NGX  =192   NGY  =192   NGZ  =168)
  gives a total of 232375 points

 initial charge density was supplied:
 charge density of overlapping atoms calculated
 number of electron     380.0000000 magnetization      55.8000000
 keeping initial charge density in first step


--------------------------------------------------------------------------------------------------------


 Maximum index for augmentation-charges           800 (set IRDMAX)


--------------------------------------------------------------------------------------------------------


 First call to EWALD:  gamma=   0.113
 Maximum number of real-space cells 3x 3x 3
 Maximum number of reciprocal cells 3x 3x 3

    FEWALD:  cpu time      0.0402: real time      0.0404


--------------------------------------- Ionic step        1  -------------------------------------------




--------------------------------------- Iteration      1(   1)  ---------------------------------------


    POTLOK:  cpu time      0.3730: real time      0.3758
    SETDIJ:  cpu time      0.8210: real time      0.8399
     EDDAV:  cpu time     97.7942: real time     98.7589
       DOS:  cpu time      0.0108: real time      0.0108
    --------------------------------------------
      LOOP:  cpu time     98.9991: real time     99.9855

 eigenvalue-minimisations  : 11584
 total energy-change (2. order) : 0.3468919E+04  (-0.1439799E+05)
 number of electron     380.0000000 magnetization      55.8000000
 augmentation part      380.0000000 magnetization      55.8000000

 Free energy of the ion-electron system (eV)
  ---------------------------------------------------
  alpha Z        PSCENC =       185.49599500
  Ewald energy   TEWEN  =     37670.06747146
  -Hartree energ DENC   =    -49450.79281964
  -exchange      EXHF   =         0.00000000
  -V(xc)+E(xc)   XCENC  =      1308.31061214
  PAW double counting   =     11553.19479004   -11618.78033184
  entropy T*S    EENTRO =        -0.04013935
  eigenvalues    EBANDS =     -1608.52424659
  atomic energy  EATOM  =     15429.98794498
  Solvation  Ediel_sol  =         0.00000000
  ---------------------------------------------------
  free energy    TOTEN  =      3468.91927619 eV

  energy without entropy =     3468.95941554  energy(sigma->0) =     3468.93934587


--------------------------------------------------------------------------------------------------------




--------------------------------------- Iteration      1(   2)  ---------------------------------------


     EDDAV:  cpu time    125.4845: real time    126.6743
       DOS:  cpu time      0.0099: real time      0.0099
    --------------------------------------------
      LOOP:  cpu time    125.4944: real time    126.6842

 eigenvalue-minimisations  : 15928
 total energy-change (2. order) :-0.3656188E+04  (-0.3444673E+04)
 number of electron     380.0000000 magnetization      55.8000000
 augmentation part      380.0000000 magnetization      55.8000000

 Free energy of the ion-electron system (eV)
  ---------------------------------------------------
  alpha Z        PSCENC =       185.49599500
  Ewald energy   TEWEN  =     37670.06747146
  -Hartree energ DENC   =    -49450.79281964
  -exchange      EXHF   =         0.00000000
  -V(xc)+E(xc)   XCENC  =      1308.31061214
  PAW double counting   =     11553.19479004   -11618.78033184
  entropy T*S    EENTRO =        -0.00301930
  eigenvalues    EBANDS =     -5264.74941858
  atomic energy  EATOM  =     15429.98794498
  Solvation  Ediel_sol  =         0.00000000
  ---------------------------------------------------
  free energy    TOTEN  =      -187.26877575 eV

  energy without entropy =     -187.26575645  energy(sigma->0) =     -187.26726610


--------------------------------------------------------------------------------------------------------




--------------------------------------- Iteration      1(   3)  ---------------------------------------


     EDDAV:  cpu time    108.3363: real time    109.3614
       DOS:  cpu time      0.0079: real time      0.0080
    --------------------------------------------
      LOOP:  cpu time    108.3442: real time    109.3693

 eigenvalue-minimisations  : 13208
 total energy-change (2. order) :-0.6533175E+03  (-0.6501822E+03)
 number of electron     380.0000000 magnetization      55.8000000
 augmentation part      380.0000000 magnetization      55.8000000

 Free energy of the ion-electron system (eV)
  ---------------------------------------------------
  alpha Z        PSCENC =       185.49599500
  Ewald energy   TEWEN  =     37670.06747146
  -Hartree energ DENC   =    -49450.79281964
  -exchange      EXHF   =         0.00000000
  -V(xc)+E(xc)   XCENC  =      1308.31061214
  PAW double counting   =     11553.19479004   -11618.78033184
  entropy T*S    EENTRO =        -0.00591657
  eigenvalues    EBANDS =     -5918.06403604
  atomic energy  EATOM  =     15429.98794498
  Solvation  Ediel_sol  =         0.00000000
  ---------------------------------------------------
  free energy    TOTEN  =      -840.58629047 eV

  energy without entropy =     -840.58037391  energy(sigma->0) =     -840.58333219


--------------------------------------------------------------------------------------------------------




--------------------------------------- Iteration      1(   4)  ---------------------------------------


     EDDAV:  cpu time    108.0166: real time    109.0468
       DOS:  cpu time      0.0077: real time      0.0077
    --------------------------------------------
      LOOP:  cpu time    108.0242: real time    109.0545

 eigenvalue-minimisations  : 13184
 total energy-change (2. order) :-0.2260371E+02  (-0.2249391E+02)
 number of electron     380.0000000 magnetization      55.8000000
 augmentation part      380.0000000 magnetization      55.8000000

 Free energy of the ion-electron system (eV)
  ---------------------------------------------------
  alpha Z        PSCENC =       185.49599500
  Ewald energy   TEWEN  =     37670.06747146
  -Hartree energ DENC   =    -49450.79281964
  -exchange      EXHF   =         0.00000000
  -V(xc)+E(xc)   XCENC  =      1308.31061214
  PAW double counting   =     11553.19479004   -11618.78033184
  entropy T*S    EENTRO =        -0.00660963
  eigenvalues    EBANDS =     -5940.66705679
  atomic energy  EATOM  =     15429.98794498
  Solvation  Ediel_sol  =         0.00000000
  ---------------------------------------------------
  free energy    TOTEN  =      -863.19000429 eV

  energy without entropy =     -863.18339466  energy(sigma->0) =     -863.18669948


--------------------------------------------------------------------------------------------------------




--------------------------------------- Iteration      1(   5)  ---------------------------------------


     EDDAV:  cpu time    120.0578: real time    121.1956
       DOS:  cpu time      0.0085: real time      0.0086
    CHARGE:  cpu time      1.0637: real time      1.0715
    MIXING:  cpu time      0.0081: real time      0.0082
    --------------------------------------------
      LOOP:  cpu time    121.1381: real time    122.2839

 eigenvalue-minimisations  : 15048
 total energy-change (2. order) :-0.7103850E+00  (-0.7093170E+00)
 number of electron     379.9999999 magnetization      12.1028576
 augmentation part       13.4963974 magnetization      11.0506964

 Broyden mixing:
  rms(total) = 0.51225E+01    rms(broyden)= 0.51217E+01
  rms(prec ) = 0.55556E+01
  weight for this iteration     100.00

 Free energy of the ion-electron system (eV)
  ---------------------------------------------------
  alpha Z        PSCENC =       185.49599500
  Ewald energy   TEWEN  =     37670.06747146
  -Hartree energ DENC   =    -49450.79281964
  -exchange      EXHF   =         0.00000000
  -V(xc)+E(xc)   XCENC  =      1308.31061214
  PAW double counting   =     11553.19479004   -11618.78033184
  entropy T*S    EENTRO =        -0.00669226
  eigenvalues    EBANDS =     -5941.37735914
  atomic energy  EATOM  =     15429.98794498
  Solvation  Ediel_sol  =         0.00000000
  ---------------------------------------------------
  free energy    TOTEN  =      -863.90038927 eV

  energy without entropy =     -863.89369701  energy(sigma->0) =     -863.89704314


--------------------------------------------------------------------------------------------------------




--------------------------------------- Iteration      1(   6)  ---------------------------------------


    POTLOK:  cpu time      0.3665: real time      0.3712
    SETDIJ:  cpu time      0.8087: real time      0.8152
     EDDAV:  cpu time    105.0708: real time    106.0676
       DOS:  cpu time      0.0196: real time      0.0197
    CHARGE:  cpu time      1.1415: real time      1.1507
    MIXING:  cpu time      0.0117: real time      0.0117
    --------------------------------------------
      LOOP:  cpu time    107.4189: real time    108.4362

 eigenvalue-minimisations  : 12760
 total energy-change (2. order) : 0.1635462E+02  (-0.2043470E+01)
 number of electron     379.9999999 magnetization      -5.2931898
 augmentation part       13.0593503 magnetization      -5.4653496

 Broyden mixing:
  rms(total) = 0.33255E+01    rms(broyden)= 0.33255E+01
  rms(prec ) = 0.36418E+01
  weight for this iteration     100.00

 eigenvalues of (default mixing * dielectric matrix)
  average eigenvalue GAMMA=   1.4276
  1.4276

 Free energy of the ion-electron system (eV)
  ---------------------------------------------------
  alpha Z        PSCENC =       185.49599500
  Ewald energy   TEWEN  =     37670.06747146
  -Hartree energ DENC   =    -49884.16851810
  -exchange      EXHF   =         0.00000000
  -V(xc)+E(xc)   XCENC  =      1318.61853441
  PAW double counting   =     15268.16459982   -15337.62493777
  entropy T*S    EENTRO =        -0.00364803
  eigenvalues    EBANDS =     -5498.08320938
  atomic energy  EATOM  =     15429.98794498
  Solvation  Ediel_sol  =         0.00000000
  ---------------------------------------------------
  free energy    TOTEN  =      -847.54576762 eV

  energy without entropy =     -847.54211959  energy(sigma->0) =     -847.54394360


--------------------------------------------------------------------------------------------------------




--------------------------------------- Iteration      1(   7)  ---------------------------------------


    POTLOK:  cpu time      0.3357: real time      0.3386
    SETDIJ:  cpu time      0.7938: real time      0.7988
     EDDAV:  cpu time    102.8319: real time    103.7610
       DOS:  cpu time      0.0108: real time      0.0109
    CHARGE:  cpu time      1.0198: real time      1.0269
    MIXING:  cpu time      0.0095: real time      0.0095
    --------------------------------------------
      LOOP:  cpu time    105.0015: real time    105.9457

 eigenvalue-minimisations  : 12496
 total energy-change (2. order) : 0.1984885E+02  (-0.3060556E+01)
 number of electron     379.9999999 magnetization       1.1502102
 augmentation part       12.5650423 magnetization       1.1702595

 Broyden mixing:
  rms(total) = 0.20190E+01    rms(broyden)= 0.20189E+01
  rms(prec ) = 0.21357E+01
  weight for this iteration     100.00

 eigenvalues of (default mixing * dielectric matrix)
  average eigenvalue GAMMA=   2.4916
  1.2973  3.6858

 Free energy of the ion-electron system (eV)
  ---------------------------------------------------
  alpha Z        PSCENC =       185.49599500
  Ewald energy   TEWEN  =     37670.06747146
  -Hartree energ DENC   =    -50444.20256789
  -exchange      EXHF   =         0.00000000
  -V(xc)+E(xc)   XCENC  =      1338.99756030
  PAW double counting   =     21991.51645769   -22065.32945085
  entropy T*S    EENTRO =        -0.00126334
  eigenvalues    EBANDS =     -4934.22906454
  atomic energy  EATOM  =     15429.98794498
  Solvation  Ediel_sol  =         0.00000000
  ---------------------------------------------------
  free energy    TOTEN  =      -827.69691719 eV

  energy without entropy =     -827.69565386  energy(sigma->0) =     -827.69628553


--------------------------------------------------------------------------------------------------------




--------------------------------------- Iteration      1(   8)  ---------------------------------------


    POTLOK:  cpu time      0.3397: real time      0.3437
    SETDIJ:  cpu time      0.8001: real time      0.8180
     EDDAV:  cpu time    101.6598: real time    102.5874
       DOS:  cpu time      0.0077: real time      0.0081
    CHARGE:  cpu time      1.0130: real time      1.0230
    MIXING:  cpu time      0.0107: real time      0.0108
    --------------------------------------------
      LOOP:  cpu time    103.8311: real time    104.7910

 eigenvalue-minimisations  : 12328
 total energy-change (2. order) : 0.4629131E+01  (-0.2112735E+01)
 number of electron     379.9999999 magnetization      -0.4947468
 augmentation part       12.2164087 magnetization      -0.4987927

 Broyden mixing:
  rms(total) = 0.79408E+00    rms(broyden)= 0.79397E+00
  rms(prec ) = 0.81336E+00
  weight for this iteration     100.00

 eigenvalues of (default mixing * dielectric matrix)
  average eigenvalue GAMMA=   2.5114
  4.4781  1.3044  1.7517

 Free energy of the ion-electron system (eV)
  ---------------------------------------------------
  alpha Z        PSCENC =       185.49599500
  Ewald energy   TEWEN  =     37670.06747146
  -Hartree energ DENC   =    -50952.36969313
  -exchange      EXHF   =         0.00000000
  -V(xc)+E(xc)   XCENC  =      1358.44508036
  PAW double counting   =     32329.29080491   -32406.76712654
  entropy T*S    EENTRO =        -0.00018632
  eigenvalues    EBANDS =     -4437.21807695
  atomic energy  EATOM  =     15429.98794498
  Solvation  Ediel_sol  =         0.00000000
  ---------------------------------------------------
  free energy    TOTEN  =      -823.06778623 eV

  energy without entropy =     -823.06759992  energy(sigma->0) =     -823.06769307


--------------------------------------------------------------------------------------------------------




--------------------------------------- Iteration      1(   9)  ---------------------------------------


    POTLOK:  cpu time      0.3407: real time      0.3456
    SETDIJ:  cpu time      0.7887: real time      0.7933
     EDDAV:  cpu time    103.4431: real time    104.4278
       DOS:  cpu time      0.0103: real time      0.0103
    CHARGE:  cpu time      1.0067: real time      1.0277
    MIXING:  cpu time      0.0113: real time      0.0113
    --------------------------------------------
      LOOP:  cpu time    105.6007: real time    106.6162

 eigenvalue-minimisations  : 12664
 total energy-change (2. order) :-0.2848663E-01  (-0.1057101E+00)
 number of electron     379.9999999 magnetization       0.1887065
 augmentation part       12.2179353 magnetization       0.1897117

 Broyden mixing:
  rms(total) = 0.32610E+00    rms(broyden)= 0.32608E+00
  rms(prec ) = 0.34668E+00
  weight for this iteration     100.00

 eigenvalues of (default mixing * dielectric matrix)
  average eigenvalue GAMMA=   2.4855
  4.7164  2.7694  1.2282  1.2282

 Free energy of the ion-electron system (eV)
  ---------------------------------------------------
  alpha Z        PSCENC =       185.49599500
  Ewald energy   TEWEN  =     37670.06747146
  -Hartree energ DENC   =    -50948.92636250
  -exchange      EXHF   =         0.00000000
  -V(xc)+E(xc)   XCENC  =      1358.92752387
  PAW double counting   =     36471.90082862   -36549.25509804
  entropy T*S    EENTRO =        -0.00018039
  eigenvalues    EBANDS =     -4441.29439586
  atomic energy  EATOM  =     15429.98794498
  Solvation  Ediel_sol  =         0.00000000
  ---------------------------------------------------
  free energy    TOTEN  =      -823.09627286 eV

  energy without entropy =     -823.09609247  energy(sigma->0) =     -823.09618266


--------------------------------------------------------------------------------------------------------




--------------------------------------- Iteration      1(  10)  ---------------------------------------


    POTLOK:  cpu time      0.3263: real time      0.3300
    SETDIJ:  cpu time      0.7871: real time      0.7919
     EDDAV:  cpu time     99.9019: real time    100.7991
       DOS:  cpu time      0.0064: real time      0.0064
    CHARGE:  cpu time      1.0236: real time      1.0315
    MIXING:  cpu time      0.0113: real time      0.0114
    --------------------------------------------
      LOOP:  cpu time    102.0565: real time    102.9702

 eigenvalue-minimisations  : 12048
 total energy-change (2. order) : 0.1398680E+00  (-0.4304839E-01)
 number of electron     379.9999999 magnetization       0.0014298
 augmentation part       12.2495925 magnetization       0.0016458

 Broyden mixing:
  rms(total) = 0.82090E-01    rms(broyden)= 0.82077E-01
  rms(prec ) = 0.91014E-01
  weight for this iteration     100.00

 eigenvalues of (default mixing * dielectric matrix)
  average eigenvalue GAMMA=   2.3520
  4.7702  3.2295  0.9659  1.5265  1.2679

 Free energy of the ion-electron system (eV)
  ---------------------------------------------------
  alpha Z        PSCENC =       185.49599500
  Ewald energy   TEWEN  =     37670.06747146
  -Hartree energ DENC   =    -50872.60422893
  -exchange      EXHF   =         0.00000000
  -V(xc)+E(xc)   XCENC  =      1356.55580355
  PAW double counting   =     38121.18462556   -38197.90343911
  entropy T*S    EENTRO =        -0.00018036
  eigenvalues    EBANDS =     -4515.74039700
  atomic energy  EATOM  =     15429.98794498
  Solvation  Ediel_sol  =         0.00000000
  ---------------------------------------------------
  free energy    TOTEN  =      -822.95640486 eV

  energy without entropy =     -822.95622450  energy(sigma->0) =     -822.95631468


--------------------------------------------------------------------------------------------------------




--------------------------------------- Iteration      1(  11)  ---------------------------------------


    POTLOK:  cpu time      0.3423: real time      0.3458
    SETDIJ:  cpu time      0.8174: real time      0.8230
     EDDAV:  cpu time    101.8593: real time    102.7475
       DOS:  cpu time      0.0092: real time      0.0092
    CHARGE:  cpu time      1.0171: real time      1.0241
    MIXING:  cpu time      0.0121: real time      0.0122
    --------------------------------------------
      LOOP:  cpu time    104.0574: real time    104.9619

 eigenvalue-minimisations  : 12344
 total energy-change (2. order) : 0.8679559E-02  (-0.6873416E-02)
 number of electron     379.9999999 magnetization       0.0166876
 augmentation part       12.2458405 magnetization       0.0165310

 Broyden mixing:
  rms(total) = 0.23939E-01    rms(broyden)= 0.23919E-01
  rms(prec ) = 0.26046E-01
  weight for this iteration     100.00

 eigenvalues of (default mixing * dielectric matrix)
  average eigenvalue GAMMA=   2.2161
  4.7165  3.2168  1.0113  1.7010  1.2359  1.4149

 Free energy of the ion-electron system (eV)
  ---------------------------------------------------
  alpha Z        PSCENC =       185.49599500
  Ewald energy   TEWEN  =     37670.06747146
  -Hartree energ DENC   =    -50862.40958311
  -exchange      EXHF   =         0.00000000
  -V(xc)+E(xc)   XCENC  =      1356.27938094
  PAW double counting   =     38333.80209912   -38410.41164081
  entropy T*S    EENTRO =        -0.00018014
  eigenvalues    EBANDS =     -4525.75921274
  atomic energy  EATOM  =     15429.98794498
  Solvation  Ediel_sol  =         0.00000000
  ---------------------------------------------------
  free energy    TOTEN  =      -822.94772530 eV

  energy without entropy =     -822.94754517  energy(sigma->0) =     -822.94763523


--------------------------------------------------------------------------------------------------------




--------------------------------------- Iteration      1(  12)  ---------------------------------------


    POTLOK:  cpu time      0.3341: real time      0.3376
    SETDIJ:  cpu time      0.8104: real time      0.8150
     EDDAV:  cpu time    105.7966: real time    106.7686
[...]
   -.165E+02 0.451E+01 -.100E+01   0.172E+02 -.459E+01 0.100E+01   -.707E+00 0.767E-01 0.151E-02   0.615E-05 0.648E-03 0.133E-02
   -.378E+01 0.690E+01 -.978E+00   0.375E+01 -.691E+01 0.976E+00   0.309E-01 0.189E-01 0.170E-02   -.121E-02 0.160E-03 -.477E-04
   0.367E+01 -.904E+01 -.733E+00   -.370E+01 0.902E+01 0.725E+00   0.334E-01 0.118E-01 0.929E-02   -.461E-03 -.353E-03 -.350E-03
   0.432E+02 -.542E+01 0.191E+01   -.437E+02 0.305E+01 -.193E+01   0.545E+00 0.238E+01 0.130E-01   -.101E-02 -.893E-03 0.146E-02
   0.280E+02 0.390E+02 0.115E+01   -.304E+02 -.382E+02 -.106E+01   0.240E+01 -.755E+00 -.931E-01   -.833E-03 0.114E-03 0.303E-02
   0.207E+01 0.434E+01 -.799E+00   -.213E+01 -.441E+01 0.797E+00   0.632E-01 0.724E-01 0.210E-02   -.210E-03 -.324E-03 0.180E-02
   0.372E+01 0.130E+01 -.313E+01   -.374E+01 -.130E+01 0.313E+01   0.158E-01 0.379E-02 -.122E-02   0.140E-02 0.910E-03 0.531E-03
   0.623E+01 -.365E+01 -.287E+01   -.631E+01 0.369E+01 0.288E+01   0.754E-01 -.391E-01 -.103E-01   0.113E-03 -.158E-03 0.250E-02
   0.259E+02 -.411E+02 0.106E+01   -.241E+02 0.426E+02 -.105E+01   -.180E+01 -.151E+01 -.158E-01   -.435E-03 0.582E-03 0.371E-02
   -.232E+02 0.243E+02 0.790E+01   0.247E+02 -.229E+02 -.798E+01   -.158E+01 -.138E+01 0.692E-01   -.952E-04 -.597E-03 0.458E-02
   0.234E+01 0.870E+01 -.958E+00   -.227E+01 -.870E+01 0.920E+00   -.732E-01 0.307E-02 0.363E-01   0.656E-04 -.149E-02 0.930E-03
   -.721E+00 0.218E+01 -.404E+01   0.750E+00 -.222E+01 0.401E+01   -.285E-01 0.347E-01 0.170E-01   -.420E-03 -.293E-03 0.102E-02
   0.244E+01 -.204E+01 -.587E+01   -.243E+01 0.202E+01 0.587E+01   -.730E-02 0.178E-01 -.450E-02   -.795E-03 0.594E-04 0.193E-02
   0.126E+02 -.119E+01 -.447E+01   -.127E+02 0.122E+01 0.445E+01   0.391E-01 -.235E-01 0.836E-02   -.869E-04 0.516E-03 0.207E-02
   0.158E+02 0.142E+02 -.353E+01   -.161E+02 -.148E+02 0.354E+01   0.341E+00 0.548E+00 -.223E-01   -.132E-03 0.313E-03 0.129E-02
   0.129E+02 0.314E+01 -.413E+01   -.132E+02 -.282E+01 0.420E+01   0.239E+00 -.313E+00 -.798E-01   -.104E-02 -.405E-03 0.202E-02
   0.147E+02 0.826E+01 -.298E+01   -.146E+02 -.825E+01 0.306E+01   -.524E-01 -.181E-01 -.788E-01   -.241E-02 0.989E-03 0.151E-02
   -.350E+01 -.769E-01 -.377E+01   0.351E+01 0.102E+00 0.380E+01   -.152E-01 -.249E-01 -.170E-01   -.428E-03 0.247E-03 -.173E-02
   -.445E+01 -.225E+01 -.517E+01   0.457E+01 0.221E+01 0.518E+01   -.115E+00 0.381E-01 -.197E-01   -.993E-03 0.585E-03 0.124E-02
   -.375E+01 -.266E+01 -.787E+01   0.363E+01 0.257E+01 0.790E+01   0.122E+00 0.943E-01 -.371E-01   0.651E-03 -.696E-03 0.326E-02
   -.274E+01 -.203E+01 -.696E+01   0.280E+01 0.211E+01 0.696E+01   -.678E-01 -.748E-01 -.115E-01   0.785E-03 -.161E-03 0.200E-02
   -.602E+00 0.188E+01 -.665E+01   0.624E+00 -.189E+01 0.665E+01   -.233E-01 0.875E-02 -.328E-02   0.868E-03 0.110E-02 0.419E-03
   0.279E+01 0.802E+00 -.574E+01   -.287E+01 -.775E+00 0.572E+01   0.794E-01 -.264E-01 0.182E-01   0.484E-03 -.141E-03 0.948E-03
   0.102E+01 -.270E+00 -.407E+01   -.102E+01 0.282E+00 0.407E+01   0.360E-02 -.971E-02 -.204E-02   0.577E-04 -.115E-02 0.649E-03
   -.227E+01 -.783E+01 0.135E+01   0.220E+01 0.783E+01 -.139E+01   0.730E-01 -.121E-02 0.542E-01   -.356E-03 -.996E-03 -.882E-03
   -.141E+02 -.699E+01 -.168E+01   0.141E+02 0.697E+01 0.178E+01   0.529E-01 0.150E-01 -.104E+00   0.686E-03 0.248E-03 -.509E-03
   -.116E+02 -.259E+01 -.332E+01   0.118E+02 0.228E+01 0.342E+01   -.242E+00 0.314E+00 -.107E+00   0.221E-02 0.312E-04 0.242E-02
   -.146E+02 -.145E+02 -.275E+01   0.150E+02 0.151E+02 0.277E+01   -.337E+00 -.544E+00 -.278E-01   0.790E-03 -.390E-04 0.211E-02
   -.120E+02 0.960E+00 -.375E+01   0.120E+02 -.987E+00 0.372E+01   -.389E-01 0.252E-01 0.202E-01   -.719E-03 0.830E-03 0.182E-02
   -.205E+01 0.210E+01 -.521E+01   0.204E+01 -.208E+01 0.520E+01   0.566E-02 -.157E-01 0.206E-02   0.118E-02 0.497E-03 0.365E-02
   0.903E+00 -.177E+01 -.294E+01   -.932E+00 0.181E+01 0.292E+01   0.284E-01 -.365E-01 0.227E-01   0.666E-03 0.325E-03 0.330E-02
   -.236E+01 -.389E+01 0.896E+00   0.243E+01 0.396E+01 -.893E+00   -.600E-01 -.748E-01 -.141E-02   -.386E-03 0.295E-03 0.508E-03
   0.222E+02 -.231E+02 0.132E+02   -.238E+02 0.218E+02 -.132E+02   0.158E+01 0.138E+01 0.955E-01   0.592E-03 0.225E-03 -.920E-03
   -.252E+02 0.401E+02 0.321E+01   0.234E+02 -.415E+02 -.324E+01   0.181E+01 0.150E+01 0.205E-01   0.524E-03 -.228E-03 0.893E-03
   -.607E+01 0.339E+01 -.273E+01   0.615E+01 -.343E+01 0.274E+01   -.719E-01 0.417E-01 -.105E-01   -.157E-02 0.516E-03 0.265E-02
   -.371E+01 -.118E+01 -.291E+01   0.373E+01 0.118E+01 0.291E+01   -.142E-01 -.492E-02 -.780E-02   -.960E-03 -.339E-03 0.266E-02
   0.353E+01 -.692E+01 -.766E+00   -.351E+01 0.693E+01 0.772E+00   -.268E-01 -.205E-01 -.129E-01   0.954E-03 0.772E-03 0.127E-02
   -.289E+02 -.392E+02 0.252E+01   0.313E+02 0.385E+02 -.238E+01   -.240E+01 0.753E+00 -.147E+00   0.153E-02 0.426E-03 0.240E-03
   -.436E+02 0.484E+01 0.105E+01   0.442E+02 -.247E+01 -.103E+01   -.548E+00 -.238E+01 -.336E-01   0.430E-03 0.862E-03 0.219E-02
   -.387E+01 0.895E+01 -.138E+01   0.390E+01 -.894E+01 0.139E+01   -.312E-01 -.100E-01 -.574E-02   -.446E-03 0.536E-03 0.947E-03
   0.230E+01 0.764E+00 -.168E+01   -.243E+01 -.832E+00 0.169E+01   0.130E+00 0.705E-01 -.417E-02   -.164E-02 -.757E-03 -.810E-03
   0.164E+02 -.493E+01 -.537E+00   -.171E+02 0.501E+01 0.527E+00   0.709E+00 -.750E-01 0.100E-01   -.166E-03 0.142E-03 0.481E-03
   0.670E+01 0.146E+02 -.134E+00   -.700E+01 -.153E+02 0.149E+00   0.305E+00 0.618E+00 -.173E-01   0.613E-03 -.466E-03 0.108E-02
   0.202E+01 0.550E+01 -.336E+01   -.202E+01 -.546E+01 0.339E+01   -.110E-02 -.472E-01 -.272E-01   0.934E-03 0.691E-03 0.174E-03
   0.744E+01 -.297E+01 -.443E+01   -.742E+01 0.293E+01 0.444E+01   -.237E-01 0.392E-01 -.195E-01   0.118E-03 0.344E-03 0.187E-02
   0.145E+02 -.131E+02 -.250E+01   -.149E+02 0.136E+02 0.250E+01   0.408E+00 -.545E+00 -.742E-03   -.295E-03 0.259E-03 0.323E-02
   0.215E+02 0.443E+02 0.201E+01   -.196E+02 -.461E+02 -.186E+01   -.186E+01 0.178E+01 -.158E+00   -.994E-03 -.550E-03 0.199E-02
   0.299E+02 0.745E+01 0.102E+02   -.293E+02 -.562E+01 -.101E+02   -.638E+00 -.184E+01 -.794E-01   0.103E-02 0.368E-03 0.194E-02
   0.231E+02 0.445E+01 0.753E+01   -.240E+02 -.378E+01 -.748E+01   0.951E+00 -.674E+00 -.542E-01   -.908E-04 -.471E-03 0.259E-02
   -.495E+01 0.126E+02 0.134E+01   0.519E+01 -.131E+02 -.135E+01   -.245E+00 0.472E+00 0.654E-02   -.330E-03 -.753E-03 0.155E-02
   -.387E+00 0.276E+01 -.367E+01   0.473E+00 -.284E+01 0.370E+01   -.860E-01 0.675E-01 -.284E-01   -.124E-02 0.124E-02 0.332E-03
   0.259E+00 -.346E+00 -.611E+01   -.195E+00 0.339E+00 0.612E+01   -.616E-01 0.882E-02 -.225E-01   -.105E-02 -.166E-02 0.137E-02
   0.396E+01 -.145E+01 -.642E+01   -.407E+01 0.153E+01 0.643E+01   0.114E+00 -.871E-01 -.176E-01   -.434E-03 -.247E-03 0.266E-02
   0.978E+01 0.155E+01 -.528E+01   -.978E+01 -.158E+01 0.530E+01   0.621E-02 0.371E-01 -.190E-01   -.818E-04 -.738E-03 0.139E-02
   0.473E+01 0.563E+01 -.603E+01   -.461E+01 -.572E+01 0.605E+01   -.122E+00 0.864E-01 -.189E-01   -.714E-03 -.124E-02 0.194E-02
   0.830E+01 0.345E+01 -.350E+01   -.837E+01 -.324E+01 0.344E+01   0.637E-01 -.213E+00 0.626E-01   0.522E-03 -.133E-02 0.468E-03
   0.338E+01 0.742E+01 -.353E+01   -.332E+01 -.746E+01 0.356E+01   -.546E-01 0.426E-01 -.382E-01   -.449E-03 -.848E-03 0.784E-03
   -.172E+02 -.348E+01 0.187E+02   0.244E+02 0.769E+01 -.175E+02   -.728E+01 -.420E+01 -.122E+01   -.733E-03 0.115E-02 0.115E-02
   0.174E+02 0.472E+01 0.276E+02   -.247E+02 -.887E+01 -.260E+02   0.723E+01 0.416E+01 -.168E+01   0.380E-03 -.142E-02 0.330E-04
   0.221E+03 0.177E+03 0.183E+03   -.270E+03 -.208E+03 -.192E+03   0.485E+02 0.309E+02 0.847E+01   0.228E-02 0.323E-03 -.400E-02
   -.226E+03 -.177E+03 0.244E+03   0.274E+03 0.207E+03 -.256E+03   -.479E+02 -.303E+02 0.116E+02   -.210E-02 0.827E-03 0.352E-04
   -.238E+02 -.173E+03 0.126E+02   0.241E+02 0.208E+03 -.135E+02   -.284E+00 -.347E+02 0.838E+00   -.154E-02 0.190E-02 -.271E-02
   -.170E+03 0.989E+02 0.825E+01   0.200E+03 -.116E+03 -.880E+01   -.301E+02 0.170E+02 0.548E+00   -.719E-03 -.216E-02 0.241E-02
   0.165E+03 0.104E+03 0.260E+02   -.195E+03 -.121E+03 -.276E+02   0.303E+02 0.166E+02 0.157E+01   0.343E-03 -.200E-02 0.269E-02
   -.161E+03 -.105E+03 0.391E+02   0.191E+03 0.122E+03 -.412E+02   -.301E+02 -.165E+02 0.214E+01   0.494E-03 0.319E-03 0.718E-04
   0.170E+03 -.101E+03 0.648E+01   -.200E+03 0.118E+03 -.701E+01   0.301E+02 -.171E+02 0.516E+00   -.526E-03 0.166E-02 0.459E-02
   0.219E+02 0.173E+03 0.766E+01   -.222E+02 -.208E+03 -.826E+01   0.300E+00 0.348E+02 0.580E+00   0.195E-02 -.211E-02 0.695E-02
   0.523E+02 -.374E+02 0.206E+01   -.580E+02 0.408E+02 -.715E+01   0.563E+01 -.338E+01 0.510E+01   0.406E-03 -.385E-03 -.113E-03
   -.608E+02 0.313E+02 -.204E+01   0.669E+02 -.342E+02 -.271E+01   -.614E+01 0.299E+01 0.476E+01   0.112E-03 -.353E-03 0.385E-03
   -.452E+01 -.264E+01 -.422E+03   0.208E+01 0.888E+00 0.469E+03   0.243E+01 0.176E+01 -.469E+02   0.608E-02 -.549E-02 -.652E-03
 -----------------------------------------------------------------------------------------------
   -.267E+01 -.193E+01 0.150E+02   -.270E-12 -.995E-13 0.568E-13   0.266E+01 0.194E+01 -.151E+02   0.394E-02 -.411E-02 0.117E+00
 
 
 POSITION                                       TOTAL-FORCE (eV/Angst)
 -----------------------------------------------------------------------------------
      8.63439     14.95579      7.42448        -0.001091     -0.001478      0.001947
     -1.23154      2.13832      7.42832        -0.000049      0.001374      0.000359
     -2.46605      4.27559      7.44709        -0.005452      0.000277     -0.001409
     13.56416      6.41335      7.46279         0.001274      0.000480     -0.003787
     -4.93343      8.54884      7.46390         0.002888      0.000488     -0.000647
     -6.15194     10.68821      7.45635        -0.003071      0.001895     -0.002001
     -7.40075     12.82501      7.43599        -0.002693      0.000144     -0.001106
      2.47317      0.01500      7.41923         0.001971      0.002854     -0.004390
      1.24430      2.15859      7.39672         0.000404      0.003121      0.001363
      0.00976      4.28374      7.39250        -0.001791     -0.000553     -0.001881
     -1.24051      6.41921      7.42223         0.003577     -0.000858     -0.001713
     -2.45287      8.55069      7.44594        -0.001824      0.001434     -0.006381
     -3.68112     10.68510      7.45702        -0.001135      0.001628     -0.003157
     -4.92588     12.82772      7.44769        -0.000015     -0.000052     -0.004882
      4.94376      0.00649      7.42005        -0.000544      0.001240      0.000460
      3.71748      2.15520      7.36440        -0.004355     -0.003627      0.001908
      2.50006      4.33157      7.27566         0.000024      0.001585     -0.001645
      1.18789      6.47330      7.27747        -0.001388      0.002647     -0.001232
      0.06625      8.51711      7.36756        -0.004473     -0.001247     -0.000120
     -1.20241     10.68250      7.42739         0.002458     -0.002961     -0.002441
     -2.45596     12.82469      7.44123         0.000953     -0.000211     -0.003020
      7.41201      0.00570      7.42333        -0.000857     -0.000831     -0.004132
      6.17236      2.15908      7.39258         0.001584      0.002567     -0.003834
      0.02099     12.80870      7.42103        -0.001844      0.002747     -0.001482
      1.23487     14.95590      7.42092         0.003596     -0.001741     -0.000714
      8.63227      2.14663      7.41951         0.000754      0.001700      0.001586
      7.40187      4.34558      7.39742         0.003024      0.001243      0.000240
      2.51934     12.79504      7.39521         0.004079      0.000140     -0.002761
      3.69667     14.95012      7.41457         0.000857     -0.000353      0.002402
     11.10090      2.14063      7.43754        -0.001733     -0.001080      0.000604
      9.85623      4.28329      7.43591        -0.001115      0.000690     -0.001140
      8.56974      6.37669      7.41234         0.005868     -0.000741     -0.004896
      4.86266     12.79652      7.35845         0.000938     -0.001713     -0.003636
      6.16323     14.94815      7.41377        -0.000268      0.003883     -0.000586
     13.56712      2.13414      7.44051         0.001129     -0.001279     -0.002579
     12.33110      4.27434      7.45696         0.002229      0.001108     -0.004277
     11.08907      6.41344      7.45262        -0.001752      0.003060     -0.002421
      9.85907      8.54605      7.43415        -0.002183     -0.002651     -0.003214
      8.65739     10.68066      7.40809         0.000650     -0.001319     -0.002356
      7.38435     12.79709      7.39834         0.002224      0.003068     -0.002092
      0.00722      1.43261      7.41953         0.000087      0.000343      0.002396
     -1.22814      3.56362      7.42755         0.003323     -0.000010      0.000604
     -2.47610      5.70051      7.45104         0.002078     -0.003199     -0.000544
     -3.69441      7.83973      7.46207        -0.002687     -0.000716     -0.003597
     -4.92128      9.97522      7.46264         0.000338      0.000868     -0.000650
     -6.16261     12.11310      7.44934         0.003454      0.001709      0.000746
     -7.39779     14.25019      7.42910         0.002448      0.001566     -0.003474
      2.47818      1.44027      7.39050         0.000295     -0.001028      0.003880
      1.25704      3.59090      7.36638        -0.002609     -0.003937      0.001392
     -0.01452      5.70788      7.37817        -0.002835     -0.002256     -0.002437
     -1.21582      7.84257      7.41636         0.000181      0.000976     -0.001687
     -2.44650      9.97512      7.44468         0.000865     -0.002305     -0.001743
     -3.68900     12.11436      7.45133        -0.004950      0.001136     -0.004423
     -4.92546     14.25474      7.42956        -0.001118     -0.001601     -0.003384
      4.94439      1.43911      7.39233         0.002223     -0.001771      0.002193
      3.77818      3.59188      7.31039        -0.001102     -0.000042     -0.000632
      0.07255     10.01207      7.39793        -0.004872     -0.002286     -0.002472
     -1.21472     12.10550      7.43228         0.003855      0.002571     -0.001465
     -2.45967     14.24855      7.43008         0.002431     -0.000642     -0.000936
      7.40585      1.43363      7.41319        -0.000143     -0.000546     -0.005916
      6.12128      3.59474      7.37166        -0.003462     -0.002258     -0.000999
      1.23919     12.04388      7.40517        -0.001213     -0.002950     -0.004343
      0.00861     14.24268      7.42291         0.000880     -0.000023     -0.003129
      9.86443      1.42655      7.42708         0.002509      0.002720      0.000932
      8.62010      3.58049      7.41816         0.003089      0.000243      0.001020
      2.46841     14.23050      7.41087         0.001959     -0.000774     -0.000989
     12.33310      1.42559      7.43414         0.000934     -0.004198     -0.003265
     11.09764      3.56432      7.44671        -0.002654     -0.000463     -0.002250
      9.84456      5.70623      7.43596        -0.000211     -0.001363     -0.002326
      8.57664      7.87140      7.39765         0.004789      0.003417     -0.001187
      7.45395      9.91438      7.33622        -0.001193     -0.005418     -0.004224
      6.14004     12.05539      7.33437        -0.001540     -0.002400     -0.002859
      4.92363     14.23363      7.39698         0.003579      0.001411     -0.002633
     14.80395      1.41647      7.43075        -0.000660     -0.001969     -0.001451
     13.56799      3.56114      7.45270         0.001052     -0.000183     -0.003410
     12.32372      5.70352      7.46168         0.001621      0.000252     -0.004141
     11.09610      7.83788      7.45411        -0.001192     -0.002096     -0.000979
      9.88367      9.96942      7.43882        -0.002514      0.001122     -0.001730
      8.63225     12.10475      7.41590        -0.002135     -0.000635      0.003155
      7.39717     14.22965      7.41666        -0.000110     -0.003285     -0.001757
      6.22626     10.65264      7.24456        -0.000756      0.001115     -0.001461
      2.41111      5.73161      7.15314        -0.001069     -0.000366     -0.002509
      5.12574      9.92760      7.03799        -0.002777      0.000067      0.001137
      3.50312      6.44592      6.87296         0.001957     -0.003916      0.003143
      4.94809      4.25648      7.32369         0.001262      0.001408      0.001961
      1.23349     10.69121      7.39226         0.003416      0.004695     -0.002344
      7.42738      8.55342      7.33737        -0.001348      0.004703     -0.001913
      1.21426      7.83469      7.28105         0.002784     -0.005308     -0.000732
      7.40825      5.69818      7.39660         0.000864     -0.004691     -0.004891
      3.69249     12.13279      7.36550        -0.001783      0.002572     -0.006708
      3.55195      8.48676      8.45047        -0.004486      0.002248     -0.001217
      4.90114      7.75653      8.49037        -0.001791      0.007455     -0.002257
      4.19617      8.09758      9.06996        -0.003911      0.003364      0.145566
 -----------------------------------------------------------------------------------
    total drift:                               -0.000104      0.000663     -0.014723


--------------------------------------------------------------------------------------------------------



  FREE ENERGIE OF THE ION-ELECTRON SYSTEM (eV)
  ---------------------------------------------------
  free  energy   TOTEN  =      -830.44328692 eV

  energy  without entropy=     -830.44310866  energy(sigma->0) =     -830.44319779
 
 d Force = 0.4544392E-04[ 0.339E-04, 0.570E-04]  d Energy = 0.4480289E-04 0.641E-06
 d Force =-0.5745698E-01[-0.573E-01,-0.576E-01]  d Ewald  =-0.5745688E-01-0.101E-06


--------------------------------------------------------------------------------------------------------


    POTLOK:  cpu time      1.1150: real time      1.1280


--------------------------------------------------------------------------------------------------------


 Conjugate gradient step on ions:
 trial-energy change:   -0.000045  1 .order   -0.000045   -0.000057   -0.000034
  (g-gl).g = 0.379E-04      g.g   = 0.349E-04  gl.gl    = 0.545E-04
 g(Force)  = 0.349E-04   g(Stress)= 0.000E+00 ortho     = 0.831E-06
 gamma     =   0.69575
 trial     =   1.60483
 opt step  =   3.96527  (harmonic =   3.96527) maximal distance =0.00091439
 next E    =  -830.443313   (d E  =  -0.00007)


--------------------------------------------------------------------------------------------------------


  
 reached required accuracy - stopping structural energy minimisation
     LOOP+:  cpu time    415.7098: real time    419.4704
    4ORBIT:  cpu time      0.0000: real time      0.0000

 total amount of memory used by VASP MPI-rank0   273439. kBytes
=======================================================================

   base      :      30000. kBytes
   nonl-proj :      20439. kBytes
   fftplans  :      19907. kBytes
   grid      :      16146. kBytes
   one-center:         24. kBytes
   wavefun   :     186923. kBytes
 
  
  
 General timing and accounting informations for this job:
 ========================================================
  
                  Total CPU time used (sec):    10616.431
                            User time (sec):    10591.710
                          System time (sec):       24.720
                         Elapsed time (sec):    10716.464
  
                   Maximum memory used (kb):      601772.
                   Average memory used (kb):          N/A
  
                          Minor page faults:      5453943
                          Major page faults:          154
                 Voluntary context switches:         5028
