 running   48 mpi-ranks, with    1 threads/rank, on    1 nodes
 distrk:  each k-point on   48 cores,    1 groups
 distr:  one band on   24 cores,    2 groups
 vasp.6.4.2 20Jul23 (build Jan 24 2024 13:44:02) complex                         
 POSCAR found type information on POSCAR C F N H O 
 POSCAR found :  5 types and      93 ions
 scaLAPACK will be used selectively (only on CPU)
 -----------------------------------------------------------------------------
|                                                                             |
|               ----> ADVICE to this user running VASP <----                  |
|                                                                             |
|     You have a (more or less) 'large supercell' and for larger cells it     |
|     might be more efficient to use real-space projection operators.         |
|     Therefore, try LREAL= Auto in the INCAR file.                           |
|     Mind: For very accurate calculation, you might also keep the            |
|     reciprocal projection scheme (i.e. LREAL=.FALSE.).                      |
|                                                                             |
 -----------------------------------------------------------------------------

 LDA part: xc-table for Pade appr. of Perdew
 POSCAR, INCAR and KPOINTS ok, starting setup
 FFT: planning ... GRIDC
 FFT: planning ... GRID_SOFT
 FFT: planning ... GRID
 WAVECAR not read
 entering main loop
       N       E                     dE             d eps       ncg     rms          rms(c)
DAV:   1     0.346891927619E+04    0.34689E+04   -0.14398E+05 11584   0.108E+03
DAV:   2    -0.187268775747E+03   -0.36562E+04   -0.34447E+04 15928   0.267E+02
DAV:   3    -0.840586290473E+03   -0.65332E+03   -0.65018E+03 13208   0.117E+02
DAV:   4    -0.863190004293E+03   -0.22604E+02   -0.22494E+02 13184   0.273E+01
DAV:   5    -0.863900389271E+03   -0.71038E+00   -0.70932E+00 15048   0.410E+00    0.512E+01
DAV:   6    -0.847545767617E+03    0.16355E+02   -0.20435E+01 12760   0.786E+00    0.333E+01
DAV:   7    -0.827696917195E+03    0.19849E+02   -0.30606E+01 12496   0.880E+00    0.202E+01
DAV:   8    -0.823067786232E+03    0.46291E+01   -0.21127E+01 12328   0.698E+00    0.794E+00
DAV:   9    -0.823096272861E+03   -0.28487E-01   -0.10571E+00 12664   0.186E+00    0.326E+00
DAV:  10    -0.822956404862E+03    0.13987E+00   -0.43048E-01 12048   0.114E+00    0.821E-01
DAV:  11    -0.822947725303E+03    0.86796E-02   -0.68734E-02 12344   0.491E-01    0.239E-01
DAV:  12    -0.822948088481E+03   -0.36318E-03   -0.80364E-03 13048   0.209E-01    0.111E-01
DAV:  13    -0.822948255244E+03   -0.16676E-03   -0.91954E-04 12592   0.628E-02    0.867E-02
DAV:  14    -0.822948287704E+03   -0.32461E-04   -0.26105E-04 12168   0.381E-02    0.449E-02
DAV:  15    -0.822948331922E+03   -0.44218E-04   -0.87869E-05 12072   0.194E-02    0.240E-02
DAV:  16    -0.822948334772E+03   -0.28498E-05   -0.28258E-05 12960   0.153E-02    0.973E-03
DAV:  17    -0.822948334390E+03    0.38157E-06   -0.95190E-06 11832   0.647E-03
   1 F= -.83044203E+03 E0= -.83044194E+03  d E =-.830442E+03  mag=     0.0002
 curvature:   0.00 expect dE= 0.000E+00 dE for cont linesearch  0.000E+00
 trial: gam= 0.00000 g(F)=  0.656E-03 g(S)=  0.000E+00 ort = 0.000E+00 (trialstep = 0.100E+01)
 search vector abs. value=  0.656E-03
 bond charge predicted
       N       E                     dE             d eps       ncg     rms          rms(c)
DAV:   1    -0.822948820678E+03   -0.48591E-03   -0.19328E-02 11576   0.280E-01    0.352E-02
DAV:   2    -0.822948844500E+03   -0.23822E-04   -0.44370E-04 13456   0.405E-02    0.294E-02
DAV:   3    -0.822948828292E+03    0.16209E-04   -0.24372E-05 12944   0.107E-02    0.196E-02
DAV:   4    -0.822948820149E+03    0.81430E-05   -0.35497E-05 11152   0.124E-02    0.524E-03
DAV:   5    -0.822948820339E+03   -0.19032E-06   -0.79871E-06 10552   0.516E-03
   2 F= -.83044248E+03 E0= -.83044239E+03  d E =-.441208E-03  mag=     0.0000
 trial-energy change:   -0.000441  1 .order   -0.000441   -0.000656   -0.000227
 step:   1.5290(harm=  1.5290)  dis= 0.00076  next Energy=  -830.442536 (dE=-0.501E-03)
 bond charge predicted
       N       E                     dE             d eps       ncg     rms          rms(c)
DAV:   1    -0.822948903839E+03   -0.83691E-04   -0.53904E-03 11464   0.148E-01    0.190E-02
DAV:   2    -0.822948911089E+03   -0.72495E-05   -0.12199E-04 13472   0.212E-02    0.155E-02
DAV:   3    -0.822948907044E+03    0.40442E-05   -0.67731E-06 12768   0.567E-03    0.103E-02
DAV:   4    -0.822948905389E+03    0.16558E-05   -0.88494E-06 10656   0.622E-03    0.297E-03
DAV:   5    -0.822948905418E+03   -0.29759E-07   -0.20979E-06  7176   0.275E-03
   3 F= -.83044254E+03 E0= -.83044245E+03  d E =-.502140E-03  mag=     0.0000
 curvature:  -0.76 expect dE=-0.701E-04 dE for cont linesearch -0.199E-09
 trial: gam= 0.14059 g(F)=  0.918E-04 g(S)=  0.000E+00 ort =-0.413E-06 (trialstep = 0.111E+01)
 search vector abs. value=  0.105E-03
 bond charge predicted
       N       E                     dE             d eps       ncg     rms          rms(c)
DAV:   1    -0.822948996609E+03   -0.91221E-04   -0.28950E-03 10944   0.113E-01    0.103E-02
DAV:   2    -0.822949000351E+03   -0.37422E-05   -0.50441E-05 13464   0.136E-02    0.887E-03
DAV:   3    -0.822948999761E+03    0.59002E-06   -0.14247E-06  9320   0.296E-03
   4 F= -.83044262E+03 E0= -.83044253E+03  d E =-.859854E-04  mag=     0.0000
 trial-energy change:   -0.000086  1 .order   -0.000087   -0.000101   -0.000072
 step:   3.8370(harm=  3.8370)  dis= 0.00110  next Energy=  -830.442713 (dE=-0.176E-03)
 bond charge predicted
       N       E                     dE             d eps       ncg     rms          rms(c)
DAV:   1    -0.822949080167E+03   -0.79816E-04   -0.17475E-02 10752   0.278E-01    0.267E-02
DAV:   2    -0.822949100814E+03   -0.20647E-04   -0.29181E-04 13448   0.328E-02    0.229E-02
DAV:   3    -0.822949097446E+03    0.33685E-05   -0.95152E-06 13456   0.716E-03    0.172E-02
DAV:   4    -0.822949097289E+03    0.15666E-06   -0.11029E-05 11120   0.745E-03    0.590E-03
DAV:   5    -0.822949097797E+03   -0.50789E-06   -0.26881E-06  8192   0.336E-03
   5 F= -.83044270E+03 E0= -.83044261E+03  d E =-.163030E-03  mag=    -0.0000
 curvature:  -2.19 expect dE=-0.245E-03 dE for cont linesearch -0.127E-05
 trial: gam= 1.30494 g(F)=  0.112E-03 g(S)=  0.000E+00 ort =-0.780E-05 (trialstep = 0.641E+00)
 search vector abs. value=  0.270E-03
 bond charge predicted
       N       E                     dE             d eps       ncg     rms          rms(c)
DAV:   1    -0.822949146088E+03   -0.48799E-04   -0.26307E-03 10752   0.106E-01    0.980E-03
DAV:   2    -0.822949149444E+03   -0.33561E-05   -0.46408E-05 13104   0.130E-02    0.836E-03
DAV:   3    -0.822949149030E+03    0.41405E-06   -0.11235E-06  8640   0.269E-03
   6 F= -.83044276E+03 E0= -.83044267E+03  d E =-.566647E-04  mag=    -0.0000
 ZBRENT: can't locate minimum, use default step
 trial-energy change:   -0.000057  1 .order   -0.000057   -0.000065   -0.000050
 step:   2.5640(harm=  2.7189)  dis= 0.00109  next Energy=  -830.442838 (dE=-0.138E-03)
 bond charge predicted
       N       E                     dE             d eps       ncg     rms          rms(c)
DAV:   1    -0.822949173810E+03   -0.24365E-04   -0.23382E-02 10712   0.317E-01    0.292E-02
DAV:   2    -0.822949202099E+03   -0.28289E-04   -0.39572E-04 12928   0.381E-02    0.252E-02
DAV:   3    -0.822949198114E+03    0.39852E-05   -0.11375E-05 13496   0.780E-03    0.192E-02
DAV:   4    -0.822949198018E+03    0.95875E-07   -0.12986E-05 10856   0.806E-03    0.609E-03
DAV:   5    -0.822949198808E+03   -0.78952E-06   -0.34514E-06  8512   0.349E-03
   7 F= -.83044282E+03 E0= -.83044273E+03  d E =-.122514E-03  mag=    -0.0000
 curvature:  -3.59 expect dE=-0.213E-03 dE for cont linesearch -0.101E-05
 trial: gam= 0.45411 g(F)=  0.595E-04 g(S)=  0.000E+00 ort =-0.870E-05 (trialstep = 0.103E+01)
 search vector abs. value=  0.107E-03
 bond charge predicted
       N       E                     dE             d eps       ncg     rms          rms(c)
DAV:   1    -0.822949247591E+03   -0.49573E-04   -0.28135E-03 10712   0.109E-01    0.101E-02
DAV:   2    -0.822949251457E+03   -0.38663E-05   -0.52458E-05 12480   0.138E-02    0.877E-03
DAV:   3    -0.822949250995E+03    0.46269E-06   -0.13417E-06  8910   0.275E-03
   8 F= -.83044287E+03 E0= -.83044278E+03  d E =-.518522E-04  mag=    -0.0000
 ZBRENT: can't locate minimum, use default step
 trial-energy change:   -0.000052  1 .order   -0.000053   -0.000057   -0.000048
 step:   4.1024(harm=  6.5286)  dis= 0.00071  next Energy=  -830.443004 (dE=-0.181E-03)
 bond charge predicted
       N       E                     dE             d eps       ncg     rms          rms(c)
DAV:   1    -0.822949312529E+03   -0.61072E-04   -0.24913E-02 10692   0.323E-01    0.309E-02
DAV:   2    -0.822949343536E+03   -0.31007E-04   -0.44604E-04 12304   0.404E-02    0.269E-02
DAV:   3    -0.822949338619E+03    0.49170E-05   -0.13686E-05 13500   0.830E-03    0.204E-02
DAV:   4    -0.822949338610E+03    0.93569E-08   -0.14082E-05 10826   0.863E-03    0.693E-03
DAV:   5    -0.822949339705E+03   -0.10954E-05   -0.43379E-06  8512   0.391E-03    0.363E-03
DAV:   6    -0.822949339771E+03   -0.65622E-07   -0.54876E-07  7376   0.168E-03
   9 F= -.83044296E+03 E0= -.83044287E+03  d E =-.139534E-03  mag=    -0.0000
 curvature:  -5.07 expect dE=-0.268E-03 dE for cont linesearch -0.543E-05
 ZBRENT: extrapolating
 opt :   5.0145  next Energy=  -830.442967 (dE=-0.144E-03)
 bond charge predicted
       N       E                     dE             d eps       ncg     rms          rms(c)
DAV:   1    -0.822949343187E+03   -0.34816E-05   -0.22297E-03 10708   0.967E-02    0.888E-03
DAV:   2    -0.822949346290E+03   -0.31030E-05   -0.42453E-05 12476   0.124E-02    0.768E-03
DAV:   3    -0.822949345860E+03    0.42942E-06   -0.10710E-06  8632   0.251E-03
  10 F= -.83044297E+03 E0= -.83044288E+03  d E =-.145242E-03  mag=    -0.0000
 curvature:  -4.56 expect dE=-0.330E-03 dE for cont linesearch -0.340E-06
 trial: gam= 1.13757 g(F)=  0.723E-04 g(S)=  0.000E+00 ort = 0.282E-05 (trialstep = 0.899E+00)
 search vector abs. value=  0.217E-03
 bond charge predicted
       N       E                     dE             d eps       ncg     rms          rms(c)
DAV:   1    -0.822949402596E+03   -0.56306E-04   -0.44200E-03 10700   0.136E-01    0.134E-02
DAV:   2    -0.822949407957E+03   -0.53612E-05   -0.79611E-05 12330   0.171E-02    0.116E-02
DAV:   3    -0.822949407062E+03    0.89538E-06   -0.24456E-06  9918   0.347E-03
  11 F= -.83044302E+03 E0= -.83044293E+03  d E =-.562705E-04  mag=    -0.0000
 trial-energy change:   -0.000056  1 .order   -0.000058   -0.000068   -0.000049
 step:   3.2221(harm=  3.2221)  dis= 0.00084  next Energy=  -830.443089 (dE=-0.122E-03)
 bond charge predicted
       N       E                     dE             d eps       ncg     rms          rms(c)
DAV:   1    -0.822949437024E+03   -0.29067E-04   -0.29571E-02 10680   0.351E-01    0.336E-02
DAV:   2    -0.822949474029E+03   -0.37005E-04   -0.53295E-04 12216   0.440E-02    0.292E-02
DAV:   3    -0.822949468320E+03    0.57086E-05   -0.17138E-05 13728   0.872E-03    0.221E-02
DAV:   4    -0.822949468732E+03   -0.41220E-06   -0.15900E-05 10584   0.917E-03    0.720E-03
DAV:   5    -0.822949470021E+03   -0.12887E-05   -0.51251E-06  9168   0.408E-03    0.364E-03
DAV:   6    -0.822949470075E+03   -0.53638E-07   -0.65084E-07  7104   0.180E-03
  12 F= -.83044307E+03 E0= -.83044298E+03  d E =-.106369E-03  mag=    -0.0000
 curvature:  -4.64 expect dE=-0.308E-03 dE for cont linesearch -0.202E-05
 trial: gam= 1.12640 g(F)=  0.664E-04 g(S)=  0.000E+00 ort =-0.972E-05 (trialstep = 0.926E+00)
 search vector abs. value=  0.320E-03
 bond charge predicted
       N       E                     dE             d eps       ncg     rms          rms(c)
DAV:   1    -0.822949505014E+03   -0.34993E-04   -0.69651E-03 10688   0.168E-01    0.150E-02
DAV:   2    -0.822949514286E+03   -0.92719E-05   -0.12831E-04 11792   0.215E-02    0.132E-02
DAV:   3    -0.822949513061E+03    0.12249E-05   -0.37424E-06 10736   0.414E-03    0.101E-02
DAV:   4    -0.822949513195E+03   -0.13451E-06   -0.46429E-06  9864   0.478E-03
  13 F= -.83044312E+03 E0= -.83044303E+03  d E =-.441085E-04  mag=    -0.0000
 trial-energy change:   -0.000044  1 .order   -0.000043   -0.000051   -0.000035
 step:   2.8436(harm=  2.8436)  dis= 0.00115  next Energy=  -830.443153 (dE=-0.788E-04)
 bond charge predicted
       N       E                     dE             d eps       ncg     rms          rms(c)
DAV:   1    -0.822949519066E+03   -0.60049E-05   -0.29847E-02 10668   0.348E-01    0.319E-02
DAV:   2    -0.822949556937E+03   -0.37872E-04   -0.53268E-04 11664   0.440E-02    0.280E-02
DAV:   3    -0.822949551755E+03    0.51823E-05   -0.16697E-05 13742   0.851E-03    0.213E-02
DAV:   4    -0.822949552832E+03   -0.10769E-05   -0.14329E-05 10670   0.885E-03    0.662E-03
DAV:   5    -0.822949553941E+03   -0.11086E-05   -0.45935E-06  9376   0.379E-03    0.335E-03
DAV:   6    -0.822949554017E+03   -0.76274E-07   -0.61821E-07  6832   0.176E-03
  14 F= -.83044316E+03 E0= -.83044307E+03  d E =-.869150E-04  mag=    -0.0000
 curvature:  -8.22 expect dE=-0.448E-03 dE for cont linesearch -0.404E-06
 trial: gam= 0.41723 g(F)=  0.545E-04 g(S)=  0.000E+00 ort = 0.397E-05 (trialstep = 0.131E+01)
 search vector abs. value=  0.114E-03
 bond charge predicted
       N       E                     dE             d eps       ncg     rms          rms(c)
DAV:   1    -0.822949598812E+03   -0.44871E-04   -0.49083E-03 10688   0.143E-01    0.139E-02
DAV:   2    -0.822949606251E+03   -0.74396E-05   -0.10216E-04 12496   0.192E-02    0.118E-02
DAV:   3    -0.822949605041E+03    0.12098E-05   -0.31620E-06 10312   0.384E-03    0.919E-03
DAV:   4    -0.822949604647E+03    0.39458E-06   -0.49644E-06  9938   0.476E-03
  15 F= -.83044322E+03 E0= -.83044313E+03  d E =-.572583E-04  mag=     0.0000
 trial-energy change:   -0.000057  1 .order   -0.000056   -0.000074   -0.000039
 step:   2.7876(harm=  2.7876)  dis= 0.00065  next Energy=  -830.443239 (dE=-0.783E-04)
 bond charge predicted
       N       E                     dE             d eps       ncg     rms          rms(c)
DAV:   1    -0.822949614061E+03   -0.90195E-05   -0.62653E-03 10680   0.162E-01    0.166E-02
DAV:   2    -0.822949623096E+03   -0.90356E-05   -0.12486E-04 12576   0.214E-02    0.141E-02
DAV:   3    -0.822949621693E+03    0.14036E-05   -0.40327E-06 11054   0.432E-03    0.108E-02
DAV:   4    -0.822949621559E+03    0.13405E-06   -0.56585E-06 10208   0.522E-03
  16 F= -.83044324E+03 E0= -.83044315E+03  d E =-.814468E-04  mag=     0.0000
 curvature:  -2.82 expect dE=-0.985E-04 dE for cont linesearch -0.171E-07
 trial: gam= 0.69575 g(F)=  0.349E-04 g(S)=  0.000E+00 ort = 0.831E-06 (trialstep = 0.160E+01)
 search vector abs. value=  0.911E-04
 bond charge predicted
       N       E                     dE             d eps       ncg     rms          rms(c)
DAV:   1    -0.822949661290E+03   -0.39598E-04   -0.55729E-03 10676   0.150E-01    0.145E-02
DAV:   2    -0.822949668160E+03   -0.68700E-05   -0.98566E-05 12300   0.190E-02    0.126E-02
DAV:   3    -0.822949667164E+03    0.99656E-06   -0.32593E-06 10656   0.404E-03
  17 F= -.83044329E+03 E0= -.83044320E+03  d E =-.448029E-04  mag=     0.0000
 trial-energy change:   -0.000045  1 .order   -0.000045   -0.000057   -0.000034
 step:   3.9653(harm=  3.9653)  dis= 0.00091  next Energy=  -830.443313 (dE=-0.704E-04)
 reached required accuracy - stopping structural energy minimisation
