<?xml version="1.0" encoding="ISO-8859-1"?>
<modeling>
 <generator>
  <i name="program" type="string">vasp </i>
  <i name="version" type="string">6.4.2  </i>
  <i name="subversion" type="string">20Jul23 (build Jan 24 2024 13:44:02) complex                          parallel </i>
  <i name="platform" type="string">LinuxNV </i>
  <i name="date" type="string">2025 11 25 </i>
  <i name="time" type="string">12:25:00 </i>
 </generator>
 <incar>
  <i type="int" name="ISTART">     0</i>
  <i type="string" name="ALGO">Normal</i>
  <i type="logical" name="ADDGRID"> T  </i>
  <i type="int" name="ISPIN">     2</i>
  <i type="int" name="IMIX">     4</i>
  <i name="AMIX">      0.20000000</i>
  <i name="BMIX">      0.00010000</i>
  <i name="AMIX_MAG">      0.80000000</i>
  <i name="BMIX_MAG">      0.00010000</i>
  <i type="int" name="ICHARG">     2</i>
  <i type="int" name="NELM">   200</i>
  <i type="int" name="IBRION">     2</i>
  <i name="EDIFF">      0.00000100</i>
  <i name="EDIFFG">     -0.01000000</i>
  <i type="int" name="NSW">   300</i>
  <i type="int" name="ISIF">     2</i>
  <i type="int" name="ISYM">     0</i>
  <i name="ENCUT">    520.00000000</i>
  <i name="POTIM">      0.10000000</i>
  <v name="MAGMOM">      0.60000000      0.60000000      0.60000000      0.60000000      0.60000000      0.60000000      0.60000000      0.60000000      0.60000000      0.60000000      0.60000000      0.60000000      0.60000000      0.60000000      0.60000000      0.60000000      0.60000000      0.60000000      0.60000000      0.60000000
      0.60000000      0.60000000      0.60000000      0.60000000      0.60000000      0.60000000      0.60000000      0.60000000      0.60000000      0.60000000      0.60000000      0.60000000      0.60000000      0.60000000      0.60000000      0.60000000      0.60000000      0.60000000      0.60000000      0.60000000
      0.60000000      0.60000000      0.60000000      0.60000000      0.60000000      0.60000000      0.60000000      0.60000000      0.60000000      0.60000000      0.60000000      0.60000000      0.60000000      0.60000000      0.60000000      0.60000000      0.60000000      0.60000000      0.60000000      0.60000000
      0.60000000      0.60000000      0.60000000      0.60000000      0.60000000      0.60000000      0.60000000      0.60000000      0.60000000      0.60000000      0.60000000      0.60000000      0.60000000      0.60000000      0.60000000      0.60000000      0.60000000      0.60000000      0.60000000      0.60000000
      0.60000000      0.60000000      0.60000000      0.60000000      0.60000000      0.60000000      0.60000000      0.60000000      0.60000000      0.60000000      0.60000000      0.60000000      0.60000000</v>
  <i type="logical" name="LREAL"> F  </i>
  <i type="int" name="ISMEAR">     0</i>
  <i name="SIGMA">      0.05000000</i>
  <i type="logical" name="LWAVE"> F  </i>
  <i type="logical" name="LCHARG"> F  </i>
  <i type="logical" name="LASPH"> T  </i>
  <i type="int" name="IVDW">    12</i>
 </incar>
 <primitive_cell>
  <structure name="primitive_cell" >
   <crystal>
    <varray name="basis" >
     <v>      17.27103806       0.00000000       0.00000000 </v>
     <v>      -8.63551903      14.95715771       0.00000000 </v>
     <v>       0.00000000       0.00000000      15.00000000 </v>
    </varray>
    <i name="volume">   3874.88459904 </i>
    <varray name="rec_basis" >
     <v>       0.05790040       0.03342881      -0.00000000 </v>
     <v>       0.00000000       0.06685762       0.00000000 </v>
     <v>       0.00000000      -0.00000000       0.06666667 </v>
    </varray>
   </crystal>
   <varray name="positions" >
    <v>       0.99988853       0.99991010       0.49472177 </v>
    <v>       0.00012958       0.14292155       0.49520169 </v>
    <v>       0.00008919       0.28582642       0.49669089 </v>
    <v>       0.99980760       0.42882174       0.49759126 </v>
    <v>       0.00016043       0.57161388       0.49751243 </v>
    <v>       0.00106109       0.71461299       0.49711261 </v>
    <v>       0.00021131       0.85747044       0.49574151 </v>
    <v>       0.14372606       0.00100296       0.49452299 </v>
    <v>       0.14417690       0.14432469       0.49307202 </v>
    <v>       0.14367824       0.28636592       0.49294960 </v>
    <v>       0.14272499       0.42916189       0.49511934 </v>
    <v>       0.14381780       0.57168812       0.49640961 </v>
    <v>       0.14406965       0.71443729       0.49723535 </v>
    <v>       0.14360609       0.85767248       0.49663957 </v>
    <v>       0.28649933       0.00050779       0.49499945 </v>
    <v>       0.28725933       0.14411575       0.49104425 </v>
    <v>       0.28948112       0.28956707       0.48484710 </v>
    <v>       0.28511229       0.43275118       0.48515409 </v>
    <v>       0.28851556       0.56942712       0.49122145 </v>
    <v>       0.28745072       0.71425724       0.49531341 </v>
    <v>       0.28653169       0.85748520       0.49638081 </v>
    <v>       0.42935346       0.00040524       0.49477915 </v>
    <v>       0.42960313       0.14435217       0.49277750 </v>
    <v>       0.42942162       0.85641231       0.49477385 </v>
    <v>       0.57153075       0.99992140       0.49468796 </v>
    <v>       0.57166529       0.14359187       0.49458747 </v>
    <v>       0.57387786       0.29056677       0.49329776 </v>
    <v>       0.57358926       0.85540599       0.49322329 </v>
    <v>       0.71384105       0.99951994       0.49449183 </v>
    <v>       0.71432256       0.14308240       0.49586601 </v>
    <v>       0.71393649       0.28635909       0.49600223 </v>
    <v>       0.70943992       0.42632799       0.49439652 </v>
    <v>       0.70931136       0.85549805       0.49087177 </v>
    <v>       0.85651078       0.99933636       0.49431659 </v>
    <v>       0.85690740       0.14263142       0.49593369 </v>
    <v>       0.85690499       0.28580139       0.49711226 </v>
    <v>       0.85649345       0.42879961       0.49692000 </v>
    <v>       0.85657625       0.57138487       0.49568138 </v>
    <v>       0.85824150       0.71408023       0.49392433 </v>
    <v>       0.85530478       0.85555669       0.49339992 </v>
    <v>       0.04827085       0.09576830       0.49456505 </v>
    <v>       0.04794435       0.23821787       0.49534507 </v>
    <v>       0.04717396       0.38112559       0.49703136 </v>
    <v>       0.04818186       0.52419379       0.49744646 </v>
    <v>       0.04849878       0.66698558       0.49753166 </v>
    <v>       0.04812104       0.80991693       0.49667894 </v>
    <v>       0.04806297       0.95275793       0.49513940 </v>
    <v>       0.19164753       0.09634370       0.49268205 </v>
    <v>       0.19276006       0.24006458       0.49098639 </v>
    <v>       0.18989275       0.38157185       0.49209606 </v>
    <v>       0.19173132       0.52434471       0.49458356 </v>
    <v>       0.19183425       0.66698590       0.49632905 </v>
    <v>       0.19138768       0.80998700       0.49698972 </v>
    <v>       0.19135635       0.95307453       0.49548153 </v>
    <v>       0.33441399       0.09624507       0.49298972 </v>
    <v>       0.33879618       0.24015787       0.48727026 </v>
    <v>       0.33885007       0.66939875       0.49323859 </v>
    <v>       0.33434292       0.80942530       0.49566888 </v>
    <v>       0.33393736       0.95271068       0.49560024 </v>
    <v>       0.47676710       0.09590229       0.49403178 </v>
    <v>       0.47462650       0.24041480       0.49138145 </v>
    <v>       0.47439409       0.80523755       0.49376709 </v>
    <v>       0.47662414       0.95221337       0.49477787 </v>
    <v>       0.61892407       0.09541895       0.49511175 </v>
    <v>       0.61886228       0.23939254       0.49475443 </v>
    <v>       0.61868612       0.95147784       0.49415438 </v>
    <v>       0.76176670       0.09526340       0.49557926 </v>
    <v>       0.76175717       0.23831762       0.49648362 </v>
    <v>       0.76083198       0.38149698       0.49597193 </v>
    <v>       0.75975176       0.52623524       0.49330415 </v>
    <v>       0.76291788       0.66280271       0.48916030 </v>
    <v>       0.75845097       0.80595512       0.48911921 </v>
    <v>       0.76089448       0.95157444       0.49331438 </v>
    <v>       0.90448251       0.09466326       0.49527168 </v>
    <v>       0.90462418       0.23805476       0.49682442 </v>
    <v>       0.90424155       0.38133502       0.49753466 </v>
    <v>       0.90451925       0.52409310       0.49701551 </v>
    <v>       0.90551458       0.66656723       0.49594716 </v>
    <v>       0.90441910       0.80928845       0.49451796 </v>
    <v>       0.90396031       0.95134751       0.49447298 </v>
    <v>       0.71651519       0.71213950       0.48301049 </v>
    <v>       0.33115794       0.38320706       0.47680935 </v>
    <v>       0.62859330       0.66371046       0.46900055 </v>
    <v>       0.41830057       0.43088636       0.45834866 </v>
    <v>       0.42879422       0.28459880       0.48816120 </v>
    <v>       0.42878095       0.71480104       0.49280540 </v>
    <v>       0.71597771       0.57178966       0.48923338 </v>
    <v>       0.33213969       0.52378739       0.48532576 </v>
    <v>       0.61952530       0.38097358       0.49325065 </v>
    <v>       0.61934717       0.81114287       0.49132910 </v>
    <v>       0.48948263       0.56731559       0.56328545 </v>
    <v>       0.54296074       0.51827393       0.56601150 </v>
    <v>       0.51364103       0.54119833       0.60466391 </v>
   </varray>
  </structure>
  <varray name="primitive_index" >
   <v type="int" >        1 </v>
   <v type="int" >        2 </v>
   <v type="int" >        3 </v>
   <v type="int" >        4 </v>
   <v type="int" >        5 </v>
   <v type="int" >        6 </v>
   <v type="int" >        7 </v>
   <v type="int" >        8 </v>
   <v type="int" >        9 </v>
   <v type="int" >       10 </v>
   <v type="int" >       11 </v>
   <v type="int" >       12 </v>
   <v type="int" >       13 </v>
   <v type="int" >       14 </v>
   <v type="int" >       15 </v>
   <v type="int" >       16 </v>
   <v type="int" >       17 </v>
   <v type="int" >       18 </v>
   <v type="int" >       19 </v>
   <v type="int" >       20 </v>
   <v type="int" >       21 </v>
   <v type="int" >       22 </v>
   <v type="int" >       23 </v>
   <v type="int" >       24 </v>
   <v type="int" >       25 </v>
   <v type="int" >       26 </v>
   <v type="int" >       27 </v>
   <v type="int" >       28 </v>
   <v type="int" >       29 </v>
   <v type="int" >       30 </v>
   <v type="int" >       31 </v>
   <v type="int" >       32 </v>
   <v type="int" >       33 </v>
   <v type="int" >       34 </v>
   <v type="int" >       35 </v>
   <v type="int" >       36 </v>
   <v type="int" >       37 </v>
   <v type="int" >       38 </v>
   <v type="int" >       39 </v>
   <v type="int" >       40 </v>
   <v type="int" >       41 </v>
   <v type="int" >       42 </v>
   <v type="int" >       43 </v>
   <v type="int" >       44 </v>
   <v type="int" >       45 </v>
   <v type="int" >       46 </v>
   <v type="int" >       47 </v>
   <v type="int" >       48 </v>
   <v type="int" >       49 </v>
   <v type="int" >       50 </v>
   <v type="int" >       51 </v>
   <v type="int" >       52 </v>
   <v type="int" >       53 </v>
   <v type="int" >       54 </v>
   <v type="int" >       55 </v>
   <v type="int" >       56 </v>
   <v type="int" >       57 </v>
   <v type="int" >       58 </v>
   <v type="int" >       59 </v>
   <v type="int" >       60 </v>
   <v type="int" >       61 </v>
   <v type="int" >       62 </v>
   <v type="int" >       63 </v>
   <v type="int" >       64 </v>
   <v type="int" >       65 </v>
   <v type="int" >       66 </v>
   <v type="int" >       67 </v>
   <v type="int" >       68 </v>
   <v type="int" >       69 </v>
   <v type="int" >       70 </v>
   <v type="int" >       71 </v>
   <v type="int" >       72 </v>
   <v type="int" >       73 </v>
   <v type="int" >       74 </v>
   <v type="int" >       75 </v>
   <v type="int" >       76 </v>
   <v type="int" >       77 </v>
   <v type="int" >       78 </v>
   <v type="int" >       79 </v>
   <v type="int" >       80 </v>
   <v type="int" >       81 </v>
   <v type="int" >       82 </v>
   <v type="int" >       83 </v>
   <v type="int" >       84 </v>
   <v type="int" >       85 </v>
   <v type="int" >       86 </v>
   <v type="int" >       87 </v>
   <v type="int" >       88 </v>
   <v type="int" >       89 </v>
   <v type="int" >       90 </v>
   <v type="int" >       91 </v>
   <v type="int" >       92 </v>
   <v type="int" >       93 </v>
  </varray>
 </primitive_cell>
 <kpoints>
  <generation param="Gamma">
   <v type="int" name="divisions">       4        4        1 </v>
   <v name="usershift">      0.00000000       0.00000000       0.00000000 </v>
   <v name="genvec1">      0.25000000       0.00000000       0.00000000 </v>
   <v name="genvec2">      0.00000000       0.25000000       0.00000000 </v>
   <v name="genvec3">      0.00000000       0.00000000       1.00000000 </v>
   <v name="shift">      0.00000000       0.00000000       0.00000000 </v>
  </generation>
  <varray name="kpointlist" >
   <v>       0.00000000       0.00000000       0.00000000 </v>
   <v>       0.25000000       0.00000000       0.00000000 </v>
   <v>       0.00000000       0.25000000       0.00000000 </v>
   <v>      -0.25000000       0.25000000       0.00000000 </v>
   <v>       0.50000000       0.00000000       0.00000000 </v>
   <v>       0.00000000       0.50000000       0.00000000 </v>
   <v>       0.50000000       0.50000000       0.00000000 </v>
   <v>       0.25000000       0.25000000       0.00000000 </v>
   <v>      -0.25000000       0.50000000       0.00000000 </v>
   <v>       0.50000000       0.25000000       0.00000000 </v>
  </varray>
  <varray name="weights" >
   <v>       0.06250000 </v>
   <v>       0.12500000 </v>
   <v>       0.12500000 </v>
   <v>       0.12500000 </v>
   <v>       0.06250000 </v>
   <v>       0.06250000 </v>
   <v>       0.06250000 </v>
   <v>       0.12500000 </v>
   <v>       0.12500000 </v>
   <v>       0.12500000 </v>
  </varray>
 </kpoints>
 <parameters>
  <separator name="general" >
   <i type="string" name="SYSTEM">unknown system</i>
   <i type="logical" name="LCOMPAT"> F  </i>
  </separator>
  <separator name="electronic" >
   <i type="string" name="PREC">normal</i>
   <i name="ENMAX">    520.00000000</i>
   <i name="ENAUG">    644.87300000</i>
   <i name="EDIFF">      0.00000100</i>
   <i type="int" name="IALGO">    38</i>
   <i type="int" name="IWAVPR">    11</i>
   <i type="int" name="NBANDS">   266</i>
   <i type="int" name="NBANDSLOW">    -1</i>
   <i type="int" name="NBANDSHIGH">    -1</i>
   <i name="NELECT">    380.00000000</i>
   <i type="int" name="TURBO">     0</i>
   <i type="int" name="IRESTART">     0</i>
   <i type="int" name="NREBOOT">     0</i>
   <i type="int" name="NMIN">     0</i>
   <i name="EREF">      0.00000000</i>
   <separator name="electronic smearing" >
    <i type="int" name="ISMEAR">     0</i>
    <i name="SIGMA">      0.05000000</i>
    <i name="KSPACING">      0.50000000</i>
    <i type="logical" name="KGAMMA"> T  </i>
    <i type="logical" name="KBLOWUP"> T  </i>
   </separator>
   <separator name="electronic projectors" >
    <i type="logical" name="LREAL"> F  </i>
    <v name="ROPT">      0.00000000      0.00000000      0.00000000      0.00000000      0.00000000</v>
    <i type="int" name="LMAXPAW">  -100</i>
    <i type="int" name="LMAXMIX">     2</i>
    <i type="logical" name="NLSPLINE"> F  </i>
   </separator>
   <separator name="electronic startup" >
    <i type="int" name="ISTART">     0</i>
    <i type="int" name="ICHARG">     2</i>
    <i type="int" name="INIWAV">     1</i>
   </separator>
   <separator name="electronic spin" >
    <i type="int" name="ISPIN">     2</i>
    <i type="logical" name="LNONCOLLINEAR"> F  </i>
    <v name="MAGMOM">      0.60000000      0.60000000      0.60000000      0.60000000      0.60000000      0.60000000      0.60000000      0.60000000      0.60000000      0.60000000      0.60000000      0.60000000      0.60000000      0.60000000      0.60000000      0.60000000      0.60000000      0.60000000      0.60000000      0.60000000
      0.60000000      0.60000000      0.60000000      0.60000000      0.60000000      0.60000000      0.60000000      0.60000000      0.60000000      0.60000000      0.60000000      0.60000000      0.60000000      0.60000000      0.60000000      0.60000000      0.60000000      0.60000000      0.60000000      0.60000000
      0.60000000      0.60000000      0.60000000      0.60000000      0.60000000      0.60000000      0.60000000      0.60000000      0.60000000      0.60000000      0.60000000      0.60000000      0.60000000      0.60000000      0.60000000      0.60000000      0.60000000      0.60000000      0.60000000      0.60000000
      0.60000000      0.60000000      0.60000000      0.60000000      0.60000000      0.60000000      0.60000000      0.60000000      0.60000000      0.60000000      0.60000000      0.60000000      0.60000000      0.60000000      0.60000000      0.60000000      0.60000000      0.60000000      0.60000000      0.60000000
      0.60000000      0.60000000      0.60000000      0.60000000      0.60000000      0.60000000      0.60000000      0.60000000      0.60000000      0.60000000      0.60000000      0.60000000      0.60000000</v>
    <i name="NUPDOWN">     -1.00000000</i>
    <i type="logical" name="LSORBIT"> F  </i>
    <v name="SAXIS">      0.00000000      0.00000000      1.00000000</v>
    <i type="logical" name="LSPIRAL"> F  </i>
    <v name="QSPIRAL">      0.00000000      0.00000000      0.00000000</v>
    <i type="logical" name="LZEROZ"> F  </i>
   </separator>
   <separator name="electronic exchange-correlation" >
    <i type="logical" name="LASPH"> T  </i>
    <i type="logical" name="LMETAGGA"> F  </i>
   </separator>
   <separator name="electronic convergence" >
    <i type="int" name="NELM">   200</i>
    <i type="int" name="NELMDL">    -5</i>
    <i type="int" name="NELMIN">     2</i>
    <i name="ENINI">    520.00000000</i>
    <separator name="electronic convergence detail" >
     <i type="logical" name="LDIAG"> T  </i>
     <i type="logical" name="LSUBROT"> F  </i>
     <i name="WEIMIN">      0.00100000</i>
     <i name="EBREAK">      0.00000000</i>
     <i name="DEPER">      0.30000000</i>
     <i type="int" name="NRMM">     4</i>
     <i name="TIME">      0.40000000</i>
    </separator>
   </separator>
   <separator name="electronic mixer" >
    <i name="AMIX">      0.20000000</i>
    <i name="BMIX">      0.00010000</i>
    <i name="AMIN">      0.10000000</i>
    <i name="AMIX_MAG">      0.80000000</i>
    <i name="BMIX_MAG">      0.00010000</i>
    <separator name="electronic mixer details" >
     <i type="int" name="IMIX">     4</i>
     <i type="logical" name="MIXFIRST"> F  </i>
     <i type="int" name="MAXMIX">   -45</i>
     <i name="WC">    100.00000000</i>
     <i type="int" name="INIMIX">     1</i>
     <i type="int" name="MIXPRE">     1</i>
     <i type="int" name="MREMOVE">     5</i>
    </separator>
   </separator>
   <separator name="electronic dipolcorrection" >
    <i type="logical" name="LDIPOL"> F  </i>
    <i type="logical" name="LMONO"> F  </i>
    <i type="int" name="IDIPOL">     0</i>
    <i name="EPSILON">      1.00000000</i>
    <v name="DIPOL">   -100.00000000   -100.00000000   -100.00000000</v>
    <i name="EFIELD">      0.00000000</i>
   </separator>
  </separator>
  <separator name="grids" >
   <i type="int" name="NGX">    96</i>
   <i type="int" name="NGY">    96</i>
   <i type="int" name="NGZ">    84</i>
   <i type="int" name="NGXF">   192</i>
   <i type="int" name="NGYF">   192</i>
   <i type="int" name="NGZF">   168</i>
   <i type="logical" name="ADDGRID"> T  </i>
  </separator>
  <separator name="ionic" >
   <i type="int" name="NSW">   300</i>
   <i type="int" name="IBRION">     2</i>
   <i type="int" name="MDALGO">     0</i>
   <i type="int" name="ISIF">     2</i>
   <i name="PSTRESS">      0.00000000</i>
   <i name="EDIFFG">     -0.01000000</i>
   <i type="int" name="NFREE">     1</i>
   <i name="POTIM">      0.10000000</i>
   <i name="SMASS">     -3.00000000</i>
   <i name="SCALEE">      1.00000000</i>
  </separator>
  <separator name="ionic md" >
   <i name="TEBEG">      0.00010000</i>
   <i name="TEEND">      0.00010000</i>
   <i type="int" name="NBLOCK">     1</i>
   <i type="int" name="KBLOCK">   300</i>
   <i type="int" name="NPACO">   256</i>
   <i name="APACO">     10.00000000</i>
  </separator>
  <separator name="symmetry" >
   <i type="int" name="ISYM">     0</i>
   <i name="SYMPREC">      0.00001000</i>
  </separator>
  <separator name="dos" >
   <i type="int" name="LORBIT">     0</i>
   <v name="RWIGS">     -1.00000000     -1.00000000     -1.00000000     -1.00000000     -1.00000000</v>
   <i type="int" name="NEDOS">   301</i>
   <i name="EMIN">     10.00000000</i>
   <i name="EMAX">    -10.00000000</i>
   <i name="EFERMI">      0.00000000</i>
  </separator>
  <separator name="writing" >
   <i type="int" name="NWRITE">     2</i>
   <i type="logical" name="LWAVE"> F  </i>
   <i type="logical" name="LDOWNSAMPLE"> F  </i>
   <i type="logical" name="LCHARG"> F  </i>
   <i type="logical" name="LPARD"> F  </i>
   <i type="logical" name="LVTOT"> F  </i>
   <i type="logical" name="LVHAR"> F  </i>
   <i type="logical" name="LELF"> F  </i>
   <i type="logical" name="LOPTICS"> F  </i>
   <v name="STM">      0.00000000      0.00000000      0.00000000      0.00000000      0.00000000      0.00000000      0.00000000</v>
  </separator>
  <separator name="performance" >
   <i type="int" name="NPAR">     2</i>
   <i type="int" name="NSIM">     4</i>
   <i type="int" name="NBLK">    -1</i>
   <i type="logical" name="LPLANE"> T  </i>
   <i type="logical" name="LSCALAPACK"> T  </i>
   <i type="logical" name="LSCAAWARE"> F  </i>
   <i type="logical" name="LSCALU"> F  </i>
   <i type="logical" name="LASYNC"> F  </i>
   <i type="logical" name="LORBITALREAL"> F  </i>
  </separator>
  <separator name="miscellaneous" >
   <i type="int" name="IDIOT">     3</i>
   <i type="int" name="PHON_NSTRUCT">    -1</i>
   <i type="logical" name="LMUSIC"> F  </i>
   <v name="POMASS">     12.01100000     18.99800000     14.00100000      1.00000000     16.00000000</v>
   <v name="DARWINR">      0.00000000      0.00000000      0.00000000      0.00000000      0.00000000</v>
   <v name="DARWINV">      1.00000000      1.00000000      1.00000000      1.00000000      1.00000000</v>
   <i type="logical" name="LCORR"> T  </i>
  </separator>
  <i type="logical" name="GGA_COMPAT"> T  </i>
  <i type="logical" name="LBERRY"> F  </i>
  <i type="int" name="ICORELEVEL">     0</i>
  <i type="logical" name="LDAU"> F  </i>
  <i type="int" name="I_CONSTRAINED_M">     0</i>
  <separator name="electronic exchange-correlation" >
   <i type="string" name="GGA">--</i>
   <i type="int" name="VOSKOWN">     0</i>
   <i type="logical" name="LHFCALC"> F  </i>
   <i type="string" name="PRECFOCK"></i>
   <i type="logical" name="LSYMGRAD"> F  </i>
   <i type="logical" name="LHFONE"> F  </i>
   <i type="logical" name="LRHFCALC"> F  </i>
   <i type="logical" name="LTHOMAS"> F  </i>
   <i type="logical" name="LMODELHF"> F  </i>
   <i type="logical" name="LFOCKACE"> F  </i>
   <i name="ENCUT4O">     -1.00000000</i>
   <i type="int" name="EXXOEP">     0</i>
   <i type="int" name="FOURORBIT">     0</i>
   <i name="AEXX">      0.00000000</i>
   <i name="HFALPHA">      0.00000000</i>
   <i name="MCALPHA">      0.00000000</i>
   <i name="ALDAX">      1.00000000</i>
   <i name="AGGAX">      1.00000000</i>
   <i name="ALDAC">      1.00000000</i>
   <i name="AGGAC">      1.00000000</i>
   <i type="int" name="NKREDX">     1</i>
   <i type="int" name="NKREDY">     1</i>
   <i type="int" name="NKREDZ">     1</i>
   <i type="logical" name="SHIFTRED"> F  </i>
   <i type="logical" name="ODDONLY"> F  </i>
   <i type="logical" name="EVENONLY"> F  </i>
   <i type="int" name="LMAXFOCK">     0</i>
   <i type="int" name="NMAXFOCKAE">     0</i>
   <i type="logical" name="LFOCKAEDFT"> F  </i>
   <i name="HFSCREEN">      0.00000000</i>
   <i name="HFSCREENC">      0.00000000</i>
   <i type="int" name="NBANDSGWLOW">     0</i>
  </separator>
  <separator name="vdW DFT" >
   <i type="logical" name="LUSE_VDW"> F  </i>
   <i type="int" name="IVDW_NL">     1</i>
   <i type="logical" name="LSPIN_VDW"> F  </i>
   <i name="Zab_VDW">     -0.84910000</i>
   <i name="PARAM1">      0.12340000</i>
   <i name="PARAM2">      1.00000000</i>
   <i name="PARAM3">      0.00000000</i>
  </separator>
  <separator name="model GW" >
   <i type="int" name="MODEL_GW">     0</i>
   <i name="MODEL_EPS0">     24.99925548</i>
   <i name="MODEL_ALPHA">      1.00000000</i>
  </separator>
  <separator name="linear response parameters" >
   <i type="logical" name="LEPSILON"> F  </i>
   <i type="logical" name="LRPA"> F  </i>
   <i type="logical" name="LNABLA"> F  </i>
   <i type="logical" name="LVEL"> F  </i>
   <i name="CSHIFT">      0.10000000</i>
   <i name="OMEGAMAX">     -1.00000000</i>
   <i name="DEG_THRESHOLD">      0.00200000</i>
   <i name="RTIME">     -0.10000000</i>
   <i name="WPLASMAI">      0.00000000</i>
   <v name="DFIELD">      0.00000000      0.00000000      0.00000000</v>
   <v name="WPLASMA">      0.00000000      0.00000000      0.00000000      0.00000000      0.00000000      0.00000000      0.00000000      0.00000000      0.00000000</v>
  </separator>
  <separator name="orbital magnetization" >
   <i type="logical" name="NUCIND"> F  </i>
   <v name="MAGPOS">      0.00000000      0.00000000      0.00000000</v>
   <i type="logical" name="LNICSALL"> T  </i>
   <i type="logical" name="ORBITALMAG"> F  </i>
   <i type="logical" name="LMAGBLOCH"> F  </i>
   <i type="logical" name="LCHIMAG"> F  </i>
   <i type="logical" name="LGAUGE"> T  </i>
   <i type="int" name="MAGATOM">     0</i>
   <v name="MAGDIPOL">      0.00000000      0.00000000      0.00000000</v>
   <v name="AVECCONST">      0.00000000      0.00000000      0.00000000</v>
  </separator>
  <separator name="response functions" >
   <i type="logical" name="LALL_IN_ONE"> F  </i>
   <i type="int" name="IALL_IN_ONE">    -1</i>
   <i type="int" name="NBANDS_WAVE">    -1</i>
   <i type="logical" name="LFINITE_TEMPERATURE"> F  </i>
   <i type="logical" name="LADDER"> F  </i>
   <i type="logical" name="LRPAFORCE"> F  </i>
   <i type="logical" name="LFXC"> F  </i>
   <i type="logical" name="LHARTREE"> T  </i>
   <i type="int" name="IBSE">     0</i>
   <v type="int" name="KPOINT">    -1     0     0     0</v>
   <i type="logical" name="LTCTC"> F  </i>
   <i type="logical" name="LTCTE"> F  </i>
   <i type="logical" name="LTETE"> F  </i>
   <i type="logical" name="LTRIPLET"> F  </i>
   <i type="logical" name="LFXCEPS"> F  </i>
   <i type="logical" name="LFXHEG"> F  </i>
   <i type="int" name="NATURALO">     2</i>
   <i type="logical" name="LHOLEGF"> F  </i>
   <i type="logical" name="L2ORDER"> F  </i>
   <i type="logical" name="LDMP1"> F  </i>
   <i type="logical" name="LMP2LT"> F  </i>
   <i type="logical" name="LSMP2LT"> F  </i>
   <i type="logical" name="LGWLF"> F  </i>
   <i name="ENCUTGW">     -1.60000002</i>
   <i name="ENCUTGWSOFT">     -1.60000002</i>
   <i name="ENCUTLF">     -1.00000000</i>
   <i type="logical" name="LESF_SPLINES"> F  </i>
   <i type="int" name="LMAXMP2">    -1</i>
   <i name="SCISSOR">      0.00000000</i>
   <i type="int" name="NOMEGA">     0</i>
   <i type="int" name="NOMEGAR">     0</i>
   <i type="int" name="NBANDSGW">    -1</i>
   <i type="int" name="NBANDSO">    -1</i>
   <i type="int" name="NBANDSV">    -1</i>
   <i type="int" name="NELMGW">     1</i>
   <i type="int" name="NELMHF">     1</i>
   <i type="int" name="DIM">     3</i>
   <i type="int" name="IESPILON">     4</i>
   <i type="int" name="ANTIRES">     0</i>
   <i name="OMEGAMAX">    -30.00000000</i>
   <i name="OMEGAMIN">    -30.00000000</i>
   <i name="OMEGATL">   -200.00000000</i>
   <i type="int" name="OMEGAGRID">     0</i>
   <i name="CSHIFT">     -0.10000000</i>
   <i type="logical" name="LSELFENERGY"> F  </i>
   <i type="logical" name="LSPECTRAL"> F  </i>
   <i type="logical" name="LSPECTRALGW"> F  </i>
   <i type="logical" name="LSINGLES"> F  </i>
   <i type="logical" name="LFERMIGW"> F  </i>
   <i type="logical" name="ODDONLYGW"> F  </i>
   <i type="logical" name="EVENONLYGW"> F  </i>
   <i type="int" name="NKREDLFX">     1</i>
   <i type="int" name="NKREDLFY">     1</i>
   <i type="int" name="NKREDLFZ">     1</i>
   <i type="int" name="MAXMEM">  2800</i>
   <i type="int" name="TELESCOPE">     0</i>
   <i type="int" name="NTAUPAR">    -1</i>
   <i type="int" name="NOMEGAPAR">    -1</i>
   <i name="DAMP_NEWTON">      0.80000001</i>
   <i name="LAMBDA">      1.00000000</i>
  </separator>
  <separator name="External order field" >
   <i name="OFIELD_KAPPA">      0.00000000</i>
   <v name="OFIELD_K">      0.00000000      0.00000000      0.00000000</v>
   <i name="OFIELD_Q6_NEAR">      0.00000000</i>
   <i name="OFIELD_Q6_FAR">      0.00000000</i>
   <i name="OFIELD_A">      0.00000000</i>
  </separator>
  <separator name="optional k-points parameters" >
   <i type="int" name="KPOINTS_OPT_MODE">     1</i>
   <i type="logical" name="LKPOINTS_OPT"> F  </i>
  </separator>
 </parameters>
 <atominfo>
  <atoms>      93 </atoms>
  <types>       5 </types>
  <array name="atoms" >
   <dimension dim="1">ion</dimension>
   <field type="string">element</field>
   <field type="int">atomtype</field>
   <set>
    <rc><c>C </c><c>   1</c></rc>
    <rc><c>C </c><c>   1</c></rc>
    <rc><c>C </c><c>   1</c></rc>
    <rc><c>C </c><c>   1</c></rc>
    <rc><c>C </c><c>   1</c></rc>
    <rc><c>C </c><c>   1</c></rc>
    <rc><c>C </c><c>   1</c></rc>
    <rc><c>C </c><c>   1</c></rc>
    <rc><c>C </c><c>   1</c></rc>
    <rc><c>C </c><c>   1</c></rc>
    <rc><c>C </c><c>   1</c></rc>
    <rc><c>C </c><c>   1</c></rc>
    <rc><c>C </c><c>   1</c></rc>
    <rc><c>C </c><c>   1</c></rc>
    <rc><c>C </c><c>   1</c></rc>
    <rc><c>C </c><c>   1</c></rc>
    <rc><c>C </c><c>   1</c></rc>
    <rc><c>C </c><c>   1</c></rc>
    <rc><c>C </c><c>   1</c></rc>
    <rc><c>C </c><c>   1</c></rc>
    <rc><c>C </c><c>   1</c></rc>
    <rc><c>C </c><c>   1</c></rc>
    <rc><c>C </c><c>   1</c></rc>
    <rc><c>C </c><c>   1</c></rc>
    <rc><c>C </c><c>   1</c></rc>
    <rc><c>C </c><c>   1</c></rc>
    <rc><c>C </c><c>   1</c></rc>
    <rc><c>C </c><c>   1</c></rc>
    <rc><c>C </c><c>   1</c></rc>
    <rc><c>C </c><c>   1</c></rc>
    <rc><c>C </c><c>   1</c></rc>
    <rc><c>C </c><c>   1</c></rc>
    <rc><c>C </c><c>   1</c></rc>
    <rc><c>C </c><c>   1</c></rc>
    <rc><c>C </c><c>   1</c></rc>
    <rc><c>C </c><c>   1</c></rc>
    <rc><c>C </c><c>   1</c></rc>
    <rc><c>C </c><c>   1</c></rc>
    <rc><c>C </c><c>   1</c></rc>
    <rc><c>C </c><c>   1</c></rc>
    <rc><c>C </c><c>   1</c></rc>
    <rc><c>C </c><c>   1</c></rc>
    <rc><c>C </c><c>   1</c></rc>
    <rc><c>C </c><c>   1</c></rc>
    <rc><c>C </c><c>   1</c></rc>
    <rc><c>C </c><c>   1</c></rc>
    <rc><c>C </c><c>   1</c></rc>
    <rc><c>C </c><c>   1</c></rc>
    <rc><c>C </c><c>   1</c></rc>
    <rc><c>C </c><c>   1</c></rc>
    <rc><c>C </c><c>   1</c></rc>
    <rc><c>C </c><c>   1</c></rc>
    <rc><c>C </c><c>   1</c></rc>
    <rc><c>C </c><c>   1</c></rc>
    <rc><c>C </c><c>   1</c></rc>
    <rc><c>C </c><c>   1</c></rc>
    <rc><c>C </c><c>   1</c></rc>
    <rc><c>C </c><c>   1</c></rc>
    <rc><c>C </c><c>   1</c></rc>
    <rc><c>C </c><c>   1</c></rc>
    <rc><c>C </c><c>   1</c></rc>
    <rc><c>C </c><c>   1</c></rc>
    <rc><c>C </c><c>   1</c></rc>
    <rc><c>C </c><c>   1</c></rc>
    <rc><c>C </c><c>   1</c></rc>
    <rc><c>C </c><c>   1</c></rc>
    <rc><c>C </c><c>   1</c></rc>
    <rc><c>C </c><c>   1</c></rc>
    <rc><c>C </c><c>   1</c></rc>
    <rc><c>C </c><c>   1</c></rc>
    <rc><c>C </c><c>   1</c></rc>
    <rc><c>C </c><c>   1</c></rc>
    <rc><c>C </c><c>   1</c></rc>
    <rc><c>C </c><c>   1</c></rc>
    <rc><c>C </c><c>   1</c></rc>
    <rc><c>C </c><c>   1</c></rc>
    <rc><c>C </c><c>   1</c></rc>
    <rc><c>C </c><c>   1</c></rc>
    <rc><c>C </c><c>   1</c></rc>
    <rc><c>C </c><c>   1</c></rc>
    <rc><c>C </c><c>   1</c></rc>
    <rc><c>C </c><c>   1</c></rc>
    <rc><c>F </c><c>   2</c></rc>
    <rc><c>F </c><c>   2</c></rc>
    <rc><c>N </c><c>   3</c></rc>
    <rc><c>N </c><c>   3</c></rc>
    <rc><c>N </c><c>   3</c></rc>
    <rc><c>N </c><c>   3</c></rc>
    <rc><c>N </c><c>   3</c></rc>
    <rc><c>N </c><c>   3</c></rc>
    <rc><c>H </c><c>   4</c></rc>
    <rc><c>H </c><c>   4</c></rc>
    <rc><c>O </c><c>   5</c></rc>
   </set>
  </array>
  <array name="atomtypes" >
   <dimension dim="1">type</dimension>
   <field type="int">atomspertype</field>
   <field type="string">element</field>
   <field>mass</field>
   <field>valence</field>
   <field type="string">pseudopotential</field>
   <set>
    <rc><c>  82</c><c>C </c><c>     12.01100000</c><c>      4.00000000</c><c>  PAW_PBE C 08Apr2002                   </c></rc>
    <rc><c>   2</c><c>F </c><c>     18.99800000</c><c>      7.00000000</c><c>  PAW_PBE F 08Apr2002                   </c></rc>
    <rc><c>   6</c><c>N </c><c>     14.00100000</c><c>      5.00000000</c><c>  PAW_PBE N 08Apr2002                   </c></rc>
    <rc><c>   2</c><c>H </c><c>      1.00000000</c><c>      1.00000000</c><c>  PAW_PBE H 15Jun2001                   </c></rc>
    <rc><c>   1</c><c>O </c><c>     16.00000000</c><c>      6.00000000</c><c>  PAW_PBE O 08Apr2002                   </c></rc>
   </set>
  </array>
 </atominfo>
 <structure name="initialpos" >
  <crystal>
   <varray name="basis" >
    <v>      17.27103806       0.00000000       0.00000000 </v>
    <v>      -8.63551903      14.95715771       0.00000000 </v>
    <v>       0.00000000       0.00000000      15.00000000 </v>
   </varray>
   <i name="volume">   3874.88459904 </i>
   <varray name="rec_basis" >
    <v>       0.05790040       0.03342881      -0.00000000 </v>
    <v>       0.00000000       0.06685762       0.00000000 </v>
    <v>       0.00000000      -0.00000000       0.06666667 </v>
   </varray>
  </crystal>
  <varray name="positions" >
   <v>       0.99988853       0.99991010       0.49472177 </v>
   <v>       0.00012958       0.14292155       0.49520169 </v>
   <v>       0.00008919       0.28582642       0.49669089 </v>
   <v>       0.99980760       0.42882174       0.49759126 </v>
   <v>       0.00016043       0.57161388       0.49751243 </v>
   <v>       0.00106109       0.71461299       0.49711261 </v>
   <v>       0.00021131       0.85747044       0.49574151 </v>
   <v>       0.14372606       0.00100296       0.49452299 </v>
   <v>       0.14417690       0.14432469       0.49307202 </v>
   <v>       0.14367824       0.28636592       0.49294960 </v>
   <v>       0.14272499       0.42916189       0.49511934 </v>
   <v>       0.14381780       0.57168812       0.49640961 </v>
   <v>       0.14406965       0.71443729       0.49723535 </v>
   <v>       0.14360609       0.85767248       0.49663957 </v>
   <v>       0.28649933       0.00050779       0.49499945 </v>
   <v>       0.28725933       0.14411575       0.49104425 </v>
   <v>       0.28948112       0.28956707       0.48484710 </v>
   <v>       0.28511229       0.43275118       0.48515409 </v>
   <v>       0.28851556       0.56942712       0.49122145 </v>
   <v>       0.28745072       0.71425724       0.49531341 </v>
   <v>       0.28653169       0.85748520       0.49638081 </v>
   <v>       0.42935346       0.00040524       0.49477915 </v>
   <v>       0.42960313       0.14435217       0.49277750 </v>
   <v>       0.42942162       0.85641231       0.49477385 </v>
   <v>       0.57153075       0.99992140       0.49468796 </v>
   <v>       0.57166529       0.14359187       0.49458747 </v>
   <v>       0.57387786       0.29056677       0.49329776 </v>
   <v>       0.57358926       0.85540599       0.49322329 </v>
   <v>       0.71384105       0.99951994       0.49449183 </v>
   <v>       0.71432256       0.14308240       0.49586601 </v>
   <v>       0.71393649       0.28635909       0.49600223 </v>
   <v>       0.70943992       0.42632799       0.49439652 </v>
   <v>       0.70931136       0.85549805       0.49087177 </v>
   <v>       0.85651078       0.99933636       0.49431659 </v>
   <v>       0.85690740       0.14263142       0.49593369 </v>
   <v>       0.85690499       0.28580139       0.49711226 </v>
   <v>       0.85649345       0.42879961       0.49692000 </v>
   <v>       0.85657625       0.57138487       0.49568138 </v>
   <v>       0.85824150       0.71408023       0.49392433 </v>
   <v>       0.85530478       0.85555669       0.49339992 </v>
   <v>       0.04827085       0.09576830       0.49456505 </v>
   <v>       0.04794435       0.23821787       0.49534507 </v>
   <v>       0.04717396       0.38112559       0.49703136 </v>
   <v>       0.04818186       0.52419379       0.49744646 </v>
   <v>       0.04849878       0.66698558       0.49753166 </v>
   <v>       0.04812104       0.80991693       0.49667894 </v>
   <v>       0.04806297       0.95275793       0.49513940 </v>
   <v>       0.19164753       0.09634370       0.49268205 </v>
   <v>       0.19276006       0.24006458       0.49098639 </v>
   <v>       0.18989275       0.38157185       0.49209606 </v>
   <v>       0.19173132       0.52434471       0.49458356 </v>
   <v>       0.19183425       0.66698590       0.49632905 </v>
   <v>       0.19138768       0.80998700       0.49698972 </v>
   <v>       0.19135635       0.95307453       0.49548153 </v>
   <v>       0.33441399       0.09624507       0.49298972 </v>
   <v>       0.33879618       0.24015787       0.48727026 </v>
   <v>       0.33885007       0.66939875       0.49323859 </v>
   <v>       0.33434292       0.80942530       0.49566888 </v>
   <v>       0.33393736       0.95271068       0.49560024 </v>
   <v>       0.47676710       0.09590229       0.49403178 </v>
   <v>       0.47462650       0.24041480       0.49138145 </v>
   <v>       0.47439409       0.80523755       0.49376709 </v>
   <v>       0.47662414       0.95221337       0.49477787 </v>
   <v>       0.61892407       0.09541895       0.49511175 </v>
   <v>       0.61886228       0.23939254       0.49475443 </v>
   <v>       0.61868612       0.95147784       0.49415438 </v>
   <v>       0.76176670       0.09526340       0.49557926 </v>
   <v>       0.76175717       0.23831762       0.49648362 </v>
   <v>       0.76083198       0.38149698       0.49597193 </v>
   <v>       0.75975176       0.52623524       0.49330415 </v>
   <v>       0.76291788       0.66280271       0.48916030 </v>
   <v>       0.75845097       0.80595512       0.48911921 </v>
   <v>       0.76089448       0.95157444       0.49331438 </v>
   <v>       0.90448251       0.09466326       0.49527168 </v>
   <v>       0.90462418       0.23805476       0.49682442 </v>
   <v>       0.90424155       0.38133502       0.49753466 </v>
   <v>       0.90451925       0.52409310       0.49701551 </v>
   <v>       0.90551458       0.66656723       0.49594716 </v>
   <v>       0.90441910       0.80928845       0.49451796 </v>
   <v>       0.90396031       0.95134751       0.49447298 </v>
   <v>       0.71651519       0.71213950       0.48301049 </v>
   <v>       0.33115794       0.38320706       0.47680935 </v>
   <v>       0.62859330       0.66371046       0.46900055 </v>
   <v>       0.41830057       0.43088636       0.45834866 </v>
   <v>       0.42879422       0.28459880       0.48816120 </v>
   <v>       0.42878095       0.71480104       0.49280540 </v>
   <v>       0.71597771       0.57178966       0.48923338 </v>
   <v>       0.33213969       0.52378739       0.48532576 </v>
   <v>       0.61952530       0.38097358       0.49325065 </v>
   <v>       0.61934717       0.81114287       0.49132910 </v>
   <v>       0.48948263       0.56731559       0.56328545 </v>
   <v>       0.54296074       0.51827393       0.56601150 </v>
   <v>       0.51364103       0.54119833       0.60466391 </v>
  </varray>
  <varray name="selective"  type="logical" >
   <v type="logical" >  T  T  T </v>
   <v type="logical" >  T  T  T </v>
   <v type="logical" >  T  T  T </v>
   <v type="logical" >  T  T  T </v>
   <v type="logical" >  T  T  T </v>
   <v type="logical" >  T  T  T </v>
   <v type="logical" >  T  T  T </v>
   <v type="logical" >  T  T  T </v>
   <v type="logical" >  T  T  T </v>
   <v type="logical" >  T  T  T </v>
   <v type="logical" >  T  T  T </v>
   <v type="logical" >  T  T  T </v>
   <v type="logical" >  T  T  T </v>
   <v type="logical" >  T  T  T </v>
   <v type="logical" >  T  T  T </v>
   <v type="logical" >  T  T  T </v>
   <v type="logical" >  T  T  T </v>
   <v type="logical" >  T  T  T </v>
   <v type="logical" >  T  T  T </v>
   <v type="logical" >  T  T  T </v>
   <v type="logical" >  T  T  T </v>
   <v type="logical" >  T  T  T </v>
   <v type="logical" >  T  T  T </v>
   <v type="logical" >  T  T  T </v>
   <v type="logical" >  T  T  T </v>
   <v type="logical" >  T  T  T </v>
   <v type="logical" >  T  T  T </v>
   <v type="logical" >  T  T  T </v>
   <v type="logical" >  T  T  T </v>
   <v type="logical" >  T  T  T </v>
   <v type="logical" >  T  T  T </v>
   <v type="logical" >  T  T  T </v>
   <v type="logical" >  T  T  T </v>
   <v type="logical" >  T  T  T </v>
   <v type="logical" >  T  T  T </v>
   <v type="logical" >  T  T  T </v>
   <v type="logical" >  T  T  T </v>
   <v type="logical" >  T  T  T </v>
   <v type="logical" >  T  T  T </v>
   <v type="logical" >  T  T  T </v>
   <v type="logical" >  T  T  T </v>
   <v type="logical" >  T  T  T </v>
   <v type="logical" >  T  T  T </v>
   <v type="logical" >  T  T  T </v>
   <v type="logical" >  T  T  T </v>
   <v type="logical" >  T  T  T </v>
   <v type="logical" >  T  T  T </v>
   <v type="logical" >  T  T  T </v>
   <v type="logical" >  T  T  T </v>
   <v type="logical" >  T  T  T </v>
   <v type="logical" >  T  T  T </v>
   <v type="logical" >  T  T  T </v>
   <v type="logical" >  T  T  T </v>
   <v type="logical" >  T  T  T </v>
   <v type="logical" >  T  T  T </v>
   <v type="logical" >  T  T  T </v>
   <v type="logical" >  T  T  T </v>
   <v type="logical" >  T  T  T </v>
   <v type="logical" >  T  T  T </v>
   <v type="logical" >  T  T  T </v>
   <v type="logical" >  T  T  T </v>
   <v type="logical" >  T  T  T </v>
   <v type="logical" >  T  T  T </v>
   <v type="logical" >  T  T  T </v>
   <v type="logical" >  T  T  T </v>
   <v type="logical" >  T  T  T </v>
   <v type="logical" >  T  T  T </v>
   <v type="logical" >  T  T  T </v>
   <v type="logical" >  T  T  T </v>
   <v type="logical" >  T  T  T </v>
   <v type="logical" >  T  T  T </v>
   <v type="logical" >  T  T  T </v>
   <v type="logical" >  T  T  T </v>
   <v type="logical" >  T  T  T </v>
   <v type="logical" >  T  T  T </v>
   <v type="logical" >  T  T  T </v>
   <v type="logical" >  T  T  T </v>
   <v type="logical" >  T  T  T </v>
   <v type="logical" >  T  T  T </v>
   <v type="logical" >  T  T  T </v>
   <v type="logical" >  T  T  T </v>
   <v type="logical" >  T  T  T </v>
   <v type="logical" >  T  T  T </v>
   <v type="logical" >  T  T  T </v>
   <v type="logical" >  T  T  T </v>
   <v type="logical" >  T  T  T </v>
   <v type="logical" >  T  T  T </v>
   <v type="logical" >  T  T  T </v>
   <v type="logical" >  T  T  T </v>
   <v type="logical" >  T  T  T </v>
   <v type="logical" >  T  T  T </v>
   <v type="logical" >  T  T  T </v>
   <v type="logical" >  T  T  F </v>
  </varray>
  <nose>
   <v>      -3.00000000       0.00000000       0.00010000       0.00010000 </v>
  </nose>
 </structure>
 <calculation>
  <scstep>
   <time name="dav">   97.79   98.76</time>
   <time name="total">   99.00   99.99</time>
   <energy>
    <i name="alphaZ">    185.49599500 </i>
    <i name="ewald">  37670.06747146 </i>
    <i name="hartreedc"> -49450.79281964 </i>
    <i name="XCdc">   1308.31061214 </i>
    <i name="pawpsdc">  11553.19479004 </i>
    <i name="pawaedc"> -11618.78033184 </i>
    <i name="eentropy">     -0.04013935 </i>
    <i name="bandstr">  -1608.52424659 </i>
    <i name="atom">  15429.98794498 </i>
    <i name="e_fr_energy">   3468.91927619 </i>
    <i name="e_wo_entrp">   3468.95941554 </i>
    <i name="e_0_energy">   3468.93934587 </i>
   </energy>
  </scstep>
  <scstep>
   <time name="dav">  125.48  126.67</time>
   <time name="total">  125.49  126.68</time>
   <energy>
    <i name="e_fr_energy">   -187.26877575 </i>
    <i name="e_wo_entrp">   -187.26575645 </i>
    <i name="e_0_energy">   -187.26726610 </i>
   </energy>
  </scstep>
  <scstep>
   <time name="dav">  108.34  109.36</time>
   <time name="total">  108.34  109.37</time>
   <energy>
    <i name="e_fr_energy">   -840.58629047 </i>
    <i name="e_wo_entrp">   -840.58037391 </i>
    <i name="e_0_energy">   -840.58333219 </i>
   </energy>
  </scstep>
  <scstep>
   <time name="dav">  108.02  109.05</time>
   <time name="total">  108.02  109.05</time>
   <energy>
    <i name="e_fr_energy">   -863.19000429 </i>
    <i name="e_wo_entrp">   -863.18339466 </i>
    <i name="e_0_energy">   -863.18669948 </i>
   </energy>
  </scstep>
  <scstep>
   <time name="dav">  120.06  121.20</time>
   <time name="total">  121.14  122.28</time>
   <energy>
    <i name="e_fr_energy">   -863.90038927 </i>
    <i name="e_wo_entrp">   -863.89369701 </i>
    <i name="e_0_energy">   -863.89704314 </i>
   </energy>
  </scstep>
  <scstep>
   <time name="dav">  105.07  106.07</time>
   <time name="total">  107.42  108.44</time>
   <energy>
    <i name="e_fr_energy">   -847.54576762 </i>
    <i name="e_wo_entrp">   -847.54211959 </i>
    <i name="e_0_energy">   -847.54394360 </i>
   </energy>
  </scstep>
  <scstep>
   <time name="dav">  102.83  103.76</time>
   <time name="total">  105.00  105.95</time>
   <energy>
    <i name="e_fr_energy">   -827.69691719 </i>
    <i name="e_wo_entrp">   -827.69565386 </i>
    <i name="e_0_energy">   -827.69628553 </i>
   </energy>
  </scstep>
  <scstep>
   <time name="dav">  101.66  102.59</time>
   <time name="total">  103.83  104.79</time>
   <energy>
    <i name="e_fr_energy">   -823.06778623 </i>
    <i name="e_wo_entrp">   -823.06759992 </i>
    <i name="e_0_energy">   -823.06769307 </i>
   </energy>
  </scstep>
  <scstep>
   <time name="dav">  103.44  104.43</time>
   <time name="total">  105.60  106.62</time>
   <energy>
    <i name="e_fr_energy">   -823.09627286 </i>
    <i name="e_wo_entrp">   -823.09609247 </i>
    <i name="e_0_energy">   -823.09618266 </i>
   </energy>
  </scstep>
  <scstep>
   <time name="dav">   99.90  100.80</time>
   <time name="total">  102.06  102.97</time>
   <energy>
    <i name="e_fr_energy">   -822.95640486 </i>
    <i name="e_wo_entrp">   -822.95622450 </i>
    <i name="e_0_energy">   -822.95631468 </i>
   </energy>
  </scstep>
  <scstep>
   <time name="dav">  101.86  102.75</time>
   <time name="total">  104.06  104.96</time>
   <energy>
    <i name="e_fr_energy">   -822.94772530 </i>
    <i name="e_wo_entrp">   -822.94754517 </i>
    <i name="e_0_energy">   -822.94763523 </i>
   </energy>
  </scstep>
  <scstep>
   <time name="dav">  105.80  106.77</time>
   <time name="total">  107.96  108.95</time>
   <energy>
    <i name="e_fr_energy">   -822.94808848 </i>
    <i name="e_wo_entrp">   -822.94790576 </i>
    <i name="e_0_energy">   -822.94799712 </i>
   </energy>
  </scstep>
  <scstep>
   <time name="dav">  102.87  103.83</time>
   <time name="total">  105.06  106.04</time>
   <energy>
    <i name="e_fr_energy">   -822.94825524 </i>
    <i name="e_wo_entrp">   -822.94807274 </i>
    <i name="e_0_energy">   -822.94816399 </i>
   </energy>
  </scstep>
  <scstep>
   <time name="dav">  100.22  101.15</time>
   <time name="total">  102.42  103.37</time>
   <energy>
    <i name="e_fr_energy">   -822.94828770 </i>
    <i name="e_wo_entrp">   -822.94810541 </i>
    <i name="e_0_energy">   -822.94819655 </i>
   </energy>
  </scstep>
  <scstep>
   <time name="dav">   99.50  100.40</time>
   <time name="total">  101.73  102.65</time>
   <energy>
    <i name="e_fr_energy">   -822.94833192 </i>
    <i name="e_wo_entrp">   -822.94814959 </i>
    <i name="e_0_energy">   -822.94824075 </i>
   </energy>
  </scstep>
  <scstep>
   <time name="dav">  105.23  106.24</time>
   <time name="total">  107.45  108.47</time>
   <energy>
    <i name="e_fr_energy">   -822.94833477 </i>
    <i name="e_wo_entrp">   -822.94815237 </i>
    <i name="e_0_energy">   -822.94824357 </i>
   </energy>
  </scstep>
  <scstep>
   <time name="dav">   98.21   99.17</time>
   <time name="total">   99.29  100.25</time>
   <energy>
    <i name="alphaZ">    185.49599500 </i>
    <i name="ewald">  37670.06747146 </i>
    <i name="hartreedc"> -50863.58814902 </i>
    <i name="XCdc">   1356.33585860 </i>
    <i name="pawpsdc">  38358.13774425 </i>
    <i name="pawaedc"> -38434.71149263 </i>
    <i name="eentropy">     -0.00018240 </i>
    <i name="bandstr">  -4524.67352463 </i>
    <i name="atom">  15429.98794498 </i>
    <i name="e_fr_energy">   -822.94833439 </i>
    <i name="e_wo_entrp">   -822.94815199 </i>
    <i name="e_0_energy">   -822.94824319 </i>
   </energy>
  </scstep>
  <structure>
   <crystal>
    <varray name="basis" >
     <v>      17.27103806       0.00000000       0.00000000 </v>
     <v>      -8.63551903      14.95715771       0.00000000 </v>
     <v>       0.00000000       0.00000000      15.00000000 </v>
    </varray>
    <i name="volume">   3874.88459904 </i>
    <varray name="rec_basis" >
     <v>       0.05790040       0.03342881      -0.00000000 </v>
     <v>       0.00000000       0.06685762       0.00000000 </v>
     <v>       0.00000000      -0.00000000       0.06666667 </v>
    </varray>
   </crystal>
   <varray name="positions" >
    <v>       0.99988853       0.99991010       0.49472177 </v>
    <v>       0.00012958       0.14292155       0.49520169 </v>
    <v>       0.00008919       0.28582642       0.49669089 </v>
    <v>       0.99980760       0.42882174       0.49759126 </v>
    <v>       0.00016043       0.57161388       0.49751243 </v>
    <v>       0.00106109       0.71461299       0.49711261 </v>
    <v>       0.00021131       0.85747044       0.49574151 </v>
    <v>       0.14372606       0.00100296       0.49452299 </v>
    <v>       0.14417690       0.14432469       0.49307202 </v>
    <v>       0.14367824       0.28636592       0.49294960 </v>
    <v>       0.14272499       0.42916189       0.49511934 </v>
    <v>       0.14381780       0.57168812       0.49640961 </v>
    <v>       0.14406965       0.71443729       0.49723535 </v>
    <v>       0.14360609       0.85767248       0.49663957 </v>
    <v>       0.28649933       0.00050779       0.49499945 </v>
    <v>       0.28725933       0.14411575       0.49104425 </v>
    <v>       0.28948112       0.28956707       0.48484710 </v>
    <v>       0.28511229       0.43275118       0.48515409 </v>
    <v>       0.28851556       0.56942712       0.49122145 </v>
    <v>       0.28745072       0.71425724       0.49531341 </v>
    <v>       0.28653169       0.85748520       0.49638081 </v>
    <v>       0.42935346       0.00040524       0.49477915 </v>
    <v>       0.42960313       0.14435217       0.49277750 </v>
    <v>       0.42942162       0.85641231       0.49477385 </v>
    <v>       0.57153075       0.99992140       0.49468796 </v>
    <v>       0.57166529       0.14359187       0.49458747 </v>
    <v>       0.57387786       0.29056677       0.49329776 </v>
    <v>       0.57358926       0.85540599       0.49322329 </v>
    <v>       0.71384105       0.99951994       0.49449183 </v>
    <v>       0.71432256       0.14308240       0.49586601 </v>
    <v>       0.71393649       0.28635909       0.49600223 </v>
    <v>       0.70943992       0.42632799       0.49439652 </v>
    <v>       0.70931136       0.85549805       0.49087177 </v>
    <v>       0.85651078       0.99933636       0.49431659 </v>
    <v>       0.85690740       0.14263142       0.49593369 </v>
    <v>       0.85690499       0.28580139       0.49711226 </v>
    <v>       0.85649345       0.42879961       0.49692000 </v>
    <v>       0.85657625       0.57138487       0.49568138 </v>
    <v>       0.85824150       0.71408023       0.49392433 </v>
    <v>       0.85530478       0.85555669       0.49339992 </v>
    <v>       0.04827085       0.09576830       0.49456505 </v>
    <v>       0.04794435       0.23821787       0.49534507 </v>
    <v>       0.04717396       0.38112559       0.49703136 </v>
    <v>       0.04818186       0.52419379       0.49744646 </v>
    <v>       0.04849878       0.66698558       0.49753166 </v>
    <v>       0.04812104       0.80991693       0.49667894 </v>
    <v>       0.04806297       0.95275793       0.49513940 </v>
    <v>       0.19164753       0.09634370       0.49268205 </v>
    <v>       0.19276006       0.24006458       0.49098639 </v>
    <v>       0.18989275       0.38157185       0.49209606 </v>
    <v>       0.19173132       0.52434471       0.49458356 </v>
    <v>       0.19183425       0.66698590       0.49632905 </v>
    <v>       0.19138768       0.80998700       0.49698972 </v>
    <v>       0.19135635       0.95307453       0.49548153 </v>
    <v>       0.33441399       0.09624507       0.49298972 </v>
    <v>       0.33879618       0.24015787       0.48727026 </v>
    <v>       0.33885007       0.66939875       0.49323859 </v>
    <v>       0.33434292       0.80942530       0.49566888 </v>
    <v>       0.33393736       0.95271068       0.49560024 </v>
    <v>       0.47676710       0.09590229       0.49403178 </v>
    <v>       0.47462650       0.24041480       0.49138145 </v>
    <v>       0.47439409       0.80523755       0.49376709 </v>
    <v>       0.47662414       0.95221337       0.49477787 </v>
    <v>       0.61892407       0.09541895       0.49511175 </v>
    <v>       0.61886228       0.23939254       0.49475443 </v>
    <v>       0.61868612       0.95147784       0.49415438 </v>
    <v>       0.76176670       0.09526340       0.49557926 </v>
    <v>       0.76175717       0.23831762       0.49648362 </v>
    <v>       0.76083198       0.38149698       0.49597193 </v>
    <v>       0.75975176       0.52623524       0.49330415 </v>
    <v>       0.76291788       0.66280271       0.48916030 </v>
    <v>       0.75845097       0.80595512       0.48911921 </v>
    <v>       0.76089448       0.95157444       0.49331438 </v>
    <v>       0.90448251       0.09466326       0.49527168 </v>
    <v>       0.90462418       0.23805476       0.49682442 </v>
    <v>       0.90424155       0.38133502       0.49753466 </v>
    <v>       0.90451925       0.52409310       0.49701551 </v>
    <v>       0.90551458       0.66656723       0.49594716 </v>
    <v>       0.90441910       0.80928845       0.49451796 </v>
    <v>       0.90396031       0.95134751       0.49447298 </v>
    <v>       0.71651519       0.71213950       0.48301049 </v>
    <v>       0.33115794       0.38320706       0.47680935 </v>
    <v>       0.62859330       0.66371046       0.46900055 </v>
    <v>       0.41830057       0.43088636       0.45834866 </v>
    <v>       0.42879422       0.28459880       0.48816120 </v>
    <v>       0.42878095       0.71480104       0.49280540 </v>
    <v>       0.71597771       0.57178966       0.48923338 </v>
    <v>       0.33213969       0.52378739       0.48532576 </v>
    <v>       0.61952530       0.38097358       0.49325065 </v>
    <v>       0.61934717       0.81114287       0.49132910 </v>
    <v>       0.48948263       0.56731559       0.56328545 </v>
    <v>       0.54296074       0.51827393       0.56601150 </v>
    <v>       0.51364103       0.54119833       0.60466391 </v>
   </varray>
  </structure>
  <varray name="forces" >
   <v>      -0.00536127      -0.00760488       0.03471594 </v>
   <v>      -0.00180750       0.01043895       0.00002038 </v>
   <v>       0.00848561       0.01250019      -0.00822126 </v>
   <v>      -0.02278223      -0.00490381       0.00728611 </v>
   <v>      -0.00454554       0.00341040       0.01481577 </v>
   <v>       0.00125456       0.02805244       0.00181700 </v>
   <v>      -0.00721980       0.00076062      -0.00066829 </v>
   <v>      -0.01944319       0.03153913       0.01369500 </v>
   <v>      -0.00106034      -0.00536989      -0.00774139 </v>
   <v>       0.01170015       0.00365009      -0.00028857 </v>
   <v>       0.00500287       0.00355025      -0.00799801 </v>
   <v>      -0.01441157       0.03525315      -0.00211218 </v>
   <v>      -0.01451099      -0.00155691      -0.00669394 </v>
   <v>       0.00884215       0.00067762       0.00369258 </v>
   <v>      -0.00056155      -0.01522629      -0.01459117 </v>
   <v>       0.03422609       0.00544856      -0.00633106 </v>
   <v>       0.00056455       0.01680489       0.01175607 </v>
   <v>      -0.01195201       0.01171682       0.00416629 </v>
   <v>      -0.01075053       0.00490776      -0.00372726 </v>
   <v>       0.03524283       0.00940230      -0.01346771 </v>
   <v>      -0.00834382       0.01407537      -0.00999918 </v>
   <v>       0.03078402       0.01186593       0.01284423 </v>
   <v>      -0.03519584       0.04454117       0.00108199 </v>
   <v>       0.00418150      -0.03042998       0.00641352 </v>
   <v>      -0.04777478       0.01365129      -0.00344260 </v>
   <v>      -0.01616592      -0.04064535       0.00433716 </v>
   <v>       0.01995972      -0.00793307      -0.00598772 </v>
   <v>      -0.00544244       0.04645960      -0.01178338 </v>
   <v>      -0.00417795      -0.01229934      -0.01879475 </v>
   <v>       0.02417580       0.03232752      -0.00730237 </v>
   <v>      -0.02274601       0.01179935      -0.01786428 </v>
   <v>       0.00426361      -0.00664979      -0.01456243 </v>
   <v>      -0.01811682       0.00099445      -0.02252257 </v>
   <v>       0.01455601       0.02378310      -0.00962909 </v>
   <v>      -0.03419020       0.01997664       0.00051599 </v>
   <v>      -0.00006830      -0.02305945       0.00642293 </v>
   <v>       0.00787564       0.02232419       0.01060114 </v>
   <v>      -0.03401091       0.01388681      -0.00123514 </v>
   <v>       0.00665209      -0.00553272       0.00779920 </v>
   <v>       0.00055591       0.00509439      -0.01196455 </v>
   <v>       0.01482076       0.00030669      -0.01045106 </v>
   <v>       0.00963421       0.00146168      -0.00624515 </v>
   <v>       0.01059575      -0.01079783      -0.01235077 </v>
   <v>       0.00411110      -0.00699018      -0.00289719 </v>
   <v>       0.02910863      -0.01036023      -0.00704859 </v>
   <v>       0.00007595      -0.02383287      -0.00279483 </v>
   <v>      -0.01181443      -0.00534409      -0.00945931 </v>
   <v>      -0.00934789      -0.03477260       0.00359629 </v>
   <v>      -0.00029191      -0.00068443       0.00980271 </v>
   <v>       0.01202520       0.01152445      -0.01349046 </v>
   <v>       0.01918233      -0.01239959      -0.00364491 </v>
   <v>      -0.02415417      -0.03716022       0.01384726 </v>
   <v>      -0.00492878       0.00230167      -0.00698058 </v>
   <v>       0.00348607      -0.00126344      -0.00753350 </v>
   <v>      -0.00786904       0.01844359      -0.00595390 </v>
   <v>       0.01368654       0.00236706       0.00116419 </v>
   <v>       0.00302928       0.00641565      -0.00315845 </v>
   <v>       0.02426535      -0.01818171      -0.00461636 </v>
   <v>      -0.00078751      -0.02466117      -0.01304922 </v>
   <v>       0.03322522      -0.01508213       0.00723238 </v>
   <v>       0.01379359      -0.04298985       0.00913443 </v>
   <v>      -0.03451193      -0.00281261      -0.00840382 </v>
   <v>       0.00679607       0.05160601      -0.00002486 </v>
   <v>      -0.02213958      -0.02387012       0.00267349 </v>
   <v>      -0.01413190       0.02185800      -0.00957884 </v>
   <v>       0.01532260      -0.06201728       0.00807024 </v>
   <v>      -0.00304169       0.01729231       0.00747712 </v>
   <v>       0.00898173      -0.02609926       0.00750146 </v>
   <v>      -0.01290754       0.00246770      -0.00273379 </v>
   <v>       0.01080418       0.01581603       0.00015238 </v>
   <v>       0.02502345      -0.00929399      -0.00881364 </v>
   <v>       0.01301706      -0.01646818       0.00725175 </v>
   <v>      -0.01202782      -0.00055763       0.00739247 </v>
   <v>       0.01028523      -0.01586591       0.01315948 </v>
   <v>      -0.00399359       0.00271445       0.00145167 </v>
   <v>       0.00620253       0.01685954      -0.01575258 </v>
   <v>       0.02110775      -0.04139068      -0.01482668 </v>
   <v>      -0.00237909      -0.01254639      -0.00165628 </v>
   <v>       0.00400049       0.00080167      -0.00673357 </v>
   <v>       0.00980020      -0.01334436      -0.00747241 </v>
   <v>       0.00269087       0.01555249      -0.00178955 </v>
   <v>       0.00017721      -0.02662563      -0.00035234 </v>
   <v>      -0.00445843      -0.00048415       0.00605601 </v>
   <v>      -0.00246774       0.00928267      -0.00607255 </v>
   <v>      -0.02116996       0.00294642      -0.00031071 </v>
   <v>       0.00107694      -0.00277948       0.00793294 </v>
   <v>      -0.01438493       0.01357933       0.00032162 </v>
   <v>       0.00632346      -0.00591653       0.00451518 </v>
   <v>      -0.01647883       0.00167987       0.00006499 </v>
   <v>       0.02115529      -0.00395636      -0.00244824 </v>
   <v>       0.00402362      -0.00336900       0.01349543 </v>
   <v>      -0.00822032       0.01126801       0.00866944 </v>
   <v>      -0.00400519       0.00769113       0.12062877 </v>
  </varray>
  <varray name="stress" >
   <v>      -9.26855295      -0.79645925      -0.00438697 </v>
   <v>      -0.79645907     -11.74830215       0.00736832 </v>
   <v>      -0.00438723       0.00736839      -0.20143606 </v>
  </varray>
  <energy>
   <i name="e_fr_energy">   -830.44203446 </i>
   <i name="e_wo_entrp">   -830.44185206 </i>
   <i name="e_0_energy">   -830.44194326 </i>
  </energy>
  <time name="totalsc"> 1952.74 1970.91</time>
 </calculation>
 <calculation>
  <scstep>
   <time name="dav">   96.07   96.94</time>
   <time name="total">   98.30   99.19</time>
   <energy>
    <i name="alphaZ">    185.49599500 </i>
    <i name="ewald">  37670.07076694 </i>
    <i name="hartreedc"> -50863.58391940 </i>
    <i name="XCdc">   1356.33622132 </i>
    <i name="pawpsdc">  38357.21369120 </i>
    <i name="pawaedc"> -38433.78751809 </i>
    <i name="eentropy">     -0.00017956 </i>
    <i name="bandstr">  -4524.68182306 </i>
    <i name="atom">  15429.98794498 </i>
    <i name="e_fr_energy">   -822.94882068 </i>
    <i name="e_wo_entrp">   -822.94864112 </i>
    <i name="e_0_energy">   -822.94873090 </i>
   </energy>
  </scstep>
  <scstep>
   <time name="dav">  108.40  109.41</time>
   <time name="total">  110.58  111.60</time>
   <energy>
    <i name="e_fr_energy">   -822.94884450 </i>
    <i name="e_wo_entrp">   -822.94866500 </i>
    <i name="e_0_energy">   -822.94875475 </i>
   </energy>
  </scstep>
  <scstep>
   <time name="dav">  105.30  106.31</time>
   <time name="total">  107.48  108.51</time>
   <energy>
    <i name="e_fr_energy">   -822.94882829 </i>
    <i name="e_wo_entrp">   -822.94864873 </i>
    <i name="e_0_energy">   -822.94873851 </i>
   </energy>
  </scstep>
  <scstep>
   <time name="dav">   94.16   95.02</time>
   <time name="total">   96.35   97.23</time>
   <energy>
    <i name="e_fr_energy">   -822.94882015 </i>
    <i name="e_wo_entrp">   -822.94864043 </i>
    <i name="e_0_energy">   -822.94873029 </i>
   </energy>
  </scstep>
  <scstep>
   <time name="dav">   90.71   91.57</time>
   <time name="total">   91.86   92.73</time>
   <energy>
    <i name="alphaZ">    185.49599500 </i>
    <i name="ewald">  37670.07076694 </i>
    <i name="hartreedc"> -50863.55804236 </i>
    <i name="XCdc">   1356.33561044 </i>
    <i name="pawpsdc">  38356.55703205 </i>
    <i name="pawaedc"> -38433.13033763 </i>
    <i name="eentropy">     -0.00017973 </i>
    <i name="bandstr">  -4524.70761003 </i>
    <i name="atom">  15429.98794498 </i>
    <i name="e_fr_energy">   -822.94882034 </i>
    <i name="e_wo_entrp">   -822.94864061 </i>
    <i name="e_0_energy">   -822.94873048 </i>
   </energy>
  </scstep>
  <structure>
   <crystal>
    <varray name="basis" >
     <v>      17.27103806       0.00000000       0.00000000 </v>
     <v>      -8.63551903      14.95715771       0.00000000 </v>
     <v>       0.00000000       0.00000000      15.00000000 </v>
    </varray>
    <i name="volume">   3874.88459904 </i>
    <varray name="rec_basis" >
     <v>       0.05790040       0.03342881      -0.00000000 </v>
     <v>       0.00000000       0.06685762       0.00000000 </v>
     <v>       0.00000000      -0.00000000       0.06666667 </v>
    </varray>
   </crystal>
   <varray name="positions" >
    <v>       0.99988308       0.99990520       0.49474410 </v>
    <v>       0.00013194       0.14292828       0.49520170 </v>
    <v>       0.00009796       0.28583448       0.49668560 </v>
    <v>       0.99979329       0.42881858       0.49759594 </v>
    <v>       0.00015899       0.57161608       0.49752196 </v>
    <v>       0.00107084       0.71463109       0.49711377 </v>
    <v>       0.00020752       0.85747093       0.49574108 </v>
    <v>       0.14372537       0.00102331       0.49453180 </v>
    <v>       0.14417457       0.14432123       0.49306704 </v>
    <v>       0.14368595       0.28636828       0.49294942 </v>
    <v>       0.14272893       0.42916418       0.49511420 </v>
    <v>       0.14382112       0.57171086       0.49640825 </v>
    <v>       0.14406104       0.71443629       0.49723105 </v>
    <v>       0.14361124       0.85767291       0.49664195 </v>
    <v>       0.28649411       0.00049797       0.49499007 </v>
    <v>       0.28728021       0.14411927       0.49104018 </v>
    <v>       0.28948686       0.28957791       0.48485466 </v>
    <v>       0.28510940       0.43275874       0.48515677 </v>
    <v>       0.28851114       0.56943028       0.49121906 </v>
    <v>       0.28747344       0.71426331       0.49530475 </v>
    <v>       0.28653157       0.85749428       0.49637437 </v>
    <v>       0.42937448       0.00041290       0.49478742 </v>
    <v>       0.42959784       0.14438091       0.49277820 </v>
    <v>       0.42941414       0.85639268       0.49477797 </v>
    <v>       0.57150846       0.99993020       0.49468575 </v>
    <v>       0.57164315       0.14356565       0.49459026 </v>
    <v>       0.57388645       0.29056165       0.49329391 </v>
    <v>       0.57360120       0.85543596       0.49321571 </v>
    <v>       0.71383475       0.99951201       0.49447974 </v>
    <v>       0.71434649       0.14310326       0.49586131 </v>
    <v>       0.71392758       0.28636670       0.49599074 </v>
    <v>       0.70944016       0.42632370       0.49438715 </v>
    <v>       0.70930156       0.85549869       0.49085729 </v>
    <v>       0.85652658       0.99935170       0.49431040 </v>
    <v>       0.85689475       0.14264431       0.49593402 </v>
    <v>       0.85689751       0.28578651       0.49711639 </v>
    <v>       0.85650505       0.42881401       0.49692682 </v>
    <v>       0.85656173       0.57139383       0.49568059 </v>
    <v>       0.85824344       0.71407667       0.49392935 </v>
    <v>       0.85530674       0.85555998       0.49339223 </v>
    <v>       0.04827923       0.09576850       0.49455833 </v>
    <v>       0.04795021       0.23821881       0.49534106 </v>
    <v>       0.04717640       0.38111862       0.49702342 </v>
    <v>       0.04818190       0.52418928       0.49744459 </v>
    <v>       0.04851170       0.66697890       0.49752712 </v>
    <v>       0.04811340       0.80990155       0.49667714 </v>
    <v>       0.04805465       0.95275448       0.49513331 </v>
    <v>       0.19163109       0.09632126       0.49268436 </v>
    <v>       0.19275967       0.24006414       0.49099270 </v>
    <v>       0.18990319       0.38157929       0.49208738 </v>
    <v>       0.19173803       0.52433671       0.49458122 </v>
    <v>       0.19180877       0.66696193       0.49633796 </v>
    <v>       0.19138567       0.80998849       0.49698523 </v>
    <v>       0.19135789       0.95307371       0.49547668 </v>
    <v>       0.33441554       0.09625697       0.49298589 </v>
    <v>       0.33880459       0.24015940       0.48727101 </v>
    <v>       0.33885383       0.66940289       0.49323656 </v>
    <v>       0.33435061       0.80941357       0.49566591 </v>
    <v>       0.33392897       0.95269477       0.49559184 </v>
    <v>       0.47678080       0.09589256       0.49403643 </v>
    <v>       0.47462034       0.24038706       0.49138732 </v>
    <v>       0.47437390       0.80523573       0.49376169 </v>
    <v>       0.47664458       0.95224666       0.49477785 </v>
    <v>       0.61890401       0.09540355       0.49511347 </v>
    <v>       0.61886144       0.23940665       0.49474827 </v>
    <v>       0.61867468       0.95143784       0.49415958 </v>
    <v>       0.76177058       0.09527456       0.49558407 </v>
    <v>       0.76175377       0.23830079       0.49648845 </v>
    <v>       0.76082556       0.38149857       0.49597018 </v>
    <v>       0.75976290       0.52624544       0.49330425 </v>
    <v>       0.76292886       0.66279671       0.48915463 </v>
    <v>       0.75845293       0.80594450       0.48912388 </v>
    <v>       0.76088759       0.95157408       0.49331914 </v>
    <v>       0.90448314       0.09465302       0.49528014 </v>
    <v>       0.90462282       0.23805651       0.49682535 </v>
    <v>       0.90425045       0.38134589       0.49752453 </v>
    <v>       0.90451770       0.52406640       0.49700597 </v>
    <v>       0.90550920       0.66655914       0.49594610 </v>
    <v>       0.90442159       0.80928897       0.49451363 </v>
    <v>       0.90396149       0.95133890       0.49446817 </v>
    <v>       0.71652171       0.71214953       0.48300933 </v>
    <v>       0.33114945       0.38318988       0.47680912 </v>
    <v>       0.62859065       0.66371015       0.46900445 </v>
    <v>       0.41830219       0.43089235       0.45834476 </v>
    <v>       0.42878335       0.28460070       0.48816100 </v>
    <v>       0.42878066       0.71479924       0.49281050 </v>
    <v>       0.71597406       0.57179842       0.48923359 </v>
    <v>       0.33214131       0.52378357       0.48532866 </v>
    <v>       0.61951664       0.38097467       0.49325070 </v>
    <v>       0.61935771       0.81114032       0.49132752 </v>
    <v>       0.48948379       0.56731341       0.56329413 </v>
    <v>       0.54295978       0.51828120       0.56601708 </v>
    <v>       0.51364127       0.54120329       0.60466391 </v>
   </varray>
  </structure>
  <varray name="forces" >
   <v>      -0.00193626      -0.00576953       0.02826793 </v>
   <v>       0.00444150       0.00444782      -0.00015232 </v>
   <v>       0.00721295       0.00694384      -0.00820745 </v>
   <v>      -0.00553694      -0.00391700       0.00429195 </v>
   <v>       0.00312180      -0.00651967       0.01132373 </v>
   <v>       0.00600597       0.00357310       0.00085627 </v>
   <v>      -0.00342828      -0.00182199      -0.00184347 </v>
   <v>      -0.01127536       0.00705523       0.01132032 </v>
   <v>       0.00193856      -0.00345014      -0.00685507 </v>
   <v>       0.00933463       0.00348708      -0.00082481 </v>
   <v>       0.00559024       0.00057545      -0.00853300 </v>
   <v>      -0.00482654       0.00596549      -0.00128395 </v>
   <v>      -0.00485515      -0.00399756      -0.00563283 </v>
   <v>       0.00236004      -0.00102316       0.00215957 </v>
   <v>       0.00090596      -0.00757828      -0.01425684 </v>
   <v>       0.00895088      -0.00198363      -0.00536876 </v>
   <v>       0.00109511       0.00345886       0.01168660 </v>
   <v>      -0.00280408       0.00697078       0.00239095 </v>
   <v>      -0.00404343       0.00060862      -0.00324313 </v>
   <v>       0.01144139      -0.00552290      -0.01115513 </v>
   <v>       0.00037956      -0.00100893      -0.00982658 </v>
   <v>       0.01137588       0.00600662       0.01081216 </v>
   <v>      -0.00768071       0.01277752       0.00207699 </v>
   <v>      -0.00043470      -0.00371676       0.00458515 </v>
   <v>      -0.01137275       0.00200091      -0.00227559 </v>
   <v>      -0.00538009      -0.01552818       0.00396004 </v>
   <v>       0.00598826      -0.00305696      -0.00538357 </v>
   <v>      -0.00182495       0.00955925      -0.01029353 </v>
   <v>      -0.00463695      -0.00843239      -0.01444789 </v>
   <v>       0.00156428       0.00693941      -0.00544199 </v>
   <v>      -0.01188188       0.00468762      -0.01552555 </v>
   <v>      -0.00229893       0.00005962      -0.01262753 </v>
   <v>      -0.00524061      -0.00085461      -0.01827613 </v>
   <v>       0.00680620       0.00728721      -0.00765212 </v>
   <v>      -0.01141699       0.00670442       0.00193212 </v>
   <v>       0.00016208      -0.00557230       0.00529431 </v>
   <v>       0.00385197       0.00548695       0.00732546 </v>
   <v>      -0.00932206      -0.00158026      -0.00176140 </v>
   <v>       0.00804424      -0.00376004       0.00588075 </v>
   <v>       0.00345250      -0.00069559      -0.01060744 </v>
   <v>       0.00399476       0.00065952      -0.00729356 </v>
   <v>       0.00835091       0.00391005      -0.00612016 </v>
   <v>       0.00271811      -0.00395037      -0.01096224 </v>
   <v>      -0.00225437      -0.00077686      -0.00109907 </v>
   <v>       0.00760433      -0.00018117      -0.00544797 </v>
   <v>       0.00046662      -0.00675970      -0.00206103 </v>
   <v>      -0.00899091      -0.00257504      -0.00509209 </v>
   <v>       0.00229404      -0.00808633       0.00269042 </v>
   <v>       0.00236185      -0.00137106       0.00891813 </v>
   <v>       0.00562156       0.00745407      -0.01165252 </v>
   <v>       0.00681946       0.00135363      -0.00381115 </v>
   <v>      -0.00581521      -0.00641798       0.01048522 </v>
   <v>      -0.00250200       0.00281838      -0.00698372 </v>
   <v>      -0.00192526       0.00274631      -0.00646326 </v>
   <v>      -0.00210056       0.00729450      -0.00596069 </v>
   <v>       0.00797567       0.00248167       0.00100334 </v>
   <v>       0.00317583       0.00055163      -0.00319785 </v>
   <v>       0.01163722      -0.00819963      -0.00450934 </v>
   <v>       0.00517054      -0.00929435      -0.01194567 </v>
   <v>       0.00128283      -0.00419086       0.00730226 </v>
   <v>       0.00089861      -0.01354057       0.00711535 </v>
   <v>      -0.01506116      -0.00213968      -0.00703897 </v>
   <v>      -0.00060692       0.01474336       0.00108636 </v>
   <v>      -0.00590557      -0.00730254       0.00184084 </v>
   <v>      -0.00540143       0.00251592      -0.00972931 </v>
   <v>      -0.00268956      -0.01997478       0.00506927 </v>
   <v>      -0.00493504       0.00776167       0.00486213 </v>
   <v>      -0.00065624      -0.00593508       0.00575131 </v>
   <v>      -0.00673364       0.00320815      -0.00367333 </v>
   <v>      -0.00010042       0.00878495      -0.00071106 </v>
   <v>       0.01234209      -0.00258071      -0.00778314 </v>
   <v>       0.00549511      -0.00558236       0.00475817 </v>
   <v>      -0.00353026       0.00590620       0.00298458 </v>
   <v>      -0.00142631       0.00159246       0.01120629 </v>
   <v>      -0.00204753       0.00533992       0.00136981 </v>
   <v>      -0.00005898       0.00031094      -0.01200567 </v>
   <v>       0.00178707      -0.01090221      -0.01137811 </v>
   <v>       0.00168545      -0.00069883      -0.00047832 </v>
   <v>       0.00192560       0.00047498      -0.00588979 </v>
   <v>       0.00403692      -0.00562097      -0.00575155 </v>
   <v>       0.00392785       0.00430920      -0.00227266 </v>
   <v>       0.00148821      -0.00823731      -0.00115813 </v>
   <v>       0.00054224       0.00259008       0.00675102 </v>
   <v>      -0.00683860       0.00481492      -0.00478359 </v>
   <v>      -0.00156078      -0.00053731       0.00075520 </v>
   <v>       0.00512838       0.00119484       0.00655117 </v>
   <v>      -0.00793769       0.00832887       0.00001652 </v>
   <v>       0.00303130      -0.00115511       0.00457949 </v>
   <v>      -0.01106380      -0.00048381      -0.00092668 </v>
   <v>       0.00278759       0.00096552      -0.00411714 </v>
   <v>      -0.00143145      -0.00004698       0.00822084 </v>
   <v>      -0.00524899       0.00972919       0.00620262 </v>
   <v>      -0.00155478       0.00589478       0.12808919 </v>
  </varray>
  <varray name="stress" >
   <v>      -9.28512445      -0.78701903      -0.00370422 </v>
   <v>      -0.78701884     -11.73231072       0.00664999 </v>
   <v>      -0.00370448       0.00665006      -0.19528755 </v>
  </varray>
  <energy>
   <i name="e_fr_energy">   -830.44247567 </i>
   <i name="e_wo_entrp">   -830.44229594 </i>
   <i name="e_0_energy">   -830.44238580 </i>
  </energy>
  <time name="totalsc">  642.82  648.77</time>
 </calculation>
 <calculation>
  <scstep>
   <time name="dav">   95.52   96.40</time>
   <time name="total">   97.69   98.59</time>
   <energy>
    <i name="alphaZ">    185.49599500 </i>
    <i name="ewald">  37670.07352439 </i>
    <i name="hartreedc"> -50863.56180637 </i>
    <i name="XCdc">   1356.33586311 </i>
    <i name="pawpsdc">  38356.47724578 </i>
    <i name="pawaedc"> -38433.05051020 </i>
    <i name="eentropy">     -0.00017808 </i>
    <i name="bandstr">  -4524.70698246 </i>
    <i name="atom">  15429.98794498 </i>
    <i name="e_fr_energy">   -822.94890384 </i>
    <i name="e_wo_entrp">   -822.94872576 </i>
    <i name="e_0_energy">   -822.94881480 </i>
   </energy>
  </scstep>
  <scstep>
   <time name="dav">  108.45  109.45</time>
   <time name="total">  110.65  111.66</time>
   <energy>
    <i name="e_fr_energy">   -822.94891109 </i>
    <i name="e_wo_entrp">   -822.94873304 </i>
    <i name="e_0_energy">   -822.94882206 </i>
   </energy>
  </scstep>
  <scstep>
   <time name="dav">  104.01  105.00</time>
   <time name="total">  106.20  107.22</time>
   <energy>
    <i name="e_fr_energy">   -822.94890704 </i>
    <i name="e_wo_entrp">   -822.94872896 </i>
    <i name="e_0_energy">   -822.94881800 </i>
   </energy>
  </scstep>
  <scstep>
   <time name="dav">   90.96   91.78</time>
   <time name="total">   93.08   93.91</time>
   <energy>
    <i name="e_fr_energy">   -822.94890539 </i>
    <i name="e_wo_entrp">   -822.94872723 </i>
    <i name="e_0_energy">   -822.94881631 </i>
   </energy>
  </scstep>
  <scstep>
   <time name="dav">   69.53   70.15</time>
   <time name="total">   70.69   71.31</time>
   <energy>
    <i name="alphaZ">    185.49599500 </i>
    <i name="ewald">  37670.07352439 </i>
    <i name="hartreedc"> -50863.56257024 </i>
    <i name="XCdc">   1356.33587508 </i>
    <i name="pawpsdc">  38356.41072885 </i>
    <i name="pawaedc"> -38432.98382811 </i>
    <i name="eentropy">     -0.00017817 </i>
    <i name="bandstr">  -4524.70639720 </i>
    <i name="atom">  15429.98794498 </i>
    <i name="e_fr_energy">   -822.94890542 </i>
    <i name="e_wo_entrp">   -822.94872725 </i>
    <i name="e_0_energy">   -822.94881634 </i>
   </energy>
  </scstep>
  <structure>
   <crystal>
    <varray name="basis" >
     <v>      17.27103806       0.00000000       0.00000000 </v>
     <v>      -8.63551903      14.95715771       0.00000000 </v>
     <v>       0.00000000       0.00000000      15.00000000 </v>
    </varray>
[...]
       <r>   -18.5328     7.8935    30.1194 </r>
       <r>   -18.4100     6.7410    30.9470 </r>
       <r>   -18.2872     8.2327    31.9577 </r>
       <r>   -18.1645     8.0863    32.9504 </r>
       <r>   -18.0417     5.7926    33.6616 </r>
       <r>   -17.9189     7.1011    34.5334 </r>
       <r>   -17.7961     7.4646    35.4498 </r>
       <r>   -17.6734    10.5436    36.7443 </r>
       <r>   -17.5506     6.6872    37.5653 </r>
       <r>   -17.4278     5.7633    38.2728 </r>
       <r>   -17.3051     7.4234    39.1842 </r>
       <r>   -17.1823    12.0612    40.6650 </r>
       <r>   -17.0595    11.0007    42.0155 </r>
       <r>   -16.9368     3.7618    42.4774 </r>
       <r>   -16.8140     5.3846    43.1385 </r>
       <r>   -16.6912    12.6153    44.6872 </r>
       <r>   -16.5684     5.2008    45.3258 </r>
       <r>   -16.4457     2.5655    45.6407 </r>
       <r>   -16.3229     2.7404    45.9772 </r>
       <r>   -16.2001     3.8710    46.4524 </r>
       <r>   -16.0774     2.7680    46.7922 </r>
       <r>   -15.9546     4.2264    47.3111 </r>
       <r>   -15.8318     6.1331    48.0641 </r>
       <r>   -15.7090     6.3417    48.8426 </r>
       <r>   -15.5863     6.3970    49.6280 </r>
       <r>   -15.4635     7.4192    50.5389 </r>
       <r>   -15.3407    10.4885    51.8265 </r>
       <r>   -15.2180     7.3405    52.7277 </r>
       <r>   -15.0952    10.0119    53.9569 </r>
       <r>   -14.9724    10.5742    55.2551 </r>
       <r>   -14.8497     8.4652    56.2944 </r>
       <r>   -14.7269     6.1778    57.0528 </r>
       <r>   -14.6041     8.4394    58.0889 </r>
       <r>   -14.4813    10.2446    59.3467 </r>
       <r>   -14.3586     6.7235    60.1721 </r>
       <r>   -14.2358     6.5177    60.9723 </r>
       <r>   -14.1130     5.4353    61.6396 </r>
       <r>   -13.9903     6.6322    62.4538 </r>
       <r>   -13.8675     7.6294    63.3905 </r>
       <r>   -13.7447     8.3712    64.4183 </r>
       <r>   -13.6219     8.9300    65.5146 </r>
       <r>   -13.4992     4.4466    66.0605 </r>
       <r>   -13.3764     5.4943    66.7351 </r>
       <r>   -13.2536     6.7252    67.5607 </r>
       <r>   -13.1309     3.8403    68.0322 </r>
       <r>   -13.0081     6.7921    68.8661 </r>
       <r>   -12.8853    11.1223    70.2316 </r>
       <r>   -12.7626    12.5012    71.7663 </r>
       <r>   -12.6398     5.6361    72.4583 </r>
       <r>   -12.5170     6.6729    73.2775 </r>
       <r>   -12.3942    10.1493    74.5236 </r>
       <r>   -12.2715     7.3077    75.4207 </r>
       <r>   -12.1487    10.9585    76.7661 </r>
       <r>   -12.0259     7.2771    77.6595 </r>
       <r>   -11.9032    10.0159    78.8892 </r>
       <r>   -11.7804    11.1609    80.2594 </r>
       <r>   -11.6576     8.6011    81.3154 </r>
       <r>   -11.5348    10.0937    82.5546 </r>
       <r>   -11.4121     8.5985    83.6102 </r>
       <r>   -11.2893     8.6035    84.6665 </r>
       <r>   -11.1665     8.7609    85.7421 </r>
       <r>   -11.0438    12.5189    87.2790 </r>
       <r>   -10.9210    10.6409    88.5854 </r>
       <r>   -10.7982     7.6998    89.5307 </r>
       <r>   -10.6755     9.2209    90.6628 </r>
       <r>   -10.5527    12.7295    92.2256 </r>
       <r>   -10.4299     9.9781    93.4506 </r>
       <r>   -10.3071    10.1662    94.6987 </r>
       <r>   -10.1844    17.2961    96.8222 </r>
       <r>   -10.0616    15.8328    98.7660 </r>
       <r>    -9.9388    22.0321   101.4709 </r>
       <r>    -9.8161    18.0060   103.6815 </r>
       <r>    -9.6933    22.1383   106.3994 </r>
       <r>    -9.5705    27.8818   109.8225 </r>
       <r>    -9.4477    21.5386   112.4668 </r>
       <r>    -9.3250    17.8932   114.6635 </r>
       <r>    -9.2022    21.5051   117.3037 </r>
       <r>    -9.0794    19.8138   119.7363 </r>
       <r>    -8.9567    21.8147   122.4145 </r>
       <r>    -8.8339    20.4226   124.9218 </r>
       <r>    -8.7111    19.0115   127.2558 </r>
       <r>    -8.5884    13.8495   128.9562 </r>
       <r>    -8.4656    19.6902   131.3735 </r>
       <r>    -8.3428    19.5688   133.7760 </r>
       <r>    -8.2200    12.9178   135.3619 </r>
       <r>    -8.0973    13.6292   137.0352 </r>
       <r>    -7.9745    14.0850   138.7644 </r>
       <r>    -7.8517    15.6677   140.6880 </r>
       <r>    -7.7290    11.4444   142.0930 </r>
       <r>    -7.6062    12.3251   143.6062 </r>
       <r>    -7.4834    19.0662   145.9469 </r>
       <r>    -7.3606    14.6947   147.7510 </r>
       <r>    -7.2379    17.3716   149.8837 </r>
       <r>    -7.1151    10.2799   151.1458 </r>
       <r>    -6.9923    15.0033   152.9878 </r>
       <r>    -6.8696    12.8710   154.5679 </r>
       <r>    -6.7468    15.0357   156.4139 </r>
       <r>    -6.6240    12.4325   157.9402 </r>
       <r>    -6.5013    10.5535   159.2359 </r>
       <r>    -6.3785    13.2351   160.8608 </r>
       <r>    -6.2557     9.3445   162.0080 </r>
       <r>    -6.1329    12.5408   163.5476 </r>
       <r>    -6.0102     8.5231   164.5940 </r>
       <r>    -5.8874    16.3249   166.5983 </r>
       <r>    -5.7646    10.0134   167.8276 </r>
       <r>    -5.6419     7.7591   168.7802 </r>
       <r>    -5.5191     7.0754   169.6488 </r>
       <r>    -5.3963     5.8878   170.3717 </r>
       <r>    -5.2735    12.9619   171.9630 </r>
       <r>    -5.1508    11.0808   173.3234 </r>
       <r>    -5.0280    12.8376   174.8995 </r>
       <r>    -4.9052     4.0166   175.3926 </r>
       <r>    -4.7825    14.7834   177.2076 </r>
       <r>    -4.6597    11.7411   178.6490 </r>
       <r>    -4.5369    13.1315   180.2612 </r>
       <r>    -4.4142    10.1634   181.5090 </r>
       <r>    -4.2914    16.9219   183.5865 </r>
       <r>    -4.1686    15.0905   185.4391 </r>
       <r>    -4.0458     9.6731   186.6267 </r>
       <r>    -3.9231     4.9321   187.2322 </r>
       <r>    -3.8003    10.2785   188.4941 </r>
       <r>    -3.6775     3.5839   188.9341 </r>
       <r>    -3.5548     2.0565   189.1866 </r>
       <r>    -3.4320     0.7086   189.2736 </r>
       <r>    -3.3092     1.9029   189.5072 </r>
       <r>    -3.1864     1.8781   189.7378 </r>
       <r>    -3.0637     0.4988   189.7990 </r>
       <r>    -2.9409     1.4026   189.9712 </r>
       <r>    -2.8181     0.3510   190.0143 </r>
       <r>    -2.6954     1.3191   190.1763 </r>
       <r>    -2.5726     0.6150   190.2518 </r>
       <r>    -2.4498     1.8247   190.4758 </r>
       <r>    -2.3271     2.2318   190.7498 </r>
       <r>    -2.2043     1.3173   190.9115 </r>
       <r>    -2.0815     1.6482   191.1139 </r>
       <r>    -1.9587     4.1916   191.6285 </r>
       <r>    -1.8360     4.1245   192.1348 </r>
       <r>    -1.7132     4.0920   192.6372 </r>
       <r>    -1.5904     5.0666   193.2592 </r>
       <r>    -1.4677     3.9073   193.7389 </r>
       <r>    -1.3449     0.4678   193.7964 </r>
       <r>    -1.2221     7.7026   194.7420 </r>
       <r>    -1.0993    11.1655   196.1128 </r>
       <r>    -0.9766     6.7694   196.9439 </r>
       <r>    -0.8538    13.6211   198.6162 </r>
       <r>    -0.7310    12.7577   200.1824 </r>
       <r>    -0.6083     7.0763   201.0512 </r>
       <r>    -0.4855     4.0637   201.5501 </r>
       <r>    -0.3627     6.6634   202.3682 </r>
       <r>    -0.2400    10.2117   203.6219 </r>
       <r>    -0.1172    10.7166   204.9375 </r>
       <r>     0.0056     4.3015   205.4656 </r>
       <r>     0.1284     4.7939   206.0542 </r>
       <r>     0.2511     3.4262   206.4748 </r>
       <r>     0.3739     5.5815   207.1601 </r>
       <r>     0.4967     7.9327   208.1340 </r>
       <r>     0.6194     8.3257   209.1561 </r>
       <r>     0.7422     5.4164   209.8211 </r>
       <r>     0.8650     8.2729   210.8368 </r>
       <r>     0.9878    10.6202   212.1406 </r>
       <r>     1.1105     7.6549   213.0804 </r>
       <r>     1.2333    11.4699   214.4886 </r>
       <r>     1.3561    10.8123   215.8160 </r>
       <r>     1.4788    10.4352   217.0971 </r>
       <r>     1.6016     8.5927   218.1521 </r>
       <r>     1.7244    11.0516   219.5089 </r>
       <r>     1.8471    14.3943   221.2761 </r>
       <r>     1.9699    19.9303   223.7229 </r>
       <r>     2.0927    15.9128   225.6766 </r>
       <r>     2.2155     7.7173   226.6240 </r>
       <r>     2.3382    22.3205   229.3643 </r>
       <r>     2.4610    19.2760   231.7309 </r>
       <r>     2.5838    20.2508   234.2171 </r>
       <r>     2.7065    19.8252   236.6510 </r>
       <r>     2.8293    25.3304   239.7608 </r>
       <r>     2.9521    22.7579   242.5548 </r>
       <r>     3.0749    14.5134   244.3367 </r>
       <r>     3.1976    16.9985   246.4236 </r>
       <r>     3.3204    26.4413   249.6698 </r>
       <r>     3.4432    24.5126   252.6792 </r>
       <r>     3.5659    18.3140   254.9276 </r>
       <r>     3.6887    18.6116   257.2126 </r>
       <r>     3.8115    21.9441   259.9067 </r>
       <r>     3.9342    24.1150   262.8673 </r>
       <r>     4.0570    16.7891   264.9285 </r>
       <r>     4.1798     8.1050   265.9236 </r>
       <r>     4.3026     0.6158   265.9992 </r>
       <r>     4.4253     0.0069   266.0000 </r>
       <r>     4.5481     0.0000   266.0000 </r>
       <r>     4.6709     0.0000   266.0000 </r>
       <r>     4.7936     0.0000   266.0000 </r>
       <r>     4.9164     0.0000   266.0000 </r>
       <r>     5.0392     0.0000   266.0000 </r>
       <r>     5.1620     0.0000   266.0000 </r>
       <r>     5.2847     0.0000   266.0000 </r>
       <r>     5.4075     0.0000   266.0000 </r>
       <r>     5.5303     0.0000   266.0000 </r>
       <r>     5.6530     0.0000   266.0000 </r>
       <r>     5.7758     0.0000   266.0000 </r>
       <r>     5.8986     0.0000   266.0000 </r>
      </set>
     </set>
    </array>
   </total>
  </dos>
 </calculation>
 <structure name="finalpos" >
  <crystal>
   <varray name="basis" >
    <v>      17.27103806       0.00000000       0.00000000 </v>
    <v>      -8.63551903      14.95715771       0.00000000 </v>
    <v>       0.00000000       0.00000000      15.00000000 </v>
   </varray>
   <i name="volume">   3874.88459904 </i>
   <varray name="rec_basis" >
    <v>       0.05790040       0.03342881      -0.00000000 </v>
    <v>       0.00000000       0.06685762       0.00000000 </v>
    <v>       0.00000000      -0.00000000       0.06666667 </v>
   </varray>
  </crystal>
  <varray name="positions" >
   <v>       0.99988868       0.99990859       0.49496527 </v>
   <v>       0.00017489       0.14296328       0.49522115 </v>
   <v>       0.00014299       0.28585606       0.49647292 </v>
   <v>       0.99976101       0.42878143       0.49751956 </v>
   <v>       0.00013017       0.57155527       0.49759313 </v>
   <v>       0.00109452       0.71458818       0.49709014 </v>
   <v>       0.00021858       0.85744951       0.49573295 </v>
   <v>       0.14369873       0.00100266       0.49461542 </v>
   <v>       0.14420439       0.14431841       0.49311482 </v>
   <v>       0.14376534       0.28640064       0.49283340 </v>
   <v>       0.14276027       0.42917289       0.49481565 </v>
   <v>       0.14381693       0.57167851       0.49639608 </v>
   <v>       0.14405197       0.71438008       0.49713482 </v>
   <v>       0.14360477       0.85763052       0.49651250 </v>
   <v>       0.28646262       0.00043408       0.49467025 </v>
   <v>       0.28728934       0.14409133       0.49095970 </v>
   <v>       0.28955343       0.28959817       0.48504428 </v>
   <v>       0.28517379       0.43278916       0.48516470 </v>
   <v>       0.28855240       0.56943346       0.49117056 </v>
   <v>       0.28748348       0.71420680       0.49515938 </v>
   <v>       0.28651336       0.85742857       0.49608200 </v>
   <v>       0.42934918       0.00038132       0.49488875 </v>
   <v>       0.42955798       0.14435128       0.49283870 </v>
   <v>       0.42939514       0.85635916       0.49473501 </v>
   <v>       0.57145734       0.99991563       0.49472768 </v>
   <v>       0.57157106       0.14351832       0.49463373 </v>
   <v>       0.57383884       0.29053520       0.49316144 </v>
   <v>       0.57359368       0.85544621       0.49301391 </v>
   <v>       0.71380317       0.99952914       0.49430465 </v>
   <v>       0.71430530       0.14311721       0.49583584 </v>
   <v>       0.71386498       0.28637026       0.49572734 </v>
   <v>       0.70935676       0.42633041       0.49415598 </v>
   <v>       0.70932230       0.85554489       0.49056362 </v>
   <v>       0.85655240       0.99939767       0.49425109 </v>
   <v>       0.85688373       0.14268377       0.49603379 </v>
   <v>       0.85686198       0.28577233       0.49713039 </v>
   <v>       0.85645542       0.42878742       0.49684105 </v>
   <v>       0.85652825       0.57136857       0.49560990 </v>
   <v>       0.85830829       0.71408377       0.49387299 </v>
   <v>       0.85534852       0.85558318       0.49322281 </v>
   <v>       0.04830871       0.09578089       0.49463509 </v>
   <v>       0.04801780       0.23825519       0.49517023 </v>
   <v>       0.04719430       0.38112277       0.49673581 </v>
   <v>       0.04816519       0.52414572       0.49747128 </v>
   <v>       0.04851568       0.66691975       0.49750962 </v>
   <v>       0.04810885       0.80985299       0.49662281 </v>
   <v>       0.04803214       0.95273379       0.49527306 </v>
   <v>       0.19163423       0.09629331       0.49269977 </v>
   <v>       0.19282252       0.24007898       0.49109233 </v>
   <v>       0.18996731       0.38161553       0.49187796 </v>
   <v>       0.19177171       0.52433577       0.49442371 </v>
   <v>       0.19180331       0.66691274       0.49631195 </v>
   <v>       0.19137428       0.80993756       0.49675557 </v>
   <v>       0.19133293       0.95303799       0.49530372 </v>
   <v>       0.33438994       0.09621576       0.49282180 </v>
   <v>       0.33883027       0.24014457       0.48735942 </v>
   <v>       0.33889210       0.66938307       0.49319534 </v>
   <v>       0.33433967       0.80934504       0.49548533 </v>
   <v>       0.33389620       0.95262410       0.49533857 </v>
   <v>       0.47672660       0.09584929       0.49421288 </v>
   <v>       0.47459253       0.24033559       0.49144388 </v>
   <v>       0.47436246       0.80522541       0.49367799 </v>
   <v>       0.47661462       0.95223194       0.49486064 </v>
   <v>       0.61884258       0.09537598       0.49513839 </v>
   <v>       0.61879873       0.23938281       0.49454378 </v>
   <v>       0.61863062       0.95141759       0.49405825 </v>
   <v>       0.76174690       0.09531142       0.49560916 </v>
   <v>       0.76170845       0.23830172       0.49644727 </v>
   <v>       0.76075625       0.38150489       0.49573075 </v>
   <v>       0.75972226       0.52626282       0.49317634 </v>
   <v>       0.76301271       0.66285170       0.48908140 </v>
   <v>       0.75850821       0.80599451       0.48895777 </v>
   <v>       0.76089387       0.95162689       0.49313225 </v>
   <v>       0.90450523       0.09470156       0.49538343 </v>
   <v>       0.90463701       0.23808952       0.49684635 </v>
   <v>       0.90421029       0.38132406       0.49744551 </v>
   <v>       0.90447973       0.52402178       0.49694080 </v>
   <v>       0.90553438       0.66653156       0.49592111 </v>
   <v>       0.90445786       0.80929478       0.49439345 </v>
   <v>       0.90397957       0.95136046       0.49444380 </v>
   <v>       0.71660817       0.71220988       0.48297075 </v>
   <v>       0.33120546       0.38320196       0.47687582 </v>
   <v>       0.62865024       0.66373592       0.46919909 </v>
   <v>       0.41831158       0.43095896       0.45819745 </v>
   <v>       0.42878550       0.28457816       0.48824633 </v>
   <v>       0.42881381       0.71478884       0.49281741 </v>
   <v>       0.71597884       0.57186105       0.48915803 </v>
   <v>       0.33221070       0.52380905       0.48540336 </v>
   <v>       0.61942397       0.38096649       0.49310650 </v>
   <v>       0.61938141       0.81116971       0.49103304 </v>
   <v>       0.48936149       0.56740485       0.56336439 </v>
   <v>       0.54306939       0.51858326       0.56602444 </v>
   <v>       0.51365229       0.54138507       0.60466391 </v>
  </varray>
  <varray name="selective"  type="logical" >
   <v type="logical" >  T  T  T </v>
   <v type="logical" >  T  T  T </v>
   <v type="logical" >  T  T  T </v>
   <v type="logical" >  T  T  T </v>
   <v type="logical" >  T  T  T </v>
   <v type="logical" >  T  T  T </v>
   <v type="logical" >  T  T  T </v>
   <v type="logical" >  T  T  T </v>
   <v type="logical" >  T  T  T </v>
   <v type="logical" >  T  T  T </v>
   <v type="logical" >  T  T  T </v>
   <v type="logical" >  T  T  T </v>
   <v type="logical" >  T  T  T </v>
   <v type="logical" >  T  T  T </v>
   <v type="logical" >  T  T  T </v>
   <v type="logical" >  T  T  T </v>
   <v type="logical" >  T  T  T </v>
   <v type="logical" >  T  T  T </v>
   <v type="logical" >  T  T  T </v>
   <v type="logical" >  T  T  T </v>
   <v type="logical" >  T  T  T </v>
   <v type="logical" >  T  T  T </v>
   <v type="logical" >  T  T  T </v>
   <v type="logical" >  T  T  T </v>
   <v type="logical" >  T  T  T </v>
   <v type="logical" >  T  T  T </v>
   <v type="logical" >  T  T  T </v>
   <v type="logical" >  T  T  T </v>
   <v type="logical" >  T  T  T </v>
   <v type="logical" >  T  T  T </v>
   <v type="logical" >  T  T  T </v>
   <v type="logical" >  T  T  T </v>
   <v type="logical" >  T  T  T </v>
   <v type="logical" >  T  T  T </v>
   <v type="logical" >  T  T  T </v>
   <v type="logical" >  T  T  T </v>
   <v type="logical" >  T  T  T </v>
   <v type="logical" >  T  T  T </v>
   <v type="logical" >  T  T  T </v>
   <v type="logical" >  T  T  T </v>
   <v type="logical" >  T  T  T </v>
   <v type="logical" >  T  T  T </v>
   <v type="logical" >  T  T  T </v>
   <v type="logical" >  T  T  T </v>
   <v type="logical" >  T  T  T </v>
   <v type="logical" >  T  T  T </v>
   <v type="logical" >  T  T  T </v>
   <v type="logical" >  T  T  T </v>
   <v type="logical" >  T  T  T </v>
   <v type="logical" >  T  T  T </v>
   <v type="logical" >  T  T  T </v>
   <v type="logical" >  T  T  T </v>
   <v type="logical" >  T  T  T </v>
   <v type="logical" >  T  T  T </v>
   <v type="logical" >  T  T  T </v>
   <v type="logical" >  T  T  T </v>
   <v type="logical" >  T  T  T </v>
   <v type="logical" >  T  T  T </v>
   <v type="logical" >  T  T  T </v>
   <v type="logical" >  T  T  T </v>
   <v type="logical" >  T  T  T </v>
   <v type="logical" >  T  T  T </v>
   <v type="logical" >  T  T  T </v>
   <v type="logical" >  T  T  T </v>
   <v type="logical" >  T  T  T </v>
   <v type="logical" >  T  T  T </v>
   <v type="logical" >  T  T  T </v>
   <v type="logical" >  T  T  T </v>
   <v type="logical" >  T  T  T </v>
   <v type="logical" >  T  T  T </v>
   <v type="logical" >  T  T  T </v>
   <v type="logical" >  T  T  T </v>
   <v type="logical" >  T  T  T </v>
   <v type="logical" >  T  T  T </v>
   <v type="logical" >  T  T  T </v>
   <v type="logical" >  T  T  T </v>
   <v type="logical" >  T  T  T </v>
   <v type="logical" >  T  T  T </v>
   <v type="logical" >  T  T  T </v>
   <v type="logical" >  T  T  T </v>
   <v type="logical" >  T  T  T </v>
   <v type="logical" >  T  T  T </v>
   <v type="logical" >  T  T  T </v>
   <v type="logical" >  T  T  T </v>
   <v type="logical" >  T  T  T </v>
   <v type="logical" >  T  T  T </v>
   <v type="logical" >  T  T  T </v>
   <v type="logical" >  T  T  T </v>
   <v type="logical" >  T  T  T </v>
   <v type="logical" >  T  T  T </v>
   <v type="logical" >  T  T  T </v>
   <v type="logical" >  T  T  T </v>
   <v type="logical" >  T  T  F </v>
  </varray>
  <nose>
   <v>      -3.00000000       0.00000000       0.00010000       0.00010000 </v>
  </nose>
 </structure>
</modeling>
