unknown system                          
            1
    17.271038    0.000000    0.000000
    -8.635519   14.957158    0.000000
     0.000000    0.000000   15.000000
   C    F    N    H    O 
    82     2     6     2     1
Direct configuration=     1
   0.99988853  0.99991010  0.49472177
   0.00012958  0.14292155  0.49520169
   0.00008919  0.28582642  0.49669089
   0.99980760  0.42882174  0.49759126
   0.00016043  0.57161388  0.49751243
   0.00106109  0.71461299  0.49711261
   0.00021131  0.85747044  0.49574151
   0.14372606  0.00100296  0.49452299
   0.14417690  0.14432469  0.49307202
   0.14367824  0.28636592  0.49294960
   0.14272499  0.42916189  0.49511934
   0.14381780  0.57168812  0.49640961
   0.14406965  0.71443729  0.49723535
   0.14360609  0.85767248  0.49663957
   0.28649933  0.00050779  0.49499945
   0.28725933  0.14411575  0.49104425
   0.28948112  0.28956707  0.48484710
   0.28511229  0.43275118  0.48515409
   0.28851556  0.56942712  0.49122145
   0.28745072  0.71425724  0.49531341
   0.28653169  0.85748520  0.49638081
   0.42935346  0.00040524  0.49477915
   0.42960313  0.14435217  0.49277750
   0.42942162  0.85641231  0.49477385
   0.57153075  0.99992140  0.49468796
   0.57166529  0.14359187  0.49458747
   0.57387786  0.29056677  0.49329776
   0.57358926  0.85540599  0.49322329
   0.71384105  0.99951994  0.49449183
   0.71432256  0.14308240  0.49586601
   0.71393649  0.28635909  0.49600223
   0.70943992  0.42632799  0.49439652
   0.70931136  0.85549805  0.49087177
   0.85651078  0.99933636  0.49431659
   0.85690740  0.14263142  0.49593369
   0.85690499  0.28580139  0.49711226
   0.85649345  0.42879961  0.49692000
   0.85657625  0.57138487  0.49568138
   0.85824150  0.71408023  0.49392433
   0.85530478  0.85555669  0.49339992
   0.04827085  0.09576830  0.49456505
   0.04794435  0.23821787  0.49534507
   0.04717396  0.38112559  0.49703136
   0.04818186  0.52419379  0.49744646
   0.04849878  0.66698558  0.49753166
   0.04812104  0.80991693  0.49667894
   0.04806297  0.95275793  0.49513940
   0.19164753  0.09634370  0.49268205
   0.19276006  0.24006458  0.49098639
   0.18989275  0.38157185  0.49209606
   0.19173132  0.52434471  0.49458356
   0.19183425  0.66698590  0.49632905
   0.19138768  0.80998700  0.49698972
   0.19135635  0.95307453  0.49548153
   0.33441399  0.09624507  0.49298972
   0.33879618  0.24015787  0.48727026
   0.33885007  0.66939875  0.49323859
   0.33434292  0.80942530  0.49566888
   0.33393736  0.95271068  0.49560024
   0.47676710  0.09590229  0.49403178
   0.47462650  0.24041480  0.49138145
   0.47439409  0.80523755  0.49376709
   0.47662414  0.95221337  0.49477787
   0.61892407  0.09541895  0.49511175
   0.61886228  0.23939254  0.49475443
   0.61868612  0.95147784  0.49415438
   0.76176670  0.09526340  0.49557926
   0.76175717  0.23831762  0.49648362
   0.76083198  0.38149698  0.49597193
   0.75975176  0.52623524  0.49330415
   0.76291788  0.66280271  0.48916030
   0.75845097  0.80595512  0.48911921
   0.76089448  0.95157444  0.49331438
   0.90448251  0.09466326  0.49527168
   0.90462418  0.23805476  0.49682442
   0.90424155  0.38133502  0.49753466
   0.90451925  0.52409310  0.49701551
   0.90551458  0.66656723  0.49594716
   0.90441910  0.80928845  0.49451796
   0.90396031  0.95134751  0.49447298
   0.71651519  0.71213950  0.48301049
   0.33115794  0.38320706  0.47680935
   0.62859330  0.66371046  0.46900055
   0.41830057  0.43088636  0.45834866
   0.42879422  0.28459880  0.48816120
   0.42878095  0.71480104  0.49280540
   0.71597771  0.57178966  0.48923338
   0.33213969  0.52378739  0.48532576
   0.61952530  0.38097358  0.49325065
   0.61934717  0.81114287  0.49132910
   0.48948263  0.56731559  0.56328545
   0.54296074  0.51827393  0.56601150
   0.51364103  0.54119833  0.60466391
Direct configuration=     2
   0.99988308  0.99990520  0.49474410
   0.00013194  0.14292828  0.49520170
   0.00009796  0.28583448  0.49668560
   0.99979329  0.42881858  0.49759594
   0.00015899  0.57161608  0.49752196
   0.00107084  0.71463109  0.49711377
   0.00020752  0.85747093  0.49574108
   0.14372537  0.00102331  0.49453180
   0.14417457  0.14432123  0.49306704
   0.14368595  0.28636828  0.49294942
   0.14272893  0.42916418  0.49511420
   0.14382112  0.57171086  0.49640825
   0.14406104  0.71443629  0.49723105
   0.14361124  0.85767291  0.49664195
   0.28649411  0.00049797  0.49499007
   0.28728021  0.14411927  0.49104018
   0.28948686  0.28957791  0.48485466
   0.28510940  0.43275874  0.48515677
   0.28851114  0.56943028  0.49121906
   0.28747344  0.71426331  0.49530475
   0.28653157  0.85749428  0.49637437
   0.42937448  0.00041290  0.49478742
   0.42959784  0.14438091  0.49277820
   0.42941414  0.85639268  0.49477797
   0.57150846  0.99993020  0.49468575
   0.57164315  0.14356565  0.49459026
   0.57388645  0.29056165  0.49329391
   0.57360120  0.85543596  0.49321571
   0.71383475  0.99951201  0.49447974
   0.71434649  0.14310326  0.49586131
   0.71392758  0.28636670  0.49599074
   0.70944016  0.42632370  0.49438715
   0.70930156  0.85549869  0.49085729
   0.85652658  0.99935170  0.49431040
   0.85689475  0.14264431  0.49593402
   0.85689751  0.28578651  0.49711639
   0.85650505  0.42881401  0.49692682
   0.85656173  0.57139383  0.49568059
   0.85824344  0.71407667  0.49392935
   0.85530674  0.85555998  0.49339223
   0.04827923  0.09576850  0.49455833
   0.04795021  0.23821881  0.49534106
   0.04717640  0.38111862  0.49702342
   0.04818190  0.52418928  0.49744459
   0.04851170  0.66697890  0.49752712
   0.04811340  0.80990155  0.49667714
   0.04805465  0.95275448  0.49513331
   0.19163109  0.09632126  0.49268436
   0.19275967  0.24006414  0.49099270
   0.18990319  0.38157929  0.49208738
   0.19173803  0.52433671  0.49458122
   0.19180877  0.66696193  0.49633796
   0.19138567  0.80998849  0.49698523
   0.19135789  0.95307371  0.49547668
   0.33441554  0.09625697  0.49298589
   0.33880459  0.24015940  0.48727101
   0.33885383  0.66940289  0.49323656
   0.33435061  0.80941357  0.49566591
   0.33392897  0.95269477  0.49559184
   0.47678080  0.09589256  0.49403643
   0.47462034  0.24038706  0.49138732
   0.47437390  0.80523573  0.49376169
   0.47664458  0.95224666  0.49477785
   0.61890401  0.09540355  0.49511347
   0.61886144  0.23940665  0.49474827
   0.61867468  0.95143784  0.49415958
   0.76177058  0.09527456  0.49558407
   0.76175377  0.23830079  0.49648845
   0.76082556  0.38149857  0.49597018
   0.75976290  0.52624544  0.49330425
   0.76292886  0.66279671  0.48915463
   0.75845293  0.80594450  0.48912388
   0.76088759  0.95157408  0.49331914
   0.90448314  0.09465302  0.49528014
   0.90462282  0.23805651  0.49682535
   0.90425045  0.38134589  0.49752453
   0.90451770  0.52406640  0.49700597
   0.90550920  0.66655914  0.49594610
   0.90442159  0.80928897  0.49451363
   0.90396149  0.95133890  0.49446817
   0.71652171  0.71214953  0.48300933
   0.33114945  0.38318988  0.47680912
   0.62859065  0.66371015  0.46900445
   0.41830219  0.43089235  0.45834476
   0.42878335  0.28460070  0.48816100
   0.42878066  0.71479924  0.49281050
   0.71597406  0.57179842  0.48923359
   0.33214131  0.52378357  0.48532866
   0.61951664  0.38097467  0.49325070
   0.61935771  0.81114032  0.49132752
   0.48948379  0.56731341  0.56329413
   0.54295978  0.51828120  0.56601708
   0.51364127  0.54120329  0.60466391
Direct configuration=     3
   0.99988020  0.99990260  0.49475591
   0.00013318  0.14293184  0.49520171
   0.00010260  0.28583875  0.49668280
   0.99978572  0.42881690  0.49759842
   0.00015823  0.57161725  0.49752700
   0.00107600  0.71464066  0.49711439
   0.00020552  0.85747119  0.49574085
   0.14372500  0.00103407  0.49453646
   0.14417334  0.14431940  0.49306440
   0.14369003  0.28636952  0.49294932
   0.14273101  0.42916539  0.49511147
   0.14382288  0.57172289  0.49640753
   0.14405649  0.71443576  0.49722877
   0.14361397  0.85767315  0.49664321
   0.28649134  0.00049277  0.49498510
   0.28729125  0.14412113  0.49103803
   0.28948989  0.28958364  0.48485866
   0.28510786  0.43276274  0.48515819
   0.28850880  0.56943196  0.49121779
   0.28748546  0.71426651  0.49530017
   0.28653150  0.85749909  0.49637097
   0.42938561  0.00041694  0.49479179
   0.42959504  0.14439610  0.49277856
   0.42941018  0.85638230  0.49478016
   0.57149667  0.99993486  0.49468458
   0.57163144  0.14355178  0.49459174
   0.57389100  0.29055895  0.49329187
   0.57360752  0.85545181  0.49321170
   0.71383142  0.99950781  0.49447334
   0.71435915  0.14311429  0.49585883
   0.71392288  0.28637073  0.49598466
   0.70944028  0.42632143  0.49438219
   0.70929638  0.85549903  0.49084962
   0.85653494  0.99935982  0.49430712
   0.85688805  0.14265112  0.49593420
   0.85689356  0.28577865  0.49711858
   0.85651119  0.42882162  0.49693043
   0.85655405  0.57139857  0.49568017
   0.85824446  0.71407478  0.49393200
   0.85530777  0.85556172  0.49338816
   0.04828366  0.09576860  0.49455477
   0.04795330  0.23821931  0.49533893
   0.04717769  0.38111494  0.49701922
   0.04818193  0.52418689  0.49744361
   0.04851853  0.66697536  0.49752472
   0.04810935  0.80989342  0.49667619
   0.04805024  0.95275266  0.49513009
   0.19162240  0.09630940  0.49268559
   0.19275947  0.24006390  0.49099603
   0.18990871  0.38158322  0.49208279
   0.19174159  0.52433248  0.49457998
   0.19179529  0.66694925  0.49634267
   0.19138461  0.80998927  0.49698285
   0.19135870  0.95307328  0.49547412
   0.33441636  0.09626326  0.49298386
   0.33880904  0.24016020  0.48727141
   0.33885582  0.66940508  0.49323548
   0.33435468  0.80940736  0.49566434
   0.33392453  0.95268636  0.49558740
   0.47678804  0.09588741  0.49403889
   0.47461709  0.24037239  0.49139043
   0.47436322  0.80523478  0.49375883
   0.47665539  0.95226427  0.49477784
   0.61889339  0.09539540  0.49511438
   0.61886099  0.23941410  0.49474501
   0.61866863  0.95141668  0.49416232
   0.76177263  0.09528046  0.49558662
   0.76175197  0.23829188  0.49649100
   0.76082217  0.38149941  0.49596925
   0.75976879  0.52625084  0.49330430
   0.76293467  0.66279354  0.48915163
   0.75845397  0.80593888  0.48912635
   0.76088394  0.95157389  0.49332165
   0.90448347  0.09464761  0.49528462
   0.90462210  0.23805744  0.49682585
   0.90425516  0.38135165  0.49751917
   0.90451687  0.52405228  0.49700093
   0.90550636  0.66655486  0.49594553
   0.90442291  0.80928924  0.49451134
   0.90396210  0.95133435  0.49446563
   0.71652516  0.71215484  0.48300873
   0.33114496  0.38318079  0.47680900
   0.62858925  0.66370999  0.46900651
   0.41830304  0.43089551  0.45834269
   0.42877759  0.28460171  0.48816090
   0.42878050  0.71479830  0.49281320
   0.71597212  0.57180305  0.48923370
   0.33214217  0.52378155  0.48533020
   0.61951205  0.38097524  0.49325072
   0.61936329  0.81113897  0.49132669
   0.48948441  0.56731226  0.56329872
   0.54295928  0.51828504  0.56602003
   0.51364140  0.54120591  0.60466391
Direct configuration=     4
   0.99987754  0.99989838  0.49477705
   0.00013882  0.14293383  0.49520154
   0.00010942  0.28584280  0.49667614
   0.99978449  0.42881395  0.49760107
   0.00015830  0.57160919  0.49753522
   0.00107946  0.71463676  0.49711482
   0.00020296  0.85746898  0.49573903
   0.14371847  0.00103299  0.49454498
   0.14417431  0.14431711  0.49305909
   0.14369740  0.28637232  0.49294850
   0.14273497  0.42916501  0.49510439
   0.14382016  0.57171954  0.49640672
   0.14405338  0.71443181  0.49722450
   0.14361342  0.85767179  0.49664453
   0.28649031  0.00048868  0.49497363
   0.28728963  0.14411739  0.49103394
   0.28949042  0.28958287  0.48486809
   0.28511027  0.43276701  0.48515962
   0.28850713  0.56943128  0.49121530
   0.28748355  0.71425787  0.49529176
   0.28653134  0.85749412  0.49636305
   0.42939055  0.00042016  0.49480000
   0.42959697  0.14439766  0.49278053
   0.42941092  0.85638666  0.49478337
   0.57149665  0.99993326  0.49468306
   0.57162748  0.14354614  0.49459485
   0.57389128  0.29055774  0.49328767
   0.57360586  0.85544931  0.49320377
   0.71382517  0.99950197  0.49446284
   0.71435416  0.14311289  0.49585494
   0.71391801  0.28637257  0.49597271
   0.70943819  0.42632337  0.49437249
   0.70929534  0.85549790  0.49083598
   0.85653854  0.99936113  0.49430147
   0.85688633  0.14265288  0.49593616
   0.85689387  0.28577891  0.49712256
   0.85651279  0.42882136  0.49693546
   0.85655057  0.57139294  0.49567859
   0.85824926  0.71407221  0.49393624
   0.85530980  0.85555953  0.49337993
   0.04828420  0.09576927  0.49454974
   0.04796078  0.23822316  0.49533400
   0.04717700  0.38111363  0.49701071
   0.04817933  0.52418800  0.49744322
   0.04852011  0.66697808  0.49752075
   0.04810940  0.80989272  0.49667472
   0.04804394  0.95275134  0.49512719
   0.19162724  0.09631025  0.49268752
   0.19276112  0.24006260  0.49100302
   0.18991351  0.38158814  0.49207385
   0.19174591  0.52433746  0.49457683
   0.19179725  0.66695260  0.49635024
   0.19138465  0.80999175  0.49697718
   0.19135774  0.95307665  0.49546918
   0.33441769  0.09626616  0.49297902
   0.33881421  0.24016222  0.48727218
   0.33885746  0.66940392  0.49323288
   0.33435792  0.80940348  0.49566071
   0.33392796  0.95268306  0.49557802
   0.47678103  0.09588698  0.49404484
   0.47461320  0.24036959  0.49139564
   0.47435656  0.80523328  0.49375350
   0.47665404  0.95226607  0.49477904
   0.61889250  0.09539411  0.49511565
   0.61885762  0.23941079  0.49473708
   0.61866012  0.95141213  0.49416560
   0.76177053  0.09528420  0.49558984
   0.76174957  0.23829258  0.49649518
   0.76082032  0.38150228  0.49596600
   0.75976878  0.52625602  0.49330349
   0.76294019  0.66279339  0.48914559
   0.75845520  0.80593725  0.48912948
   0.76088682  0.95158053  0.49332284
   0.90448274  0.09465374  0.49529317
   0.90462369  0.23806255  0.49682694
   0.90425147  0.38134736  0.49751047
   0.90451327  0.52405190  0.49699266
   0.90550983  0.66655760  0.49594547
   0.90442393  0.80928954  0.49450679
   0.90396234  0.95133195  0.49446144
   0.71652864  0.71215539  0.48300678
   0.33114530  0.38317904  0.47680787
   0.62859210  0.66371284  0.46901216
   0.41829865  0.43089828  0.45833908
   0.42878062  0.28460031  0.48816182
   0.42878602  0.71480039  0.49281814
   0.71597072  0.57180829  0.48923361
   0.33214378  0.52378202  0.48533393
   0.61950502  0.38097427  0.49324968
   0.61936177  0.81114104  0.49132288
   0.48948251  0.56731315  0.56330395
   0.54296005  0.51829254  0.56602439
   0.51364304  0.54121017  0.60466391
Direct configuration=     5
   0.99987099  0.99988796  0.49482926
   0.00015275  0.14293872  0.49520111
   0.00012625  0.28585283  0.49665970
   0.99978145  0.42880666  0.49760760
   0.00015846  0.57158930  0.49755551
   0.00108802  0.71462714  0.49711587
   0.00019663  0.85746350  0.49573452
   0.14370233  0.00103033  0.49456603
   0.14417669  0.14431146  0.49304598
   0.14371559  0.28637921  0.49294646
   0.14274474  0.42916406  0.49508691
   0.14381343  0.57171127  0.49640472
   0.14404572  0.71442207  0.49721394
   0.14361206  0.85766845  0.49664780
   0.28648777  0.00047856  0.49494528
   0.28728563  0.14410816  0.49102385
   0.28949173  0.28958098  0.48489140
   0.28511623  0.43277757  0.48516314
   0.28850299  0.56942962  0.49120916
   0.28747883  0.71423651  0.49527099
   0.28653095  0.85748186  0.49634347
   0.42940275  0.00042811  0.49482028
   0.42960173  0.14440148  0.49278537
   0.42941274  0.85639744  0.49479130
   0.57149659  0.99992929  0.49467932
   0.57161769  0.14353221  0.49460253
   0.57389198  0.29055478  0.49327731
   0.57360176  0.85544313  0.49318417
   0.71380972  0.99948755  0.49443688
   0.71434183  0.14310945  0.49584532
   0.71390600  0.28637710  0.49594321
   0.70943301  0.42632814  0.49434853
   0.70929276  0.85549512  0.49080229
   0.85654742  0.99936439  0.49428750
   0.85688208  0.14265721  0.49594102
   0.85689464  0.28577955  0.49713240
   0.85651676  0.42882069  0.49694787
   0.85654199  0.57137902  0.49567469
   0.85826111  0.71406588  0.49394671
   0.85531482  0.85555412  0.49335960
   0.04828552  0.09577090  0.49453731
   0.04797926  0.23823265  0.49532180
   0.04717529  0.38111039  0.49698968
   0.04817291  0.52419072  0.49744226
   0.04852399  0.66698478  0.49751094
   0.04810951  0.80989099  0.49667109
   0.04802837  0.95274810  0.49512000
   0.19163919  0.09631235  0.49269229
   0.19276521  0.24005939  0.49102028
   0.18992537  0.38160029  0.49205178
   0.19175658  0.52434976  0.49456908
   0.19180209  0.66696088  0.49636893
   0.19138475  0.80999786  0.49696318
   0.19135534  0.95308496  0.49545696
   0.33442098  0.09627331  0.49296707
   0.33882698  0.24016719  0.48727408
   0.33886150  0.66940107  0.49322645
   0.33436594  0.80939389  0.49565175
   0.33393644  0.95267492  0.49555485
   0.47676373  0.09588589  0.49405952
   0.47460359  0.24036265  0.49140851
   0.47434010  0.80522958  0.49374034
   0.47665070  0.95227053  0.49478199
   0.61889031  0.09539090  0.49511877
   0.61884928  0.23940259  0.49471747
   0.61863910  0.95140090  0.49417369
   0.76176535  0.09529343  0.49559779
   0.76174366  0.23829431  0.49650549
   0.76081575  0.38150938  0.49595798
   0.75976874  0.52626882  0.49330148
   0.76295383  0.66279300  0.48913067
   0.75845822  0.80593321  0.48913724
   0.76089393  0.95159694  0.49332579
   0.90448092  0.09466889  0.49531428
   0.90462759  0.23807517  0.49682963
   0.90424237  0.38133677  0.49748900
   0.90450438  0.52405097  0.49697224
   0.90551840  0.66656438  0.49594532
   0.90442644  0.80929027  0.49449556
   0.90396293  0.95132601  0.49445111
   0.71653723  0.71215676  0.48300197
   0.33114615  0.38317471  0.47680509
   0.62859914  0.66371990  0.46902613
   0.41828782  0.43090512  0.45833018
   0.42878811  0.28459686  0.48816409
   0.42879964  0.71480555  0.49283034
   0.71596727  0.57182122  0.48923341
   0.33214775  0.52378316  0.48534316
   0.61948765  0.38097189  0.49324713
   0.61935801  0.81114614  0.49131346
   0.48947783  0.56731534  0.56331685
   0.54296196  0.51831104  0.56603517
   0.51364710  0.54122068  0.60466391
Direct configuration=     6
   0.99986878  0.99988819  0.49484735
   0.00015529  0.14294232  0.49520089
   0.00012825  0.28585248  0.49665162
   0.99977985  0.42880420  0.49760754
   0.00015606  0.57159022  0.49756157
   0.00108922  0.71462639  0.49711533
   0.00019589  0.85746147  0.49573138
   0.14369926  0.00102907  0.49457325
   0.14417894  0.14431073  0.49304120
   0.14372232  0.28638267  0.49294470
   0.14274725  0.42916702  0.49507763
   0.14381362  0.57171215  0.49640483
   0.14404791  0.71442527  0.49720997
   0.14361166  0.85767102  0.49664745
   0.28648991  0.00047896  0.49493173
   0.28728777  0.14410956  0.49101969
   0.28949536  0.28958007  0.48490135
   0.28512082  0.43277944  0.48516350
   0.28850647  0.56943190  0.49120686
   0.28747986  0.71423353  0.49526314
   0.28653287  0.85747688  0.49633381
   0.42939989  0.00042815  0.49482787
   0.42959879  0.14439943  0.49278813
   0.42941161  0.85640039  0.49479291
   0.57149511  0.99992710  0.49467895
   0.57161396  0.14353051  0.49460560
   0.57388757  0.29055292  0.49327293
   0.57359386  0.85543812  0.49317647
   0.71380621  0.99949018  0.49442869
   0.71433781  0.14311051  0.49584290
   0.71390407  0.28637746  0.49593119
   0.70942839  0.42633187  0.49433901
   0.70929481  0.85549758  0.49079061
   0.85654945  0.99936855  0.49428308
   0.85688152  0.14266152  0.49594511
   0.85689153  0.28577892  0.49713577
   0.85651263  0.42881797  0.49695006
   0.85654189  0.57138054  0.49567181
   0.85826597  0.71406672  0.49394939
   0.85531549  0.85555231  0.49335095
   0.04828565  0.09576818  0.49453485
   0.04798762  0.23823651  0.49531577
   0.04717986  0.38111380  0.49698038
   0.04817122  0.52418504  0.49744367
   0.04852245  0.66697716  0.49750799
   0.04810986  0.80988991  0.49666998
   0.04802449  0.95274526  0.49512146
   0.19163875  0.09631141  0.49269418
   0.19276762  0.24005768  0.49102727
   0.18992912  0.38160259  0.49204263
   0.19175556  0.52434977  0.49456464
   0.19180123  0.66695762  0.49637420
   0.19138388  0.80999514  0.49695614
   0.19135208  0.95308451  0.49545206
   0.33442065  0.09626879  0.49296093
   0.33882793  0.24016633  0.48727553
   0.33886325  0.66939660  0.49322348
   0.33436441  0.80938881  0.49564709
   0.33393846  0.95267229  0.49554477
   0.47676233  0.09588713  0.49406729
   0.47460667  0.24036363  0.49141336
   0.47434127  0.80523093  0.49373571
   0.47665167  0.95227129  0.49478469
   0.61888737  0.09538821  0.49511934
   0.61884513  0.23939710  0.49470768
   0.61863546  0.95139924  0.49417379
   0.76175944  0.09528958  0.49559906
   0.76174001  0.23829676  0.49650833
   0.76081422  0.38151203  0.49595258
   0.75976421  0.52626887  0.49329948
   0.76295839  0.66279652  0.48912526
   0.75845884  0.80593326  0.48913738
   0.76089474  0.95159663  0.49332212
   0.90448414  0.09467311  0.49532210
   0.90463194  0.23807843  0.49683083
   0.90424199  0.38133544  0.49748276
   0.90450418  0.52404927  0.49696636
   0.90552201  0.66656030  0.49594624
   0.90442684  0.80928700  0.49449081
   0.90396208  0.95132443  0.49444807
   0.71654225  0.71215697  0.48300021
   0.33114424  0.38317513  0.47680584
   0.62860290  0.66372291  0.46903288
   0.41828519  0.43090860  0.45832515
   0.42879034  0.28459676  0.48816564
   0.42880104  0.71480568  0.49283458
   0.71596689  0.57182430  0.48923254
   0.33214995  0.52378550  0.48534733
   0.61948385  0.38097148  0.49324457
   0.61935785  0.81114730  0.49130631
   0.48947408  0.56731799  0.56332084
   0.54296567  0.51831838  0.56603687
   0.51364766  0.54122648  0.60466391
Direct configuration=     7
   0.99986215  0.99988889  0.49490161
   0.00016291  0.14295311  0.49520020
   0.00013425  0.28585145  0.49662740
   0.99977504  0.42879681  0.49760736
   0.00014886  0.57159298  0.49757976
   0.00109282  0.71462411  0.49711369
   0.00019365  0.85745539  0.49572193
   0.14369005  0.00102526  0.49459491
   0.14418568  0.14430855  0.49302686
   0.14374252  0.28639305  0.49293941
   0.14275476  0.42917589  0.49504979
   0.14381419  0.57171478  0.49640516
   0.14405447  0.71443487  0.49719805
   0.14361046  0.85767873  0.49664639
   0.28649633  0.00048015  0.49489106
   0.28729420  0.14411373  0.49100722
   0.28950624  0.28957735  0.48493120
   0.28513457  0.43278508  0.48516461
   0.28851692  0.56943874  0.49119996
   0.28748294  0.71422459  0.49523960
   0.28653860  0.85746193  0.49630484
   0.42939131  0.00042826  0.49485066
   0.42958997  0.14439327  0.49279638
   0.42940821  0.85640924  0.49479775
   0.57149067  0.99992054  0.49467786
   0.57160275  0.14352542  0.49461479
   0.57387433  0.29054735  0.49325979
   0.57357018  0.85542309  0.49315336
   0.71379570  0.99949805  0.49440413
   0.71432576  0.14311368  0.49583562
   0.71389830  0.28637855  0.49589512
   0.70941453  0.42634304  0.49431047
   0.70930097  0.85550494  0.49075555
   0.85655555  0.99938103  0.49426982
   0.85687986  0.14267444  0.49595738
   0.85688219  0.28577703  0.49714588
   0.85650025  0.42880978  0.49695664
   0.85654159  0.57138508  0.49566317
   0.85828054  0.71406925  0.49395744
   0.85531751  0.85554688  0.49332501
   0.04828603  0.09576000  0.49452747
   0.04801269  0.23824809  0.49529766
   0.04719358  0.38112403  0.49695247
   0.04816614  0.52416798  0.49744790
   0.04851782  0.66695432  0.49749913
   0.04811089  0.80988666  0.49666664
   0.04801285  0.95273672  0.49512584
   0.19163742  0.09630860  0.49269988
   0.19277483  0.24005252  0.49104823
   0.18994037  0.38160949  0.49201520
   0.19175249  0.52434979  0.49455135
   0.19179865  0.66694786  0.49639003
   0.19138127  0.80998697  0.49693501
   0.19134231  0.95308319  0.49543737
   0.33441966  0.09625524  0.49294251
   0.33883077  0.24016372  0.48727988
   0.33886851  0.66938319  0.49321456
   0.33435981  0.80937360  0.49563311
   0.33394451  0.95266442  0.49551454
   0.47675813  0.09589085  0.49409060
   0.47461590  0.24036656  0.49142791
   0.47434478  0.80523500  0.49372180
   0.47665459  0.95227358  0.49479279
   0.61887855  0.09538011  0.49512104
   0.61883270  0.23938061  0.49467831
   0.61862452  0.95139428  0.49417411
   0.76174170  0.09527802  0.49560289
   0.76172905  0.23830409  0.49651684
   0.76080963  0.38151996  0.49593639
   0.75975061  0.52626902  0.49329349
   0.76297205  0.66280707  0.48910902
   0.75846069  0.80593340  0.48913780
   0.76089717  0.95159570  0.49331112
   0.90449378  0.09468578  0.49534558
   0.90464499  0.23808821  0.49683443
   0.90424083  0.38133144  0.49746402
   0.90450360  0.52404417  0.49694872
   0.90553284  0.66654804  0.49594901
   0.90442804  0.80927720  0.49447655
   0.90395954  0.95131968  0.49443895
   0.71655732  0.71215759  0.48299491
   0.33113853  0.38317638  0.47680811
   0.62861417  0.66373195  0.46905312
   0.41827732  0.43091901  0.45831007
   0.42879703  0.28459644  0.48817028
   0.42880523  0.71480606  0.49284730
   0.71596577  0.57183353  0.48922993
   0.33215654  0.52379251  0.48535985
   0.61947247  0.38097028  0.49323690
   0.61935736  0.81115075  0.49128486
   0.48946284  0.56732595  0.56333280
   0.54297678  0.51834042  0.56604195
   0.51364937  0.54124388  0.60466391
Direct configuration=     8
   0.99986139  0.99988983  0.49490707
   0.00016615  0.14295617  0.49520009
   0.00013925  0.28585383  0.49661770
   0.99977667  0.42879617  0.49760080
   0.00014615  0.57159004  0.49757923
   0.00109443  0.71462194  0.49711132
   0.00019559  0.85745405  0.49571741
   0.14369137  0.00102401  0.49459719
   0.14418431  0.14430768  0.49302619
   0.14374754  0.28639566  0.49293527
   0.14275601  0.42917988  0.49503665
   0.14381179  0.57171181  0.49640750
   0.14405626  0.71443182  0.49719571
   0.14361120  0.85767892  0.49664151
   0.28649351  0.00047556  0.49487594
   0.28729550  0.14411261  0.49100438
   0.28951049  0.28957911  0.48493991
   0.28513525  0.43278486  0.48516363
   0.28851998  0.56943775  0.49119876
   0.28748399  0.71422294  0.49523503
   0.28653695  0.85745938  0.49629284
   0.42938757  0.00042564  0.49485463
   0.42958789  0.14439097  0.49280045
   0.42940748  0.85640404  0.49479461
   0.57148829  0.99991995  0.49468056
   0.57160168  0.14352612  0.49461671
   0.57387244  0.29054578  0.49325576
   0.57356969  0.85542402  0.49314736
   0.71379645  0.99949845  0.49440223
   0.71432339  0.14311459  0.49583706
   0.71389629  0.28637926  0.49588549
   0.70940873  0.42634297  0.49430370
   0.70930177  0.85550786  0.49075021
   0.85655320  0.99938272  0.49426930
   0.85687934  0.14267384  0.49596523
   0.85688045  0.28577761  0.49714671
   0.85649561  0.42880817  0.49695092
   0.85654212  0.57138419  0.49565827
   0.85828196  0.71406770  0.49395514
   0.85531583  0.85554684  0.49331764
   0.04828663  0.09576081  0.49453247
   0.04801434  0.23824947  0.49529016
   0.04719696  0.38112441  0.49694258
   0.04816551  0.52416490  0.49745294
   0.04851926  0.66695337  0.49749945
   0.04811140  0.80988566  0.49666600
   0.04801472  0.95273491  0.49513775
   0.19163537  0.09630690  0.49270057
   0.19278178  0.24005435  0.49105267
   0.18994395  0.38161040  0.49200750
   0.19175260  0.52434960  0.49454419
   0.19179989  0.66694699  0.49638758
   0.19138378  0.80998764  0.49692576
   0.19134458  0.95308200  0.49543289
   0.33441683  0.09625001  0.49293404
   0.33883116  0.24016133  0.48728309
   0.33887171  0.66938319  0.49321206
   0.33435644  0.80937122  0.49562634
   0.33393757  0.95266093  0.49550483
   0.47675834  0.09588901  0.49410096
   0.47461729  0.24036671  0.49143020
   0.47434593  0.80523575  0.49372025
   0.47665109  0.95227263  0.49479863
   0.61887314  0.09537913  0.49512019
   0.61883091  0.23938256  0.49466673
   0.61862630  0.95139393  0.49416634
   0.76174066  0.09528057  0.49560013
   0.76172672  0.23830428  0.49651516
   0.76080259  0.38151879  0.49592613
   0.75974597  0.52626819  0.49328839
   0.76297705  0.66281244  0.48910734
   0.75846302  0.80593611  0.48912961
   0.76089500  0.95159621  0.49329712
   0.90449760  0.09468930  0.49534957
   0.90464302  0.23808595  0.49683570
   0.90423795  0.38133143  0.49746521
   0.90450113  0.52404194  0.49694984
   0.90553368  0.66654512  0.49595114
   0.90442924  0.80927385  0.49447197
   0.90395665  0.95132226  0.49443969
   0.71656165  0.71216186  0.48299376
   0.33113972  0.38317697  0.47681256
   0.62861889  0.66373374  0.46906121
   0.41827725  0.43092259  0.45830295
   0.42879742  0.28459826  0.48817343
   0.42880263  0.71480388  0.49284820
   0.71596669  0.57183438  0.48922684
   0.33216206  0.52379584  0.48536361
   0.61947071  0.38096953  0.49323075
   0.61935872  0.81115079  0.49127094
   0.48945576  0.56733197  0.56333307
   0.54298351  0.51834921  0.56604056
   0.51365013  0.54125029  0.60466391
Direct configuration=     9
   0.99985912  0.99989263  0.49492346
   0.00017588  0.14296534  0.49519978
   0.00015422  0.28586099  0.49658858
   0.99978154  0.42879427  0.49758113
   0.00013802  0.57158122  0.49757763
   0.00109925  0.71461545  0.49710421
   0.00020140  0.85745004  0.49570383
   0.14369536  0.00102027  0.49460403
   0.14418018  0.14430508  0.49302419
   0.14376261  0.28640350  0.49292287
   0.14275975  0.42919187  0.49499724
   0.14380459  0.57170290  0.49641452
   0.14406164  0.71442265  0.49718871
   0.14361343  0.85767947  0.49662689
   0.28648502  0.00046180  0.49483058
   0.28729940  0.14410927  0.49099585
   0.28952325  0.28958439  0.48496606
   0.28513730  0.43278422  0.48516069
   0.28852917  0.56943476  0.49119519
   0.28748713  0.71421796  0.49522130
   0.28653202  0.85745176  0.49625686
   0.42937637  0.00041777  0.49486653
   0.42958163  0.14438407  0.49281264
   0.42940529  0.85638845  0.49478519
   0.57148116  0.99991817  0.49468866
   0.57159845  0.14352823  0.49462246
   0.57386674  0.29054108  0.49324367
   0.57356822  0.85542681  0.49312936
   0.71379869  0.99949965  0.49439654
   0.71431627  0.14311732  0.49584138
   0.71389025  0.28638138  0.49585659
   0.70939134  0.42634276  0.49428339