  97  97   0   0
  0.3994726E+02  0.1727104E-08  0.1727104E-08  0.1500000E-08  0.0000000E+00
  1.000000000000000E-004
  CAR 
 unknown system                          
      5.82167088    -25.80528519  301     -2.42823895      1.00000000
    -25.805  0.0000E+00  0.0000E+00  0.0000E+00  0.0000E+00
    -25.700  0.0000E+00  0.0000E+00  0.0000E+00  0.0000E+00
    -25.594  0.0000E+00  0.0000E+00  0.0000E+00  0.0000E+00
    -25.489  0.0000E+00  0.0000E+00  0.0000E+00  0.0000E+00
    -25.384  0.0000E+00  0.0000E+00  0.0000E+00  0.0000E+00
    -25.278  0.0000E+00  0.0000E+00  0.0000E+00  0.0000E+00
    -25.173  0.0000E+00  0.0000E+00  0.0000E+00  0.0000E+00
    -25.067  0.0000E+00  0.0000E+00  0.0000E+00  0.0000E+00
    -24.962  0.0000E+00  0.0000E+00  0.0000E+00  0.0000E+00
    -24.856  0.0000E+00  0.0000E+00  0.0000E+00  0.0000E+00
    -24.751  0.0000E+00  0.0000E+00  0.0000E+00  0.0000E+00
    -24.646  0.1790E-16  0.1790E-16  0.1887E-17  0.1887E-17
    -24.540  0.5038E-08  0.5038E-08  0.5311E-09  0.5311E-09
    -24.435  0.2737E-03  0.2737E-03  0.2885E-04  0.2885E-04
    -24.329  0.7891E-02  0.7891E-02  0.8608E-03  0.8608E-03
    -24.224  0.1320E-02  0.1320E-02  0.1000E-02  0.1000E-02
    -24.119  0.2271E-06  0.2271E-06  0.1000E-02  0.1000E-02
    -24.013  0.8637E-14  0.8637E-14  0.1000E-02  0.1000E-02
    -23.908  0.0000E+00  0.0000E+00  0.1000E-02  0.1000E-02
    -23.802  0.0000E+00  0.0000E+00  0.1000E-02  0.1000E-02
    -23.697  0.0000E+00  0.0000E+00  0.1000E-02  0.1000E-02
    -23.591  0.0000E+00  0.0000E+00  0.1000E-02  0.1000E-02
    -23.486  0.0000E+00  0.0000E+00  0.1000E-02  0.1000E-02
    -23.381  0.0000E+00  0.0000E+00  0.1000E-02  0.1000E-02
    -23.275  0.0000E+00  0.0000E+00  0.1000E-02  0.1000E-02
    -23.170  0.0000E+00  0.0000E+00  0.1000E-02  0.1000E-02
    -23.064  0.0000E+00  0.0000E+00  0.1000E-02  0.1000E-02
    -22.959  0.0000E+00  0.0000E+00  0.1000E-02  0.1000E-02
    -22.853  0.0000E+00  0.0000E+00  0.1000E-02  0.1000E-02
    -22.748  0.0000E+00  0.0000E+00  0.1000E-02  0.1000E-02
    -22.643  0.0000E+00  0.0000E+00  0.1000E-02  0.1000E-02
    -22.537  0.1603E-13  0.1603E-13  0.1000E-02  0.1000E-02
    -22.432  0.3202E-06  0.3202E-06  0.1000E-02  0.1000E-02
    -22.326  0.1485E-02  0.1485E-02  0.1157E-02  0.1157E-02
    -22.221  0.1030E-01  0.1030E-01  0.2243E-02  0.2243E-02
    -22.115  0.7093E-02  0.7093E-02  0.2991E-02  0.2991E-02
    -22.010  0.8756E-04  0.8756E-04  0.3000E-02  0.3000E-02
    -21.905  0.4633E-09  0.4633E-09  0.3000E-02  0.3000E-02
    -21.799  0.4679E-05  0.4679E-05  0.3000E-02  0.3000E-02
    -21.694  0.2429E-02  0.2429E-02  0.3257E-02  0.3257E-02
    -21.588  0.7777E-02  0.7777E-02  0.4076E-02  0.4076E-02
    -21.483  0.5368E-02  0.5368E-02  0.4642E-02  0.4642E-02
    -21.378  0.6294E-02  0.6294E-02  0.5306E-02  0.5306E-02
    -21.272  0.4031E-02  0.4031E-02  0.5731E-02  0.5731E-02
    -21.167  0.1099E-01  0.1099E-01  0.6890E-02  0.6890E-02
    -21.061  0.1747E-02  0.1747E-02  0.7074E-02  0.7074E-02
    -20.956  0.5260E-02  0.5260E-02  0.7629E-02  0.7629E-02
    -20.850  0.9803E-02  0.9803E-02  0.8662E-02  0.8662E-02
    -20.745  0.6371E-02  0.6371E-02  0.9334E-02  0.9334E-02
    -20.640  0.4968E-02  0.4968E-02  0.9857E-02  0.9857E-02
    -20.534  0.7454E-02  0.7454E-02  0.1064E-01  0.1064E-01
    -20.429  0.2968E-02  0.2968E-02  0.1096E-01  0.1096E-01
    -20.323  0.6847E-02  0.6847E-02  0.1168E-01  0.1168E-01
    -20.218  0.1183E-01  0.1183E-01  0.1293E-01  0.1293E-01
    -20.112  0.9357E-02  0.9357E-02  0.1391E-01  0.1391E-01
    -20.007  0.3810E-02  0.3810E-02  0.1431E-01  0.1431E-01
    -19.902  0.3996E-02  0.3996E-02  0.1474E-01  0.1474E-01
    -19.796  0.3911E-02  0.3911E-02  0.1515E-01  0.1515E-01
    -19.691  0.7275E-02  0.7275E-02  0.1591E-01  0.1591E-01
    -19.585  0.6407E-02  0.6407E-02  0.1659E-01  0.1659E-01
    -19.480  0.1119E-01  0.1119E-01  0.1777E-01  0.1777E-01
    -19.374  0.1257E-01  0.1257E-01  0.1909E-01  0.1909E-01
    -19.269  0.5950E-02  0.5950E-02  0.1972E-01  0.1972E-01
    -19.164  0.1685E-02  0.1685E-02  0.1990E-01  0.1990E-01
    -19.058  0.3927E-02  0.3927E-02  0.2031E-01  0.2031E-01
    -18.953  0.1145E-01  0.1145E-01  0.2152E-01  0.2152E-01
    -18.847  0.4273E-02  0.4273E-02  0.2197E-01  0.2197E-01
    -18.742  0.3808E-02  0.3808E-02  0.2237E-01  0.2237E-01
    -18.637  0.6747E-02  0.6747E-02  0.2308E-01  0.2308E-01
    -18.531  0.1522E-01  0.1522E-01  0.2469E-01  0.2469E-01
    -18.426  0.9036E-02  0.9036E-02  0.2564E-01  0.2564E-01
    -18.320  0.6043E-02  0.6043E-02  0.2628E-01  0.2628E-01
    -18.215  0.6493E-02  0.6493E-02  0.2696E-01  0.2696E-01
    -18.109  0.5109E-02  0.5109E-02  0.2750E-01  0.2750E-01
    -18.004  0.8386E-02  0.8386E-02  0.2839E-01  0.2839E-01
    -17.899  0.6596E-02  0.6596E-02  0.2908E-01  0.2908E-01
    -17.793  0.3877E-02  0.3877E-02  0.2949E-01  0.2949E-01
    -17.688  0.1206E-02  0.1206E-02  0.2962E-01  0.2962E-01
    -17.582  0.1307E-01  0.1307E-01  0.3099E-01  0.3099E-01
    -17.477  0.9997E-02  0.9997E-02  0.3205E-01  0.3205E-01
    -17.371  0.1151E-01  0.1151E-01  0.3326E-01  0.3326E-01
    -17.266  0.1105E-01  0.1105E-01  0.3443E-01  0.3443E-01
    -17.161  0.9234E-02  0.9234E-02  0.3540E-01  0.3540E-01
    -17.055  0.5747E-02  0.5747E-02  0.3601E-01  0.3601E-01
    -16.950  0.1056E-01  0.1056E-01  0.3712E-01  0.3712E-01
    -16.844  0.6895E-02  0.6895E-02  0.3785E-01  0.3785E-01
    -16.739  0.3738E-02  0.3738E-02  0.3824E-01  0.3824E-01
    -16.633  0.1511E-02  0.1511E-02  0.3840E-01  0.3840E-01
    -16.528  0.6975E-02  0.6975E-02  0.3914E-01  0.3914E-01
    -16.423  0.1446E-01  0.1446E-01  0.4066E-01  0.4066E-01
    -16.317  0.1583E-01  0.1583E-01  0.4233E-01  0.4233E-01
    -16.212  0.5771E-02  0.5771E-02  0.4294E-01  0.4294E-01
    -16.106  0.6057E-03  0.6057E-03  0.4300E-01  0.4300E-01
    -16.001  0.1559E-02  0.1559E-02  0.4317E-01  0.4317E-01
    -15.896  0.3091E-02  0.3091E-02  0.4349E-01  0.4349E-01
    -15.790  0.5722E-02  0.5722E-02  0.4409E-01  0.4409E-01
    -15.685  0.2194E-02  0.2194E-02  0.4433E-01  0.4433E-01
    -15.579  0.2567E-02  0.2567E-02  0.4460E-01  0.4460E-01
    -15.474  0.6738E-02  0.6738E-02  0.4531E-01  0.4531E-01
    -15.368  0.7703E-02  0.7703E-02  0.4612E-01  0.4612E-01
    -15.263  0.5509E-02  0.5509E-02  0.4670E-01  0.4670E-01
    -15.158  0.6847E-02  0.6847E-02  0.4742E-01  0.4742E-01
    -15.052  0.7024E-02  0.7024E-02  0.4816E-01  0.4816E-01
    -14.947  0.1271E-01  0.1271E-01  0.4950E-01  0.4950E-01
    -14.841  0.1109E-01  0.1109E-01  0.5067E-01  0.5067E-01
    -14.736  0.7658E-02  0.7658E-02  0.5148E-01  0.5148E-01
    -14.630  0.7391E-02  0.7391E-02  0.5226E-01  0.5226E-01
    -14.525  0.9699E-02  0.9699E-02  0.5328E-01  0.5328E-01
    -14.420  0.8776E-02  0.8776E-02  0.5421E-01  0.5421E-01
    -14.314  0.5805E-02  0.5805E-02  0.5482E-01  0.5482E-01
    -14.209  0.1261E-01  0.1261E-01  0.5615E-01  0.5615E-01
    -14.103  0.7907E-02  0.7907E-02  0.5698E-01  0.5698E-01
    -13.998  0.8283E-02  0.8283E-02  0.5785E-01  0.5785E-01
    -13.892  0.6114E-02  0.6114E-02  0.5850E-01  0.5850E-01
    -13.787  0.3294E-02  0.3294E-02  0.5885E-01  0.5885E-01
    -13.682  0.4903E-02  0.4903E-02  0.5936E-01  0.5936E-01
    -13.576  0.8218E-02  0.8218E-02  0.6023E-01  0.6023E-01
    -13.471  0.8157E-02  0.8157E-02  0.6109E-01  0.6109E-01
    -13.365  0.1078E-01  0.1078E-01  0.6223E-01  0.6223E-01
    -13.260  0.6447E-02  0.6447E-02  0.6291E-01  0.6291E-01
    -13.155  0.7595E-02  0.7595E-02  0.6371E-01  0.6371E-01
    -13.049  0.5787E-02  0.5787E-02  0.6432E-01  0.6432E-01
    -12.944  0.1746E-02  0.1746E-02  0.6450E-01  0.6450E-01
    -12.838  0.2408E-02  0.2408E-02  0.6475E-01  0.6475E-01
    -12.733  0.9030E-02  0.9030E-02  0.6571E-01  0.6571E-01
    -12.627  0.6613E-02  0.6613E-02  0.6640E-01  0.6640E-01
    -12.522  0.1138E-01  0.1138E-01  0.6760E-01  0.6760E-01
    -12.417  0.1532E-01  0.1532E-01  0.6922E-01  0.6922E-01
    -12.311  0.1068E-01  0.1068E-01  0.7034E-01  0.7034E-01
    -12.206  0.9755E-02  0.9755E-02  0.7137E-01  0.7137E-01
    -12.100  0.1142E-01  0.1142E-01  0.7257E-01  0.7257E-01
    -11.995  0.3067E-02  0.3067E-02  0.7290E-01  0.7290E-01
    -11.889  0.9927E-02  0.9927E-02  0.7394E-01  0.7394E-01
    -11.784  0.5113E-02  0.5113E-02  0.7448E-01  0.7448E-01
    -11.679  0.1091E-01  0.1091E-01  0.7563E-01  0.7563E-01
    -11.573  0.5601E-02  0.5601E-02  0.7622E-01  0.7622E-01
    -11.468  0.1185E-01  0.1185E-01  0.7747E-01  0.7747E-01
    -11.362  0.1131E-01  0.1131E-01  0.7867E-01  0.7867E-01
    -11.257  0.1009E-01  0.1009E-01  0.7973E-01  0.7973E-01
    -11.151  0.1203E-01  0.1203E-01  0.8100E-01  0.8100E-01
    -11.046  0.7820E-02  0.7820E-02  0.8182E-01  0.8182E-01
    -10.941  0.1050E-01  0.1050E-01  0.8293E-01  0.8293E-01
    -10.835  0.9456E-02  0.9456E-02  0.8393E-01  0.8393E-01
    -10.730  0.1302E-01  0.1302E-01  0.8530E-01  0.8530E-01
    -10.624  0.8438E-02  0.8438E-02  0.8619E-01  0.8619E-01
    -10.519  0.4648E-02  0.4648E-02  0.8668E-01  0.8668E-01
    -10.413  0.5257E-02  0.5257E-02  0.8723E-01  0.8723E-01
    -10.308  0.7165E-03  0.7165E-03  0.8731E-01  0.8731E-01
    -10.203  0.1140E-01  0.1140E-01  0.8851E-01  0.8851E-01
    -10.097  0.1514E-01  0.1514E-01  0.9011E-01  0.9011E-01
     -9.992  0.1779E-01  0.1779E-01  0.9198E-01  0.9198E-01
     -9.886  0.1682E-01  0.1682E-01  0.9375E-01  0.9375E-01
     -9.781  0.2029E-01  0.2029E-01  0.9589E-01  0.9589E-01
     -9.676  0.1877E-01  0.1877E-01  0.9787E-01  0.9787E-01
     -9.570  0.1290E-01  0.1290E-01  0.9923E-01  0.9923E-01
     -9.465  0.1427E-01  0.1427E-01  0.1007E+00  0.1007E+00
     -9.359  0.1868E-01  0.1868E-01  0.1027E+00  0.1027E+00
     -9.254  0.1885E-01  0.1885E-01  0.1047E+00  0.1047E+00
     -9.148  0.1313E-01  0.1313E-01  0.1061E+00  0.1061E+00
     -9.043  0.1780E-01  0.1780E-01  0.1080E+00  0.1080E+00
     -8.938  0.2881E-01  0.2881E-01  0.1110E+00  0.1110E+00
     -8.832  0.2818E-01  0.2818E-01  0.1140E+00  0.1140E+00
     -8.727  0.2377E-01  0.2377E-01  0.1165E+00  0.1165E+00
     -8.621  0.1802E-01  0.1802E-01  0.1184E+00  0.1184E+00
     -8.516  0.1993E-01  0.1993E-01  0.1205E+00  0.1205E+00
     -8.410  0.1606E-01  0.1606E-01  0.1222E+00  0.1222E+00
     -8.305  0.1842E-01  0.1842E-01  0.1241E+00  0.1241E+00
     -8.200  0.2366E-01  0.2366E-01  0.1266E+00  0.1266E+00
     -8.094  0.2041E-01  0.2041E-01  0.1287E+00  0.1287E+00
     -7.989  0.2079E-01  0.2079E-01  0.1309E+00  0.1309E+00
     -7.883  0.1508E-01  0.1508E-01  0.1325E+00  0.1325E+00
     -7.778  0.1580E-01  0.1580E-01  0.1342E+00  0.1342E+00
     -7.672  0.1328E-01  0.1328E-01  0.1356E+00  0.1356E+00
     -7.567  0.1598E-01  0.1598E-01  0.1373E+00  0.1373E+00
     -7.462  0.1073E-01  0.1073E-01  0.1384E+00  0.1384E+00
     -7.356  0.9029E-02  0.9029E-02  0.1394E+00  0.1394E+00
     -7.251  0.1990E-01  0.1990E-01  0.1415E+00  0.1415E+00
     -7.145  0.2388E-01  0.2388E-01  0.1440E+00  0.1440E+00
     -7.040  0.2243E-01  0.2243E-01  0.1463E+00  0.1463E+00
     -6.935  0.9700E-02  0.9700E-02  0.1474E+00  0.1474E+00
     -6.829  0.1264E-01  0.1264E-01  0.1487E+00  0.1487E+00
     -6.724  0.1347E-01  0.1347E-01  0.1501E+00  0.1501E+00
     -6.618  0.9005E-02  0.9005E-02  0.1511E+00  0.1511E+00
     -6.513  0.1047E-01  0.1047E-01  0.1522E+00  0.1522E+00
     -6.407  0.1045E-01  0.1045E-01  0.1533E+00  0.1533E+00
     -6.302  0.1358E-01  0.1358E-01  0.1547E+00  0.1547E+00
     -6.197  0.1761E-01  0.1761E-01  0.1566E+00  0.1566E+00
     -6.091  0.2072E-01  0.2072E-01  0.1587E+00  0.1587E+00
     -5.986  0.1246E-01  0.1246E-01  0.1601E+00  0.1601E+00
     -5.880  0.1341E-01  0.1341E-01  0.1615E+00  0.1615E+00
     -5.775  0.9246E-02  0.9246E-02  0.1625E+00  0.1625E+00
     -5.669  0.1631E-01  0.1631E-01  0.1642E+00  0.1642E+00
     -5.564  0.1334E-01  0.1334E-01  0.1656E+00  0.1656E+00
     -5.459  0.7749E-02  0.7749E-02  0.1664E+00  0.1664E+00
     -5.353  0.3327E-02  0.3327E-02  0.1667E+00  0.1667E+00
     -5.248  0.2355E-02  0.2355E-02  0.1670E+00  0.1670E+00
     -5.142  0.3271E-02  0.3271E-02  0.1673E+00  0.1673E+00
     -5.037  0.1701E-01  0.1701E-01  0.1691E+00  0.1691E+00
     -4.931  0.1923E-01  0.1923E-01  0.1712E+00  0.1712E+00
     -4.826  0.1900E-01  0.1900E-01  0.1732E+00  0.1732E+00
     -4.721  0.1425E-01  0.1425E-01  0.1747E+00  0.1747E+00
     -4.615  0.6597E-02  0.6597E-02  0.1754E+00  0.1754E+00
     -4.510  0.7498E-02  0.7498E-02  0.1761E+00  0.1761E+00
     -4.404  0.4704E-02  0.4704E-02  0.1766E+00  0.1766E+00
     -4.299  0.9823E-02  0.9823E-02  0.1777E+00  0.1777E+00
     -4.194  0.7949E-02  0.7949E-02  0.1785E+00  0.1785E+00
     -4.088  0.8518E-02  0.8518E-02  0.1794E+00  0.1794E+00
     -3.983  0.8979E-02  0.8979E-02  0.1804E+00  0.1804E+00
     -3.877  0.9671E-02  0.9671E-02  0.1814E+00  0.1814E+00
     -3.772  0.3659E-02  0.3659E-02  0.1818E+00  0.1818E+00
     -3.666  0.2084E-02  0.2084E-02  0.1820E+00  0.1820E+00
     -3.561  0.1172E-03  0.1172E-03  0.1820E+00  0.1820E+00
     -3.456  0.4432E-03  0.4432E-03  0.1820E+00  0.1820E+00
     -3.350  0.2525E-02  0.2525E-02  0.1823E+00  0.1823E+00
     -3.245  0.5985E-02  0.5985E-02  0.1829E+00  0.1829E+00
     -3.139  0.3249E-02  0.3249E-02  0.1833E+00  0.1833E+00
     -3.034  0.1998E-02  0.1998E-02  0.1835E+00  0.1835E+00
     -2.928  0.2839E-04  0.2839E-04  0.1835E+00  0.1835E+00
     -2.823  0.2499E-06  0.2499E-06  0.1835E+00  0.1835E+00
     -2.718  0.5560E-03  0.5560E-03  0.1836E+00  0.1836E+00
     -2.612  0.2233E-02  0.2233E-02  0.1838E+00  0.1838E+00
     -2.507  0.1911E-02  0.1911E-02  0.1840E+00  0.1840E+00
     -2.401  0.4306E-04  0.4306E-04  0.1840E+00  0.1840E+00
     -2.296  0.7830E-03  0.7830E-03  0.1841E+00  0.1841E+00
     -2.190  0.3719E-02  0.3719E-02  0.1845E+00  0.1845E+00
     -2.085  0.2405E-03  0.2405E-03  0.1845E+00  0.1845E+00
     -1.980  0.3592E-04  0.3592E-04  0.1845E+00  0.1845E+00
     -1.874  0.1848E-02  0.1848E-02  0.1847E+00  0.1847E+00
     -1.769  0.1902E-02  0.1902E-02  0.1849E+00  0.1849E+00
     -1.663  0.3849E-02  0.3849E-02  0.1853E+00  0.1853E+00
     -1.558  0.5826E-02  0.5826E-02  0.1859E+00  0.1859E+00
     -1.453  0.7732E-03  0.7732E-03  0.1860E+00  0.1860E+00
     -1.347  0.2192E-02  0.2192E-02  0.1862E+00  0.1862E+00
     -1.242  0.7853E-02  0.7853E-02  0.1871E+00  0.1871E+00
     -1.136  0.3845E-02  0.3845E-02  0.1875E+00  0.1875E+00
     -1.031  0.4285E-03  0.4285E-03  0.1875E+00  0.1875E+00
     -0.925  0.5677E-02  0.5677E-02  0.1881E+00  0.1881E+00
     -0.820  0.1662E-01  0.1662E-01  0.1899E+00  0.1899E+00
     -0.715  0.1094E-01  0.1094E-01  0.1910E+00  0.1910E+00
     -0.609  0.6085E-02  0.6085E-02  0.1917E+00  0.1917E+00
     -0.504  0.1050E-01  0.1050E-01  0.1928E+00  0.1928E+00
     -0.398  0.8785E-02  0.8785E-02  0.1937E+00  0.1937E+00
     -0.293  0.4298E-02  0.4298E-02  0.1941E+00  0.1941E+00
     -0.187  0.4099E-02  0.4099E-02  0.1946E+00  0.1946E+00
     -0.082  0.1133E-01  0.1133E-01  0.1958E+00  0.1958E+00
      0.023  0.9099E-02  0.9099E-02  0.1967E+00  0.1967E+00
      0.129  0.1090E-01  0.1090E-01  0.1979E+00  0.1979E+00
      0.234  0.1175E-01  0.1175E-01  0.1991E+00  0.1991E+00
      0.340  0.4988E-02  0.4988E-02  0.1996E+00  0.1996E+00
      0.445  0.3385E-02  0.3385E-02  0.2000E+00  0.2000E+00
      0.551  0.2489E-02  0.2489E-02  0.2003E+00  0.2003E+00
      0.656  0.6498E-02  0.6498E-02  0.2009E+00  0.2009E+00
      0.761  0.1208E-01  0.1208E-01  0.2022E+00  0.2022E+00
      0.867  0.1251E-01  0.1251E-01  0.2035E+00  0.2035E+00
      0.972  0.4014E-02  0.4014E-02  0.2040E+00  0.2040E+00
      1.078  0.1265E-01  0.1265E-01  0.2053E+00  0.2053E+00
      1.183  0.5293E-02  0.5293E-02  0.2059E+00  0.2059E+00
      1.288  0.8592E-02  0.8592E-02  0.2068E+00  0.2068E+00
      1.394  0.1017E-01  0.1017E-01  0.2078E+00  0.2078E+00
      1.499  0.1333E-01  0.1333E-01  0.2092E+00  0.2092E+00
      1.605  0.1945E-01  0.1945E-01  0.2113E+00  0.2113E+00
      1.710  0.1655E-01  0.1655E-01  0.2130E+00  0.2130E+00
      1.816  0.7902E-02  0.7902E-02  0.2139E+00  0.2139E+00
      1.921  0.8810E-02  0.8810E-02  0.2148E+00  0.2148E+00
      2.026  0.1485E-01  0.1485E-01  0.2164E+00  0.2164E+00
      2.132  0.2282E-01  0.2282E-01  0.2188E+00  0.2188E+00
      2.237  0.1558E-01  0.1558E-01  0.2204E+00  0.2204E+00
      2.343  0.1669E-01  0.1669E-01  0.2222E+00  0.2222E+00
      2.448  0.2896E-01  0.2896E-01  0.2252E+00  0.2252E+00
      2.554  0.8572E-02  0.8572E-02  0.2261E+00  0.2261E+00
      2.659  0.9885E-02  0.9885E-02  0.2272E+00  0.2272E+00
      2.764  0.1324E-01  0.1324E-01  0.2286E+00  0.2286E+00
      2.870  0.2868E-01  0.2868E-01  0.2316E+00  0.2316E+00
      2.975  0.3990E-01  0.3990E-01  0.2358E+00  0.2358E+00
      3.081  0.2562E-01  0.2562E-01  0.2385E+00  0.2385E+00
      3.186  0.1776E-01  0.1776E-01  0.2404E+00  0.2404E+00
      3.292  0.2184E-01  0.2184E-01  0.2427E+00  0.2427E+00
      3.397  0.9281E-02  0.9281E-02  0.2436E+00  0.2436E+00
      3.502  0.2552E-01  0.2552E-01  0.2463E+00  0.2463E+00
      3.608  0.2170E-01  0.2170E-01  0.2486E+00  0.2486E+00
      3.713  0.1151E-01  0.1151E-01  0.2498E+00  0.2498E+00
      3.819  0.2839E-01  0.2839E-01  0.2528E+00  0.2528E+00
      3.924  0.2303E-01  0.2303E-01  0.2553E+00  0.2553E+00
      4.029  0.2379E-01  0.2379E-01  0.2578E+00  0.2578E+00
      4.135  0.1537E-01  0.1537E-01  0.2594E+00  0.2594E+00
      4.240  0.1723E-01  0.1723E-01  0.2612E+00  0.2612E+00
      4.346  0.2885E-01  0.2885E-01  0.2642E+00  0.2642E+00
      4.451  0.7100E-02  0.7100E-02  0.2650E+00  0.2650E+00
      4.557  0.8636E-04  0.8637E-04  0.2650E+00  0.2650E+00
      4.662  0.1318E-08  0.1318E-08  0.2650E+00  0.2650E+00
      4.767  0.4476E-17  0.4476E-17  0.2650E+00  0.2650E+00
      4.873  0.0000E+00  0.0000E+00  0.2650E+00  0.2650E+00
      4.978  0.0000E+00  0.0000E+00  0.2650E+00  0.2650E+00
      5.084  0.0000E+00  0.0000E+00  0.2650E+00  0.2650E+00
      5.189  0.0000E+00  0.0000E+00  0.2650E+00  0.2650E+00
      5.295  0.0000E+00  0.0000E+00  0.2650E+00  0.2650E+00
      5.400  0.0000E+00  0.0000E+00  0.2650E+00  0.2650E+00
      5.505  0.0000E+00  0.0000E+00  0.2650E+00  0.2650E+00
      5.611  0.0000E+00  0.0000E+00  0.2650E+00  0.2650E+00
      5.716  0.0000E+00  0.0000E+00  0.2650E+00  0.2650E+00
      5.822  0.0000E+00  0.0000E+00  0.2650E+00  0.2650E+00
