 vasp.6.4.2 20Jul23 (build Aug 26 2025 15:10:52) complex                        
  
 POSCAR found type information on POSCAR C H N O 
 03/POSCAR found :  4 types and      97 ions
 Reading from existing POTCAR
 scaLAPACK will be used
 -----------------------------------------------------------------------------
|                                                                             |
|           W    W    AA    RRRRR   N    N  II  N    N   GGGG   !!!           |
|           W    W   A  A   R    R  NN   N  II  NN   N  G    G  !!!           |
|           W    W  A    A  R    R  N N  N  II  N N  N  G       !!!           |
|           W WW W  AAAAAA  RRRRR   N  N N  II  N  N N  G  GGG   !            |
|           WW  WW  A    A  R   R   N   NN  II  N   NN  G    G                |
|           W    W  A    A  R    R  N    N  II  N    N   GGGG   !!!           |
|                                                                             |
|     For optimal performance we recommend to set                             |
|       NCORE = 2 up to number-of-cores-per-socket                            |
|     NCORE specifies how many cores store one orbital (NPAR=cpu/NCORE).      |
|     This setting can greatly improve the performance of VASP for DFT.       |
|     The default, NCORE=1 might be grossly inefficient on modern             |
|     multi-core architectures or massively parallel machines. Do your        |
|     own testing! More info at https://www.vasp.at/wiki/index.php/NCORE      |
|     Unfortunately you need to use the default for GW and RPA                |
|     calculations (for HF NCORE is supported but not extensively tested      |
|     yet).                                                                   |
|                                                                             |
 -----------------------------------------------------------------------------

 Reading from existing POTCAR
 LDA part: xc-table for Pade appr. of Perdew
 POSCAR found type information on POSCAR C H N O 
 00/POSCAR found :  4 types and      97 ions
 POSCAR found type information on POSCAR C H N O 
 06/POSCAR found :  4 types and      97 ions
 Jacobian:    33.6678109620489     
 POSCAR found type information on POSCAR C H N O 
 00/POSCAR found :  4 types and      97 ions
 POSCAR found type information on POSCAR C H N O 
 06/POSCAR found :  4 types and      97 ions
 POSCAR, INCAR and KPOINTS ok, starting setup
 FFT: planning ... GRIDC
 FFT: planning ... GRID_SOFT
 FFT: planning ... GRID
 WAVECAR not read
 entering main loop
       N       E                     dE             d eps       ncg     rms          rms(c)
DAV:   1     0.326249833440E+04    0.32625E+04   -0.13767E+05  4590   0.105E+03
DAV:   2    -0.251848879226E+03   -0.35143E+04   -0.33100E+04  6410   0.258E+02
DAV:   3    -0.864455793304E+03   -0.61261E+03   -0.60990E+03  5300   0.111E+02
DAV:   4    -0.886539315931E+03   -0.22084E+02   -0.22005E+02  5430   0.266E+01
DAV:   5    -0.887167774032E+03   -0.62846E+00   -0.62771E+00  6050   0.381E+00    0.518E+01
DAV:   6    -0.869807877351E+03    0.17360E+02   -0.21799E+01  5140   0.719E+00    0.337E+01
DAV:   7    -0.847478125986E+03    0.22330E+02   -0.32543E+01  5030   0.857E+00    0.204E+01
DAV:   8    -0.842629937497E+03    0.48482E+01   -0.24756E+01  5120   0.741E+00    0.817E+00
DAV:   9    -0.842489570150E+03    0.14037E+00   -0.11429E+00  5070   0.194E+00    0.308E+00
DAV:  10    -0.842412125530E+03    0.77445E-01   -0.37276E-01  4950   0.105E+00    0.859E-01
DAV:  11    -0.842400204429E+03    0.11921E-01   -0.65708E-02  4890   0.440E-01    0.299E-01
DAV:  12    -0.842399389319E+03    0.81511E-03   -0.66032E-03  5270   0.160E-01    0.147E-01
DAV:  13    -0.842399198288E+03    0.19103E-03   -0.25748E-03  5210   0.101E-01    0.667E-02
DAV:  14    -0.842399286140E+03   -0.87852E-04   -0.34740E-04  4870   0.353E-02    0.488E-02
DAV:  15    -0.842399332754E+03   -0.46615E-04   -0.92433E-05  4920   0.181E-02    0.214E-02
DAV:  16    -0.842399335440E+03   -0.26859E-05   -0.15359E-05  5150   0.768E-03    0.104E-02
DAV:  17    -0.842399334826E+03    0.61384E-06   -0.90395E-06  5000   0.593E-03
   1 F= -.85016091E+03 E0= -.85016090E+03  d E =-.850161E+03  mag=     0.0003
quench:  g(F)=  0.000E+00 g(S)=  0.000E+00 dE (1.order)= 0.000E+00
 bond charge predicted
       N       E                     dE             d eps       ncg     rms          rms(c)
DAV:   1    -0.842399354958E+03   -0.19517E-04   -0.13534E-03  4480   0.748E-02    0.854E-03
DAV:   2    -0.842399357204E+03   -0.22463E-05   -0.34917E-05  4950   0.110E-02    0.756E-03
DAV:   3    -0.842399356364E+03    0.84029E-06   -0.14647E-06  3600   0.251E-03
   2 F= -.85016093E+03 E0= -.85016093E+03  d E =-.221849E-04  mag=    -0.0000
quench:  g(F)=  0.000E+00 g(S)=  0.000E+00 dE (1.order)= 0.000E+00
 bond charge predicted
       N       E                     dE             d eps       ncg     rms          rms(c)
DAV:   1    -0.842399339391E+03    0.17813E-04   -0.11963E-03  4480   0.690E-02    0.893E-03
DAV:   2    -0.842399340826E+03   -0.14349E-05   -0.25281E-05  4790   0.919E-03    0.778E-03
DAV:   3    -0.842399340161E+03    0.66534E-06   -0.10571E-06  3490   0.231E-03
   3 F= -.85016091E+03 E0= -.85016091E+03  d E =0.160379E-04  mag=     0.0000
quench:  g(F)=  0.000E+00 g(S)=  0.000E+00 dE (1.order)= 0.000E+00
 bond charge predicted
       N       E                     dE             d eps       ncg     rms          rms(c)
DAV:   1    -0.842399349779E+03   -0.89524E-05   -0.91128E-05  4480   0.196E-02    0.247E-03
DAV:   2    -0.842399349960E+03   -0.18126E-06   -0.35555E-06  3480   0.356E-03
   4 F= -.85016092E+03 E0= -.85016092E+03  d E =-.980007E-05  mag=     0.0000
quench:  g(F)=  0.000E+00 g(S)=  0.000E+00 dE (1.order)= 0.000E+00
 bond charge predicted
       N       E                     dE             d eps       ncg     rms          rms(c)
DAV:   1    -0.842399360622E+03   -0.10844E-04   -0.24819E-04  4460   0.322E-02    0.473E-03
DAV:   2    -0.842399360804E+03   -0.18195E-06   -0.61809E-06  5170   0.471E-03
   5 F= -.85016093E+03 E0= -.85016093E+03  d E =-.108931E-04  mag=    -0.0000
quench:  g(F)=  0.000E+00 g(S)=  0.000E+00 dE (1.order)= 0.000E+00
 bond charge predicted
       N       E                     dE             d eps       ncg     rms          rms(c)
DAV:   1    -0.842399360591E+03    0.31272E-07   -0.35895E-04  4380   0.385E-02    0.649E-03
DAV:   2    -0.842399360760E+03   -0.16925E-06   -0.79348E-06  5110   0.533E-03
   6 F= -.85016093E+03 E0= -.85016093E+03  d E =-.153775E-06  mag=     0.0000
quench:  g(F)=  0.000E+00 g(S)=  0.000E+00 dE (1.order)= 0.000E+00
 bond charge predicted
       N       E                     dE             d eps       ncg     rms          rms(c)
DAV:   1    -0.842399351690E+03    0.89005E-05   -0.28435E-04  4360   0.334E-02    0.637E-03
DAV:   2    -0.842399351663E+03    0.27765E-07   -0.51965E-06  4680   0.428E-03
   7 F= -.85016092E+03 E0= -.85016092E+03  d E =0.878866E-05  mag=    -0.0000
quench:  g(F)=  0.000E+00 g(S)=  0.000E+00 dE (1.order)= 0.000E+00
 bond charge predicted
       N       E                     dE             d eps       ncg     rms          rms(c)
DAV:   1    -0.842399344698E+03    0.69920E-05   -0.23404E-04  4380   0.279E-02    0.507E-03
DAV:   2    -0.842399344592E+03    0.10619E-06   -0.29282E-06  3840   0.316E-03
   8 F= -.85016092E+03 E0= -.85016092E+03  d E =0.667974E-05  mag=     0.0000
quench:  g(F)=  0.000E+00 g(S)=  0.000E+00 dE (1.order)= 0.000E+00
 bond charge predicted
       N       E                     dE             d eps       ncg     rms          rms(c)
DAV:   1    -0.842399343884E+03    0.81411E-06   -0.37746E-04  4380   0.349E-02    0.536E-03
DAV:   2    -0.842399343867E+03    0.17644E-07   -0.50338E-06  4340   0.406E-03
   9 F= -.85016092E+03 E0= -.85016092E+03  d E =0.272736E-06  mag=    -0.0000
quench:  g(F)=  0.000E+00 g(S)=  0.000E+00 dE (1.order)= 0.000E+00
 bond charge predicted
       N       E                     dE             d eps       ncg     rms          rms(c)
DAV:   1    -0.842399342363E+03    0.15209E-05   -0.97722E-04  4340   0.570E-02    0.928E-03
DAV:   2    -0.842399342230E+03    0.13313E-06   -0.14871E-05  4560   0.695E-03    0.798E-03
DAV:   3    -0.842399342514E+03   -0.28335E-06   -0.12086E-06  3180   0.245E-03
  10 F= -.85016092E+03 E0= -.85016091E+03  d E =0.999597E-06  mag=     0.0000
quench:  g(F)=  0.000E+00 g(S)=  0.000E+00 dE (1.order)= 0.000E+00
 bond charge predicted
       N       E                     dE             d eps       ncg     rms          rms(c)
DAV:   1    -0.842399324031E+03    0.18199E-04   -0.23252E-03  4360   0.841E-02    0.120E-02
DAV:   2    -0.842399324624E+03   -0.59243E-06   -0.34346E-05  4560   0.101E-02    0.103E-02
DAV:   3    -0.842399324602E+03    0.21617E-07   -0.12250E-06  3780   0.243E-03
  11 F= -.85016090E+03 E0= -.85016090E+03  d E =0.178441E-04  mag=     0.0000
quench:  g(F)=  0.000E+00 g(S)=  0.000E+00 dE (1.order)= 0.000E+00
 bond charge predicted
       N       E                     dE             d eps       ncg     rms          rms(c)
DAV:   1    -0.842399286140E+03    0.38483E-04   -0.53753E-03  4380   0.118E-01    0.180E-02
DAV:   2    -0.842399285908E+03    0.23236E-06   -0.73756E-05  4500   0.135E-02    0.153E-02
DAV:   3    -0.842399286302E+03   -0.39388E-06   -0.21396E-06  4080   0.308E-03
  12 F= -.85016086E+03 E0= -.85016086E+03  d E =0.385915E-04  mag=     0.0000
quench:  g(F)=  0.000E+00 g(S)=  0.000E+00 dE (1.order)= 0.000E+00
 bond charge predicted
       N       E                     dE             d eps       ncg     rms          rms(c)
DAV:   1    -0.842399237010E+03    0.48898E-04   -0.13248E-02  4350   0.176E-01    0.278E-02
DAV:   2    -0.842399236015E+03    0.99481E-06   -0.18466E-04  4500   0.199E-02    0.235E-02
DAV:   3    -0.842399235998E+03    0.16378E-07   -0.44236E-06  4700   0.421E-03
  13 F= -.85016081E+03 E0= -.85016081E+03  d E =0.511061E-04  mag=     0.0000
quench:  g(F)=  0.000E+00 g(S)=  0.000E+00 dE (1.order)= 0.000E+00
 bond charge predicted
       N       E                     dE             d eps       ncg     rms          rms(c)
DAV:   1    -0.842399158730E+03    0.77285E-04   -0.32310E-02  4340   0.270E-01    0.431E-02
DAV:   2    -0.842399162693E+03   -0.39631E-05   -0.46707E-04  4470   0.306E-02    0.363E-02
DAV:   3    -0.842399160157E+03    0.25354E-05   -0.10118E-05  5110   0.624E-03    0.251E-02
DAV:   4    -0.842399190815E+03   -0.30658E-04   -0.25947E-05  4215   0.828E-03    0.478E-03
DAV:   5    -0.842399190720E+03    0.95242E-07   -0.53576E-06  4560   0.364E-03
  14 F= -.85016076E+03 E0= -.85016076E+03  d E =0.464048E-04  mag=     0.0000
quench:  g(F)=  0.000E+00 g(S)=  0.000E+00 dE (1.order)= 0.000E+00
 bond charge predicted
       N       E                     dE             d eps       ncg     rms          rms(c)
DAV:   1    -0.842399012391E+03    0.17842E-03   -0.70292E-02  4330   0.391E-01    0.626E-02
DAV:   2    -0.842399046143E+03   -0.33752E-04   -0.10842E-03  4480   0.459E-02    0.527E-02
DAV:   3    -0.842399031296E+03    0.14846E-04   -0.22368E-05  5155   0.925E-03    0.372E-02
DAV:   4    -0.842399078531E+03   -0.47234E-04   -0.65134E-05  4395   0.129E-02    0.715E-03
DAV:   5    -0.842399078473E+03    0.58091E-07   -0.12718E-05  4720   0.563E-03    0.458E-03
DAV:   6    -0.842399080163E+03   -0.16899E-05   -0.10605E-06  3280   0.179E-03    0.213E-03
DAV:   7    -0.842399080221E+03   -0.58484E-07   -0.31922E-07  3340   0.950E-04
  15 F= -.85016065E+03 E0= -.85016065E+03  d E =0.111849E-03  mag=    -0.0000
quench:  g(F)=  0.000E+00 g(S)=  0.000E+00 dE (1.order)= 0.000E+00
 bond charge predicted
       N       E                     dE             d eps       ncg     rms          rms(c)
DAV:   1    -0.842398836280E+03    0.24388E-03   -0.12548E-01  4320   0.519E-01    0.841E-02
DAV:   2    -0.842398911495E+03   -0.75215E-04   -0.19235E-03  4465   0.605E-02    0.706E-02
DAV:   3    -0.842398882784E+03    0.28711E-04   -0.39834E-05  5140   0.122E-02    0.497E-02
DAV:   4    -0.842398948056E+03   -0.65272E-04   -0.11567E-04  4570   0.169E-02    0.936E-03
DAV:   5    -0.842398948536E+03   -0.47947E-06   -0.22200E-05  4700   0.730E-03    0.603E-03
DAV:   6    -0.842398951603E+03   -0.30671E-05   -0.18349E-06  3520   0.232E-03    0.271E-03
DAV:   7    -0.842398951759E+03   -0.15662E-06   -0.55338E-07  3420   0.119E-03
  16 F= -.85016052E+03 E0= -.85016052E+03  d E =0.130021E-03  mag=     0.0000
quench:  g(F)=  0.000E+00 g(S)=  0.000E+00 dE (1.order)= 0.000E+00
 bond charge predicted
       N       E                     dE             d eps       ncg     rms          rms(c)
DAV:   1    -0.842398600946E+03    0.35066E-03   -0.19763E-01  4310   0.652E-01    0.105E-01
DAV:   2    -0.842398743436E+03   -0.14249E-03   -0.30764E-03  4500   0.762E-02    0.881E-02
DAV:   3    -0.842398696961E+03    0.46474E-04   -0.62783E-05  5160   0.154E-02    0.624E-02
DAV:   4    -0.842398779840E+03   -0.82879E-04   -0.18155E-04  4700   0.213E-02    0.117E-02
DAV:   5    -0.842398781249E+03   -0.14091E-05   -0.34018E-05  4720   0.902E-03    0.764E-03
DAV:   6    -0.842398786258E+03   -0.50093E-05   -0.31402E-06  3900   0.305E-03    0.341E-03
DAV:   7    -0.842398786521E+03   -0.26238E-06   -0.81906E-07  3460   0.145E-03
  17 F= -.85016035E+03 E0= -.85016035E+03  d E =0.171682E-03  mag=     0.0000
quench:  g(F)=  0.000E+00 g(S)=  0.000E+00 dE (1.order)= 0.000E+00
 bond charge predicted
       N       E                     dE             d eps       ncg     rms          rms(c)
DAV:   1    -0.842398366582E+03    0.41968E-03   -0.23743E-01  4310   0.727E-01    0.115E-01
DAV:   2    -0.842398550983E+03   -0.18440E-03   -0.37381E-03  4480   0.856E-02    0.963E-02
DAV:   3    -0.842398495018E+03    0.55965E-04   -0.77577E-05  5160   0.173E-02    0.684E-02
DAV:   4    -0.842398585581E+03   -0.90563E-04   -0.21797E-04  4680   0.239E-02    0.130E-02
DAV:   5    -0.842398586605E+03   -0.10240E-05   -0.41646E-05  4720   0.102E-02    0.844E-03
DAV:   6    -0.842398592298E+03   -0.56933E-05   -0.41373E-06  4000   0.353E-03    0.384E-03
DAV:   7    -0.842398592638E+03   -0.33977E-06   -0.96351E-07  3520   0.164E-03
  18 F= -.85016014E+03 E0= -.85016014E+03  d E =0.212340E-03  mag=    -0.0000
quench:  g(F)=  0.000E+00 g(S)=  0.000E+00 dE (1.order)= 0.000E+00
 bond charge predicted
       N       E                     dE             d eps       ncg     rms          rms(c)
DAV:   1    -0.842398608097E+03   -0.15799E-04   -0.17826E-04  4360   0.256E-02    0.303E-03
DAV:   2    -0.842398608347E+03   -0.25002E-06   -0.37723E-06  3860   0.356E-03
  19 F= -.85016015E+03 E0= -.85016015E+03  d E =-.159379E-04  mag=     0.0000
quench:  g(F)=  0.000E+00 g(S)=  0.000E+00 dE (1.order)= 0.000E+00
 bond charge predicted
       N       E                     dE             d eps       ncg     rms          rms(c)
DAV:   1    -0.842398625622E+03   -0.17525E-04   -0.55400E-04  4320   0.437E-02    0.723E-03
DAV:   2    -0.842398625800E+03   -0.17832E-06   -0.11531E-05  4480   0.599E-03    0.619E-03
DAV:   3    -0.842398625489E+03    0.31097E-06   -0.78736E-07  3360   0.194E-03
  20 F= -.85016017E+03 E0= -.85016017E+03  d E =-.174181E-04  mag=     0.0000
quench:  g(F)=  0.000E+00 g(S)=  0.000E+00 dE (1.order)= 0.000E+00
 bond charge predicted
       N       E                     dE             d eps       ncg     rms          rms(c)
DAV:   1    -0.842398636878E+03   -0.11078E-04   -0.79178E-04  4290   0.477E-02    0.717E-03
DAV:   2    -0.842398637250E+03   -0.37208E-06   -0.13890E-05  4440   0.594E-03    0.610E-03
DAV:   3    -0.842398637112E+03    0.13861E-06   -0.39780E-07  3520   0.137E-03
  21 F= -.85016018E+03 E0= -.85016018E+03  d E =-.116390E-04  mag=     0.0000
quench:  g(F)=  0.000E+00 g(S)=  0.000E+00 dE (1.order)= 0.000E+00
 bond charge predicted
       N       E                     dE             d eps       ncg     rms          rms(c)
DAV:   1    -0.842398652108E+03   -0.14858E-04   -0.88061E-04  4280   0.432E-02    0.689E-03
DAV:   2    -0.842398652338E+03   -0.23015E-06   -0.13349E-05  4320   0.484E-03    0.574E-03
DAV:   3    -0.842398652269E+03    0.69806E-07   -0.27337E-07  3440   0.104E-03
  22 F= -.85016020E+03 E0= -.85016019E+03  d E =-.144509E-04  mag=     0.0000
quench:  g(F)=  0.000E+00 g(S)=  0.000E+00 dE (1.order)= 0.000E+00
 bond charge predicted
       N       E                     dE             d eps       ncg     rms          rms(c)
DAV:   1    -0.842398676673E+03   -0.24334E-04   -0.10322E-03  4280   0.474E-02    0.714E-03
DAV:   2    -0.842398677079E+03   -0.40647E-06   -0.15641E-05  4420   0.535E-03    0.596E-03
DAV:   3    -0.842398676953E+03    0.12619E-06   -0.31157E-07  3500   0.110E-03
  23 F= -.85016022E+03 E0= -.85016022E+03  d E =-.230948E-04  mag=     0.0000
quench:  g(F)=  0.000E+00 g(S)=  0.000E+00 dE (1.order)= 0.000E+00
 bond charge predicted
       N       E                     dE             d eps       ncg     rms          rms(c)
DAV:   1    -0.842398700682E+03   -0.23602E-04   -0.12234E-03  4280   0.567E-02    0.755E-03
DAV:   2    -0.842398701559E+03   -0.87685E-06   -0.20041E-05  4440   0.673E-03    0.637E-03
DAV:   3    -0.842398701349E+03    0.20968E-06   -0.46252E-07  3500   0.137E-03
  24 F= -.85016024E+03 E0= -.85016024E+03  d E =-.219861E-04  mag=     0.0000
quench:  g(F)=  0.000E+00 g(S)=  0.000E+00 dE (1.order)= 0.000E+00
 bond charge predicted
       N       E                     dE             d eps       ncg     rms          rms(c)
DAV:   1    -0.842398702271E+03   -0.71255E-06   -0.24146E-06  3540   0.294E-03    0.109E-03
DAV:   2    -0.842398702273E+03   -0.14552E-08   -0.21139E-07  2840   0.869E-04
  25 F= -.85016024E+03 E0= -.85016024E+03  d E =-.887026E-06  mag=    -0.0000
quench:  g(F)=  0.000E+00 g(S)=  0.000E+00 dE (1.order)= 0.000E+00
 bond charge predicted
       N       E                     dE             d eps       ncg     rms          rms(c)
DAV:   1    -0.842398702373E+03   -0.10154E-06   -0.67443E-06  3900   0.465E-03    0.790E-04
DAV:   2    -0.842398702384E+03   -0.11554E-07   -0.14131E-07  2290   0.707E-04
  26 F= -.85016024E+03 E0= -.85016024E+03  d E =-.394123E-07  mag=    -0.0000
quench:  g(F)=  0.000E+00 g(S)=  0.000E+00 dE (1.order)= 0.000E+00
 bond charge predicted
       N       E                     dE             d eps       ncg     rms          rms(c)
DAV:   1    -0.842398702005E+03    0.36744E-06   -0.17621E-05  4100   0.727E-03    0.122E-03
DAV:   2    -0.842398702008E+03   -0.31723E-08   -0.30458E-07  2620   0.968E-04
  27 F= -.85016024E+03 E0= -.85016024E+03  d E =0.486688E-06  mag=     0.0000
quench:  g(F)=  0.000E+00 g(S)=  0.000E+00 dE (1.order)= 0.000E+00
 bond charge predicted
       N       E                     dE             d eps       ncg     rms          rms(c)
DAV:   1    -0.842398700785E+03    0.12202E-05   -0.37306E-05  4210   0.102E-02    0.190E-03
DAV:   2    -0.842398700763E+03    0.21973E-07   -0.59491E-07  2910   0.129E-03
  28 F= -.85016024E+03 E0= -.85016024E+03  d E =0.139584E-05  mag=    -0.0000
quench:  g(F)=  0.000E+00 g(S)=  0.000E+00 dE (1.order)= 0.000E+00
 bond charge predicted
       N       E                     dE             d eps       ncg     rms          rms(c)
DAV:   1    -0.842398698394E+03    0.23908E-05   -0.69409E-05  4280   0.135E-02    0.270E-03
DAV:   2    -0.842398698332E+03    0.62559E-07   -0.10215E-06  3020   0.161E-03
  29 F= -.85016024E+03 E0= -.85016024E+03  d E =0.263413E-05  mag=     0.0000
quench:  g(F)=  0.000E+00 g(S)=  0.000E+00 dE (1.order)= 0.000E+00
 bond charge predicted
       N       E                     dE             d eps       ncg     rms          rms(c)
DAV:   1    -0.842398694504E+03    0.38902E-05   -0.11674E-04  4280   0.171E-02    0.359E-03
DAV:   2    -0.842398694367E+03    0.13696E-06   -0.16594E-06  3180   0.200E-03
  30 F= -.85016023E+03 E0= -.85016023E+03  d E =0.417311E-05  mag=    -0.0000
quench:  g(F)=  0.000E+00 g(S)=  0.000E+00 dE (1.order)= 0.000E+00
 bond charge predicted
       N       E                     dE             d eps       ncg     rms          rms(c)
DAV:   1    -0.842398688276E+03    0.62280E-05   -0.23223E-04  4280   0.237E-02    0.496E-03
DAV:   2    -0.842398687981E+03    0.29461E-06   -0.33870E-06  3640   0.277E-03
  31 F= -.85016023E+03 E0= -.85016023E+03  d E =0.664398E-05  mag=    -0.0000
quench:  g(F)=  0.000E+00 g(S)=  0.000E+00 dE (1.order)= 0.000E+00
 bond charge predicted
       N       E                     dE             d eps       ncg     rms          rms(c)
DAV:   1    -0.842398679115E+03    0.91610E-05   -0.44817E-04  4340   0.324E-02    0.701E-03
DAV:   2    -0.842398678468E+03    0.64709E-06   -0.63839E-06  4040   0.373E-03
  32 F= -.85016022E+03 E0= -.85016022E+03  d E =0.983882E-05  mag=    -0.0000
quench:  g(F)=  0.000E+00 g(S)=  0.000E+00 dE (1.order)= 0.000E+00
 bond charge predicted
       N       E                     dE             d eps       ncg     rms          rms(c)
DAV:   1    -0.842398665320E+03    0.13795E-04   -0.82346E-04  4310   0.435E-02    0.959E-03
DAV:   2    -0.842398664055E+03    0.12645E-05   -0.11703E-05  4240   0.499E-03    0.793E-03
DAV:   3    -0.842398665301E+03   -0.12455E-05   -0.66497E-07  3040   0.163E-03    0.402E-03
DAV:   4    -0.842398666458E+03   -0.11571E-05   -0.73106E-07  3090   0.134E-03    0.108E-03
DAV:   5    -0.842398666451E+03    0.65484E-08   -0.23866E-07  3060   0.898E-04
  33 F= -.85016020E+03 E0= -.85016020E+03  d E =0.124853E-04  mag=    -0.0000
quench:  g(F)=  0.000E+00 g(S)=  0.000E+00 dE (1.order)= 0.000E+00
 bond charge predicted
       N       E                     dE             d eps       ncg     rms          rms(c)
DAV:   1    -0.842398647128E+03    0.19330E-04   -0.15014E-03  4330   0.580E-02    0.916E-03
DAV:   2    -0.842398647309E+03   -0.18139E-06   -0.23384E-05  4265   0.684E-03    0.765E-03
DAV:   3    -0.842398647085E+03    0.22435E-06   -0.46296E-07  3555   0.141E-03
  34 F= -.85016018E+03 E0= -.85016018E+03  d E =0.199663E-04  mag=    -0.0000
quench:  g(F)=  0.000E+00 g(S)=  0.000E+00 dE (1.order)= 0.000E+00
 bond charge predicted
       N       E                     dE             d eps       ncg     rms          rms(c)
DAV:   1    -0.842398621890E+03    0.25419E-04   -0.26389E-03  4295   0.760E-02    0.126E-02
DAV:   2    -0.842398621165E+03    0.72453E-06   -0.38648E-05  4360   0.859E-03    0.104E-02
DAV:   3    -0.842398621397E+03   -0.23125E-06   -0.71588E-07  3600   0.169E-03
  35 F= -.85016016E+03 E0= -.85016016E+03  d E =0.264930E-04  mag=     0.0000
quench:  g(F)=  0.000E+00 g(S)=  0.000E+00 dE (1.order)= 0.000E+00
 bond charge predicted
       N       E                     dE             d eps       ncg     rms          rms(c)
DAV:   1    -0.842398596516E+03    0.24649E-04   -0.37841E-03  4325   0.912E-02    0.148E-02
DAV:   2    -0.842398595925E+03    0.59112E-06   -0.58414E-05  4350   0.104E-02    0.120E-02
DAV:   3    -0.842398595904E+03    0.21573E-07   -0.10974E-06  3955   0.203E-03
  36 F= -.85016013E+03 E0= -.85016013E+03  d E =0.260854E-04  mag=     0.0000
quench:  g(F)=  0.000E+00 g(S)=  0.000E+00 dE (1.order)= 0.000E+00
 bond charge predicted
       N       E                     dE             d eps       ncg     rms          rms(c)
DAV:   1    -0.842398569151E+03    0.26774E-04   -0.52972E-03  4305   0.109E-01    0.176E-02
DAV:   2    -0.842398568564E+03    0.58742E-06   -0.83737E-05  4350   0.126E-02    0.143E-02
DAV:   3    -0.842398568461E+03    0.10262E-06   -0.16994E-06  4135   0.251E-03
  37 F= -.85016010E+03 E0= -.85016010E+03  d E =0.282130E-04  mag=     0.0000
quench:  g(F)=  0.000E+00 g(S)=  0.000E+00 dE (1.order)= 0.000E+00
 bond charge predicted
       N       E                     dE             d eps       ncg     rms          rms(c)
DAV:   1    -0.842398538296E+03    0.30267E-04   -0.67639E-03  4300   0.126E-01    0.199E-02
DAV:   2    -0.842398537592E+03    0.70440E-06   -0.10449E-04  4330   0.145E-02    0.163E-02
DAV:   3    -0.842398537729E+03   -0.13675E-06   -0.21446E-06  4160   0.290E-03
  38 F= -.85016007E+03 E0= -.85016007E+03  d E =0.324083E-04  mag=     0.0000
quench:  g(F)=  0.000E+00 g(S)=  0.000E+00 dE (1.order)= 0.000E+00
 bond charge predicted
       N       E                     dE             d eps       ncg     rms          rms(c)
DAV:   1    -0.842398508764E+03    0.28828E-04   -0.80340E-03  4300   0.141E-01    0.215E-02
DAV:   2    -0.842398508382E+03    0.38266E-06   -0.11885E-04  4320   0.162E-02    0.178E-02
DAV:   3    -0.842398508795E+03   -0.41332E-06   -0.25694E-06  3980   0.328E-03
  39 F= -.85016004E+03 E0= -.85016004E+03  d E =0.318846E-04  mag=     0.0000
quench:  g(F)=  0.000E+00 g(S)=  0.000E+00 dE (1.order)= 0.000E+00
 bond charge predicted
       N       E                     dE             d eps       ncg     rms          rms(c)
DAV:   1    -0.842398473719E+03    0.34662E-04   -0.10284E-02  4300   0.163E-01    0.239E-02
DAV:   2    -0.842398474413E+03   -0.69372E-06   -0.14981E-04  4325   0.186E-02    0.199E-02
DAV:   3    -0.842398474830E+03   -0.41667E-06   -0.36646E-06  4400   0.393E-03
  40 F= -.85016000E+03 E0= -.85016000E+03  d E =0.385753E-04  mag=    -0.0000
quench:  g(F)=  0.000E+00 g(S)=  0.000E+00 dE (1.order)= 0.000E+00
 bond charge predicted
       N       E                     dE             d eps       ncg     rms          rms(c)
DAV:   1    -0.842398426578E+03    0.47836E-04   -0.14826E-02  4280   0.195E-01    0.283E-02
DAV:   2    -0.842398428430E+03   -0.18520E-05   -0.22091E-04  4320   0.225E-02    0.237E-02
DAV:   3    -0.842398428613E+03   -0.18343E-06   -0.51680E-06  4660   0.460E-03
  41 F= -.85015995E+03 E0= -.85015995E+03  d E =0.507413E-04  mag=    -0.0000
quench:  g(F)=  0.000E+00 g(S)=  0.000E+00 dE (1.order)= 0.000E+00
 bond charge predicted
       N       E                     dE             d eps       ncg     rms          rms(c)
DAV:   1    -0.842398377355E+03    0.51074E-04   -0.21869E-02  4280   0.234E-01    0.337E-02
DAV:   2    -0.842398381389E+03   -0.40338E-05   -0.33406E-04  4320   0.269E-02    0.281E-02
DAV:   3    -0.842398380165E+03    0.12244E-05   -0.73121E-06  4920   0.536E-03    0.198E-02
DAV:   4    -0.842398401314E+03   -0.21149E-04   -0.15609E-05  4020   0.690E-03    0.376E-03
DAV:   5    -0.842398401550E+03   -0.23538E-06   -0.35712E-06  4140   0.304E-03
  42 F= -.85015992E+03 E0= -.85015992E+03  d E =0.300508E-04  mag=    -0.0000
quench:  g(F)=  0.000E+00 g(S)=  0.000E+00 dE (1.order)= 0.000E+00
 bond charge predicted
       N       E                     dE             d eps       ncg     rms          rms(c)
DAV:   1    -0.842398324573E+03    0.76741E-04   -0.28579E-02  4320   0.272E-01    0.380E-02
DAV:   2    -0.842398336780E+03   -0.12207E-04   -0.45866E-04  4350   0.326E-02    0.316E-02
DAV:   3    -0.842398331504E+03    0.52760E-05   -0.11308E-05  4940   0.686E-03    0.222E-02
DAV:   4    -0.842398350963E+03   -0.19460E-04   -0.21339E-05  4070   0.839E-03    0.480E-03
DAV:   5    -0.842398351946E+03   -0.98239E-06   -0.54496E-06  4480   0.386E-03
  43 F= -.85015987E+03 E0= -.85015987E+03  d E =0.507002E-04  mag=    -0.0000
quench:  g(F)=  0.000E+00 g(S)=  0.000E+00 dE (1.order)= 0.000E+00
 bond charge predicted
       N       E                     dE             d eps       ncg     rms          rms(c)
DAV:   1    -0.842398269421E+03    0.81543E-04   -0.34513E-02  4300   0.306E-01    0.415E-02
DAV:   2    -0.842398283504E+03   -0.14083E-04   -0.53039E-04  4360   0.366E-02    0.352E-02
DAV:   3    -0.842398278509E+03    0.49950E-05   -0.14193E-05  4860   0.787E-03    0.241E-02
DAV:   4    -0.842398300112E+03   -0.21603E-04   -0.25497E-05  4200   0.937E-03    0.506E-03
DAV:   5    -0.842398300679E+03   -0.56678E-06   -0.78879E-06  4660   0.477E-03
  44 F= -.85015981E+03 E0= -.85015981E+03  d E =0.541595E-04  mag=    -0.0000
quench:  g(F)=  0.000E+00 g(S)=  0.000E+00 dE (1.order)= 0.000E+00
 bond charge predicted
       N       E                     dE             d eps       ncg     rms          rms(c)
DAV:   1    -0.842398184403E+03    0.11571E-03   -0.52159E-02  4300   0.366E-01    0.494E-02
DAV:   2    -0.842398209209E+03   -0.24806E-04   -0.82782E-04  4380   0.435E-02    0.422E-02
DAV:   3    -0.842398198567E+03    0.10642E-04   -0.19356E-05  5200   0.896E-03    0.299E-02
DAV:   4    -0.842398231013E+03   -0.32445E-04   -0.43406E-05  4190   0.116E-02    0.631E-03
DAV:   5    -0.842398232731E+03   -0.17181E-05   -0.10443E-05  4680   0.530E-03    0.362E-03
DAV:   6    -0.842398234362E+03   -0.16314E-05   -0.55712E-07  3000   0.140E-03    0.181E-03
DAV:   7    -0.842398234383E+03   -0.21289E-07   -0.14960E-07  3460   0.708E-04
  45 F= -.85015975E+03 E0= -.85015975E+03  d E =0.664894E-04  mag=    -0.0000
quench:  g(F)=  0.000E+00 g(S)=  0.000E+00 dE (1.order)= 0.000E+00
 bond charge predicted
       N       E                     dE             d eps       ncg     rms          rms(c)
DAV:   1    -0.842398104537E+03    0.12982E-03   -0.63542E-02  4300   0.416E-01    0.560E-02
DAV:   2    -0.842398132471E+03   -0.27934E-04   -0.95201E-04  4320   0.493E-02    0.482E-02
DAV:   3    -0.842398120090E+03    0.12381E-04   -0.26837E-05  4900   0.109E-02    0.327E-02
DAV:   4    -0.842398153064E+03   -0.32974E-04   -0.48229E-05  4370   0.127E-02    0.698E-03
DAV:   5    -0.842398154711E+03   -0.16463E-05   -0.14460E-05  4640   0.645E-03    0.378E-03
DAV:   6    -0.842398156361E+03   -0.16505E-05   -0.57956E-07  3000   0.146E-03    0.204E-03
DAV:   7    -0.842398156362E+03   -0.78580E-09   -0.19991E-07  3580   0.822E-04
  46 F= -.85015967E+03 E0= -.85015967E+03  d E =0.800824E-04  mag=     0.0000
quench:  g(F)=  0.000E+00 g(S)=  0.000E+00 dE (1.order)= 0.000E+00
 bond charge predicted
       N       E                     dE             d eps       ncg     rms          rms(c)
DAV:   1    -0.842397996302E+03    0.16006E-03   -0.92704E-02  4340   0.497E-01    0.668E-02
DAV:   2    -0.842398045174E+03   -0.48872E-04   -0.14124E-03  4290   0.586E-02    0.576E-02
DAV:   3    -0.842398023883E+03    0.21290E-04   -0.37098E-05  5100   0.127E-02    0.400E-02
DAV:   4    -0.842398067875E+03   -0.43991E-04   -0.76764E-05  4450   0.157E-02    0.848E-03
DAV:   5    -0.842398070085E+03   -0.22097E-05   -0.19482E-05  4700   0.738E-03    0.493E-03
DAV:   6    -0.842398073183E+03   -0.30987E-05   -0.10884E-06  3120   0.196E-03    0.247E-03
DAV:   7    -0.842398073194E+03   -0.10288E-07   -0.28637E-07  3560   0.101E-03
  47 F= -.85015958E+03 E0= -.85015958E+03  d E =0.877556E-04  mag=    -0.0000
quench:  g(F)=  0.000E+00 g(S)=  0.000E+00 dE (1.order)= 0.000E+00
 bond charge predicted
       N       E                     dE             d eps       ncg     rms          rms(c)
DAV:   1    -0.842397876407E+03    0.19678E-03   -0.12622E-01  4320   0.582E-01    0.774E-02
DAV:   2    -0.842397956350E+03   -0.79943E-04   -0.19771E-03  4310   0.692E-02    0.669E-02
DAV:   3    -0.842397924828E+03    0.31523E-04   -0.52522E-05  5200   0.149E-02    0.471E-02
DAV:   4    -0.842397973856E+03   -0.49028E-04   -0.10753E-04  4670   0.187E-02    0.104E-02
DAV:   5    -0.842397977911E+03   -0.40553E-05   -0.25064E-05  4720   0.824E-03    0.608E-03
DAV:   6    -0.842397982310E+03   -0.43990E-05   -0.18591E-06  3400   0.250E-03    0.292E-03
DAV:   7    -0.842397982354E+03   -0.43918E-07   -0.39076E-07  3560   0.123E-03
  48 F= -.85015948E+03 E0= -.85015947E+03  d E =0.104457E-03  mag=    -0.0000
quench:  g(F)=  0.000E+00 g(S)=  0.000E+00 dE (1.order)= 0.000E+00
 bond charge predicted
       N       E                     dE             d eps       ncg     rms          rms(c)
DAV:   1    -0.842397687802E+03    0.29451E-03   -0.14970E-01  4320   0.671E-01    0.870E-02
DAV:   2    -0.842397781892E+03   -0.94090E-04   -0.22855E-03  4350   0.811E-02    0.761E-02
DAV:   3    -0.842397743645E+03    0.38247E-04   -0.82928E-05  4960   0.192E-02    0.509E-02
DAV:   4    -0.842397791545E+03   -0.47900E-04   -0.11277E-04  4420   0.208E-02    0.128E-02
DAV:   5    -0.842397795544E+03   -0.39998E-05   -0.35926E-05  4680   0.104E-02    0.647E-03
DAV:   6    -0.842397799664E+03   -0.41201E-05   -0.22994E-06  3300   0.280E-03    0.338E-03
DAV:   7    -0.842397799605E+03    0.59903E-07   -0.42299E-07  3700   0.137E-03
  49 F= -.85015928E+03 E0= -.85015928E+03  d E =0.195918E-03  mag=    -0.0000
quench:  g(F)=  0.000E+00 g(S)=  0.000E+00 dE (1.order)= 0.000E+00
 bond charge predicted
       N       E                     dE             d eps       ncg     rms          rms(c)
DAV:   1    -0.842397916200E+03   -0.11654E-03   -0.54147E-03  4320   0.146E-01    0.164E-02
DAV:   2    -0.842397924479E+03   -0.82786E-05   -0.13930E-04  4520   0.211E-02    0.148E-02
DAV:   3    -0.842397921704E+03    0.27753E-05   -0.53685E-06  5160   0.440E-03    0.115E-02
DAV:   4    -0.842397920830E+03    0.87366E-06   -0.72125E-06  4180   0.553E-03
  50 F= -.85015940E+03 E0= -.85015940E+03  d E =-.119576E-03  mag=     0.0000
quench:  g(F)=  0.000E+00 g(S)=  0.000E+00 dE (1.order)= 0.000E+00
 bond charge predicted
       N       E                     dE             d eps       ncg     rms          rms(c)
DAV:   1    -0.842397838411E+03    0.83293E-04   -0.70353E-03  4280   0.164E-01    0.196E-02
DAV:   2    -0.842397846853E+03   -0.84428E-05   -0.16720E-04  4540   0.229E-02    0.174E-02
DAV:   3    -0.842397843445E+03    0.34081E-05   -0.65480E-06  5440   0.496E-03    0.134E-02
DAV:   4    -0.842397844120E+03   -0.67435E-06   -0.96613E-06  4240   0.649E-03
  51 F= -.85015932E+03 E0= -.85015932E+03  d E =0.807177E-04  mag=    -0.0000
quench:  g(F)=  0.000E+00 g(S)=  0.000E+00 dE (1.order)= 0.000E+00
 bond charge predicted
       N       E                     dE             d eps       ncg     rms          rms(c)
DAV:   1    -0.842397877542E+03   -0.34097E-04   -0.21242E-04  4480   0.296E-02    0.312E-03
DAV:   2    -0.842397878129E+03   -0.58740E-06   -0.65932E-06  4460   0.469E-03
  52 F= -.85015935E+03 E0= -.85015935E+03  d E =-.338280E-04  mag=     0.0000
quench:  g(F)=  0.000E+00 g(S)=  0.000E+00 dE (1.order)= 0.000E+00
 bond charge predicted
       N       E                     dE             d eps       ncg     rms          rms(c)
DAV:   1    -0.842397916087E+03   -0.38545E-04   -0.66408E-04  4380   0.524E-02    0.727E-03
DAV:   2    -0.842397916891E+03   -0.80337E-06   -0.17137E-05  4920   0.764E-03    0.653E-03
DAV:   3    -0.842397916179E+03    0.71191E-06   -0.11352E-06  3040   0.226E-03
  53 F= -.85015939E+03 E0= -.85015939E+03  d E =-.377171E-04  mag=    -0.0000
quench:  g(F)=  0.000E+00 g(S)=  0.000E+00 dE (1.order)= 0.000E+00
 bond charge predicted
       N       E                     dE             d eps       ncg     rms          rms(c)
DAV:   1    -0.842397924717E+03   -0.78260E-05   -0.94151E-04  4380   0.626E-02    0.822E-03
DAV:   2    -0.842397926170E+03   -0.14537E-05   -0.22382E-05  5000   0.875E-03    0.736E-03
DAV:   3    -0.842397925558E+03    0.61210E-06   -0.10031E-06  3140   0.216E-03
  54 F= -.85015940E+03 E0= -.85015940E+03  d E =-.866304E-05  mag=    -0.0000
quench:  g(F)=  0.000E+00 g(S)=  0.000E+00 dE (1.order)= 0.000E+00
 bond charge predicted
       N       E                     dE             d eps       ncg     rms          rms(c)
DAV:   1    -0.842397925491E+03    0.67931E-06   -0.37769E-06  4000   0.393E-03    0.172E-03
DAV:   2    -0.842397925484E+03    0.67012E-08   -0.42146E-07  2370   0.124E-03
  55 F= -.85015940E+03 E0= -.85015940E+03  d E =0.151451E-06  mag=    -0.0000
quench:  g(F)=  0.000E+00 g(S)=  0.000E+00 dE (1.order)= 0.000E+00
 bond charge predicted
       N       E                     dE             d eps       ncg     rms          rms(c)
DAV:   1    -0.842397925808E+03   -0.31725E-06   -0.31617E-06  3630   0.325E-03    0.765E-04
DAV:   2    -0.842397925816E+03   -0.75233E-08   -0.85221E-08  2210   0.584E-04
  56 F= -.85015940E+03 E0= -.85015940E+03  d E =-.174822E-06  mag=    -0.0000
quench:  g(F)=  0.000E+00 g(S)=  0.000E+00 dE (1.order)= 0.000E+00
 bond charge predicted
       N       E                     dE             d eps       ncg     rms          rms(c)
DAV:   1    -0.842397926184E+03   -0.37588E-06   -0.68853E-06  3900   0.477E-03    0.766E-04
DAV:   2    -0.842397926184E+03   -0.72760E-11   -0.13886E-07  2290   0.699E-04
  57 F= -.85015940E+03 E0= -.85015940E+03  d E =-.139893E-06  mag=    -0.0000
quench:  g(F)=  0.000E+00 g(S)=  0.000E+00 dE (1.order)= 0.000E+00
 bond charge predicted
       N       E                     dE             d eps       ncg     rms          rms(c)
DAV:   1    -0.842397926508E+03   -0.32345E-06   -0.11517E-05  4030   0.607E-03    0.108E-03
DAV:   2    -0.842397926498E+03    0.94806E-08   -0.21662E-07  2450   0.831E-04
  58 F= -.85015940E+03 E0= -.85015940E+03  d E =-.102756E-07  mag=    -0.0000
quench:  g(F)=  0.000E+00 g(S)=  0.000E+00 dE (1.order)= 0.000E+00
 bond charge predicted
       N       E                     dE             d eps       ncg     rms          rms(c)
DAV:   1    -0.842397926715E+03   -0.20736E-06   -0.16435E-05  4030   0.716E-03    0.132E-03
DAV:   2    -0.842397926698E+03    0.17382E-07   -0.29383E-07  2600   0.956E-04
  59 F= -.85015940E+03 E0= -.85015940E+03  d E =0.180112E-06  mag=    -0.0000
quench:  g(F)=  0.000E+00 g(S)=  0.000E+00 dE (1.order)= 0.000E+00
 bond charge predicted
       N       E                     dE             d eps       ncg     rms          rms(c)
DAV:   1    -0.842397926786E+03   -0.71363E-07   -0.21503E-05  4110   0.809E-03    0.150E-03
DAV:   2    -0.842397926761E+03    0.24869E-07   -0.35918E-07  2680   0.104E-03
  60 F= -.85015940E+03 E0= -.85015940E+03  d E =0.375671E-06  mag=    -0.0000
quench:  g(F)=  0.000E+00 g(S)=  0.000E+00 dE (1.order)= 0.000E+00
 bond charge predicted
       N       E                     dE             d eps       ncg     rms          rms(c)
DAV:   1    -0.842397926749E+03    0.37246E-07   -0.32903E-05  4180   0.987E-03    0.178E-03
DAV:   2    -0.842397926711E+03    0.38461E-07   -0.51474E-07  2780   0.121E-03
  61 F= -.85015940E+03 E0= -.85015940E+03  d E =0.606627E-06  mag=    -0.0000
quench:  g(F)=  0.000E+00 g(S)=  0.000E+00 dE (1.order)= 0.000E+00
 bond charge predicted
       N       E                     dE             d eps       ncg     rms          rms(c)
DAV:   1    -0.842397926568E+03    0.18148E-06   -0.48840E-05  4260   0.119E-02    0.217E-03
DAV:   2    -0.842397926505E+03    0.62471E-07   -0.71179E-07  2880   0.140E-03
  62 F= -.85015940E+03 E0= -.85015940E+03  d E =0.891652E-06  mag=    -0.0000
quench:  g(F)=  0.000E+00 g(S)=  0.000E+00 dE (1.order)= 0.000E+00
 bond charge predicted
       N       E                     dE             d eps       ncg     rms          rms(c)
DAV:   1    -0.842397926317E+03    0.25101E-06   -0.70219E-05  4260   0.143E-02    0.260E-03
DAV:   2    -0.842397926226E+03    0.90615E-07   -0.96651E-07  2950   0.163E-03
  63 F= -.85015940E+03 E0= -.85015939E+03  d E =0.113134E-05  mag=    -0.0000
quench:  g(F)=  0.000E+00 g(S)=  0.000E+00 dE (1.order)= 0.000E+00
 bond charge predicted
       N       E                     dE             d eps       ncg     rms          rms(c)
DAV:   1    -0.842397926203E+03    0.11353E-06   -0.10090E-04  4260   0.172E-02    0.308E-03
DAV:   2    -0.842397926082E+03    0.12098E-06   -0.13749E-06  3030   0.197E-03
  64 F= -.85015939E+03 E0= -.85015939E+03  d E =0.119417E-05  mag=    -0.0000
quench:  g(F)=  0.000E+00 g(S)=  0.000E+00 dE (1.order)= 0.000E+00
 bond charge predicted
       N       E                     dE             d eps       ncg     rms          rms(c)
DAV:   1    -0.842397926346E+03   -0.14275E-06   -0.14806E-04  4300   0.211E-02    0.372E-03
DAV:   2    -0.842397926202E+03    0.14327E-06   -0.19930E-06  3200   0.238E-03
  65 F= -.85015939E+03 E0= -.85015939E+03  d E =0.124810E-05  mag=    -0.0000
quench:  g(F)=  0.000E+00 g(S)=  0.000E+00 dE (1.order)= 0.000E+00
 bond charge predicted
       N       E                     dE             d eps       ncg     rms          rms(c)
DAV:   1    -0.842397926552E+03   -0.20584E-06   -0.22284E-04  4300   0.260E-02    0.456E-03
DAV:   2    -0.842397926366E+03    0.18530E-06   -0.30464E-06  3640   0.294E-03
  66 F= -.85015939E+03 E0= -.85015939E+03  d E =0.159751E-05  mag=    -0.0000
quench:  g(F)=  0.000E+00 g(S)=  0.000E+00 dE (1.order)= 0.000E+00
 bond charge predicted
       N       E                     dE             d eps       ncg     rms          rms(c)
DAV:   1    -0.842397926254E+03    0.29743E-06   -0.33830E-04  4300   0.319E-02    0.567E-03
DAV:   2    -0.842397925986E+03    0.26784E-06   -0.46723E-06  3960   0.360E-03
  67 F= -.85015939E+03 E0= -.85015939E+03  d E =0.236096E-05  mag=    -0.0000
quench:  g(F)=  0.000E+00 g(S)=  0.000E+00 dE (1.order)= 0.000E+00
 bond charge predicted
       N       E                     dE             d eps       ncg     rms          rms(c)
DAV:   1    -0.842397925356E+03    0.89802E-06   -0.52484E-04  4300   0.392E-02    0.708E-03
DAV:   2    -0.842397924922E+03    0.43428E-06   -0.73628E-06  4260   0.443E-03
  68 F= -.85015939E+03 E0= -.85015939E+03  d E =0.304588E-05  mag=    -0.0000
quench:  g(F)=  0.000E+00 g(S)=  0.000E+00 dE (1.order)= 0.000E+00
 bond charge predicted
       N       E                     dE             d eps       ncg     rms          rms(c)
DAV:   1    -0.842397923777E+03    0.15791E-05   -0.82349E-04  4300   0.485E-02    0.889E-03
DAV:   2    -0.842397923066E+03    0.71147E-06   -0.11781E-05  4310   0.549E-03    0.746E-03
DAV:   3    -0.842397923909E+03   -0.84371E-06   -0.64009E-07  2900   0.177E-03
  69 F= -.85015938E+03 E0= -.85015938E+03  d E =0.316246E-05  mag=    -0.0000
quench:  g(F)=  0.000E+00 g(S)=  0.000E+00 dE (1.order)= 0.000E+00
 bond charge predicted
       N       E                     dE             d eps       ncg     rms          rms(c)
DAV:   1    -0.842397921968E+03    0.10980E-05   -0.12902E-03  4280   0.599E-02    0.777E-03
DAV:   2    -0.842397922211E+03   -0.24363E-06   -0.19223E-05  4320   0.675E-03    0.658E-03
DAV:   3    -0.842397922147E+03    0.64443E-07   -0.37572E-07  3430   0.134E-03
  70 F= -.85015938E+03 E0= -.85015938E+03  d E =0.442760E-05  mag=    -0.0000
quench:  g(F)=  0.000E+00 g(S)=  0.000E+00 dE (1.order)= 0.000E+00
 bond charge predicted
       N       E                     dE             d eps       ncg     rms          rms(c)
DAV:   1    -0.842397918914E+03    0.32974E-05   -0.19499E-03  4290   0.730E-02    0.941E-03
DAV:   2    -0.842397919367E+03   -0.45326E-06   -0.28995E-05  4320   0.818E-03    0.795E-03
DAV:   3    -0.842397919153E+03    0.21412E-06   -0.59318E-07  3680   0.162E-03
  71 F= -.85015937E+03 E0= -.85015937E+03  d E =0.574728E-05  mag=    -0.0000
quench:  g(F)=  0.000E+00 g(S)=  0.000E+00 dE (1.order)= 0.000E+00
 bond charge predicted
       N       E                     dE             d eps       ncg     rms          rms(c)
DAV:   1    -0.842397914774E+03    0.45932E-05   -0.28331E-03  4280   0.881E-02    0.115E-02
DAV:   2    -0.842397915438E+03   -0.66380E-06   -0.41685E-05  4320   0.987E-03    0.968E-03
DAV:   3    -0.842397915195E+03    0.24236E-06   -0.89106E-07  3840   0.199E-03
  72 F= -.85015937E+03 E0= -.85015937E+03  d E =0.680909E-05  mag=    -0.0000
quench:  g(F)=  0.000E+00 g(S)=  0.000E+00 dE (1.order)= 0.000E+00
 bond charge predicted
       N       E                     dE             d eps       ncg     rms          rms(c)
DAV:   1    -0.842397906219E+03    0.92189E-05   -0.38769E-03  4280   0.104E-01    0.136E-02
DAV:   2    -0.842397907185E+03   -0.96612E-06   -0.55233E-05  4320   0.117E-02    0.115E-02
DAV:   3    -0.842397906995E+03    0.18950E-06   -0.13123E-06  3760   0.243E-03
  73 F= -.85015936E+03 E0= -.85015935E+03  d E =0.107320E-04  mag=    -0.0000
quench:  g(F)=  0.000E+00 g(S)=  0.000E+00 dE (1.order)= 0.000E+00
 bond charge predicted
       N       E                     dE             d eps       ncg     rms          rms(c)
DAV:   1    -0.842397896110E+03    0.11075E-04   -0.55888E-03  4280   0.126E-01    0.164E-02
DAV:   2    -0.842397897821E+03   -0.17110E-05   -0.79753E-05  4300   0.141E-02    0.139E-02
DAV:   3    -0.842397897552E+03    0.26861E-06   -0.20116E-06  3960   0.297E-03
  74 F= -.85015934E+03 E0= -.85015934E+03  d E =0.128767E-04  mag=    -0.0000
quench:  g(F)=  0.000E+00 g(S)=  0.000E+00 dE (1.order)= 0.000E+00
 bond charge predicted
       N       E                     dE             d eps       ncg     rms          rms(c)
DAV:   1    -0.842397880783E+03    0.17038E-04   -0.86923E-03  4280   0.154E-01    0.203E-02
DAV:   2    -0.842397883944E+03   -0.31611E-05   -0.12863E-04  4300   0.174E-02    0.172E-02
DAV:   3    -0.842397883234E+03    0.70972E-06   -0.30375E-06  4460   0.354E-03
  75 F= -.85015932E+03 E0= -.85015932E+03  d E =0.185262E-04  mag=    -0.0000
quench:  g(F)=  0.000E+00 g(S)=  0.000E+00 dE (1.order)= 0.000E+00
 bond charge predicted
       N       E                     dE             d eps       ncg     rms          rms(c)
DAV:   1    -0.842397860904E+03    0.23040E-04   -0.13037E-02  4280   0.187E-01    0.249E-02
DAV:   2    -0.842397866216E+03   -0.53120E-05   -0.19551E-04  4280   0.211E-02    0.210E-02
DAV:   3    -0.842397865079E+03    0.11369E-05   -0.44992E-06  4720   0.427E-03    0.151E-02
DAV:   4    -0.842397875158E+03   -0.10079E-04   -0.89803E-06  4030   0.560E-03    0.287E-03
DAV:   5    -0.842397875320E+03   -0.16246E-06   -0.20836E-06  3860   0.239E-03
  76 F= -.85015931E+03 E0= -.85015931E+03  d E =0.128580E-04  mag=     0.0000
quench:  g(F)=  0.000E+00 g(S)=  0.000E+00 dE (1.order)= 0.000E+00
 bond charge predicted
       N       E                     dE             d eps       ncg     rms          rms(c)
DAV:   1    -0.842397837301E+03    0.37856E-04   -0.17431E-02  4300   0.218E-01    0.284E-02
DAV:   2    -0.842397847876E+03   -0.10575E-04   -0.27473E-04  4280   0.258E-02    0.239E-02
DAV:   3    -0.842397844704E+03    0.31719E-05   -0.69952E-06  4890   0.544E-03    0.171E-02
DAV:   4    -0.842397854169E+03   -0.94650E-05   -0.12878E-05  4130   0.689E-03    0.364E-03
DAV:   5    -0.842397854525E+03   -0.35587E-06   -0.33116E-06  4180   0.308E-03
  77 F= -.85015928E+03 E0= -.85015928E+03  d E =0.267349E-04  mag=     0.0000
quench:  g(F)=  0.000E+00 g(S)=  0.000E+00 dE (1.order)= 0.000E+00
 bond charge predicted
       N       E                     dE             d eps       ncg     rms          rms(c)
DAV:   1    -0.842397797729E+03    0.56440E-04   -0.23687E-02  4300   0.252E-01    0.332E-02
DAV:   2    -0.842397812289E+03   -0.14560E-04   -0.37207E-04  4290   0.298E-02    0.283E-02
DAV:   3    -0.842397807922E+03    0.43664E-05   -0.91569E-06  4900   0.626E-03    0.203E-02
DAV:   4    -0.842397820880E+03   -0.12957E-04   -0.18731E-05  4130   0.817E-03    0.427E-03
DAV:   5    -0.842397821267E+03   -0.38727E-06   -0.47695E-06  4640   0.373E-03
  78 F= -.85015924E+03 E0= -.85015924E+03  d E =0.398381E-04  mag=     0.0000
quench:  g(F)=  0.000E+00 g(S)=  0.000E+00 dE (1.order)= 0.000E+00
 bond charge predicted
       N       E                     dE             d eps       ncg     rms          rms(c)
DAV:   1    -0.842397742751E+03    0.78129E-04   -0.34689E-02  4300   0.296E-01    0.399E-02
DAV:   2    -0.842397767268E+03   -0.24517E-04   -0.56753E-04  4330   0.349E-02    0.339E-02
DAV:   3    -0.842397760298E+03    0.69696E-05   -0.11996E-05  5120   0.704E-03    0.250E-02
DAV:   4    -0.842397778996E+03   -0.18698E-04   -0.30378E-05  4110   0.990E-03    0.507E-03
DAV:   5    -0.842397779714E+03   -0.71765E-06   -0.65565E-06  4760   0.420E-03
  79 F= -.85015919E+03 E0= -.85015919E+03  d E =0.498803E-04  mag=     0.0000
quench:  g(F)=  0.000E+00 g(S)=  0.000E+00 dE (1.order)= 0.000E+00
 bond charge predicted
       N       E                     dE             d eps       ncg     rms          rms(c)
DAV:   1    -0.842397692642E+03    0.86354E-04   -0.40721E-02  4300   0.330E-01    0.453E-02
DAV:   2    -0.842397719386E+03   -0.26744E-04   -0.62910E-04  4330   0.390E-02    0.385E-02
DAV:   3    -0.842397712981E+03    0.64046E-05   -0.16325E-05  4960   0.843E-03    0.270E-02
DAV:   4    -0.842397732347E+03   -0.19366E-04   -0.28893E-05  4290   0.102E-02    0.567E-03
DAV:   5    -0.842397733401E+03   -0.10542E-05   -0.78882E-06  4760   0.479E-03    0.323E-03
DAV:   6    -0.842397734288E+03   -0.88666E-06   -0.59105E-07  2880   0.145E-03
  80 F= -.85015913E+03 E0= -.85015913E+03  d E =0.600579E-04  mag=     0.0000
quench:  g(F)=  0.000E+00 g(S)=  0.000E+00 dE (1.order)= 0.000E+00
 bond charge predicted
       N       E                     dE             d eps       ncg     rms          rms(c)
DAV:   1    -0.842397591715E+03    0.14169E-03   -0.68173E-02  4300   0.411E-01    0.556E-02
DAV:   2    -0.842397650180E+03   -0.58465E-04   -0.11541E-03  4320   0.490E-02    0.479E-02
DAV:   3    -0.842397633863E+03    0.16317E-04   -0.23795E-05  5220   0.973E-03    0.359E-02
DAV:   4    -0.842397661889E+03   -0.28026E-04   -0.65818E-05  4310   0.142E-02    0.747E-03
DAV:   5    -0.842397663529E+03   -0.16401E-05   -0.12908E-05  4760   0.573E-03    0.490E-03
DAV:   6    -0.842397666608E+03   -0.30787E-05   -0.14086E-06  3300   0.218E-03    0.217E-03
DAV:   7    -0.842397666640E+03   -0.31709E-07   -0.29395E-07  3580   0.101E-03
  81 F= -.85015906E+03 E0= -.85015905E+03  d E =0.788712E-04  mag=     0.0000
quench:  g(F)=  0.000E+00 g(S)=  0.000E+00 dE (1.order)= 0.000E+00
 bond charge predicted
       N       E                     dE             d eps       ncg     rms          rms(c)
DAV:   1    -0.842397464112E+03    0.20250E-03   -0.74199E-02  4280   0.473E-01    0.623E-02
DAV:   2    -0.842397525008E+03   -0.60896E-04   -0.11954E-03  4400   0.581E-02    0.541E-02
DAV:   3    -0.842397507759E+03    0.17249E-04   -0.40935E-05  5140   0.132E-02    0.378E-02
DAV:   4    -0.842397527720E+03   -0.19961E-04   -0.54807E-05  4390   0.150E-02    0.959E-03
DAV:   5    -0.842397530457E+03   -0.27376E-05   -0.15759E-05  4700   0.686E-03    0.487E-03
DAV:   6    -0.842397531960E+03   -0.15030E-05   -0.14383E-06  3040   0.221E-03    0.247E-03
DAV:   7    -0.842397531949E+03    0.10637E-07   -0.33052E-07  3580   0.120E-03
  82 F= -.85015890E+03 E0= -.85015890E+03  d E =0.153656E-03  mag=     0.0000
quench:  g(F)=  0.000E+00 g(S)=  0.000E+00 dE (1.order)= 0.000E+00
 bond charge predicted
       N       E                     dE             d eps       ncg     rms          rms(c)
DAV:   1    -0.842397626269E+03   -0.94309E-04   -0.48542E-03  4330   0.136E-01    0.154E-02
DAV:   2    -0.842397633305E+03   -0.70364E-05   -0.12428E-04  4500   0.195E-02    0.139E-02
DAV:   3    -0.842397630815E+03    0.24905E-05   -0.44302E-06  5040   0.397E-03    0.110E-02
DAV:   4    -0.842397630683E+03    0.13239E-06   -0.55873E-06  4080   0.485E-03
  83 F= -.85015900E+03 E0= -.85015900E+03  d E =-.100028E-03  mag=     0.0000
quench:  g(F)=  0.000E+00 g(S)=  0.000E+00 dE (1.order)= 0.000E+00
 bond charge predicted
       N       E                     dE             d eps       ncg     rms          rms(c)
DAV:   1    -0.842397550544E+03    0.80271E-04   -0.55370E-03  4300   0.142E-01    0.171E-02
DAV:   2    -0.842397556536E+03   -0.59920E-05   -0.13199E-04  4500   0.196E-02    0.152E-02
DAV:   3    -0.842397553960E+03    0.25759E-05   -0.44538E-06  4960   0.406E-03    0.120E-02
DAV:   4    -0.842397555570E+03   -0.16095E-05   -0.71543E-06  4080   0.547E-03    0.413E-03
DAV:   5    -0.842397556226E+03   -0.65584E-06   -0.15276E-06  3360   0.216E-03
  84 F= -.85015893E+03 E0= -.85015893E+03  d E =0.740608E-04  mag=     0.0000
quench:  g(F)=  0.000E+00 g(S)=  0.000E+00 dE (1.order)= 0.000E+00
 bond charge predicted
       N       E                     dE             d eps       ncg     rms          rms(c)
DAV:   1    -0.842397587579E+03   -0.32009E-04   -0.20173E-04  4340   0.283E-02    0.334E-03
DAV:   2    -0.842397587897E+03   -0.31843E-06   -0.53973E-06  4450   0.415E-03
  85 F= -.85015896E+03 E0= -.85015896E+03  d E =-.311201E-04  mag=     0.0000
quench:  g(F)=  0.000E+00 g(S)=  0.000E+00 dE (1.order)= 0.000E+00
 bond charge predicted
       N       E                     dE             d eps       ncg     rms          rms(c)
DAV:   1    -0.842397623906E+03   -0.36327E-04   -0.63264E-04  4400   0.501E-02    0.783E-03
DAV:   2    -0.842397624367E+03   -0.46086E-06   -0.15915E-05  4850   0.721E-03    0.695E-03
DAV:   3    -0.842397623637E+03    0.72911E-06   -0.11286E-06  3240   0.224E-03
  86 F= -.85015899E+03 E0= -.85015899E+03  d E =-.346421E-04  mag=     0.0000
quench:  g(F)=  0.000E+00 g(S)=  0.000E+00 dE (1.order)= 0.000E+00
 bond charge predicted
       N       E                     dE             d eps       ncg     rms          rms(c)
DAV:   1    -0.842397631552E+03   -0.71851E-05   -0.88361E-04  4420   0.594E-02    0.785E-03
DAV:   2    -0.842397632742E+03   -0.11900E-05   -0.20615E-05  4910   0.818E-03    0.703E-03
DAV:   3    -0.842397632256E+03    0.48604E-06   -0.81703E-07  3300   0.192E-03
  87 F= -.85015900E+03 E0= -.85015900E+03  d E =-.733611E-05  mag=     0.0000
quench:  g(F)=  0.000E+00 g(S)=  0.000E+00 dE (1.order)= 0.000E+00
 bond charge predicted
       N       E                     dE             d eps       ncg     rms          rms(c)
DAV:   1    -0.842397632294E+03    0.44731E-06   -0.33090E-06  3900   0.364E-03    0.159E-03
DAV:   2    -0.842397632303E+03   -0.83164E-08   -0.37747E-07  2410   0.115E-03
  88 F= -.85015900E+03 E0= -.85015900E+03  d E =-.448593E-07  mag=     0.0000
quench:  g(F)=  0.000E+00 g(S)=  0.000E+00 dE (1.order)= 0.000E+00
 bond charge predicted
       N       E                     dE             d eps       ncg     rms          rms(c)
DAV:   1    -0.842397632592E+03   -0.29785E-06   -0.25556E-06  3330   0.290E-03    0.711E-04
DAV:   2    -0.842397632598E+03   -0.60536E-08   -0.77409E-08  2150   0.561E-04
  89 F= -.85015900E+03 E0= -.85015900E+03  d E =-.298555E-06  mag=     0.0000
quench:  g(F)=  0.000E+00 g(S)=  0.000E+00 dE (1.order)= 0.000E+00
 bond charge predicted
       N       E                     dE             d eps       ncg     rms          rms(c)
DAV:   1    -0.842397632955E+03   -0.36273E-06   -0.56824E-06  3830   0.429E-03    0.658E-04
DAV:   2    -0.842397632958E+03   -0.28667E-08   -0.11926E-07  2230   0.633E-04
  90 F= -.85015900E+03 E0= -.85015900E+03  d E =-.363179E-06  mag=     0.0000
quench:  g(F)=  0.000E+00 g(S)=  0.000E+00 dE (1.order)= 0.000E+00
 bond charge predicted
       N       E                     dE             d eps       ncg     rms          rms(c)
DAV:   1    -0.842397633225E+03   -0.27052E-06   -0.94738E-06  3980   0.546E-03    0.961E-04
DAV:   2    -0.842397633224E+03    0.10114E-08   -0.19476E-07  2330   0.777E-04
  91 F= -.85015900E+03 E0= -.85015900E+03  d E =-.263114E-06  mag=     0.0000
quench:  g(F)=  0.000E+00 g(S)=  0.000E+00 dE (1.order)= 0.000E+00
 bond charge predicted
       N       E                     dE             d eps       ncg     rms          rms(c)
DAV:   1    -0.842397633292E+03   -0.66131E-07   -0.13274E-05  4020   0.636E-03    0.120E-03
DAV:   2    -0.842397633283E+03    0.89130E-08   -0.25443E-07  2420   0.867E-04
  92 F= -.85015900E+03 E0= -.85015900E+03  d E =-.482083E-07  mag=     0.0000
quench:  g(F)=  0.000E+00 g(S)=  0.000E+00 dE (1.order)= 0.000E+00
 bond charge predicted
       N       E                     dE             d eps       ncg     rms          rms(c)
DAV:   1    -0.842397633109E+03    0.18246E-06   -0.16782E-05  4060   0.697E-03    0.135E-03
DAV:   2    -0.842397633092E+03    0.16829E-07   -0.30104E-07  2590   0.919E-04
  93 F= -.85015900E+03 E0= -.85015900E+03  d E =0.193173E-06  mag=     0.0000
quench:  g(F)=  0.000E+00 g(S)=  0.000E+00 dE (1.order)= 0.000E+00
 bond charge predicted
       N       E                     dE             d eps       ncg     rms          rms(c)
DAV:   1    -0.842397632690E+03    0.41868E-06   -0.24822E-05  4100   0.826E-03    0.157E-03
DAV:   2    -0.842397632665E+03    0.25000E-07   -0.42070E-07  2750   0.105E-03
  94 F= -.85015900E+03 E0= -.85015900E+03  d E =0.427551E-06  mag=     0.0000
quench:  g(F)=  0.000E+00 g(S)=  0.000E+00 dE (1.order)= 0.000E+00
 bond charge predicted
       N       E                     dE             d eps       ncg     rms          rms(c)
DAV:   1    -0.842397632058E+03    0.63221E-06   -0.35715E-05  4180   0.969E-03    0.187E-03
DAV:   2    -0.842397632020E+03    0.38664E-07   -0.57042E-07  2890   0.118E-03
  95 F= -.85015900E+03 E0= -.85015900E+03  d E =0.654956E-06  mag=     0.0000
quench:  g(F)=  0.000E+00 g(S)=  0.000E+00 dE (1.order)= 0.000E+00
 bond charge predicted
       N       E                     dE             d eps       ncg     rms          rms(c)
DAV:   1    -0.842397631359E+03    0.69947E-06   -0.50591E-05  4200   0.114E-02    0.221E-03
DAV:   2    -0.842397631302E+03    0.56498E-07   -0.75497E-07  3000   0.133E-03
  96 F= -.85015900E+03 E0= -.85015900E+03  d E =0.761675E-06  mag=    -0.0000
quench:  g(F)=  0.000E+00 g(S)=  0.000E+00 dE (1.order)= 0.000E+00
 bond charge predicted
       N       E                     dE             d eps       ncg     rms          rms(c)
DAV:   1    -0.842397630718E+03    0.64100E-06   -0.72635E-05  4260   0.137E-02    0.263E-03
DAV:   2    -0.842397630640E+03    0.78180E-07   -0.10265E-06  3080   0.155E-03
  97 F= -.85015900E+03 E0= -.85015900E+03  d E =0.761033E-06  mag=    -0.0000
quench:  g(F)=  0.000E+00 g(S)=  0.000E+00 dE (1.order)= 0.000E+00
 bond charge predicted
       N       E                     dE             d eps       ncg     rms          rms(c)
DAV:   1    -0.842397630080E+03    0.63813E-06   -0.10721E-04  4260   0.168E-02    0.318E-03
DAV:   2    -0.842397629973E+03    0.10625E-06   -0.14858E-06  3180   0.190E-03
  98 F= -.85015900E+03 E0= -.85015900E+03  d E =0.874669E-06  mag=     0.0000
quench:  g(F)=  0.000E+00 g(S)=  0.000E+00 dE (1.order)= 0.000E+00
 bond charge predicted
       N       E                     dE             d eps       ncg     rms          rms(c)
DAV:   1    -0.842397629327E+03    0.75233E-06   -0.15986E-04  4260   0.206E-02    0.389E-03
DAV:   2    -0.842397629193E+03    0.13407E-06   -0.22238E-06  3320   0.235E-03
  99 F= -.85015900E+03 E0= -.85015900E+03  d E =0.109105E-05  mag=    -0.0000
quench:  g(F)=  0.000E+00 g(S)=  0.000E+00 dE (1.order)= 0.000E+00
 bond charge predicted
       N       E                     dE             d eps       ncg     rms          rms(c)
DAV:   1    -0.842397628326E+03    0.10016E-05   -0.24247E-04  4280   0.254E-02    0.480E-03
DAV:   2    -0.842397628117E+03    0.20879E-06   -0.34182E-06  3540   0.287E-03
 100 F= -.85015900E+03 E0= -.85015900E+03  d E =0.155466E-05  mag=     0.0000
quench:  g(F)=  0.000E+00 g(S)=  0.000E+00 dE (1.order)= 0.000E+00
 bond charge predicted
       N       E                     dE             d eps       ncg     rms          rms(c)
DAV:   1    -0.842397626934E+03    0.13914E-05   -0.37171E-04  4320   0.309E-02    0.595E-03
DAV:   2    -0.842397626583E+03    0.35095E-06   -0.51519E-06  3920   0.344E-03
 101 F= -.85015899E+03 E0= -.85015899E+03  d E =0.218382E-05  mag=    -0.0000
quench:  g(F)=  0.000E+00 g(S)=  0.000E+00 dE (1.order)= 0.000E+00
 bond charge predicted
       N       E                     dE             d eps       ncg     rms          rms(c)
DAV:   1    -0.842397625561E+03    0.13737E-05   -0.57313E-04  4300   0.377E-02    0.735E-03
DAV:   2    -0.842397624945E+03    0.61562E-06   -0.80720E-06  4080   0.419E-03
 102 F= -.85015899E+03 E0= -.85015899E+03  d E =0.270435E-05  mag=    -0.0000
quench:  g(F)=  0.000E+00 g(S)=  0.000E+00 dE (1.order)= 0.000E+00
 bond charge predicted
       N       E                     dE             d eps       ncg     rms          rms(c)
DAV:   1    -0.842397623986E+03    0.15744E-05   -0.88744E-04  4280   0.464E-02    0.912E-03
DAV:   2    -0.842397622925E+03    0.10617E-05   -0.12871E-05  4300   0.520E-03    0.758E-03
DAV:   3    -0.842397623934E+03   -0.10090E-05   -0.57534E-07  3030   0.158E-03    0.453E-03
DAV:   4    -0.842397625566E+03   -0.16329E-05   -0.88185E-07  3240   0.164E-03    0.105E-03
DAV:   5    -0.842397625579E+03   -0.12325E-07   -0.25624E-07  3205   0.943E-04
 103 F= -.85015899E+03 E0= -.85015899E+03  d E =0.909367E-06  mag=     0.0000
quench:  g(F)=  0.000E+00 g(S)=  0.000E+00 dE (1.order)= 0.000E+00
 bond charge predicted
       N       E                     dE             d eps       ncg     rms          rms(c)
DAV:   1    -0.842397622667E+03    0.28998E-05   -0.13224E-03  4320   0.564E-02    0.719E-03
DAV:   2    -0.842397623311E+03   -0.64391E-06   -0.20784E-05  4240   0.649E-03    0.593E-03
DAV:   3    -0.842397622926E+03    0.38479E-06   -0.41245E-07  3440   0.128E-03
 104 F= -.85015899E+03 E0= -.85015898E+03  d E =0.466420E-05  mag=     0.0000
quench:  g(F)=  0.000E+00 g(S)=  0.000E+00 dE (1.order)= 0.000E+00
 bond charge predicted
       N       E                     dE             d eps       ncg     rms          rms(c)
DAV:   1    -0.842397619423E+03    0.38871E-05   -0.18536E-03  4240   0.670E-02    0.893E-03
DAV:   2    -0.842397619668E+03   -0.24489E-06   -0.26457E-05  4300   0.737E-03    0.742E-03
DAV:   3    -0.842397619439E+03    0.22944E-06   -0.55715E-07  3770   0.146E-03
 105 F= -.85015898E+03 E0= -.85015898E+03  d E =0.603934E-05  mag=     0.0000
quench:  g(F)=  0.000E+00 g(S)=  0.000E+00 dE (1.order)= 0.000E+00
 bond charge predicted
       N       E                     dE             d eps       ncg     rms          rms(c)
DAV:   1    -0.842397614816E+03    0.48521E-05   -0.25826E-03  4300   0.792E-02    0.106E-02
DAV:   2    -0.842397615304E+03   -0.48754E-06   -0.35731E-05  4260   0.865E-03    0.871E-03
DAV:   3    -0.842397615058E+03    0.24585E-06   -0.77609E-07  3820   0.172E-03
 106 F= -.85015897E+03 E0= -.85015897E+03  d E =0.730053E-05  mag=     0.0000
quench:  g(F)=  0.000E+00 g(S)=  0.000E+00 dE (1.order)= 0.000E+00
 bond charge predicted
       N       E                     dE             d eps       ncg     rms          rms(c)
DAV:   1    -0.842397609376E+03    0.59278E-05   -0.38530E-03  4260   0.961E-02    0.129E-02
DAV:   2    -0.842397610363E+03   -0.98684E-06   -0.54571E-05  4280   0.106E-02    0.106E-02
DAV:   3    -0.842397609969E+03    0.39351E-06   -0.11906E-06  3960   0.212E-03
 107 F= -.85015896E+03 E0= -.85015896E+03  d E =0.898049E-05  mag=     0.0000
quench:  g(F)=  0.000E+00 g(S)=  0.000E+00 dE (1.order)= 0.000E+00
 bond charge predicted
       N       E                     dE             d eps       ncg     rms          rms(c)
DAV:   1    -0.842397601970E+03    0.83931E-05   -0.59006E-03  4300   0.118E-01    0.160E-02
DAV:   2    -0.842397603837E+03   -0.18671E-05   -0.84105E-05  4260   0.130E-02    0.131E-02
DAV:   3    -0.842397603211E+03    0.62589E-06   -0.17935E-06  4140   0.258E-03
 108 F= -.85015895E+03 E0= -.85015895E+03  d E =0.126275E-04  mag=     0.0000
quench:  g(F)=  0.000E+00 g(S)=  0.000E+00 dE (1.order)= 0.000E+00
 bond charge predicted
       N       E                     dE             d eps       ncg     rms          rms(c)
DAV:   1    -0.842397591384E+03    0.12453E-04   -0.84913E-03  4260   0.141E-01    0.193E-02
DAV:   2    -0.842397594706E+03   -0.33216E-05   -0.12401E-04  4260   0.157E-02    0.160E-02
DAV:   3    -0.842397593805E+03    0.90086E-06   -0.26788E-06  4360   0.312E-03
 109 F= -.85015893E+03 E0= -.85015893E+03  d E =0.162860E-04  mag=     0.0000
quench:  g(F)=  0.000E+00 g(S)=  0.000E+00 dE (1.order)= 0.000E+00
 bond charge predicted
       N       E                     dE             d eps       ncg     rms          rms(c)
DAV:   1    -0.842397580800E+03    0.13905E-04   -0.11803E-02  4260   0.167E-01    0.231E-02
DAV:   2    -0.842397585883E+03   -0.50827E-05   -0.16947E-04  4260   0.185E-02    0.191E-02
DAV:   3    -0.842397584810E+03    0.10728E-05   -0.37757E-06  4580   0.368E-03    0.140E-02
DAV:   4    -0.842397594392E+03   -0.95820E-05   -0.78577E-06  3890   0.512E-03    0.263E-03
DAV:   5    -0.842397594438E+03   -0.45897E-07   -0.15962E-06  3770   0.214E-03
 110 F= -.85015893E+03 E0= -.85015893E+03  d E =0.657822E-05  mag=    -0.0000
quench:  g(F)=  0.000E+00 g(S)=  0.000E+00 dE (1.order)= 0.000E+00
 bond charge predicted
       N       E                     dE             d eps       ncg     rms          rms(c)
DAV:   1    -0.842397569476E+03    0.24916E-04   -0.16289E-02  4280   0.198E-01    0.265E-02
DAV:   2    -0.842397580787E+03   -0.11312E-04   -0.25184E-04  4270   0.232E-02    0.219E-02
DAV:   3    -0.842397577987E+03    0.28007E-05   -0.59350E-06  4840   0.469E-03    0.163E-02
DAV:   4    -0.842397587189E+03   -0.92023E-05   -0.11972E-05  3990   0.646E-03    0.333E-03
DAV:   5    -0.842397587364E+03   -0.17480E-06   -0.25262E-06  4160   0.270E-03
 111 F= -.85015891E+03 E0= -.85015891E+03  d E =0.154557E-04  mag=     0.0000
quench:  g(F)=  0.000E+00 g(S)=  0.000E+00 dE (1.order)= 0.000E+00
 bond charge predicted
       N       E                     dE             d eps       ncg     rms          rms(c)
DAV:   1    -0.842397551544E+03    0.35645E-04   -0.25858E-02  4300   0.241E-01    0.330E-02
DAV:   2    -0.842397573239E+03   -0.21695E-04   -0.42287E-04  4290   0.282E-02    0.271E-02
DAV:   3    -0.842397568422E+03    0.48169E-05   -0.86535E-06  4900   0.553E-03    0.206E-02
DAV:   4    -0.842397581291E+03   -0.12870E-04   -0.20572E-05  4050   0.800E-03    0.418E-03
DAV:   5    -0.842397581870E+03   -0.57839E-06   -0.39225E-06  4220   0.318E-03
 112 F= -.85015890E+03 E0= -.85015890E+03  d E =0.163152E-04  mag=    -0.0000
quench:  g(F)=  0.000E+00 g(S)=  0.000E+00 dE (1.order)= 0.000E+00
 bond charge predicted
       N       E                     dE             d eps       ncg     rms          rms(c)
DAV:   1    -0.842397534450E+03    0.46842E-04   -0.31851E-02  4320   0.276E-01    0.380E-02
DAV:   2    -0.842397560699E+03   -0.26250E-04   -0.49721E-04  4370   0.324E-02    0.313E-02
DAV:   3    -0.842397555629E+03    0.50703E-05   -0.11329E-05  5200   0.652E-03    0.232E-02
DAV:   4    -0.842397569706E+03   -0.14077E-04   -0.22705E-05  4070   0.892E-03    0.479E-03
DAV:   5    -0.842397570204E+03   -0.49790E-06   -0.50602E-06  4620   0.384E-03
 113 F= -.85015887E+03 E0= -.85015887E+03  d E =0.274754E-04  mag=     0.0000
quench:  g(F)=  0.000E+00 g(S)=  0.000E+00 dE (1.order)= 0.000E+00
 bond charge predicted
       N       E                     dE             d eps       ncg     rms          rms(c)
DAV:   1    -0.842397482591E+03    0.87115E-04   -0.50301E-02  4260   0.339E-01    0.465E-02
DAV:   2    -0.842397533276E+03   -0.50684E-04   -0.85489E-04  4370   0.407E-02    0.387E-02
DAV:   3    -0.842397523158E+03    0.10118E-04   -0.18008E-05  5180   0.802E-03    0.297E-02
DAV:   4    -0.842397541813E+03   -0.18656E-04   -0.42829E-05  4180   0.117E-02    0.640E-03
DAV:   5    -0.842397543467E+03   -0.16532E-05   -0.82407E-06  4760   0.467E-03    0.445E-03
DAV:   6    -0.842397545043E+03   -0.15763E-05   -0.12293E-06  3260   0.210E-03    0.200E-03
DAV:   7    -0.842397545121E+03   -0.78282E-07   -0.27039E-07  3460   0.983E-04
 114 F= -.85015883E+03 E0= -.85015883E+03  d E =0.362260E-04  mag=    -0.0000
quench:  g(F)=  0.000E+00 g(S)=  0.000E+00 dE (1.order)= 0.000E+00
 bond charge predicted
       N       E                     dE             d eps       ncg     rms          rms(c)
DAV:   1    -0.842397408077E+03    0.13697E-03   -0.63728E-02  4260   0.414E-01    0.545E-02
DAV:   2    -0.842397475524E+03   -0.67447E-04   -0.10960E-03  4490   0.515E-02    0.458E-02
DAV:   3    -0.842397460640E+03    0.14884E-04   -0.30574E-05  5240   0.108E-02    0.343E-02
DAV:   4    -0.842397474726E+03   -0.14086E-04   -0.52815E-05  4350   0.144E-02    0.890E-03
DAV:   5    -0.842397477530E+03   -0.28039E-05   -0.11808E-05  4740   0.606E-03    0.517E-03
DAV:   6    -0.842397479019E+03   -0.14896E-05   -0.16225E-06  3060   0.237E-03    0.245E-03
DAV:   7    -0.842397479070E+03   -0.51019E-07   -0.33845E-07  3380   0.122E-03
 115 F= -.85015875E+03 E0= -.85015875E+03  d E =0.857082E-04  mag=    -0.0000
quench:  g(F)=  0.000E+00 g(S)=  0.000E+00 dE (1.order)= 0.000E+00
 bond charge predicted
       N       E                     dE             d eps       ncg     rms          rms(c)
DAV:   1    -0.842397555158E+03   -0.76139E-04   -0.38940E-03  4300   0.127E-01    0.142E-02
DAV:   2    -0.842397561520E+03   -0.63621E-05   -0.10033E-04  4900   0.188E-02    0.128E-02
DAV:   3    -0.842397559418E+03    0.21019E-05   -0.47723E-06  4860   0.418E-03    0.973E-03
DAV:   4    -0.842397558347E+03    0.10710E-05   -0.55724E-06  4080   0.487E-03    0.404E-03
DAV:   5    -0.842397558422E+03   -0.74448E-07   -0.10676E-06  3160   0.197E-03
 116 F= -.85015883E+03 E0= -.85015883E+03  d E =-.811681E-04  mag=     0.0000
quench:  g(F)=  0.000E+00 g(S)=  0.000E+00 dE (1.order)= 0.000E+00
 bond charge predicted
       N       E                     dE             d eps       ncg     rms          rms(c)
DAV:   1    -0.842397490741E+03    0.67607E-04   -0.39866E-03  4260   0.127E-01    0.144E-02
DAV:   2    -0.842397496553E+03   -0.58123E-05   -0.98285E-05  4680   0.184E-02    0.127E-02
DAV:   3    -0.842397494451E+03    0.21022E-05   -0.47383E-06  5020   0.420E-03    0.954E-03
DAV:   4    -0.842397494109E+03    0.34158E-06   -0.54085E-06  4040   0.477E-03
 117 F= -.85015876E+03 E0= -.85015876E+03  d E =0.633964E-04  mag=    -0.0000
quench:  g(F)=  0.000E+00 g(S)=  0.000E+00 dE (1.order)= 0.000E+00
 bond charge predicted
       N       E                     dE             d eps       ncg     rms          rms(c)
DAV:   1    -0.842397522665E+03   -0.28214E-04   -0.19141E-04  4300   0.284E-02    0.261E-03
DAV:   2    -0.842397523139E+03   -0.47420E-06   -0.58203E-06  4640   0.446E-03
 118 F= -.85015879E+03 E0= -.85015879E+03  d E =-.285877E-04  mag=     0.0000
quench:  g(F)=  0.000E+00 g(S)=  0.000E+00 dE (1.order)= 0.000E+00
 bond charge predicted
       N       E                     dE             d eps       ncg     rms          rms(c)
DAV:   1    -0.842397554874E+03   -0.32209E-04   -0.59457E-04  4320   0.499E-02    0.692E-03
DAV:   2    -0.842397555530E+03   -0.65597E-06   -0.15327E-05  5300   0.738E-03    0.613E-03
DAV:   3    -0.842397554843E+03    0.68661E-06   -0.12639E-06  2490   0.237E-03
 119 F= -.85015882E+03 E0= -.85015882E+03  d E =-.308156E-04  mag=     0.0000
quench:  g(F)=  0.000E+00 g(S)=  0.000E+00 dE (1.order)= 0.000E+00
 bond charge predicted
       N       E                     dE             d eps       ncg     rms          rms(c)
DAV:   1    -0.842397560084E+03   -0.45544E-05   -0.83189E-04  4310   0.591E-02    0.790E-03
DAV:   2    -0.842397561329E+03   -0.12451E-05   -0.19676E-05  5320   0.836E-03    0.696E-03
DAV:   3    -0.842397560705E+03    0.62434E-06   -0.10990E-06  2720   0.226E-03
 120 F= -.85015883E+03 E0= -.85015883E+03  d E =-.449065E-05  mag=     0.0000
quench:  g(F)=  0.000E+00 g(S)=  0.000E+00 dE (1.order)= 0.000E+00
 bond charge predicted
       N       E                     dE             d eps       ncg     rms          rms(c)
DAV:   1    -0.842397560834E+03    0.49529E-06   -0.35938E-06  3960   0.390E-03    0.179E-03
DAV:   2    -0.842397560813E+03    0.21195E-07   -0.38425E-07  2210   0.123E-03
 121 F= -.85015883E+03 E0= -.85015883E+03  d E =-.114301E-06  mag=     0.0000
quench:  g(F)=  0.000E+00 g(S)=  0.000E+00 dE (1.order)= 0.000E+00
 bond charge predicted
       N       E                     dE             d eps       ncg     rms          rms(c)
DAV:   1    -0.842397561377E+03   -0.54258E-06   -0.28079E-06  3110   0.332E-03    0.614E-04
DAV:   2    -0.842397561388E+03   -0.10950E-07   -0.94989E-08  2210   0.626E-04
 122 F= -.85015883E+03 E0= -.85015883E+03  d E =-.591244E-06  mag=     0.0000
quench:  g(F)=  0.000E+00 g(S)=  0.000E+00 dE (1.order)= 0.000E+00
 bond charge predicted
       N       E                     dE             d eps       ncg     rms          rms(c)
DAV:   1    -0.842397562224E+03   -0.84753E-06   -0.62350E-06  4040   0.495E-03    0.680E-04
DAV:   2    -0.842397562234E+03   -0.10215E-07   -0.14869E-07  2210   0.763E-04
 123 F= -.85015883E+03 E0= -.85015883E+03  d E =-.868358E-06  mag=     0.0000
quench:  g(F)=  0.000E+00 g(S)=  0.000E+00 dE (1.order)= 0.000E+00
 bond charge predicted
       N       E                     dE             d eps       ncg     rms          rms(c)
DAV:   1    -0.842397563036E+03   -0.81159E-06   -0.98970E-06  4060   0.616E-03    0.104E-03
DAV:   2    -0.842397563033E+03    0.24738E-08   -0.23335E-07  2290   0.939E-04
 124 F= -.85015883E+03 E0= -.85015883E+03  d E =-.806084E-06  mag=     0.0000
quench:  g(F)=  0.000E+00 g(S)=  0.000E+00 dE (1.order)= 0.000E+00
 bond charge predicted
       N       E                     dE             d eps       ncg     rms          rms(c)
DAV:   1    -0.842397563677E+03   -0.64165E-06   -0.13097E-05  4190   0.698E-03    0.125E-03
DAV:   2    -0.842397563666E+03    0.11518E-07   -0.26424E-07  2280   0.984E-04
 125 F= -.85015883E+03 E0= -.85015883E+03  d E =-.590069E-06  mag=     0.0000
quench:  g(F)=  0.000E+00 g(S)=  0.000E+00 dE (1.order)= 0.000E+00
 bond charge predicted
       N       E                     dE             d eps       ncg     rms          rms(c)
DAV:   1    -0.842397564079E+03   -0.40156E-06   -0.15585E-05  4180   0.742E-03    0.136E-03
DAV:   2    -0.842397564062E+03    0.16997E-07   -0.29509E-07  2360   0.102E-03
 126 F= -.85015883E+03 E0= -.85015883E+03  d E =-.296755E-06  mag=    -0.0000
quench:  g(F)=  0.000E+00 g(S)=  0.000E+00 dE (1.order)= 0.000E+00
 bond charge predicted
       N       E                     dE             d eps       ncg     rms          rms(c)
DAV:   1    -0.842397564218E+03   -0.13920E-06   -0.20962E-05  4205   0.829E-03    0.152E-03
DAV:   2    -0.842397564194E+03    0.24600E-07   -0.37310E-07  2570   0.110E-03
 127 F= -.85015883E+03 E0= -.85015883E+03  d E =0.595539E-07  mag=     0.0000
quench:  g(F)=  0.000E+00 g(S)=  0.000E+00 dE (1.order)= 0.000E+00
 bond charge predicted
       N       E                     dE             d eps       ncg     rms          rms(c)
DAV:   1    -0.842397564346E+03   -0.12769E-06   -0.25544E-05  4040   0.858E-03    0.170E-03
DAV:   2    -0.842397564305E+03    0.40804E-07   -0.43976E-07  2890   0.113E-03
 128 F= -.85015883E+03 E0= -.85015883E+03  d E =0.218839E-06  mag=     0.0000
quench:  g(F)=  0.000E+00 g(S)=  0.000E+00 dE (1.order)= 0.000E+00
 bond charge predicted
       N       E                     dE             d eps       ncg     rms          rms(c)
DAV:   1    -0.842397564882E+03   -0.53649E-06   -0.32710E-05  4060   0.916E-03    0.189E-03
DAV:   2    -0.842397564813E+03    0.68903E-07   -0.51532E-07  2820   0.114E-03
 129 F= -.85015883E+03 E0= -.85015883E+03  d E =-.436154E-07  mag=     0.0000
quench:  g(F)=  0.000E+00 g(S)=  0.000E+00 dE (1.order)= 0.000E+00
 bond charge predicted
       N       E                     dE             d eps       ncg     rms          rms(c)
DAV:   1    -0.842397566054E+03   -0.11714E-05   -0.46821E-05  4180   0.109E-02    0.221E-03
DAV:   2    -0.842397565957E+03    0.97185E-07   -0.71601E-07  2960   0.131E-03
 130 F= -.85015883E+03 E0= -.85015883E+03  d E =-.546452E-06  mag=     0.0000
quench:  g(F)=  0.000E+00 g(S)=  0.000E+00 dE (1.order)= 0.000E+00
 bond charge predicted
       N       E                     dE             d eps       ncg     rms          rms(c)
DAV:   1    -0.842397567588E+03   -0.15338E-05   -0.72638E-05  4260   0.140E-02    0.275E-03
DAV:   2    -0.842397567447E+03    0.14087E-06   -0.11265E-06  3190   0.168E-03
 131 F= -.85015883E+03 E0= -.85015883E+03  d E =-.819801E-06  mag=     0.0000
quench:  g(F)=  0.000E+00 g(S)=  0.000E+00 dE (1.order)= 0.000E+00
 bond charge predicted
       N       E                     dE             d eps       ncg     rms          rms(c)
DAV:   1    -0.842397568813E+03   -0.12250E-05   -0.10920E-04  4260   0.172E-02    0.345E-03
DAV:   2    -0.842397568613E+03    0.19997E-06   -0.16898E-06  3190   0.206E-03
 132 F= -.85015883E+03 E0= -.85015883E+03  d E =-.513908E-06  mag=     0.0000
quench:  g(F)=  0.000E+00 g(S)=  0.000E+00 dE (1.order)= 0.000E+00
 bond charge predicted
       N       E                     dE             d eps       ncg     rms          rms(c)
DAV:   1    -0.842397569909E+03   -0.10962E-05   -0.15982E-04  4260   0.202E-02    0.422E-03
DAV:   2    -0.842397569635E+03    0.27405E-06   -0.24464E-06  3370   0.239E-03
 133 F= -.85015883E+03 E0= -.85015883E+03  d E =-.338825E-06  mag=    -0.0000
quench:  g(F)=  0.000E+00 g(S)=  0.000E+00 dE (1.order)= 0.000E+00
 bond charge predicted
       N       E                     dE             d eps       ncg     rms          rms(c)
DAV:   1    -0.842397571237E+03   -0.13284E-05   -0.23492E-04  4240   0.237E-02    0.512E-03
DAV:   2    -0.842397570835E+03    0.40248E-06   -0.35356E-06  3410   0.276E-03
 134 F= -.85015883E+03 E0= -.85015883E+03  d E =-.309512E-06  mag=     0.0000
quench:  g(F)=  0.000E+00 g(S)=  0.000E+00 dE (1.order)= 0.000E+00
 bond charge predicted
       N       E                     dE             d eps       ncg     rms          rms(c)
DAV:   1    -0.842397573232E+03   -0.19949E-05   -0.35650E-04  4245   0.288E-02    0.625E-03
DAV:   2    -0.842397572638E+03    0.59418E-06   -0.55159E-06  3720   0.335E-03
 135 F= -.85015883E+03 E0= -.85015883E+03  d E =-.585227E-06  mag=    -0.0000
quench:  g(F)=  0.000E+00 g(S)=  0.000E+00 dE (1.order)= 0.000E+00
 bond charge predicted
       N       E                     dE             d eps       ncg     rms          rms(c)
DAV:   1    -0.842397575418E+03   -0.21861E-05   -0.54716E-04  4260   0.353E-02    0.777E-03
DAV:   2    -0.842397574531E+03    0.88765E-06   -0.84916E-06  3980   0.409E-03
 136 F= -.85015883E+03 E0= -.85015883E+03  d E =-.283748E-06  mag=     0.0000
quench:  g(F)=  0.000E+00 g(S)=  0.000E+00 dE (1.order)= 0.000E+00
 bond charge predicted
       N       E                     dE             d eps       ncg     rms          rms(c)
DAV:   1    -0.842397577768E+03   -0.23502E-05   -0.78003E-04  4260   0.421E-02    0.952E-03
DAV:   2    -0.842397576571E+03    0.11973E-05   -0.12060E-05  4270   0.486E-03    0.781E-03
DAV:   3    -0.842397577769E+03   -0.11980E-05   -0.53357E-07  3005   0.147E-03    0.462E-03
DAV:   4    -0.842397579879E+03   -0.21098E-05   -0.89330E-07  3260   0.155E-03    0.106E-03
DAV:   5    -0.842397579892E+03   -0.13657E-07   -0.21854E-07  3280   0.844E-04
 137 F= -.85015884E+03 E0= -.85015884E+03  d E =-.321966E-05  mag=     0.0000
quench:  g(F)=  0.000E+00 g(S)=  0.000E+00 dE (1.order)= 0.000E+00
 bond charge predicted
       N       E                     dE             d eps       ncg     rms          rms(c)
DAV:   1    -0.842397582715E+03   -0.28362E-05   -0.11146E-03  4260   0.502E-02    0.737E-03
DAV:   2    -0.842397582956E+03   -0.24089E-06   -0.18848E-05  4280   0.596E-03    0.593E-03
DAV:   3    -0.842397582616E+03    0.33955E-06   -0.31719E-07  3420   0.115E-03
 138 F= -.85015884E+03 E0= -.85015884E+03  d E =0.115886E-06  mag=     0.0000
quench:  g(F)=  0.000E+00 g(S)=  0.000E+00 dE (1.order)= 0.000E+00
 bond charge predicted
       N       E                     dE             d eps       ncg     rms          rms(c)
DAV:   1    -0.842397586418E+03   -0.34626E-05   -0.15582E-03  4240   0.595E-02    0.910E-03
DAV:   2    -0.842397586168E+03    0.24994E-06   -0.23989E-05  4420   0.674E-03    0.735E-03
DAV:   3    -0.842397586014E+03    0.15451E-06   -0.41950E-07  3660   0.130E-03
 139 F= -.85015884E+03 E0= -.85015884E+03  d E =-.438853E-07  mag=     0.0000
quench:  g(F)=  0.000E+00 g(S)=  0.000E+00 dE (1.order)= 0.000E+00
 bond charge predicted
       N       E                     dE             d eps       ncg     rms          rms(c)
DAV:   1    -0.842397589308E+03   -0.31398E-05   -0.22810E-03  4260   0.716E-02    0.109E-02
DAV:   2    -0.842397589187E+03    0.12177E-06   -0.35655E-05  4400   0.815E-03    0.882E-03
[...]
       N       E                     dE             d eps       ncg     rms          rms(c)
DAV:   1    -0.842397540588E+03    0.30432E-06   -0.15054E-05  4180   0.753E-03    0.130E-03
DAV:   2    -0.842397540590E+03   -0.24811E-08   -0.29262E-07  2315   0.104E-03
 160 F= -.85015871E+03 E0= -.85015871E+03  d E =0.535967E-06  mag=     0.0000
quench:  g(F)=  0.000E+00 g(S)=  0.000E+00 dE (1.order)= 0.000E+00
 bond charge predicted
       N       E                     dE             d eps       ncg     rms          rms(c)
DAV:   1    -0.842397539927E+03    0.66096E-06   -0.17772E-05  4080   0.778E-03    0.141E-03
DAV:   2    -0.842397539917E+03    0.97352E-08   -0.31168E-07  2690   0.104E-03
 161 F= -.85015871E+03 E0= -.85015871E+03  d E =0.868521E-06  mag=     0.0000
quench:  g(F)=  0.000E+00 g(S)=  0.000E+00 dE (1.order)= 0.000E+00
 bond charge predicted
       N       E                     dE             d eps       ncg     rms          rms(c)
DAV:   1    -0.842397539276E+03    0.65054E-06   -0.21577E-05  4035   0.807E-03    0.150E-03
DAV:   2    -0.842397539252E+03    0.23829E-07   -0.33718E-07  2780   0.103E-03
 162 F= -.85015871E+03 E0= -.85015871E+03  d E =0.802948E-06  mag=    -0.0000
quench:  g(F)=  0.000E+00 g(S)=  0.000E+00 dE (1.order)= 0.000E+00
 bond charge predicted
       N       E                     dE             d eps       ncg     rms          rms(c)
DAV:   1    -0.842397538884E+03    0.39208E-06   -0.30357E-05  4145   0.939E-03    0.169E-03
DAV:   2    -0.842397538838E+03    0.45766E-07   -0.44308E-07  2790   0.115E-03
 163 F= -.85015871E+03 E0= -.85015871E+03  d E =0.504390E-06  mag=     0.0000
quench:  g(F)=  0.000E+00 g(S)=  0.000E+00 dE (1.order)= 0.000E+00
 bond charge predicted
       N       E                     dE             d eps       ncg     rms          rms(c)
DAV:   1    -0.842397538634E+03    0.24997E-06   -0.48704E-05  4260   0.122E-02    0.213E-03
DAV:   2    -0.842397538548E+03    0.85762E-07   -0.71210E-07  2860   0.147E-03
 164 F= -.85015871E+03 E0= -.85015871E+03  d E =0.369553E-06  mag=    -0.0000
quench:  g(F)=  0.000E+00 g(S)=  0.000E+00 dE (1.order)= 0.000E+00
 bond charge predicted
       N       E                     dE             d eps       ncg     rms          rms(c)
DAV:   1    -0.842397538112E+03    0.52242E-06   -0.76036E-05  4260   0.153E-02    0.272E-03
DAV:   2    -0.842397537961E+03    0.15127E-06   -0.11282E-06  2920   0.185E-03
 165 F= -.85015871E+03 E0= -.85015871E+03  d E =0.876923E-06  mag=     0.0000
quench:  g(F)=  0.000E+00 g(S)=  0.000E+00 dE (1.order)= 0.000E+00
 bond charge predicted
       N       E                     dE             d eps       ncg     rms          rms(c)
DAV:   1    -0.842397537245E+03    0.86689E-06   -0.11077E-04  4260   0.181E-02    0.333E-03
DAV:   2    -0.842397536991E+03    0.25360E-06   -0.16262E-06  3120   0.216E-03
 166 F= -.85015871E+03 E0= -.85015871E+03  d E =0.148315E-05  mag=    -0.0000
quench:  g(F)=  0.000E+00 g(S)=  0.000E+00 dE (1.order)= 0.000E+00
 bond charge predicted
       N       E                     dE             d eps       ncg     rms          rms(c)
DAV:   1    -0.842397536268E+03    0.97737E-06   -0.15801E-04  4245   0.210E-02    0.398E-03
DAV:   2    -0.842397535873E+03    0.39461E-06   -0.22028E-06  3200   0.243E-03
 167 F= -.85015871E+03 E0= -.85015871E+03  d E =0.190518E-05  mag=     0.0000
quench:  g(F)=  0.000E+00 g(S)=  0.000E+00 dE (1.order)= 0.000E+00
 bond charge predicted
       N       E                     dE             d eps       ncg     rms          rms(c)
DAV:   1    -0.842397535441E+03    0.82643E-06   -0.22317E-04  4250   0.250E-02    0.470E-03
DAV:   2    -0.842397534909E+03    0.53209E-06   -0.31257E-06  3540   0.287E-03
 168 F= -.85015870E+03 E0= -.85015870E+03  d E =0.209032E-05  mag=     0.0000
quench:  g(F)=  0.000E+00 g(S)=  0.000E+00 dE (1.order)= 0.000E+00
 bond charge predicted
       N       E                     dE             d eps       ncg     rms          rms(c)
DAV:   1    -0.842397534390E+03    0.10515E-05   -0.33418E-04  4280   0.309E-02    0.569E-03
DAV:   2    -0.842397533615E+03    0.77493E-06   -0.45809E-06  3820   0.351E-03
 169 F= -.85015870E+03 E0= -.85015870E+03  d E =0.268590E-05  mag=     0.0000
quench:  g(F)=  0.000E+00 g(S)=  0.000E+00 dE (1.order)= 0.000E+00
 bond charge predicted
       N       E                     dE             d eps       ncg     rms          rms(c)
DAV:   1    -0.842397532606E+03    0.17837E-05   -0.50020E-04  4280   0.375E-02    0.694E-03
DAV:   2    -0.842397531404E+03    0.12018E-05   -0.69152E-06  4160   0.424E-03    0.592E-03
DAV:   3    -0.842397532570E+03   -0.11654E-05   -0.43487E-07  2810   0.146E-03    0.303E-03
DAV:   4    -0.842397533562E+03   -0.99200E-06   -0.43926E-07  2780   0.118E-03
 170 F= -.85015870E+03 E0= -.85015870E+03  d E =0.119821E-05  mag=    -0.0000
quench:  g(F)=  0.000E+00 g(S)=  0.000E+00 dE (1.order)= 0.000E+00
 bond charge predicted
       N       E                     dE             d eps       ncg     rms          rms(c)
DAV:   1    -0.842397531008E+03    0.15614E-05   -0.76049E-04  4300   0.457E-02    0.596E-03
DAV:   2    -0.842397530770E+03    0.23788E-06   -0.11951E-05  4260   0.544E-03    0.519E-03
DAV:   3    -0.842397530585E+03    0.18551E-06   -0.26411E-07  2980   0.116E-03
 171 F= -.85015870E+03 E0= -.85015870E+03  d E =0.402483E-05  mag=     0.0000
quench:  g(F)=  0.000E+00 g(S)=  0.000E+00 dE (1.order)= 0.000E+00
 bond charge predicted
       N       E                     dE             d eps       ncg     rms          rms(c)
DAV:   1    -0.842397529213E+03    0.15576E-05   -0.11412E-03  4260   0.555E-02    0.736E-03
DAV:   2    -0.842397528336E+03    0.87707E-06   -0.16427E-05  4340   0.623E-03    0.643E-03
DAV:   3    -0.842397528231E+03    0.10497E-06   -0.33250E-07  3400   0.127E-03
 172 F= -.85015869E+03 E0= -.85015869E+03  d E =0.428274E-05  mag=     0.0000
quench:  g(F)=  0.000E+00 g(S)=  0.000E+00 dE (1.order)= 0.000E+00
 bond charge predicted
       N       E                     dE             d eps       ncg     rms          rms(c)
DAV:   1    -0.842397528195E+03    0.14043E-06   -0.16545E-03  4260   0.663E-02    0.877E-03
DAV:   2    -0.842397526926E+03    0.12695E-05   -0.23881E-05  4380   0.747E-03    0.765E-03
DAV:   3    -0.842397526738E+03    0.18789E-06   -0.49142E-07  3580   0.151E-03
 173 F= -.85015869E+03 E0= -.85015869E+03  d E =0.492157E-05  mag=     0.0000
quench:  g(F)=  0.000E+00 g(S)=  0.000E+00 dE (1.order)= 0.000E+00
 bond charge predicted
       N       E                     dE             d eps       ncg     rms          rms(c)
DAV:   1    -0.842397527774E+03   -0.84789E-06   -0.23018E-03  4280   0.795E-02    0.105E-02
DAV:   2    -0.842397526115E+03    0.16588E-05   -0.32397E-05  4400   0.893E-03    0.918E-03
DAV:   3    -0.842397525985E+03    0.12989E-06   -0.72640E-07  3660   0.187E-03
 174 F= -.85015868E+03 E0= -.85015868E+03  d E =0.524014E-05  mag=    -0.0000
quench:  g(F)=  0.000E+00 g(S)=  0.000E+00 dE (1.order)= 0.000E+00
 bond charge predicted
       N       E                     dE             d eps       ncg     rms          rms(c)
DAV:   1    -0.842397526427E+03   -0.31239E-06   -0.31900E-03  4260   0.938E-02    0.125E-02
DAV:   2    -0.842397524449E+03    0.19778E-05   -0.44825E-05  4400   0.106E-02    0.109E-02
DAV:   3    -0.842397524299E+03    0.15069E-06   -0.10841E-06  3650   0.225E-03
 175 F= -.85015868E+03 E0= -.85015868E+03  d E =0.445676E-05  mag=     0.0000
quench:  g(F)=  0.000E+00 g(S)=  0.000E+00 dE (1.order)= 0.000E+00
 bond charge predicted
       N       E                     dE             d eps       ncg     rms          rms(c)
DAV:   1    -0.842397525256E+03   -0.80700E-06   -0.48593E-03  4280   0.114E-01    0.153E-02
DAV:   2    -0.842397523078E+03    0.21788E-05   -0.68831E-05  4400   0.129E-02    0.134E-02
DAV:   3    -0.842397522685E+03    0.39260E-06   -0.16042E-06  3920   0.268E-03
 176 F= -.85015867E+03 E0= -.85015867E+03  d E =0.544035E-05  mag=     0.0000
quench:  g(F)=  0.000E+00 g(S)=  0.000E+00 dE (1.order)= 0.000E+00
 bond charge predicted
       N       E                     dE             d eps       ncg     rms          rms(c)
DAV:   1    -0.842397527742E+03   -0.46645E-05   -0.70717E-03  4260   0.138E-01    0.184E-02
DAV:   2    -0.842397525732E+03    0.20097E-05   -0.10271E-04  4400   0.158E-02    0.161E-02
DAV:   3    -0.842397524791E+03    0.94164E-06   -0.24344E-06  4180   0.328E-03
 177 F= -.85015867E+03 E0= -.85015867E+03  d E =0.356929E-05  mag=     0.0000
quench:  g(F)=  0.000E+00 g(S)=  0.000E+00 dE (1.order)= 0.000E+00
 bond charge predicted
       N       E                     dE             d eps       ncg     rms          rms(c)
DAV:   1    -0.842397532576E+03   -0.68441E-05   -0.93196E-03  4260   0.162E-01    0.216E-02
DAV:   2    -0.842397530465E+03    0.21112E-05   -0.13248E-04  4400   0.187E-02    0.189E-02
DAV:   3    -0.842397529867E+03    0.59794E-06   -0.36989E-06  4220   0.410E-03
 178 F= -.85015867E+03 E0= -.85015867E+03  d E =0.191169E-05  mag=    -0.0000
quench:  g(F)=  0.000E+00 g(S)=  0.000E+00 dE (1.order)= 0.000E+00
 bond charge predicted
       N       E                     dE             d eps       ncg     rms          rms(c)
DAV:   1    -0.842397532498E+03   -0.20327E-05   -0.12963E-02  4260   0.195E-01    0.256E-02
DAV:   2    -0.842397532239E+03    0.25859E-06   -0.18846E-04  4420   0.229E-02    0.225E-02
DAV:   3    -0.842397530668E+03    0.15712E-05   -0.60226E-06  4680   0.518E-03    0.156E-02
DAV:   4    -0.842397543680E+03   -0.13012E-04   -0.96297E-06  4070   0.604E-03    0.365E-03
DAV:   5    -0.842397544529E+03   -0.84840E-06   -0.25858E-06  3540   0.288E-03
 179 F= -.85015868E+03 E0= -.85015868E+03  d E =-.115456E-04  mag=     0.0000
quench:  g(F)=  0.000E+00 g(S)=  0.000E+00 dE (1.order)= 0.000E+00
 bond charge predicted
       N       E                     dE             d eps       ncg     rms          rms(c)
DAV:   1    -0.842397527736E+03    0.15945E-04   -0.19928E-02  4280   0.243E-01    0.300E-02
DAV:   2    -0.842397536028E+03   -0.82930E-05   -0.33036E-04  4520   0.300E-02    0.266E-02
DAV:   3    -0.842397530425E+03    0.56035E-05   -0.94473E-06  5240   0.635E-03    0.195E-02
DAV:   4    -0.842397542881E+03   -0.12456E-04   -0.18918E-05  4230   0.838E-03    0.479E-03
DAV:   5    -0.842397544665E+03   -0.17843E-05   -0.42494E-06  3900   0.358E-03    0.283E-03
DAV:   6    -0.842397545661E+03   -0.99539E-06   -0.53949E-07  2820   0.134E-03
 180 F= -.85015867E+03 E0= -.85015867E+03  d E =0.614898E-05  mag=    -0.0000
quench:  g(F)=  0.000E+00 g(S)=  0.000E+00 dE (1.order)= 0.000E+00
 bond charge predicted
       N       E                     dE             d eps       ncg     rms          rms(c)
DAV:   1    -0.842397564699E+03   -0.20033E-04   -0.69501E-04  4380   0.538E-02    0.622E-03
DAV:   2    -0.842397565760E+03   -0.10615E-05   -0.17348E-05  5360   0.788E-03    0.558E-03
DAV:   3    -0.842397565304E+03    0.45585E-06   -0.75137E-07  2420   0.188E-03
 181 F= -.85015869E+03 E0= -.85015869E+03  d E =-.196041E-04  mag=     0.0000
quench:  g(F)=  0.000E+00 g(S)=  0.000E+00 dE (1.order)= 0.000E+00
 bond charge predicted
       N       E                     dE             d eps       ncg     rms          rms(c)
DAV:   1    -0.842397555990E+03    0.97707E-05   -0.10152E-03  4280   0.649E-02    0.830E-03
DAV:   2    -0.842397557251E+03   -0.12616E-05   -0.22245E-05  5370   0.894E-03    0.723E-03
DAV:   3    -0.842397556576E+03    0.67515E-06   -0.11700E-06  2780   0.241E-03
 182 F= -.85015868E+03 E0= -.85015868E+03  d E =0.898895E-05  mag=     0.0000
quench:  g(F)=  0.000E+00 g(S)=  0.000E+00 dE (1.order)= 0.000E+00
 bond charge predicted
       N       E                     dE             d eps       ncg     rms          rms(c)
DAV:   1    -0.842397561219E+03   -0.39676E-05   -0.35452E-05  4210   0.122E-02    0.201E-03
DAV:   2    -0.842397561257E+03   -0.37755E-07   -0.16707E-06  2620   0.250E-03
 183 F= -.85015869E+03 E0= -.85015869E+03  d E =-.459608E-05  mag=     0.0000
quench:  g(F)=  0.000E+00 g(S)=  0.000E+00 dE (1.order)= 0.000E+00
 bond charge predicted
       N       E                     dE             d eps       ncg     rms          rms(c)
DAV:   1    -0.842397567369E+03   -0.61501E-05   -0.90459E-05  4320   0.194E-02    0.269E-03
DAV:   2    -0.842397567406E+03   -0.36613E-07   -0.20432E-06  2960   0.281E-03
 184 F= -.85015869E+03 E0= -.85015869E+03  d E =-.608069E-05  mag=     0.0000
quench:  g(F)=  0.000E+00 g(S)=  0.000E+00 dE (1.order)= 0.000E+00
 bond charge predicted
       N       E                     dE             d eps       ncg     rms          rms(c)
DAV:   1    -0.842397569986E+03   -0.26169E-05   -0.14370E-04  4280   0.244E-02    0.392E-03
DAV:   2    -0.842397570049E+03   -0.63126E-07   -0.30928E-06  4340   0.345E-03
 185 F= -.85015870E+03 E0= -.85015870E+03  d E =-.260921E-05  mag=     0.0000
quench:  g(F)=  0.000E+00 g(S)=  0.000E+00 dE (1.order)= 0.000E+00
 bond charge predicted
       N       E                     dE             d eps       ncg     rms          rms(c)
DAV:   1    -0.842397567958E+03    0.20277E-05   -0.12260E-04  4290   0.225E-02    0.409E-03
DAV:   2    -0.842397567951E+03    0.75088E-08   -0.23074E-06  3540   0.302E-03
 186 F= -.85015869E+03 E0= -.85015869E+03  d E =0.206991E-05  mag=    -0.0000
quench:  g(F)=  0.000E+00 g(S)=  0.000E+00 dE (1.order)= 0.000E+00
 bond charge predicted
       N       E                     dE             d eps       ncg     rms          rms(c)
DAV:   1    -0.842397568193E+03   -0.23458E-06   -0.14595E-06  2665   0.264E-03    0.137E-03
DAV:   2    -0.842397568212E+03   -0.18947E-07   -0.22108E-07  2210   0.967E-04
 187 F= -.85015869E+03 E0= -.85015869E+03  d E =-.249471E-06  mag=     0.0000
quench:  g(F)=  0.000E+00 g(S)=  0.000E+00 dE (1.order)= 0.000E+00
 bond charge predicted
       N       E                     dE             d eps       ncg     rms          rms(c)
DAV:   1    -0.842397568903E+03   -0.70977E-06   -0.19988E-06  2890   0.290E-03    0.557E-04
DAV:   2    -0.842397568909E+03   -0.61627E-08   -0.75919E-08  2210   0.584E-04
 188 F= -.85015870E+03 E0= -.85015869E+03  d E =-.675421E-06  mag=    -0.0000
quench:  g(F)=  0.000E+00 g(S)=  0.000E+00 dE (1.order)= 0.000E+00
 bond charge predicted
       N       E                     dE             d eps       ncg     rms          rms(c)
DAV:   1    -0.842397569798E+03   -0.89558E-06   -0.39303E-06  3770   0.408E-03    0.560E-04
DAV:   2    -0.842397569799E+03   -0.10768E-08   -0.10533E-07  2190   0.670E-04
 189 F= -.85015870E+03 E0= -.85015870E+03  d E =-.868953E-06  mag=     0.0000
quench:  g(F)=  0.000E+00 g(S)=  0.000E+00 dE (1.order)= 0.000E+00
 bond charge predicted
       N       E                     dE             d eps       ncg     rms          rms(c)
DAV:   1    -0.842397570704E+03   -0.90624E-06   -0.62556E-06  3880   0.514E-03    0.840E-04
DAV:   2    -0.842397570704E+03    0.14552E-10   -0.16267E-07  2180   0.824E-04
 190 F= -.85015870E+03 E0= -.85015870E+03  d E =-.883619E-06  mag=     0.0000
quench:  g(F)=  0.000E+00 g(S)=  0.000E+00 dE (1.order)= 0.000E+00
 bond charge predicted
       N       E                     dE             d eps       ncg     rms          rms(c)
DAV:   1    -0.842397571449E+03   -0.74429E-06   -0.83074E-06  4095   0.592E-03    0.989E-04
DAV:   2    -0.842397571448E+03    0.74942E-09   -0.19059E-07  2170   0.886E-04
 191 F= -.85015870E+03 E0= -.85015870E+03  d E =-.725093E-06  mag=    -0.0000
quench:  g(F)=  0.000E+00 g(S)=  0.000E+00 dE (1.order)= 0.000E+00
 bond charge predicted
       N       E                     dE             d eps       ncg     rms          rms(c)
DAV:   1    -0.842397571971E+03   -0.52200E-06   -0.95906E-06  4090   0.631E-03    0.105E-03
DAV:   2    -0.842397571968E+03    0.22264E-08   -0.20799E-07  2150   0.924E-04
 192 F= -.85015870E+03 E0= -.85015870E+03  d E =-.492314E-06  mag=    -0.0000
quench:  g(F)=  0.000E+00 g(S)=  0.000E+00 dE (1.order)= 0.000E+00
 bond charge predicted
       N       E                     dE             d eps       ncg     rms          rms(c)
DAV:   1    -0.842397572308E+03   -0.33725E-06   -0.12049E-05  4170   0.699E-03    0.115E-03
DAV:   2    -0.842397572304E+03    0.39799E-08   -0.23961E-07  2160   0.987E-04
 193 F= -.85015870E+03 E0= -.85015870E+03  d E =-.312198E-06  mag=     0.0000
quench:  g(F)=  0.000E+00 g(S)=  0.000E+00 dE (1.order)= 0.000E+00
 bond charge predicted
       N       E                     dE             d eps       ncg     rms          rms(c)
DAV:   1    -0.842397572544E+03   -0.23623E-06   -0.14122E-05  4090   0.740E-03    0.123E-03
DAV:   2    -0.842397572534E+03    0.10041E-07   -0.26848E-07  2250   0.103E-03
 194 F= -.85015870E+03 E0= -.85015870E+03  d E =-.232786E-06  mag=     0.0000
quench:  g(F)=  0.000E+00 g(S)=  0.000E+00 dE (1.order)= 0.000E+00
 bond charge predicted
       N       E                     dE             d eps       ncg     rms          rms(c)
DAV:   1    -0.842397572763E+03   -0.21918E-06   -0.15669E-05  4060   0.752E-03    0.126E-03
DAV:   2    -0.842397572744E+03    0.19390E-07   -0.27731E-07  2610   0.101E-03
 195 F= -.85015870E+03 E0= -.85015870E+03  d E =-.255046E-06  mag=     0.0000
quench:  g(F)=  0.000E+00 g(S)=  0.000E+00 dE (1.order)= 0.000E+00
 bond charge predicted
       N       E                     dE             d eps       ncg     rms          rms(c)
DAV:   1    -0.842397573214E+03   -0.45029E-06   -0.18950E-05  4110   0.793E-03    0.135E-03
DAV:   2    -0.842397573179E+03    0.34153E-07   -0.28856E-07  2710   0.101E-03
 196 F= -.85015870E+03 E0= -.85015870E+03  d E =-.520896E-06  mag=    -0.0000
quench:  g(F)=  0.000E+00 g(S)=  0.000E+00 dE (1.order)= 0.000E+00
 bond charge predicted
       N       E                     dE             d eps       ncg     rms          rms(c)
DAV:   1    -0.842397574272E+03   -0.10585E-05   -0.27963E-05  4180   0.968E-03    0.156E-03
DAV:   2    -0.842397574221E+03    0.50612E-07   -0.41359E-07  2795   0.121E-03
 197 F= -.85015870E+03 E0= -.85015870E+03  d E =-.115628E-05  mag=     0.0000
quench:  g(F)=  0.000E+00 g(S)=  0.000E+00 dE (1.order)= 0.000E+00
 bond charge predicted
       N       E                     dE             d eps       ncg     rms          rms(c)
DAV:   1    -0.842397575635E+03   -0.13630E-05   -0.45203E-05  4260   0.126E-02    0.202E-03
DAV:   2    -0.842397575560E+03    0.75299E-07   -0.67785E-07  2860   0.157E-03
 198 F= -.85015870E+03 E0= -.85015870E+03  d E =-.135217E-05  mag=    -0.0000
quench:  g(F)=  0.000E+00 g(S)=  0.000E+00 dE (1.order)= 0.000E+00
 bond charge predicted
       N       E                     dE             d eps       ncg     rms          rms(c)
DAV:   1    -0.842397576667E+03   -0.10320E-05   -0.67601E-05  4250   0.153E-02    0.254E-03
DAV:   2    -0.842397576547E+03    0.11971E-06   -0.10065E-06  2860   0.190E-03
 199 F= -.85015870E+03 E0= -.85015870E+03  d E =-.968310E-06  mag=     0.0000
quench:  g(F)=  0.000E+00 g(S)=  0.000E+00 dE (1.order)= 0.000E+00
 bond charge predicted
       N       E                     dE             d eps       ncg     rms          rms(c)
DAV:   1    -0.842397577770E+03   -0.11028E-05   -0.90813E-05  4250   0.173E-02    0.296E-03
DAV:   2    -0.842397577586E+03    0.18418E-06   -0.13093E-06  2960   0.211E-03
 200 F= -.85015870E+03 E0= -.85015870E+03  d E =-.938049E-06  mag=     0.0000
quench:  g(F)=  0.000E+00 g(S)=  0.000E+00 dE (1.order)= 0.000E+00
 bond charge predicted
       N       E                     dE             d eps       ncg     rms          rms(c)
DAV:   1    -0.842397579578E+03   -0.18079E-05   -0.12303E-04  4240   0.197E-02    0.341E-03
DAV:   2    -0.842397579310E+03    0.26800E-06   -0.17274E-06  3160   0.235E-03
 201 F= -.85015871E+03 E0= -.85015870E+03  d E =-.153918E-05  mag=    -0.0000
quench:  g(F)=  0.000E+00 g(S)=  0.000E+00 dE (1.order)= 0.000E+00
 reached required accuracy - stopping structural energy minimisation
