<?xml version="1.0" encoding="ISO-8859-1"?>
<modeling>
 <generator>
  <i name="program" type="string">vasp </i>
  <i name="version" type="string">6.4.2  </i>
  <i name="subversion" type="string">20Jul23 (build Aug 26 2025 15:10:52) complex                          parallel </i>
  <i name="platform" type="string">LinuxIFC </i>
  <i name="date" type="string">2025 12 07 </i>
  <i name="time" type="string">12:50:50 </i>
 </generator>
 <incar>
  <i type="int" name="ISTART">     0</i>
  <i type="string" name="ALGO">Normal</i>
  <i type="logical" name="ADDGRID"> T  </i>
  <i type="int" name="ISPIN">     2</i>
  <i type="int" name="IMIX">     4</i>
  <i name="AMIX">      0.20000000</i>
  <i name="BMIX">      0.00010000</i>
  <i name="AMIX_MAG">      0.80000000</i>
  <i name="BMIX_MAG">      0.00010000</i>
  <i type="int" name="ICHARG">     2</i>
  <i type="int" name="NELM">   200</i>
  <i type="int" name="IBRION">     3</i>
  <i name="EDIFF">      0.00000100</i>
  <i name="EDIFFG">     -0.03000000</i>
  <i type="int" name="NSW">  1000</i>
  <i type="int" name="ISIF">     2</i>
  <i type="int" name="ISYM">     0</i>
  <i name="ENCUT">    520.00000000</i>
  <i name="POTIM">      0.00000000</i>
  <v name="MAGMOM">      0.60000000      0.60000000      0.60000000      0.60000000      0.60000000      0.60000000      0.60000000      0.60000000      0.60000000      0.60000000      0.60000000      0.60000000      0.60000000      0.60000000      0.60000000      0.60000000      0.60000000      0.60000000      0.60000000      0.60000000
      0.60000000      0.60000000      0.60000000      0.60000000      0.60000000      0.60000000      0.60000000      0.60000000      0.60000000      0.60000000      0.60000000      0.60000000      0.60000000      0.60000000      0.60000000      0.60000000      0.60000000      0.60000000      0.60000000      0.60000000
      0.60000000      0.60000000      0.60000000      0.60000000      0.60000000      0.60000000      0.60000000      0.60000000      0.60000000      0.60000000      0.60000000      0.60000000      0.60000000      0.60000000      0.60000000      0.60000000      0.60000000      0.60000000      0.60000000      0.60000000
      0.60000000      0.60000000      0.60000000      0.60000000      0.60000000      0.60000000      0.60000000      0.60000000      0.60000000      0.60000000      0.60000000      0.60000000      0.60000000      0.60000000      0.60000000      0.60000000      0.60000000      0.60000000      0.60000000      0.60000000
      0.60000000      0.60000000      0.60000000      0.60000000      0.60000000      0.60000000      0.60000000      0.60000000      0.60000000      0.60000000      0.60000000      0.60000000      0.60000000      0.60000000      0.60000000      0.60000000      0.60000000</v>
  <i type="string" name="LREAL">Auto</i>
  <i type="int" name="ISMEAR">     0</i>
  <i name="SIGMA">      0.05000000</i>
  <i type="logical" name="LWAVE"> F  </i>
  <i type="logical" name="LCHARG"> F  </i>
  <i type="logical" name="LASPH"> T  </i>
  <i type="int" name="IVDW">    12</i>
  <i name="SPRING">     -5.00000000</i>
 </incar>
 <primitive_cell>
  <structure name="primitive_cell" >
   <crystal>
    <varray name="basis" >
     <v>      17.27103806       0.00000000       0.00000000 </v>
     <v>      -8.63551903      14.95715771       0.00000000 </v>
     <v>       0.00000000       0.00000000      15.00000000 </v>
    </varray>
    <i name="volume">   3874.88459904 </i>
    <varray name="rec_basis" >
     <v>       0.05790040       0.03342881       0.00000000 </v>
     <v>       0.00000000       0.06685762       0.00000000 </v>
     <v>       0.00000000       0.00000000       0.06666667 </v>
    </varray>
   </crystal>
   <varray name="positions" >
    <v>       0.00037654       0.99952555       0.49586002 </v>
    <v>       0.99996717       0.14208635       0.49585106 </v>
    <v>       0.00000150       0.28506636       0.49615044 </v>
    <v>       0.99996862       0.42799377       0.49656223 </v>
    <v>       0.00008838       0.57086541       0.49699009 </v>
    <v>       0.00074439       0.71379555       0.49730222 </v>
    <v>       0.00101879       0.85712487       0.49679479 </v>
    <v>       0.14395270       0.00064335       0.49583479 </v>
    <v>       0.14351092       0.14314876       0.49528920 </v>
    <v>       0.14275373       0.28544284       0.49503694 </v>
    <v>       0.14281402       0.42879009       0.49540708 </v>
    <v>       0.14296904       0.57129963       0.49622292 </v>
    <v>       0.14337047       0.71416907       0.49663874 </v>
    <v>       0.14354971       0.85740999       0.49663973 </v>
    <v>       0.28671211       0.00067608       0.49632871 </v>
    <v>       0.28733071       0.14390136       0.49534004 </v>
    <v>       0.28680100       0.28763651       0.49348187 </v>
    <v>       0.28497412       0.42877930       0.49159001 </v>
    <v>       0.28688412       0.57214276       0.49345746 </v>
    <v>       0.28611201       0.71504903       0.49565471 </v>
    <v>       0.28579708       0.85770123       0.49640755 </v>
    <v>       0.42916912       0.00000248       0.49614489 </v>
    <v>       0.43038287       0.14386044       0.49631964 </v>
    <v>       0.42968787       0.28447373       0.49600123 </v>
    <v>       0.42787214       0.85647026       0.49570055 </v>
    <v>       0.57119961       0.99901662       0.49594598 </v>
    <v>       0.57201589       0.14222459       0.49660261 </v>
    <v>       0.57593449       0.28846834       0.49764339 </v>
    <v>       0.57011147       0.85471354       0.49630607 </v>
    <v>       0.71337224       0.99796477       0.49634410 </v>
    <v>       0.71445887       0.14149186       0.49634184 </v>
    <v>       0.71508079       0.28439779       0.49742042 </v>
    <v>       0.71116459       0.42387862       0.49924537 </v>
    <v>       0.71652514       0.57079001       0.50347683 </v>
    <v>       0.71806968       0.71419557       0.50358888 </v>
    <v>       0.71252944       0.85508334       0.49833189 </v>
    <v>       0.85683981       0.99870390       0.49657320 </v>
    <v>       0.85682125       0.14154392       0.49608389 </v>
    <v>       0.85731274       0.28459279       0.49671355 </v>
    <v>       0.85724409       0.42753671       0.49762689 </v>
    <v>       0.85683212       0.56990880       0.49872691 </v>
    <v>       0.85884089       0.71372714       0.49934651 </v>
    <v>       0.85767488       0.85614308       0.49793400 </v>
    <v>       0.04810547       0.09493636       0.49566869 </v>
    <v>       0.04732344       0.23727450       0.49579570 </v>
    <v>       0.04734809       0.38047949       0.49619133 </v>
    <v>       0.04774814       0.52338408       0.49663014 </v>
    <v>       0.04806147       0.66626470       0.49696134 </v>
    <v>       0.04822853       0.80924443       0.49688594 </v>
    <v>       0.04845329       0.95231960       0.49602723 </v>
    <v>       0.19167879       0.09577883       0.49534622 </v>
    <v>       0.19086561       0.23836699       0.49469717 </v>
    <v>       0.18946611       0.38060426       0.49434165 </v>
    <v>       0.19080164       0.52432173       0.49537623 </v>
    <v>       0.19076148       0.66674695       0.49617196 </v>
    <v>       0.19086104       0.80970205       0.49661201 </v>
    <v>       0.19150259       0.95282151       0.49631328 </v>
    <v>       0.33496503       0.09638081       0.49598692 </v>
    <v>       0.33613593       0.23948148       0.49483416 </v>
    <v>       0.33081322       0.38043411       0.49092622 </v>
    <v>       0.33039211       0.52326162       0.49019170 </v>
    <v>       0.33673894       0.67038582       0.49455343 </v>
    <v>       0.33309252       0.80985668       0.49595568 </v>
    <v>       0.33377858       0.95276442       0.49637365 </v>
    <v>       0.47701691       0.09517033       0.49640460 </v>
    <v>       0.47819051       0.23954925       0.49660213 </v>
    <v>       0.47234550       0.80565808       0.49553058 </v>
    <v>       0.47620848       0.95192593       0.49588728 </v>
    <v>       0.61906762       0.09416750       0.49628185 </v>
    <v>       0.62033107       0.23763727       0.49726690 </v>
    <v>       0.61903544       0.81027814       0.49745757 </v>
    <v>       0.61792750       0.95044012       0.49619752 </v>
    <v>       0.76159269       0.09365154       0.49608047 </v>
    <v>       0.76240870       0.23657131       0.49681704 </v>
    <v>       0.76191848       0.37924038       0.49811549 </v>
    <v>       0.76055352       0.52219021       0.50052744 </v>
    <v>       0.76345903       0.66548136       0.50248282 </v>
    <v>       0.76180636       0.80693023       0.50000789 </v>
    <v>       0.76116956       0.95060585       0.49701334 </v>
    <v>       0.90446816       0.09379600       0.49605126 </v>
    <v>       0.90469080       0.23693489       0.49627058 </v>
    <v>       0.90468891       0.38012287       0.49700427 </v>
    <v>       0.90482707       0.52299453       0.49763686 </v>
    <v>       0.90528409       0.66543102       0.49837995 </v>
    <v>       0.90560230       0.80889417       0.49796315 </v>
    <v>       0.90500712       0.95135386       0.49659009 </v>
    <v>       0.46874720       0.35716484       0.49667231 </v>
    <v>       0.40339481       0.41862249       0.48932591 </v>
    <v>       0.40263427       0.56128086       0.48599174 </v>
    <v>       0.64576866       0.67533516       0.50706930 </v>
    <v>       0.64392385       0.53506302       0.50594106 </v>
    <v>       0.58046489       0.73765988       0.49757002 </v>
    <v>       0.49920045       0.56482604       0.54552743 </v>
    <v>       0.51434702       0.56644772       0.44394243 </v>
    <v>       0.42687261       0.71509200       0.49480788 </v>
    <v>       0.62115479       0.37888604       0.49881473 </v>
    <v>       0.52710510       0.54671886       0.50000005 </v>
   </varray>
  </structure>
  <varray name="primitive_index" >
   <v type="int" >        1 </v>
   <v type="int" >        2 </v>
   <v type="int" >        3 </v>
   <v type="int" >        4 </v>
   <v type="int" >        5 </v>
   <v type="int" >        6 </v>
   <v type="int" >        7 </v>
   <v type="int" >        8 </v>
   <v type="int" >        9 </v>
   <v type="int" >       10 </v>
   <v type="int" >       11 </v>
   <v type="int" >       12 </v>
   <v type="int" >       13 </v>
   <v type="int" >       14 </v>
   <v type="int" >       15 </v>
   <v type="int" >       16 </v>
   <v type="int" >       17 </v>
   <v type="int" >       18 </v>
   <v type="int" >       19 </v>
   <v type="int" >       20 </v>
   <v type="int" >       21 </v>
   <v type="int" >       22 </v>
   <v type="int" >       23 </v>
   <v type="int" >       24 </v>
   <v type="int" >       25 </v>
   <v type="int" >       26 </v>
   <v type="int" >       27 </v>
   <v type="int" >       28 </v>
   <v type="int" >       29 </v>
   <v type="int" >       30 </v>
   <v type="int" >       31 </v>
   <v type="int" >       32 </v>
   <v type="int" >       33 </v>
   <v type="int" >       34 </v>
   <v type="int" >       35 </v>
   <v type="int" >       36 </v>
   <v type="int" >       37 </v>
   <v type="int" >       38 </v>
   <v type="int" >       39 </v>
   <v type="int" >       40 </v>
   <v type="int" >       41 </v>
   <v type="int" >       42 </v>
   <v type="int" >       43 </v>
   <v type="int" >       44 </v>
   <v type="int" >       45 </v>
   <v type="int" >       46 </v>
   <v type="int" >       47 </v>
   <v type="int" >       48 </v>
   <v type="int" >       49 </v>
   <v type="int" >       50 </v>
   <v type="int" >       51 </v>
   <v type="int" >       52 </v>
   <v type="int" >       53 </v>
   <v type="int" >       54 </v>
   <v type="int" >       55 </v>
   <v type="int" >       56 </v>
   <v type="int" >       57 </v>
   <v type="int" >       58 </v>
   <v type="int" >       59 </v>
   <v type="int" >       60 </v>
   <v type="int" >       61 </v>
   <v type="int" >       62 </v>
   <v type="int" >       63 </v>
   <v type="int" >       64 </v>
   <v type="int" >       65 </v>
   <v type="int" >       66 </v>
   <v type="int" >       67 </v>
   <v type="int" >       68 </v>
   <v type="int" >       69 </v>
   <v type="int" >       70 </v>
   <v type="int" >       71 </v>
   <v type="int" >       72 </v>
   <v type="int" >       73 </v>
   <v type="int" >       74 </v>
   <v type="int" >       75 </v>
   <v type="int" >       76 </v>
   <v type="int" >       77 </v>
   <v type="int" >       78 </v>
   <v type="int" >       79 </v>
   <v type="int" >       80 </v>
   <v type="int" >       81 </v>
   <v type="int" >       82 </v>
   <v type="int" >       83 </v>
   <v type="int" >       84 </v>
   <v type="int" >       85 </v>
   <v type="int" >       86 </v>
   <v type="int" >       87 </v>
   <v type="int" >       88 </v>
   <v type="int" >       89 </v>
   <v type="int" >       90 </v>
   <v type="int" >       91 </v>
   <v type="int" >       92 </v>
   <v type="int" >       93 </v>
   <v type="int" >       94 </v>
   <v type="int" >       95 </v>
   <v type="int" >       96 </v>
   <v type="int" >       97 </v>
  </varray>
 </primitive_cell>
 <kpoints>
  <generation param="Gamma">
   <v type="int" name="divisions">       2        2        1 </v>
   <v name="usershift">      0.00000000       0.00000000       0.00000000 </v>
   <v name="genvec1">      0.50000000       0.00000000       0.00000000 </v>
   <v name="genvec2">      0.00000000       0.50000000       0.00000000 </v>
   <v name="genvec3">      0.00000000       0.00000000       1.00000000 </v>
   <v name="shift">      0.00000000       0.00000000       0.00000000 </v>
  </generation>
  <varray name="kpointlist" >
   <v>       0.00000000       0.00000000       0.00000000 </v>
   <v>       0.50000000       0.00000000       0.00000000 </v>
   <v>       0.00000000       0.50000000       0.00000000 </v>
   <v>       0.50000000       0.50000000       0.00000000 </v>
  </varray>
  <varray name="weights" >
   <v>       0.25000000 </v>
   <v>       0.25000000 </v>
   <v>       0.25000000 </v>
   <v>       0.25000000 </v>
  </varray>
 </kpoints>
 <parameters>
  <separator name="general" >
   <i type="string" name="SYSTEM">unknown system</i>
   <i type="logical" name="LCOMPAT"> F  </i>
  </separator>
  <separator name="electronic" >
   <i type="string" name="PREC">normal</i>
   <i name="ENMAX">    520.00000000</i>
   <i name="ENAUG">    644.87300000</i>
   <i name="EDIFF">      0.00000100</i>
   <i type="int" name="IALGO">    38</i>
   <i type="int" name="IWAVPR">    11</i>
   <i type="int" name="NBANDS">   265</i>
   <i type="int" name="NBANDSLOW">    -1</i>
   <i type="int" name="NBANDSHIGH">    -1</i>
   <i name="NELECT">    368.00000000</i>
   <i type="int" name="TURBO">     0</i>
   <i type="int" name="IRESTART">     0</i>
   <i type="int" name="NREBOOT">     0</i>
   <i type="int" name="NMIN">     0</i>
   <i name="EREF">      0.00000000</i>
   <separator name="electronic smearing" >
    <i type="int" name="ISMEAR">     0</i>
    <i name="SIGMA">      0.05000000</i>
    <i name="KSPACING">      0.50000000</i>
    <i type="logical" name="KGAMMA"> T  </i>
    <i type="logical" name="KBLOWUP"> T  </i>
   </separator>
   <separator name="electronic projectors" >
    <i type="logical" name="LREAL"> T  </i>
    <v name="ROPT">     -0.00050000     -0.00050000     -0.00050000     -0.00050000</v>
    <i type="int" name="LMAXPAW">  -100</i>
    <i type="int" name="LMAXMIX">     2</i>
    <i type="logical" name="NLSPLINE"> F  </i>
   </separator>
   <separator name="electronic startup" >
    <i type="int" name="ISTART">     0</i>
    <i type="int" name="ICHARG">     2</i>
    <i type="int" name="INIWAV">     1</i>
   </separator>
   <separator name="electronic spin" >
    <i type="int" name="ISPIN">     2</i>
    <i type="logical" name="LNONCOLLINEAR"> F  </i>
    <v name="MAGMOM">      0.60000000      0.60000000      0.60000000      0.60000000      0.60000000      0.60000000      0.60000000      0.60000000      0.60000000      0.60000000      0.60000000      0.60000000      0.60000000      0.60000000      0.60000000      0.60000000      0.60000000      0.60000000      0.60000000      0.60000000
      0.60000000      0.60000000      0.60000000      0.60000000      0.60000000      0.60000000      0.60000000      0.60000000      0.60000000      0.60000000      0.60000000      0.60000000      0.60000000      0.60000000      0.60000000      0.60000000      0.60000000      0.60000000      0.60000000      0.60000000
      0.60000000      0.60000000      0.60000000      0.60000000      0.60000000      0.60000000      0.60000000      0.60000000      0.60000000      0.60000000      0.60000000      0.60000000      0.60000000      0.60000000      0.60000000      0.60000000      0.60000000      0.60000000      0.60000000      0.60000000
      0.60000000      0.60000000      0.60000000      0.60000000      0.60000000      0.60000000      0.60000000      0.60000000      0.60000000      0.60000000      0.60000000      0.60000000      0.60000000      0.60000000      0.60000000      0.60000000      0.60000000      0.60000000      0.60000000      0.60000000
      0.60000000      0.60000000      0.60000000      0.60000000      0.60000000      0.60000000      0.60000000      0.60000000      0.60000000      0.60000000      0.60000000      0.60000000      0.60000000      0.60000000      0.60000000      0.60000000      0.60000000</v>
    <i name="NUPDOWN">     -1.00000000</i>
    <i type="logical" name="LSORBIT"> F  </i>
    <v name="SAXIS">      0.00000000      0.00000000      1.00000000</v>
    <i type="logical" name="LSPIRAL"> F  </i>
    <v name="QSPIRAL">      0.00000000      0.00000000      0.00000000</v>
    <i type="logical" name="LZEROZ"> F  </i>
   </separator>
   <separator name="electronic exchange-correlation" >
    <i type="logical" name="LASPH"> T  </i>
    <i type="logical" name="LMETAGGA"> F  </i>
   </separator>
   <separator name="electronic convergence" >
    <i type="int" name="NELM">   200</i>
    <i type="int" name="NELMDL">    -5</i>
    <i type="int" name="NELMIN">     2</i>
    <i name="ENINI">    520.00000000</i>
    <separator name="electronic convergence detail" >
     <i type="logical" name="LDIAG"> T  </i>
     <i type="logical" name="LSUBROT"> F  </i>
     <i name="WEIMIN">      0.00100000</i>
     <i name="EBREAK">      0.00000000</i>
     <i name="DEPER">      0.30000000</i>
     <i type="int" name="NRMM">     4</i>
     <i name="TIME">      0.40000000</i>
    </separator>
   </separator>
   <separator name="electronic mixer" >
    <i name="AMIX">      0.20000000</i>
    <i name="BMIX">      0.00010000</i>
    <i name="AMIN">      0.10000000</i>
    <i name="AMIX_MAG">      0.80000000</i>
    <i name="BMIX_MAG">      0.00010000</i>
    <separator name="electronic mixer details" >
     <i type="int" name="IMIX">     4</i>
     <i type="logical" name="MIXFIRST"> F  </i>
     <i type="int" name="MAXMIX">   -45</i>
     <i name="WC">    100.00000000</i>
     <i type="int" name="INIMIX">     1</i>
     <i type="int" name="MIXPRE">     1</i>
     <i type="int" name="MREMOVE">     5</i>
    </separator>
   </separator>
   <separator name="electronic dipolcorrection" >
    <i type="logical" name="LDIPOL"> F  </i>
    <i type="logical" name="LMONO"> F  </i>
    <i type="int" name="IDIPOL">     0</i>
    <i name="EPSILON">      1.00000000</i>
    <v name="DIPOL">   -100.00000000   -100.00000000   -100.00000000</v>
    <i name="EFIELD">      0.00000000</i>
   </separator>
  </separator>
  <separator name="grids" >
   <i type="int" name="NGX">    96</i>
   <i type="int" name="NGY">    96</i>
   <i type="int" name="NGZ">    84</i>
   <i type="int" name="NGXF">   192</i>
   <i type="int" name="NGYF">   192</i>
   <i type="int" name="NGZF">   168</i>
   <i type="logical" name="ADDGRID"> T  </i>
  </separator>
  <separator name="ionic" >
   <i type="int" name="NSW">  1000</i>
   <i type="int" name="IBRION">     3</i>
   <i type="int" name="MDALGO">     0</i>
   <i type="int" name="ISIF">     2</i>
   <i name="PSTRESS">      0.00000000</i>
   <i name="EDIFFG">     -0.03000000</i>
   <i type="int" name="NFREE">     0</i>
   <i name="POTIM">      0.00000000</i>
   <i name="SMASS">     -3.00000000</i>
   <i name="SCALEE">      1.00000000</i>
  </separator>
  <separator name="ionic md" >
   <i name="TEBEG">      0.00010000</i>
   <i name="TEEND">      0.00010000</i>
   <i type="int" name="NBLOCK">     1</i>
   <i type="int" name="KBLOCK">  1000</i>
   <i type="int" name="NPACO">   256</i>
   <i name="APACO">     10.00000000</i>
  </separator>
  <separator name="symmetry" >
   <i type="int" name="ISYM">     0</i>
   <i name="SYMPREC">      0.00001000</i>
  </separator>
  <separator name="dos" >
   <i type="int" name="LORBIT">     0</i>
   <v name="RWIGS">     -1.00000000     -1.00000000     -1.00000000     -1.00000000</v>
   <i type="int" name="NEDOS">   301</i>
   <i name="EMIN">     10.00000000</i>
   <i name="EMAX">    -10.00000000</i>
   <i name="EFERMI">      0.00000000</i>
  </separator>
  <separator name="writing" >
   <i type="int" name="NWRITE">     2</i>
   <i type="logical" name="LWAVE"> F  </i>
   <i type="logical" name="LDOWNSAMPLE"> F  </i>
   <i type="logical" name="LCHARG"> F  </i>
   <i type="logical" name="LPARD"> F  </i>
   <i type="logical" name="LVTOT"> F  </i>
   <i type="logical" name="LVHAR"> F  </i>
   <i type="logical" name="LELF"> F  </i>
   <i type="logical" name="LOPTICS"> F  </i>
   <v name="STM">      0.00000000      0.00000000      0.00000000      0.00000000      0.00000000      0.00000000      0.00000000</v>
  </separator>
  <separator name="performance" >
   <i type="int" name="NPAR">     5</i>
   <i type="int" name="NSIM">     4</i>
   <i type="int" name="NBLK">    -1</i>
   <i type="logical" name="LPLANE"> T  </i>
   <i type="logical" name="LSCALAPACK"> T  </i>
   <i type="logical" name="LSCAAWARE"> F  </i>
   <i type="logical" name="LSCALU"> F  </i>
   <i type="logical" name="LASYNC"> F  </i>
   <i type="logical" name="LORBITALREAL"> F  </i>
  </separator>
  <separator name="miscellaneous" >
   <i type="int" name="IDIOT">     3</i>
   <i type="int" name="PHON_NSTRUCT">    -1</i>
   <i type="logical" name="LMUSIC"> F  </i>
   <v name="POMASS">     12.01100000      1.00000000     14.00100000     16.00000000</v>
   <v name="DARWINR">      0.00000000      0.00000000      0.00000000      0.00000000</v>
   <v name="DARWINV">      1.00000000      1.00000000      1.00000000      1.00000000</v>
   <i type="logical" name="LCORR"> T  </i>
  </separator>
  <i type="logical" name="GGA_COMPAT"> T  </i>
  <i type="logical" name="LBERRY"> F  </i>
  <i type="int" name="ICORELEVEL">     0</i>
  <i type="logical" name="LDAU"> F  </i>
  <i type="int" name="I_CONSTRAINED_M">     0</i>
  <separator name="electronic exchange-correlation" >
   <i type="string" name="GGA">--</i>
   <i type="int" name="VOSKOWN">     0</i>
   <i type="logical" name="LHFCALC"> F  </i>
   <i type="string" name="PRECFOCK"></i>
   <i type="logical" name="LSYMGRAD"> F  </i>
   <i type="logical" name="LHFONE"> F  </i>
   <i type="logical" name="LRHFCALC"> F  </i>
   <i type="logical" name="LTHOMAS"> F  </i>
   <i type="logical" name="LMODELHF"> F  </i>
   <i type="logical" name="LFOCKACE"> F  </i>
   <i name="ENCUT4O">     -1.00000000</i>
   <i type="int" name="EXXOEP">     0</i>
   <i type="int" name="FOURORBIT">     0</i>
   <i name="AEXX">      0.00000000</i>
   <i name="HFALPHA">      0.00000000</i>
   <i name="MCALPHA">      0.00000000</i>
   <i name="ALDAX">      1.00000000</i>
   <i name="AGGAX">      1.00000000</i>
   <i name="ALDAC">      1.00000000</i>
   <i name="AGGAC">      1.00000000</i>
   <i type="int" name="NKREDX">     1</i>
   <i type="int" name="NKREDY">     1</i>
   <i type="int" name="NKREDZ">     1</i>
   <i type="logical" name="SHIFTRED"> F  </i>
   <i type="logical" name="ODDONLY"> F  </i>
   <i type="logical" name="EVENONLY"> F  </i>
   <i type="int" name="LMAXFOCK">     0</i>
   <i type="int" name="NMAXFOCKAE">     0</i>
   <i type="logical" name="LFOCKAEDFT"> F  </i>
   <i name="HFSCREEN">      0.00000000</i>
   <i name="HFSCREENC">      0.00000000</i>
   <i type="int" name="NBANDSGWLOW">     0</i>
  </separator>
  <separator name="vdW DFT" >
   <i type="logical" name="LUSE_VDW"> F  </i>
   <i type="int" name="IVDW_NL">     1</i>
   <i type="logical" name="LSPIN_VDW"> F  </i>
   <i name="Zab_VDW">     -0.84910000</i>
   <i name="PARAM1">      0.12340000</i>
   <i name="PARAM2">      1.00000000</i>
   <i name="PARAM3">      0.00000000</i>
  </separator>
  <separator name="model GW" >
   <i type="int" name="MODEL_GW">     0</i>
   <i name="MODEL_EPS0">     23.96835834</i>
   <i name="MODEL_ALPHA">      1.00000000</i>
  </separator>
  <separator name="linear response parameters" >
   <i type="logical" name="LEPSILON"> F  </i>
   <i type="logical" name="LRPA"> F  </i>
   <i type="logical" name="LNABLA"> F  </i>
   <i type="logical" name="LVEL"> F  </i>
   <i name="CSHIFT">      0.10000000</i>
   <i name="OMEGAMAX">     -1.00000000</i>
   <i name="DEG_THRESHOLD">      0.00200000</i>
   <i name="RTIME">     -0.10000000</i>
   <i name="WPLASMAI">      0.00000000</i>
   <v name="DFIELD">      0.00000000      0.00000000      0.00000000</v>
   <v name="WPLASMA">      0.00000000      0.00000000      0.00000000      0.00000000      0.00000000      0.00000000      0.00000000      0.00000000      0.00000000</v>
  </separator>
  <separator name="orbital magnetization" >
   <i type="logical" name="NUCIND"> F  </i>
   <v name="MAGPOS">      0.00000000      0.00000000      0.00000000</v>
   <i type="logical" name="LNICSALL"> T  </i>
   <i type="logical" name="ORBITALMAG"> F  </i>
   <i type="logical" name="LMAGBLOCH"> F  </i>
   <i type="logical" name="LCHIMAG"> F  </i>
   <i type="logical" name="LGAUGE"> T  </i>
   <i type="int" name="MAGATOM">     0</i>
   <v name="MAGDIPOL">      0.00000000      0.00000000      0.00000000</v>
   <v name="AVECCONST">      0.00000000      0.00000000      0.00000000</v>
  </separator>
  <separator name="response functions" >
   <i type="logical" name="LALL_IN_ONE"> F  </i>
   <i type="int" name="IALL_IN_ONE">    -1</i>
   <i type="int" name="NBANDS_WAVE">    -1</i>
   <i type="logical" name="LFINITE_TEMPERATURE"> F  </i>
   <i type="logical" name="LADDER"> F  </i>
   <i type="logical" name="LRPAFORCE"> F  </i>
   <i type="logical" name="LFXC"> F  </i>
   <i type="logical" name="LHARTREE"> T  </i>
   <i type="int" name="IBSE">     0</i>
   <v type="int" name="KPOINT">    -1     0     0     0</v>
   <i type="logical" name="LTCTC"> F  </i>
   <i type="logical" name="LTCTE"> F  </i>
   <i type="logical" name="LTETE"> F  </i>
   <i type="logical" name="LTRIPLET"> F  </i>
   <i type="logical" name="LFXCEPS"> F  </i>
   <i type="logical" name="LFXHEG"> F  </i>
   <i type="int" name="NATURALO">     2</i>
   <i type="logical" name="LHOLEGF"> F  </i>
   <i type="logical" name="L2ORDER"> F  </i>
   <i type="logical" name="LDMP1"> F  </i>
   <i type="logical" name="LMP2LT"> F  </i>
   <i type="logical" name="LSMP2LT"> F  </i>
   <i type="logical" name="LGWLF"> F  </i>
   <i name="ENCUTGW">     -1.60000002</i>
   <i name="ENCUTGWSOFT">     -1.60000002</i>
   <i name="ENCUTLF">     -1.00000000</i>
   <i type="logical" name="LESF_SPLINES"> F  </i>
   <i type="int" name="LMAXMP2">    -1</i>
   <i name="SCISSOR">      0.00000000</i>
   <i type="int" name="NOMEGA">     0</i>
   <i type="int" name="NOMEGAR">     0</i>
   <i type="int" name="NBANDSGW">    -1</i>
   <i type="int" name="NBANDSO">    -1</i>
   <i type="int" name="NBANDSV">    -1</i>
   <i type="int" name="NELMGW">     1</i>
   <i type="int" name="NELMHF">     1</i>
   <i type="int" name="DIM">     3</i>
   <i type="int" name="IESPILON">     4</i>
   <i type="int" name="ANTIRES">     0</i>
   <i name="OMEGAMAX">    -30.00000000</i>
   <i name="OMEGAMIN">    -30.00000000</i>
   <i name="OMEGATL">   -200.00000000</i>
   <i type="int" name="OMEGAGRID">     0</i>
   <i name="CSHIFT">     -0.10000000</i>
   <i type="logical" name="LSELFENERGY"> F  </i>
   <i type="logical" name="LSPECTRAL"> F  </i>
   <i type="logical" name="LSPECTRALGW"> F  </i>
   <i type="logical" name="LSINGLES"> F  </i>
   <i type="logical" name="LFERMIGW"> F  </i>
   <i type="logical" name="ODDONLYGW"> F  </i>
   <i type="logical" name="EVENONLYGW"> F  </i>
   <i type="int" name="NKREDLFX">     1</i>
   <i type="int" name="NKREDLFY">     1</i>
   <i type="int" name="NKREDLFZ">     1</i>
   <i type="int" name="MAXMEM">  2800</i>
   <i type="int" name="TELESCOPE">     0</i>
   <i type="int" name="NTAUPAR">    -1</i>
   <i type="int" name="NOMEGAPAR">    -1</i>
   <i name="DAMP_NEWTON">      0.80000001</i>
   <i name="LAMBDA">      1.00000000</i>
  </separator>
  <separator name="External order field" >
   <i name="OFIELD_KAPPA">      0.00000000</i>
   <v name="OFIELD_K">      0.00000000      0.00000000      0.00000000</v>
   <i name="OFIELD_Q6_NEAR">      0.00000000</i>
   <i name="OFIELD_Q6_FAR">      0.00000000</i>
   <i name="OFIELD_A">      0.00000000</i>
  </separator>
  <separator name="optional k-points parameters" >
   <i type="int" name="KPOINTS_OPT_MODE">     1</i>
   <i type="logical" name="LKPOINTS_OPT"> F  </i>
  </separator>
 </parameters>
 <atominfo>
  <atoms>      97 </atoms>
  <types>       4 </types>
  <array name="atoms" >
   <dimension dim="1">ion</dimension>
   <field type="string">element</field>
   <field type="int">atomtype</field>
   <set>
    <rc><c>C </c><c>   1</c></rc>
    <rc><c>C </c><c>   1</c></rc>
    <rc><c>C </c><c>   1</c></rc>
    <rc><c>C </c><c>   1</c></rc>
    <rc><c>C </c><c>   1</c></rc>
    <rc><c>C </c><c>   1</c></rc>
    <rc><c>C </c><c>   1</c></rc>
    <rc><c>C </c><c>   1</c></rc>
    <rc><c>C </c><c>   1</c></rc>
    <rc><c>C </c><c>   1</c></rc>
    <rc><c>C </c><c>   1</c></rc>
    <rc><c>C </c><c>   1</c></rc>
    <rc><c>C </c><c>   1</c></rc>
    <rc><c>C </c><c>   1</c></rc>
    <rc><c>C </c><c>   1</c></rc>
    <rc><c>C </c><c>   1</c></rc>
    <rc><c>C </c><c>   1</c></rc>
    <rc><c>C </c><c>   1</c></rc>
    <rc><c>C </c><c>   1</c></rc>
    <rc><c>C </c><c>   1</c></rc>
    <rc><c>C </c><c>   1</c></rc>
    <rc><c>C </c><c>   1</c></rc>
    <rc><c>C </c><c>   1</c></rc>
    <rc><c>C </c><c>   1</c></rc>
    <rc><c>C </c><c>   1</c></rc>
    <rc><c>C </c><c>   1</c></rc>
    <rc><c>C </c><c>   1</c></rc>
    <rc><c>C </c><c>   1</c></rc>
    <rc><c>C </c><c>   1</c></rc>
    <rc><c>C </c><c>   1</c></rc>
    <rc><c>C </c><c>   1</c></rc>
    <rc><c>C </c><c>   1</c></rc>
    <rc><c>C </c><c>   1</c></rc>
    <rc><c>C </c><c>   1</c></rc>
    <rc><c>C </c><c>   1</c></rc>
    <rc><c>C </c><c>   1</c></rc>
    <rc><c>C </c><c>   1</c></rc>
    <rc><c>C </c><c>   1</c></rc>
    <rc><c>C </c><c>   1</c></rc>
    <rc><c>C </c><c>   1</c></rc>
    <rc><c>C </c><c>   1</c></rc>
    <rc><c>C </c><c>   1</c></rc>
    <rc><c>C </c><c>   1</c></rc>
    <rc><c>C </c><c>   1</c></rc>
    <rc><c>C </c><c>   1</c></rc>
    <rc><c>C </c><c>   1</c></rc>
    <rc><c>C </c><c>   1</c></rc>
    <rc><c>C </c><c>   1</c></rc>
    <rc><c>C </c><c>   1</c></rc>
    <rc><c>C </c><c>   1</c></rc>
    <rc><c>C </c><c>   1</c></rc>
    <rc><c>C </c><c>   1</c></rc>
    <rc><c>C </c><c>   1</c></rc>
    <rc><c>C </c><c>   1</c></rc>
    <rc><c>C </c><c>   1</c></rc>
    <rc><c>C </c><c>   1</c></rc>
    <rc><c>C </c><c>   1</c></rc>
    <rc><c>C </c><c>   1</c></rc>
    <rc><c>C </c><c>   1</c></rc>
    <rc><c>C </c><c>   1</c></rc>
    <rc><c>C </c><c>   1</c></rc>
    <rc><c>C </c><c>   1</c></rc>
    <rc><c>C </c><c>   1</c></rc>
    <rc><c>C </c><c>   1</c></rc>
    <rc><c>C </c><c>   1</c></rc>
    <rc><c>C </c><c>   1</c></rc>
    <rc><c>C </c><c>   1</c></rc>
    <rc><c>C </c><c>   1</c></rc>
    <rc><c>C </c><c>   1</c></rc>
    <rc><c>C </c><c>   1</c></rc>
    <rc><c>C </c><c>   1</c></rc>
    <rc><c>C </c><c>   1</c></rc>
    <rc><c>C </c><c>   1</c></rc>
    <rc><c>C </c><c>   1</c></rc>
    <rc><c>C </c><c>   1</c></rc>
    <rc><c>C </c><c>   1</c></rc>
    <rc><c>C </c><c>   1</c></rc>
    <rc><c>C </c><c>   1</c></rc>
    <rc><c>C </c><c>   1</c></rc>
    <rc><c>C </c><c>   1</c></rc>
    <rc><c>C </c><c>   1</c></rc>
    <rc><c>C </c><c>   1</c></rc>
    <rc><c>C </c><c>   1</c></rc>
    <rc><c>C </c><c>   1</c></rc>
    <rc><c>C </c><c>   1</c></rc>
    <rc><c>C </c><c>   1</c></rc>
    <rc><c>H </c><c>   2</c></rc>
    <rc><c>H </c><c>   2</c></rc>
    <rc><c>H </c><c>   2</c></rc>
    <rc><c>H </c><c>   2</c></rc>
    <rc><c>H </c><c>   2</c></rc>
    <rc><c>H </c><c>   2</c></rc>
    <rc><c>H </c><c>   2</c></rc>
    <rc><c>H </c><c>   2</c></rc>
    <rc><c>N </c><c>   3</c></rc>
    <rc><c>N </c><c>   3</c></rc>
    <rc><c>O </c><c>   4</c></rc>
   </set>
  </array>
  <array name="atomtypes" >
   <dimension dim="1">type</dimension>
   <field type="int">atomspertype</field>
   <field type="string">element</field>
   <field>mass</field>
   <field>valence</field>
   <field type="string">pseudopotential</field>
   <set>
    <rc><c>  86</c><c>C </c><c>     12.01100000</c><c>      4.00000000</c><c>  PAW_PBE C 08Apr2002                   </c></rc>
    <rc><c>   8</c><c>H </c><c>      1.00000000</c><c>      1.00000000</c><c>  PAW_PBE H 15Jun2001                   </c></rc>
    <rc><c>   2</c><c>N </c><c>     14.00100000</c><c>      5.00000000</c><c>  PAW_PBE N 08Apr2002                   </c></rc>
    <rc><c>   1</c><c>O </c><c>     16.00000000</c><c>      6.00000000</c><c>  PAW_PBE O 08Apr2002                   </c></rc>
   </set>
  </array>
 </atominfo>
 <structure name="initialpos" >
  <crystal>
   <varray name="basis" >
    <v>      17.27103806       0.00000000       0.00000000 </v>
    <v>      -8.63551903      14.95715771       0.00000000 </v>
    <v>       0.00000000       0.00000000      15.00000000 </v>
   </varray>
   <i name="volume">   3874.88459904 </i>
   <varray name="rec_basis" >
    <v>       0.05790040       0.03342881       0.00000000 </v>
    <v>       0.00000000       0.06685762       0.00000000 </v>
    <v>       0.00000000       0.00000000       0.06666667 </v>
   </varray>
  </crystal>
  <varray name="positions" >
   <v>       0.00037654       0.99952555       0.49586002 </v>
   <v>       0.99996717       0.14208635       0.49585106 </v>
   <v>       0.00000150       0.28506636       0.49615044 </v>
   <v>       0.99996862       0.42799377       0.49656223 </v>
   <v>       0.00008838       0.57086541       0.49699009 </v>
   <v>       0.00074439       0.71379555       0.49730222 </v>
   <v>       0.00101879       0.85712487       0.49679479 </v>
   <v>       0.14395270       0.00064335       0.49583479 </v>
   <v>       0.14351092       0.14314876       0.49528920 </v>
   <v>       0.14275373       0.28544284       0.49503694 </v>
   <v>       0.14281402       0.42879009       0.49540708 </v>
   <v>       0.14296904       0.57129963       0.49622292 </v>
   <v>       0.14337047       0.71416907       0.49663874 </v>
   <v>       0.14354971       0.85740999       0.49663973 </v>
   <v>       0.28671211       0.00067608       0.49632871 </v>
   <v>       0.28733071       0.14390136       0.49534004 </v>
   <v>       0.28680100       0.28763651       0.49348187 </v>
   <v>       0.28497412       0.42877930       0.49159001 </v>
   <v>       0.28688412       0.57214276       0.49345746 </v>
   <v>       0.28611201       0.71504903       0.49565471 </v>
   <v>       0.28579708       0.85770123       0.49640755 </v>
   <v>       0.42916912       0.00000248       0.49614489 </v>
   <v>       0.43038287       0.14386044       0.49631964 </v>
   <v>       0.42968787       0.28447373       0.49600123 </v>
   <v>       0.42787214       0.85647026       0.49570055 </v>
   <v>       0.57119961       0.99901662       0.49594598 </v>
   <v>       0.57201589       0.14222459       0.49660261 </v>
   <v>       0.57593449       0.28846834       0.49764339 </v>
   <v>       0.57011147       0.85471354       0.49630607 </v>
   <v>       0.71337224       0.99796477       0.49634410 </v>
   <v>       0.71445887       0.14149186       0.49634184 </v>
   <v>       0.71508079       0.28439779       0.49742042 </v>
   <v>       0.71116459       0.42387862       0.49924537 </v>
   <v>       0.71652514       0.57079001       0.50347683 </v>
   <v>       0.71806968       0.71419557       0.50358888 </v>
   <v>       0.71252944       0.85508334       0.49833189 </v>
   <v>       0.85683981       0.99870390       0.49657320 </v>
   <v>       0.85682125       0.14154392       0.49608389 </v>
   <v>       0.85731274       0.28459279       0.49671355 </v>
   <v>       0.85724409       0.42753671       0.49762689 </v>
   <v>       0.85683212       0.56990880       0.49872691 </v>
   <v>       0.85884089       0.71372714       0.49934651 </v>
   <v>       0.85767488       0.85614308       0.49793400 </v>
   <v>       0.04810547       0.09493636       0.49566869 </v>
   <v>       0.04732344       0.23727450       0.49579570 </v>
   <v>       0.04734809       0.38047949       0.49619133 </v>
   <v>       0.04774814       0.52338408       0.49663014 </v>
   <v>       0.04806147       0.66626470       0.49696134 </v>
   <v>       0.04822853       0.80924443       0.49688594 </v>
   <v>       0.04845329       0.95231960       0.49602723 </v>
   <v>       0.19167879       0.09577883       0.49534622 </v>
   <v>       0.19086561       0.23836699       0.49469717 </v>
   <v>       0.18946611       0.38060426       0.49434165 </v>
   <v>       0.19080164       0.52432173       0.49537623 </v>
   <v>       0.19076148       0.66674695       0.49617196 </v>
   <v>       0.19086104       0.80970205       0.49661201 </v>
   <v>       0.19150259       0.95282151       0.49631328 </v>
   <v>       0.33496503       0.09638081       0.49598692 </v>
   <v>       0.33613593       0.23948148       0.49483416 </v>
   <v>       0.33081322       0.38043411       0.49092622 </v>
   <v>       0.33039211       0.52326162       0.49019170 </v>
   <v>       0.33673894       0.67038582       0.49455343 </v>
   <v>       0.33309252       0.80985668       0.49595568 </v>
   <v>       0.33377858       0.95276442       0.49637365 </v>
   <v>       0.47701691       0.09517033       0.49640460 </v>
   <v>       0.47819051       0.23954925       0.49660213 </v>
   <v>       0.47234550       0.80565808       0.49553058 </v>
   <v>       0.47620848       0.95192593       0.49588728 </v>
   <v>       0.61906762       0.09416750       0.49628185 </v>
   <v>       0.62033107       0.23763727       0.49726690 </v>
   <v>       0.61903544       0.81027814       0.49745757 </v>
   <v>       0.61792750       0.95044012       0.49619752 </v>
   <v>       0.76159269       0.09365154       0.49608047 </v>
   <v>       0.76240870       0.23657131       0.49681704 </v>
   <v>       0.76191848       0.37924038       0.49811549 </v>
   <v>       0.76055352       0.52219021       0.50052744 </v>
   <v>       0.76345903       0.66548136       0.50248282 </v>
   <v>       0.76180636       0.80693023       0.50000789 </v>
   <v>       0.76116956       0.95060585       0.49701334 </v>
   <v>       0.90446816       0.09379600       0.49605126 </v>
   <v>       0.90469080       0.23693489       0.49627058 </v>
   <v>       0.90468891       0.38012287       0.49700427 </v>
   <v>       0.90482707       0.52299453       0.49763686 </v>
   <v>       0.90528409       0.66543102       0.49837995 </v>
   <v>       0.90560230       0.80889417       0.49796315 </v>
   <v>       0.90500712       0.95135386       0.49659009 </v>
   <v>       0.46874720       0.35716484       0.49667231 </v>
   <v>       0.40339481       0.41862249       0.48932591 </v>
   <v>       0.40263427       0.56128086       0.48599174 </v>
   <v>       0.64576866       0.67533516       0.50706930 </v>
   <v>       0.64392385       0.53506302       0.50594106 </v>
   <v>       0.58046489       0.73765988       0.49757002 </v>
   <v>       0.49920045       0.56482604       0.54552743 </v>
   <v>       0.51434702       0.56644772       0.44394243 </v>
   <v>       0.42687261       0.71509200       0.49480788 </v>
   <v>       0.62115479       0.37888604       0.49881473 </v>
   <v>       0.52710510       0.54671886       0.50000005 </v>
  </varray>
  <varray name="selective"  type="logical" >
   <v type="logical" >  T  T  T </v>
   <v type="logical" >  T  T  T </v>
   <v type="logical" >  T  T  T </v>
   <v type="logical" >  T  T  T </v>
   <v type="logical" >  T  T  T </v>
   <v type="logical" >  T  T  T </v>
   <v type="logical" >  T  T  T </v>
   <v type="logical" >  T  T  T </v>
   <v type="logical" >  T  T  T </v>
   <v type="logical" >  T  T  T </v>
   <v type="logical" >  T  T  T </v>
   <v type="logical" >  T  T  T </v>
   <v type="logical" >  T  T  T </v>
   <v type="logical" >  T  T  T </v>
   <v type="logical" >  T  T  T </v>
   <v type="logical" >  T  T  T </v>
   <v type="logical" >  T  T  T </v>
   <v type="logical" >  T  T  T </v>
   <v type="logical" >  T  T  T </v>
   <v type="logical" >  T  T  T </v>
   <v type="logical" >  T  T  T </v>
   <v type="logical" >  T  T  T </v>
   <v type="logical" >  T  T  T </v>
   <v type="logical" >  T  T  T </v>
   <v type="logical" >  T  T  T </v>
   <v type="logical" >  T  T  T </v>
   <v type="logical" >  T  T  T </v>
   <v type="logical" >  T  T  T </v>
   <v type="logical" >  T  T  T </v>
   <v type="logical" >  T  T  T </v>
   <v type="logical" >  T  T  T </v>
   <v type="logical" >  T  T  T </v>
   <v type="logical" >  T  T  T </v>
   <v type="logical" >  T  T  T </v>
   <v type="logical" >  T  T  T </v>
   <v type="logical" >  T  T  T </v>
   <v type="logical" >  T  T  T </v>
   <v type="logical" >  T  T  T </v>
   <v type="logical" >  T  T  T </v>
   <v type="logical" >  T  T  T </v>
   <v type="logical" >  T  T  T </v>
   <v type="logical" >  T  T  T </v>
   <v type="logical" >  T  T  T </v>
   <v type="logical" >  T  T  T </v>
   <v type="logical" >  T  T  T </v>
   <v type="logical" >  T  T  T </v>
   <v type="logical" >  T  T  T </v>
   <v type="logical" >  T  T  T </v>
   <v type="logical" >  T  T  T </v>
   <v type="logical" >  T  T  T </v>
   <v type="logical" >  T  T  T </v>
   <v type="logical" >  T  T  T </v>
   <v type="logical" >  T  T  T </v>
   <v type="logical" >  T  T  T </v>
   <v type="logical" >  T  T  T </v>
   <v type="logical" >  T  T  T </v>
   <v type="logical" >  T  T  T </v>
   <v type="logical" >  T  T  T </v>
   <v type="logical" >  T  T  T </v>
   <v type="logical" >  T  T  T </v>
   <v type="logical" >  T  T  T </v>
   <v type="logical" >  T  T  T </v>
   <v type="logical" >  T  T  T </v>
   <v type="logical" >  T  T  T </v>
   <v type="logical" >  T  T  T </v>
   <v type="logical" >  T  T  T </v>
   <v type="logical" >  T  T  T </v>
   <v type="logical" >  T  T  T </v>
   <v type="logical" >  T  T  T </v>
   <v type="logical" >  T  T  T </v>
   <v type="logical" >  T  T  T </v>
   <v type="logical" >  T  T  T </v>
   <v type="logical" >  T  T  T </v>
   <v type="logical" >  T  T  T </v>
   <v type="logical" >  T  T  T </v>
   <v type="logical" >  T  T  T </v>
   <v type="logical" >  T  T  T </v>
   <v type="logical" >  T  T  T </v>
   <v type="logical" >  T  T  T </v>
   <v type="logical" >  T  T  T </v>
   <v type="logical" >  T  T  T </v>
   <v type="logical" >  T  T  T </v>
   <v type="logical" >  T  T  T </v>
   <v type="logical" >  T  T  T </v>
   <v type="logical" >  T  T  T </v>
   <v type="logical" >  T  T  T </v>
   <v type="logical" >  T  T  T </v>
   <v type="logical" >  T  T  T </v>
   <v type="logical" >  T  T  T </v>
   <v type="logical" >  T  T  T </v>
   <v type="logical" >  T  T  T </v>
   <v type="logical" >  T  T  T </v>
   <v type="logical" >  T  T  T </v>
   <v type="logical" >  T  T  T </v>
   <v type="logical" >  T  T  T </v>
   <v type="logical" >  T  T  T </v>
   <v type="logical" >  T  T  T </v>
  </varray>
  <nose>
   <v>      -3.00000000       0.00000000       0.00010000       0.00010000 </v>
  </nose>
 </structure>
 <calculation>
  <scstep>
   <time name="dav">   80.76   81.30</time>
   <time name="total">   85.83   86.45</time>
   <energy>
    <i name="alphaZ">    175.87611319 </i>
    <i name="ewald">  36657.56233898 </i>
    <i name="hartreedc"> -46853.66046968 </i>
    <i name="XCdc">   1224.31949218 </i>
    <i name="pawpsdc">  10101.41315093 </i>
    <i name="pawaedc"> -10154.35997595 </i>
    <i name="eentropy">     -0.04008644 </i>
    <i name="bandstr">  -1604.74294797 </i>
    <i name="atom">  13716.13071916 </i>
    <i name="e_fr_energy">   3262.49833440 </i>
    <i name="e_wo_entrp">   3262.53842083 </i>
    <i name="e_0_energy">   3262.51837762 </i>
   </energy>
  </scstep>
  <scstep>
   <time name="dav">  103.12  103.87</time>
   <time name="total">  103.13  103.89</time>
   <energy>
    <i name="e_fr_energy">   -251.84887923 </i>
    <i name="e_wo_entrp">   -251.84886411 </i>
    <i name="e_0_energy">   -251.84887167 </i>
   </energy>
  </scstep>
  <scstep>
   <time name="dav">   90.21   90.86</time>
   <time name="total">   90.21   90.87</time>
   <energy>
    <i name="e_fr_energy">   -864.45579330 </i>
    <i name="e_wo_entrp">   -864.45576052 </i>
    <i name="e_0_energy">   -864.45577691 </i>
   </energy>
  </scstep>
  <scstep>
   <time name="dav">   92.45   93.19</time>
   <time name="total">   92.45   93.21</time>
   <energy>
    <i name="e_fr_energy">   -886.53931593 </i>
    <i name="e_wo_entrp">   -886.53927409 </i>
    <i name="e_0_energy">   -886.53929501 </i>
   </energy>
  </scstep>
  <scstep>
   <time name="dav">  100.87  101.60</time>
   <time name="total">  106.67  107.45</time>
   <energy>
    <i name="e_fr_energy">   -887.16777403 </i>
    <i name="e_wo_entrp">   -887.16772929 </i>
    <i name="e_0_energy">   -887.16775166 </i>
   </energy>
  </scstep>
  <scstep>
   <time name="dav">   88.20   88.86</time>
   <time name="total">  100.40  101.18</time>
   <energy>
    <i name="e_fr_energy">   -869.80787735 </i>
    <i name="e_wo_entrp">   -869.80285748 </i>
    <i name="e_0_energy">   -869.80536742 </i>
   </energy>
  </scstep>
  <scstep>
   <time name="dav">   86.26   86.85</time>
   <time name="total">   98.44   99.15</time>
   <energy>
    <i name="e_fr_energy">   -847.47812599 </i>
    <i name="e_wo_entrp">   -847.47806661 </i>
    <i name="e_0_energy">   -847.47809630 </i>
   </energy>
  </scstep>
  <scstep>
   <time name="dav">   87.07   87.67</time>
   <time name="total">   99.24   99.98</time>
   <energy>
    <i name="e_fr_energy">   -842.62993750 </i>
    <i name="e_wo_entrp">   -842.62993580 </i>
    <i name="e_0_energy">   -842.62993665 </i>
   </energy>
  </scstep>
  <scstep>
   <time name="dav">   86.70   87.28</time>
   <time name="total">   98.90   99.66</time>
   <energy>
    <i name="e_fr_energy">   -842.48957015 </i>
    <i name="e_wo_entrp">   -842.48956867 </i>
    <i name="e_0_energy">   -842.48956941 </i>
   </energy>
  </scstep>
  <scstep>
   <time name="dav">   85.03   85.63</time>
   <time name="total">   97.14   97.88</time>
   <energy>
    <i name="e_fr_energy">   -842.41212553 </i>
    <i name="e_wo_entrp">   -842.41212406 </i>
    <i name="e_0_energy">   -842.41212480 </i>
   </energy>
  </scstep>
  <scstep>
   <time name="dav">   83.82   84.42</time>
   <time name="total">   96.02   96.73</time>
   <energy>
    <i name="e_fr_energy">   -842.40020443 </i>
    <i name="e_wo_entrp">   -842.40020315 </i>
    <i name="e_0_energy">   -842.40020379 </i>
   </energy>
  </scstep>
  <scstep>
   <time name="dav">   90.06   90.68</time>
   <time name="total">  102.23  102.96</time>
   <energy>
    <i name="e_fr_energy">   -842.39938932 </i>
    <i name="e_wo_entrp">   -842.39938807 </i>
    <i name="e_0_energy">   -842.39938869 </i>
   </energy>
  </scstep>
  <scstep>
   <time name="dav">   88.00   88.58</time>
   <time name="total">  100.05  100.77</time>
   <energy>
    <i name="e_fr_energy">   -842.39919829 </i>
    <i name="e_wo_entrp">   -842.39919701 </i>
    <i name="e_0_energy">   -842.39919765 </i>
   </energy>
  </scstep>
  <scstep>
   <time name="dav">   83.54   84.11</time>
   <time name="total">   95.60   96.30</time>
   <energy>
    <i name="e_fr_energy">   -842.39928614 </i>
    <i name="e_wo_entrp">   -842.39928487 </i>
    <i name="e_0_energy">   -842.39928550 </i>
   </energy>
  </scstep>
  <scstep>
   <time name="dav">   83.63   84.14</time>
   <time name="total">   95.77   96.39</time>
   <energy>
    <i name="e_fr_energy">   -842.39933275 </i>
    <i name="e_wo_entrp">   -842.39933148 </i>
    <i name="e_0_energy">   -842.39933212 </i>
   </energy>
  </scstep>
  <scstep>
   <time name="dav">   87.27   87.82</time>
   <time name="total">   99.37  100.06</time>
   <energy>
    <i name="e_fr_energy">   -842.39933544 </i>
    <i name="e_wo_entrp">   -842.39933416 </i>
    <i name="e_0_energy">   -842.39933480 </i>
   </energy>
  </scstep>
  <scstep>
   <time name="dav">   75.94   76.42</time>
   <time name="total">   82.12   82.66</time>
   <energy>
    <i name="alphaZ">    175.87611319 </i>
    <i name="ewald">  36657.56233898 </i>
    <i name="hartreedc"> -48377.99927036 </i>
    <i name="XCdc">   1274.39198105 </i>
    <i name="pawpsdc">  37324.72229352 </i>
    <i name="pawaedc"> -37388.56237157 </i>
    <i name="eentropy">     -0.00000128 </i>
    <i name="bandstr">  -4224.52113751 </i>
    <i name="atom">  13716.13071916 </i>
    <i name="e_fr_energy">   -842.39933483 </i>
    <i name="e_wo_entrp">   -842.39933355 </i>
    <i name="e_0_energy">   -842.39933419 </i>
   </energy>
  </scstep>
  <structure>
   <crystal>
    <varray name="basis" >
     <v>      17.27103806       0.00000000       0.00000000 </v>
     <v>      -8.63551903      14.95715771       0.00000000 </v>
     <v>       0.00000000       0.00000000      15.00000000 </v>
    </varray>
    <i name="volume">   3874.88459904 </i>
    <varray name="rec_basis" >
     <v>       0.05790040       0.03342881       0.00000000 </v>
     <v>       0.00000000       0.06685762       0.00000000 </v>
     <v>       0.00000000       0.00000000       0.06666667 </v>
    </varray>
   </crystal>
   <varray name="positions" >
    <v>       0.00037654       0.99952555       0.49586002 </v>
    <v>       0.99996717       0.14208635       0.49585106 </v>
    <v>       0.00000150       0.28506636       0.49615044 </v>
    <v>       0.99996862       0.42799377       0.49656223 </v>
    <v>       0.00008838       0.57086541       0.49699009 </v>
    <v>       0.00074439       0.71379555       0.49730222 </v>
    <v>       0.00101879       0.85712487       0.49679479 </v>
    <v>       0.14395270       0.00064335       0.49583479 </v>
    <v>       0.14351092       0.14314876       0.49528920 </v>
    <v>       0.14275373       0.28544284       0.49503694 </v>
    <v>       0.14281402       0.42879009       0.49540708 </v>
    <v>       0.14296904       0.57129963       0.49622292 </v>
    <v>       0.14337047       0.71416907       0.49663874 </v>
    <v>       0.14354971       0.85740999       0.49663973 </v>
    <v>       0.28671211       0.00067608       0.49632871 </v>
    <v>       0.28733071       0.14390136       0.49534004 </v>
    <v>       0.28680100       0.28763651       0.49348187 </v>
    <v>       0.28497412       0.42877930       0.49159001 </v>
    <v>       0.28688412       0.57214276       0.49345746 </v>
    <v>       0.28611201       0.71504903       0.49565471 </v>
    <v>       0.28579708       0.85770123       0.49640755 </v>
    <v>       0.42916912       0.00000248       0.49614489 </v>
    <v>       0.43038287       0.14386044       0.49631964 </v>
    <v>       0.42968787       0.28447373       0.49600123 </v>
    <v>       0.42787214       0.85647026       0.49570055 </v>
    <v>       0.57119961       0.99901662       0.49594598 </v>
    <v>       0.57201589       0.14222459       0.49660261 </v>
    <v>       0.57593449       0.28846834       0.49764339 </v>
    <v>       0.57011147       0.85471354       0.49630607 </v>
    <v>       0.71337224       0.99796477       0.49634410 </v>
    <v>       0.71445887       0.14149186       0.49634184 </v>
    <v>       0.71508079       0.28439779       0.49742042 </v>
    <v>       0.71116459       0.42387862       0.49924537 </v>
    <v>       0.71652514       0.57079001       0.50347683 </v>
    <v>       0.71806968       0.71419557       0.50358888 </v>
    <v>       0.71252944       0.85508334       0.49833189 </v>
    <v>       0.85683981       0.99870390       0.49657320 </v>
    <v>       0.85682125       0.14154392       0.49608389 </v>
    <v>       0.85731274       0.28459279       0.49671355 </v>
    <v>       0.85724409       0.42753671       0.49762689 </v>
    <v>       0.85683212       0.56990880       0.49872691 </v>
    <v>       0.85884089       0.71372714       0.49934651 </v>
    <v>       0.85767488       0.85614308       0.49793400 </v>
    <v>       0.04810547       0.09493636       0.49566869 </v>
    <v>       0.04732344       0.23727450       0.49579570 </v>
    <v>       0.04734809       0.38047949       0.49619133 </v>
    <v>       0.04774814       0.52338408       0.49663014 </v>
    <v>       0.04806147       0.66626470       0.49696134 </v>
    <v>       0.04822853       0.80924443       0.49688594 </v>
    <v>       0.04845329       0.95231960       0.49602723 </v>
    <v>       0.19167879       0.09577883       0.49534622 </v>
    <v>       0.19086561       0.23836699       0.49469717 </v>
    <v>       0.18946611       0.38060426       0.49434165 </v>
    <v>       0.19080164       0.52432173       0.49537623 </v>
    <v>       0.19076148       0.66674695       0.49617196 </v>
    <v>       0.19086104       0.80970205       0.49661201 </v>
    <v>       0.19150259       0.95282151       0.49631328 </v>
    <v>       0.33496503       0.09638081       0.49598692 </v>
    <v>       0.33613593       0.23948148       0.49483416 </v>
    <v>       0.33081322       0.38043411       0.49092622 </v>
    <v>       0.33039211       0.52326162       0.49019170 </v>
    <v>       0.33673894       0.67038582       0.49455343 </v>
    <v>       0.33309252       0.80985668       0.49595568 </v>
    <v>       0.33377858       0.95276442       0.49637365 </v>
    <v>       0.47701691       0.09517033       0.49640460 </v>
    <v>       0.47819051       0.23954925       0.49660213 </v>
    <v>       0.47234550       0.80565808       0.49553058 </v>
    <v>       0.47620848       0.95192593       0.49588728 </v>
    <v>       0.61906762       0.09416750       0.49628185 </v>
    <v>       0.62033107       0.23763727       0.49726690 </v>
    <v>       0.61903544       0.81027814       0.49745757 </v>
    <v>       0.61792750       0.95044012       0.49619752 </v>
    <v>       0.76159269       0.09365154       0.49608047 </v>
    <v>       0.76240870       0.23657131       0.49681704 </v>
    <v>       0.76191848       0.37924038       0.49811549 </v>
    <v>       0.76055352       0.52219021       0.50052744 </v>
    <v>       0.76345903       0.66548136       0.50248282 </v>
    <v>       0.76180636       0.80693023       0.50000789 </v>
    <v>       0.76116956       0.95060585       0.49701334 </v>
    <v>       0.90446816       0.09379600       0.49605126 </v>
    <v>       0.90469080       0.23693489       0.49627058 </v>
    <v>       0.90468891       0.38012287       0.49700427 </v>
    <v>       0.90482707       0.52299453       0.49763686 </v>
    <v>       0.90528409       0.66543102       0.49837995 </v>
    <v>       0.90560230       0.80889417       0.49796315 </v>
    <v>       0.90500712       0.95135386       0.49659009 </v>
    <v>       0.46874720       0.35716484       0.49667231 </v>
    <v>       0.40339481       0.41862249       0.48932591 </v>
    <v>       0.40263427       0.56128086       0.48599174 </v>
    <v>       0.64576866       0.67533516       0.50706930 </v>
    <v>       0.64392385       0.53506302       0.50594106 </v>
    <v>       0.58046489       0.73765988       0.49757002 </v>
    <v>       0.49920045       0.56482604       0.54552743 </v>
    <v>       0.51434702       0.56644772       0.44394243 </v>
    <v>       0.42687261       0.71509200       0.49480788 </v>
    <v>       0.62115479       0.37888604       0.49881473 </v>
    <v>       0.52710510       0.54671886       0.50000005 </v>
   </varray>
  </structure>
  <varray name="forces" >
   <v>      -0.00106643       0.00379652       0.00135096 </v>
   <v>       0.00053146       0.00088078       0.00008898 </v>
   <v>       0.00184126      -0.00111610      -0.00246500 </v>
   <v>      -0.00056485       0.00449031      -0.00219031 </v>
   <v>       0.00015612       0.01003063      -0.00145315 </v>
   <v>       0.01346935      -0.01061326       0.00063371 </v>
   <v>       0.00441297      -0.00212775      -0.00033117 </v>
   <v>      -0.00392771       0.00354680       0.00042462 </v>
   <v>       0.00299521       0.00214498      -0.00026163 </v>
   <v>       0.00164846      -0.00011346      -0.00187356 </v>
   <v>       0.00256863       0.00582226       0.00014868 </v>
   <v>      -0.00277070       0.00628730      -0.00179567 </v>
   <v>      -0.00211510      -0.00534317      -0.00075787 </v>
   <v>       0.00366625      -0.00808789       0.00061530 </v>
   <v>       0.00056078       0.00005688      -0.00017693 </v>
   <v>       0.00140191       0.00000367      -0.00156334 </v>
   <v>       0.00076943      -0.00119828      -0.00026617 </v>
   <v>      -0.00064170       0.00101315      -0.00006124 </v>
   <v>      -0.00574511       0.00359254      -0.00242222 </v>
   <v>      -0.00656905      -0.00747885      -0.00170702 </v>
   <v>      -0.01140521      -0.00562433      -0.00089768 </v>
   <v>      -0.00423274      -0.00588998      -0.00067671 </v>
   <v>      -0.00285970      -0.00661981      -0.00041074 </v>
   <v>       0.00266498      -0.00370118      -0.00178659 </v>
   <v>      -0.00919448      -0.00303576      -0.00015338 </v>
   <v>      -0.00278647      -0.00494096       0.00046045 </v>
   <v>      -0.00314064      -0.02447249      -0.00057702 </v>
   <v>      -0.00423095      -0.00128471       0.00030001 </v>
   <v>      -0.00043270      -0.00216758      -0.00058647 </v>
   <v>       0.00028744      -0.00337556       0.00063735 </v>
   <v>      -0.00405125      -0.00707711       0.00049085 </v>
   <v>      -0.00732200      -0.00321844       0.00079140 </v>
   <v>      -0.00580900      -0.00213303       0.00028878 </v>
   <v>      -0.00056834      -0.00357626       0.00104490 </v>
   <v>      -0.00060250       0.00208999      -0.00146537 </v>
   <v>      -0.00297414      -0.00203712       0.00075759 </v>
   <v>      -0.00026813       0.00074900       0.00083187 </v>
   <v>       0.00344976      -0.00202481       0.00012134 </v>
   <v>      -0.00401408       0.00393503      -0.00020184 </v>
   <v>      -0.00100150       0.00384558      -0.00013102 </v>
   <v>       0.00189160      -0.00031876      -0.00009676 </v>
   <v>       0.00256157      -0.00517338       0.00051656 </v>
   <v>      -0.00119297       0.00067154       0.00114316 </v>
   <v>      -0.00050864      -0.00468019       0.00041447 </v>
   <v>      -0.00087431       0.00116277      -0.00168660 </v>
   <v>      -0.00087117      -0.00096610       0.00005042 </v>
   <v>       0.00147045      -0.00708736      -0.00224393 </v>
   <v>      -0.00839919       0.00182764       0.00141348 </v>
   <v>      -0.00804850       0.01006616      -0.00042757 </v>
   <v>       0.00030115      -0.00079194       0.00076214 </v>
   <v>      -0.00042411      -0.00287387      -0.00088167 </v>
   <v>       0.00134983      -0.00186139       0.00034487 </v>
   <v>       0.00081822      -0.00087447       0.00030101 </v>
   <v>       0.00284507      -0.00500989      -0.00328187 </v>
   <v>       0.00574561      -0.00069568      -0.00190195 </v>
   <v>       0.00353463       0.01252318      -0.00025952 </v>
   <v>      -0.00003502       0.00158160      -0.00082659 </v>
   <v>      -0.00070959       0.00121619      -0.00066621 </v>
   <v>      -0.00077017       0.00083544      -0.00120703 </v>
   <v>      -0.00015093       0.00002577      -0.00171966 </v>
   <v>       0.00507937      -0.00263596      -0.00187346 </v>
   <v>       0.00459190       0.00129384      -0.00077007 </v>
   <v>       0.01248551       0.01055930      -0.00143774 </v>
   <v>       0.00278023       0.00250094      -0.00068255 </v>
   <v>       0.00983880       0.01619485       0.00045329 </v>
   <v>       0.00203114       0.00724941       0.00042362 </v>
   <v>       0.00139132       0.00229725      -0.00049874 </v>
   <v>       0.00435282       0.00001516      -0.00028008 </v>
   <v>       0.00248596       0.01432652      -0.00081260 </v>
   <v>       0.00622177       0.01604476       0.00116036 </v>
   <v>      -0.00073290       0.00365605       0.00146324 </v>
   <v>       0.00182736       0.00137282      -0.00037541 </v>
   <v>      -0.00043383       0.00337303       0.00092412 </v>
   <v>       0.00233369       0.00232139       0.00090755 </v>
   <v>       0.00268210      -0.00087549      -0.00031412 </v>
   <v>       0.00039091       0.00065121       0.00052535 </v>
   <v>       0.00098085       0.00234120       0.00101954 </v>
   <v>       0.00122526      -0.00329781       0.00105576 </v>
   <v>      -0.00100142       0.00064097       0.00073297 </v>
   <v>      -0.00372036       0.00305746      -0.00055761 </v>
   <v>       0.00060582      -0.00021356      -0.00186512 </v>
   <v>       0.00154307      -0.00386926      -0.00220040 </v>
   <v>      -0.00273256      -0.00387869       0.00025678 </v>
   <v>      -0.00800193       0.00386363       0.00064619 </v>
   <v>      -0.00143512       0.00319514       0.00077224 </v>
   <v>       0.00129493      -0.00207431       0.00198431 </v>
   <v>      -0.00017660       0.00119700      -0.00044910 </v>
   <v>      -0.00011925      -0.00032615      -0.00220945 </v>
   <v>      -0.00154556      -0.00042425      -0.00146986 </v>
   <v>      -0.00163695       0.00006386      -0.00114694 </v>
   <v>       0.00104617      -0.00027463      -0.00076752 </v>
   <v>      -0.00008658      -0.00225120       0.00175745 </v>
   <v>       0.00310821      -0.00633067       0.00527406 </v>
   <v>       0.00179952       0.00095211       0.00602964 </v>
   <v>      -0.00315563      -0.00358004      -0.00060408 </v>
   <v>       0.00392243       0.00002436       0.00052845 </v>
   <v>       0.00009645      -0.00176502       0.01787850 </v>
  </varray>
  <varray name="stress" >
   <v>       3.31733144      -2.52652466       0.00621219 </v>
   <v>      -2.52652470      -4.33507849      -0.01061862 </v>
   <v>       0.00621145      -0.01061906      -0.27000623 </v>
  </varray>
  <energy>
   <i name="e_fr_energy">   -850.16090529 </i>
   <i name="e_wo_entrp">   -850.16090402 </i>
   <i name="e_0_energy">   -850.16090465 </i>
  </energy>
  <time name="totalsc"> 1800.79 1814.05</time>
 </calculation>
 <calculation>
  <scstep>
   <time name="dav">   78.90   79.43</time>
   <time name="total">   90.41   91.02</time>
   <energy>
    <i name="alphaZ">    175.87611319 </i>
    <i name="ewald">  36657.56077278 </i>
    <i name="hartreedc"> -48377.99107127 </i>
    <i name="XCdc">   1274.39259316 </i>
    <i name="pawpsdc">  37324.84700358 </i>
    <i name="pawaedc"> -37388.68685770 </i>
    <i name="eentropy">     -0.00000127 </i>
    <i name="bandstr">  -4224.52862659 </i>
    <i name="atom">  13716.13071916 </i>
    <i name="e_fr_energy">   -842.39935496 </i>
    <i name="e_wo_entrp">   -842.39935368 </i>
    <i name="e_0_energy">   -842.39935432 </i>
   </energy>
  </scstep>
  <scstep>
   <time name="dav">   83.67   84.24</time>
   <time name="total">   94.61   95.28</time>
   <energy>
    <i name="e_fr_energy">   -842.39935720 </i>
    <i name="e_wo_entrp">   -842.39935593 </i>
    <i name="e_0_energy">   -842.39935657 </i>
   </energy>
  </scstep>
  <scstep>
   <time name="dav">   65.46   65.87</time>
   <time name="total">   70.76   71.24</time>
   <energy>
    <i name="alphaZ">    175.87611319 </i>
    <i name="ewald">  36657.56077278 </i>
    <i name="hartreedc"> -48377.98271736 </i>
    <i name="XCdc">   1274.39245214 </i>
    <i name="pawpsdc">  37324.64855093 </i>
    <i name="pawaedc"> -37388.48844962 </i>
    <i name="eentropy">     -0.00000127 </i>
    <i name="bandstr">  -4224.53679631 </i>
    <i name="atom">  13716.13071916 </i>
    <i name="e_fr_energy">   -842.39935636 </i>
    <i name="e_wo_entrp">   -842.39935509 </i>
    <i name="e_0_energy">   -842.39935573 </i>
   </energy>
  </scstep>
  <structure>
   <crystal>
    <varray name="basis" >
     <v>      17.27103806       0.00000000       0.00000000 </v>
     <v>      -8.63551903      14.95715771       0.00000000 </v>
     <v>       0.00000000       0.00000000      15.00000000 </v>
    </varray>
    <i name="volume">   3874.88459904 </i>
    <varray name="rec_basis" >
     <v>       0.05790040       0.03342881       0.00000000 </v>
     <v>       0.00000000       0.06685762       0.00000000 </v>
     <v>       0.00000000       0.00000000       0.06666667 </v>
    </varray>
   </crystal>
   <varray name="positions" >
    <v>       0.00037725       0.99952810       0.49586094 </v>
    <v>       0.99996782       0.14208695       0.49585111 </v>
    <v>       0.00000224       0.28506562       0.49614874 </v>
    <v>       0.99996982       0.42799677       0.49656066 </v>
    <v>       0.00009186       0.57087212       0.49698905 </v>
    <v>       0.00074869       0.71378847       0.49730267 </v>
    <v>       0.00102070       0.85712348       0.49679464 </v>
    <v>       0.14395167       0.00064574       0.49583506 </v>
    <v>       0.14351342       0.14315021       0.49528906 </v>
    <v>       0.14275469       0.28544277       0.49503579 </v>
    <v>       0.14281749       0.42879399       0.49540725 </v>
    <v>       0.14296956       0.57130385       0.49622169 </v>
    <v>       0.14336750       0.71416551       0.49663816 </v>
    <v>       0.14354919       0.85740460       0.49664009 </v>
    <v>       0.28671251       0.00067613       0.49632859 </v>
    <v>       0.28733158       0.14390138       0.49533908 </v>
    <v>       0.28680110       0.28763573       0.49348192 </v>
    <v>       0.28497415       0.42878000       0.49159030 </v>
    <v>       0.28688199       0.57214518       0.49345605 </v>
    <v>       0.28610574       0.71504404       0.49565361 </v>
    <v>       0.28578865       0.85769748       0.49640693 </v>
    <v>       0.42916475      -0.00000145       0.49614446 </v>
    <v>       0.43037905       0.14385602       0.49631944 </v>
    <v>       0.42968823       0.28447127       0.49600020 </v>
    <v>       0.42786585       0.85646823       0.49570051 </v>
    <v>       0.57119640       0.99901332       0.49594632 </v>
    <v>       0.57200594       0.14220823       0.49660224 </v>
    <v>       0.57593166       0.28846749       0.49764378 </v>
    <v>       0.57011054       0.85471208       0.49630594 </v>
    <v>       0.71337132       0.99796252       0.49634464 </v>
    <v>       0.71445420       0.14148713       0.49634211 </v>
    <v>       0.71507552       0.28439566       0.49742096 </v>
    <v>       0.71116055       0.42387722       0.49924593 </v>
    <v>       0.71652367       0.57078766       0.50347869 </v>
    <v>       0.71807007       0.71419696       0.50358937 </v>
    <v>       0.71252710       0.85508198       0.49833297 </v>
    <v>       0.85683996       0.99870441       0.49657390 </v>
    <v>       0.85682262       0.14154257       0.49608393 </v>
    <v>       0.85731177       0.28459543       0.49671332 </v>
    <v>       0.85724483       0.42753929       0.49762680 </v>
    <v>       0.85683314       0.56990860       0.49872712 </v>
    <v>       0.85884073       0.71372372       0.49934735 </v>
    <v>       0.85767447       0.85614354       0.49793512 </v>
    <v>       0.04810367       0.09493325       0.49566896 </v>
    <v>       0.04732337       0.23727529       0.49579457 </v>
    <v>       0.04734730       0.38047885       0.49619131 </v>
    <v>       0.04774665       0.52337935       0.49662855 </v>
    <v>       0.04805726       0.66626593       0.49696222 </v>
    <v>       0.04822730       0.80925118       0.49688565 </v>
    <v>       0.04845326       0.95231909       0.49602774 </v>
    <v>       0.19167765       0.09577693       0.49534567 </v>
    <v>       0.19086583       0.23836576       0.49469751 </v>
    <v>       0.18946634       0.38060369       0.49434202 </v>
    <v>       0.19080162       0.52431839       0.49537412 </v>
    <v>       0.19076461       0.66674650       0.49617066 </v>
    <v>       0.19086732       0.80971044       0.49661177 </v>
    <v>       0.19150316       0.95282258       0.49631270 </v>
    <v>       0.33496508       0.09638163       0.49598653 </v>
    <v>       0.33613582       0.23948206       0.49483352 </v>
    <v>       0.33081321       0.38043415       0.49092547 </v>
    <v>       0.33039414       0.52325986       0.49019081 </v>
    <v>       0.33674205       0.67038670       0.49455307 </v>
    <v>       0.33310332       0.80986375       0.49595474 </v>
    <v>       0.33378108       0.95276610       0.49637319 </v>
    <v>       0.47702807       0.09518116       0.49640494 </v>
    <v>       0.47819416       0.23955411       0.49660256 </v>
    <v>       0.47234712       0.80565961       0.49553042 </v>
    <v>       0.47621106       0.95192594       0.49588713 </v>
    <v>       0.61907389       0.09417708       0.49628129 </v>
    <v>       0.62034008       0.23764800       0.49726773 </v>
    <v>       0.61903631       0.81028059       0.49745905 </v>
    <v>       0.61792907       0.95044104       0.49619740 </v>
    <v>       0.76159361       0.09365380       0.49608107 </v>
    <v>       0.76241087       0.23657287       0.49681758 </v>
    <v>       0.76191977       0.37923981       0.49811539 </v>
    <v>       0.76055400       0.52219068       0.50052839 </v>
    <v>       0.76346048       0.66548298       0.50248460 </v>
    <v>       0.76180602       0.80692802       0.50000942 </v>
    <v>       0.76116925       0.95060629       0.49701409 </v>
    <v>       0.90446707       0.09379806       0.49605090 </v>
    <v>       0.90469112       0.23693476       0.49626925 </v>
    <v>       0.90468854       0.38012030       0.49700271 </v>
    <v>       0.90482423       0.52299195       0.49763706 </v>
    <v>       0.90528081       0.66543362       0.49838062 </v>
    <v>       0.90560261       0.80889633       0.49796397 </v>
    <v>       0.90500724       0.95135249       0.49659156 </v>
    <v>       0.46874758       0.35716566       0.49667214 </v>
    <v>       0.40339472       0.41862225       0.48932486 </v>
    <v>       0.40263318       0.56128080       0.48599109 </v>
    <v>       0.64576777       0.67533494       0.50707081 </v>
    <v>       0.64392442       0.53506310       0.50594197 </v>
    <v>       0.58046423       0.73765838       0.49757181 </v>
    <v>       0.49919813       0.56482016       0.54552815 </v>
    <v>       0.51434470       0.56644801       0.44394265 </v>
    <v>       0.42686961       0.71508960       0.49480768 </v>
    <v>       0.62115711       0.37888607       0.49881548 </v>
    <v>       0.52710570       0.54671834       0.50000902 </v>
   </varray>
  </structure>
  <varray name="forces" >
   <v>      -0.00014093       0.00018853       0.00139416 </v>
   <v>      -0.00016511       0.00061155      -0.00005790 </v>
   <v>      -0.00002580      -0.00010588      -0.00241430 </v>
   <v>      -0.00004657      -0.00068400      -0.00225039 </v>
   <v>      -0.00028944      -0.00157565      -0.00022732 </v>
   <v>      -0.00251672       0.00248189       0.00059062 </v>
   <v>      -0.00026640       0.00098906      -0.00027062 </v>
   <v>      -0.00217091       0.00082721       0.00030150 </v>
   <v>       0.00139858      -0.00004143      -0.00024644 </v>
   <v>       0.00102004      -0.00017898      -0.00169336 </v>
   <v>       0.00057096      -0.00176950      -0.00125749 </v>
   <v>       0.00019278      -0.00028740      -0.00206210 </v>
   <v>      -0.00025238       0.00031375      -0.00073493 </v>
   <v>      -0.00057468       0.00030457       0.00043744 </v>
   <v>      -0.00012057       0.00071016      -0.00030451 </v>
   <v>       0.00008755       0.00050030      -0.00157455 </v>
   <v>       0.00081476      -0.00007691      -0.00038053 </v>
   <v>       0.00052700       0.00025050      -0.00023661 </v>
   <v>       0.00040781       0.00004087      -0.00269674 </v>
   <v>       0.00078338       0.00030599      -0.00179341 </v>
   <v>      -0.00112218       0.00094393      -0.00099709 </v>
   <v>       0.00053303       0.00026701      -0.00065382 </v>
   <v>       0.00016213       0.00116531      -0.00031349 </v>
   <v>       0.00024153       0.00148399      -0.00020418 </v>
   <v>      -0.00034050       0.00052226      -0.00028551 </v>
   <v>       0.00080751       0.00064746       0.00030131 </v>
   <v>      -0.00114832       0.00003243      -0.00041219 </v>
   <v>       0.00018132       0.00112306       0.00040893 </v>
   <v>      -0.00095417       0.00012505      -0.00052115 </v>
   <v>       0.00046050       0.00004881       0.00061117 </v>
   <v>      -0.00003695       0.00094139       0.00049856 </v>
   <v>       0.00109638       0.00098573      -0.00025813 </v>
   <v>      -0.00128243      -0.00131158       0.00025975 </v>
   <v>       0.00029502      -0.00043485       0.00102056 </v>
   <v>      -0.00026093       0.00018435      -0.00115440 </v>
   <v>      -0.00070330      -0.00062752       0.00089317 </v>
   <v>      -0.00007566       0.00069081       0.00085905 </v>
   <v>       0.00031144       0.00095326      -0.00000410 </v>
   <v>      -0.00146078       0.00125036      -0.00039123 </v>
   <v>      -0.00001845      -0.00027478      -0.00029439 </v>
   <v>      -0.00101492       0.00016969       0.00006817 </v>
   <v>      -0.00055660       0.00032788       0.00063034 </v>
   <v>       0.00000493       0.00002847       0.00127660 </v>
   <v>       0.00028484      -0.00052251       0.00043049 </v>
   <v>       0.00111734       0.00036380      -0.00179988 </v>
   <v>       0.00044709       0.00122423      -0.00023233 </v>
   <v>      -0.00022560       0.00138056      -0.00231292 </v>
   <v>      -0.00026018       0.00070667       0.00113162 </v>
   <v>       0.00026860       0.00021133      -0.00033075 </v>
   <v>      -0.00005697       0.00066410       0.00074684 </v>
   <v>       0.00025571       0.00003832      -0.00087981 </v>
   <v>       0.00135833      -0.00091743       0.00016917 </v>
   <v>       0.00075503       0.00025358       0.00019897 </v>
   <v>      -0.00007280       0.00100487      -0.00311531 </v>
   <v>      -0.00039872       0.00010728      -0.00194518 </v>
   <v>       0.00055020       0.00027816      -0.00027278 </v>
   <v>       0.00032609      -0.00030795      -0.00069688 </v>
   <v>       0.00015260      -0.00024002      -0.00073053 </v>
   <v>       0.00011420      -0.00052095      -0.00130552 </v>
   <v>       0.00011054      -0.00041174      -0.00169852 </v>
   <v>      -0.00014208       0.00006017      -0.00170124 </v>
   <v>      -0.00105860      -0.00032059      -0.00094495 </v>
   <v>      -0.00045749      -0.00102199      -0.00155711 </v>
   <v>      -0.00023050      -0.00035149      -0.00070874 </v>
   <v>       0.00042425      -0.00170968       0.00045753 </v>
   <v>      -0.00032299      -0.00128810      -0.00031516 </v>
   <v>      -0.00068851      -0.00027182      -0.00052833 </v>
   <v>      -0.00033648      -0.00067075      -0.00027428 </v>
   <v>      -0.00170748      -0.00154939       0.00150351 </v>
   <v>      -0.00045854      -0.00109020      -0.00048350 </v>
   <v>      -0.00085394      -0.00025052       0.00143461 </v>
   <v>      -0.00007787      -0.00045202      -0.00032780 </v>
   <v>      -0.00021918      -0.00048170       0.00090533 </v>
   <v>      -0.00049494      -0.00051497       0.00087381 </v>
   <v>       0.00024994       0.00034940      -0.00020484 </v>
   <v>       0.00027741       0.00005810       0.00057061 </v>
   <v>       0.00033572      -0.00046353       0.00104302 </v>
   <v>      -0.00045461      -0.00095303       0.00093366 </v>
   <v>      -0.00011165      -0.00044696       0.00077214 </v>
   <v>       0.00068893      -0.00006737       0.00069268 </v>
   <v>       0.00064425       0.00005526      -0.00184769 </v>
   <v>       0.00024651       0.00083144      -0.00212695 </v>
   <v>       0.00035038       0.00130375       0.00008507 </v>
   <v>       0.00045337      -0.00001571       0.00054279 </v>
   <v>      -0.00018493       0.00066649       0.00075799 </v>
   <v>      -0.00011916       0.00021434       0.00195034 </v>
   <v>      -0.00014761       0.00005666      -0.00052174 </v>
   <v>       0.00014861      -0.00008993      -0.00225080 </v>
   <v>       0.00006680       0.00027507      -0.00156645 </v>
   <v>      -0.00106823       0.00048307      -0.00123513 </v>
   <v>       0.00025444      -0.00080428      -0.00068424 </v>
   <v>       0.00002707      -0.00050706       0.00178215 </v>
   <v>      -0.00073210      -0.00450690       0.00945882 </v>
   <v>       0.00428867      -0.00069598       0.01094025 </v>
   <v>       0.00065589      -0.00016866      -0.00061833 </v>
   <v>       0.00030778       0.00030597       0.00053052 </v>
   <v>       0.00136864      -0.00132656       0.00944533 </v>
  </varray>
  <varray name="stress" >
   <v>       3.31798489      -2.52555925       0.00490315 </v>
   <v>      -2.52555929      -4.33920500      -0.01089121 </v>
   <v>       0.00490239      -0.01089164      -0.26854685 </v>
  </varray>
  <energy>
   <i name="e_fr_energy">   -850.16092748 </i>
   <i name="e_wo_entrp">   -850.16092620 </i>
   <i name="e_0_energy">   -850.16092684 </i>
  </energy>
  <time name="totalsc">  486.87  490.13</time>
 </calculation>
 <calculation>
  <scstep>
   <time name="dav">   78.09   78.70</time>
   <time name="total">   89.66   90.35</time>
   <energy>
    <i name="alphaZ">    175.87611319 </i>
    <i name="ewald">  36657.54209788 </i>
    <i name="hartreedc"> -48377.95943042 </i>
    <i name="XCdc">   1274.39225657 </i>
    <i name="pawpsdc">  37324.41885940 </i>
    <i name="pawaedc"> -37388.25880699 </i>
    <i name="eentropy">     -0.00000127 </i>
    <i name="bandstr">  -4224.54114690 </i>
    <i name="atom">  13716.13071916 </i>
    <i name="e_fr_energy">   -842.39933939 </i>
    <i name="e_wo_entrp">   -842.39933812 </i>
    <i name="e_0_energy">   -842.39933876 </i>
   </energy>
  </scstep>
  <scstep>
   <time name="dav">   82.88   83.41</time>
   <time name="total">   93.34   93.97</time>
   <energy>
    <i name="e_fr_energy">   -842.39934083 </i>
    <i name="e_wo_entrp">   -842.39933956 </i>
    <i name="e_0_energy">   -842.39934019 </i>
   </energy>
  </scstep>
  <scstep>
   <time name="dav">   64.48   64.92</time>
   <time name="total">   70.06   70.59</time>
   <energy>
    <i name="alphaZ">    175.87611319 </i>
    <i name="ewald">  36657.54209788 </i>
    <i name="hartreedc"> -48377.95596975 </i>
    <i name="XCdc">   1274.39216296 </i>
    <i name="pawpsdc">  37324.35184892 </i>
    <i name="pawaedc"> -37388.19181014 </i>
    <i name="eentropy">     -0.00000127 </i>
    <i name="bandstr">  -4224.54450110 </i>
    <i name="atom">  13716.13071916 </i>
    <i name="e_fr_energy">   -842.39934016 </i>
    <i name="e_wo_entrp">   -842.39933889 </i>
    <i name="e_0_energy">   -842.39933953 </i>
   </energy>
  </scstep>
  <structure>
   <crystal>
    <varray name="basis" >
[...]
       <r>   -14.3142     5.8048    54.8176 </r>
       <r>   -14.2087    12.6094    56.1469 </r>
       <r>   -14.1033     7.9070    56.9805 </r>
       <r>   -13.9979     8.2826    57.8537 </r>
       <r>   -13.8925     6.1141    58.4983 </r>
       <r>   -13.7870     3.2938    58.8455 </r>
       <r>   -13.6816     4.9029    59.3624 </r>
       <r>   -13.5762     8.2180    60.2288 </r>
       <r>   -13.4708     8.1569    61.0887 </r>
       <r>   -13.3653    10.7848    62.2256 </r>
       <r>   -13.2599     6.4467    62.9053 </r>
       <r>   -13.1545     7.5950    63.7060 </r>
       <r>   -13.0491     5.7872    64.3161 </r>
       <r>   -12.9437     1.7459    64.5001 </r>
       <r>   -12.8382     2.4076    64.7539 </r>
       <r>   -12.7328     9.0297    65.7059 </r>
       <r>   -12.6274     6.6130    66.4030 </r>
       <r>   -12.5220    11.3757    67.6023 </r>
       <r>   -12.4165    15.3174    69.2171 </r>
       <r>   -12.3111    10.6792    70.3429 </r>
       <r>   -12.2057     9.7551    71.3714 </r>
       <r>   -12.1003    11.4162    72.5749 </r>
       <r>   -11.9948     3.0670    72.8982 </r>
       <r>   -11.8894     9.9269    73.9448 </r>
       <r>   -11.7840     5.1131    74.4838 </r>
       <r>   -11.6786    10.9059    75.6335 </r>
       <r>   -11.5732     5.6011    76.2240 </r>
       <r>   -11.4677    11.8481    77.4731 </r>
       <r>   -11.3623    11.3118    78.6656 </r>
       <r>   -11.2569    10.0948    79.7298 </r>
       <r>   -11.1515    12.0344    80.9985 </r>
       <r>   -11.0460     7.8197    81.8229 </r>
       <r>   -10.9406    10.4952    82.9294 </r>
       <r>   -10.8352     9.4558    83.9262 </r>
       <r>   -10.7298    13.0232    85.2992 </r>
       <r>   -10.6243     8.4384    86.1888 </r>
       <r>   -10.5189     4.6482    86.6788 </r>
       <r>   -10.4135     5.2575    87.2331 </r>
       <r>   -10.3081     0.7165    87.3086 </r>
       <r>   -10.2027    11.3956    88.5100 </r>
       <r>   -10.0972    15.1429    90.1064 </r>
       <r>    -9.9918    17.7854    91.9814 </r>
       <r>    -9.8864    16.8165    93.7542 </r>
       <r>    -9.7810    20.2857    95.8928 </r>
       <r>    -9.6755    18.7695    97.8715 </r>
       <r>    -9.5701    12.9006    99.2316 </r>
       <r>    -9.4647    14.2713   100.7361 </r>
       <r>    -9.3593    18.6837   102.7058 </r>
       <r>    -9.2538    18.8544   104.6935 </r>
       <r>    -9.1484    13.1287   106.0776 </r>
       <r>    -9.0430    17.8020   107.9543 </r>
       <r>    -8.9376    28.8059   110.9911 </r>
       <r>    -8.8322    28.1789   113.9618 </r>
       <r>    -8.7267    23.7687   116.4676 </r>
       <r>    -8.6213    18.0239   118.3677 </r>
       <r>    -8.5159    19.9252   120.4683 </r>
       <r>    -8.4105    16.0598   122.1614 </r>
       <r>    -8.3050    18.4178   124.1030 </r>
       <r>    -8.1996    23.6643   126.5978 </r>
       <r>    -8.0942    20.4134   128.7499 </r>
       <r>    -7.9888    20.7933   130.9420 </r>
       <r>    -7.8833    15.0824   132.5320 </r>
       <r>    -7.7779    15.8026   134.1980 </r>
       <r>    -7.6725    13.2807   135.5980 </r>
       <r>    -7.5671    15.9829   137.2830 </r>
       <r>    -7.4617    10.7263   138.4138 </r>
       <r>    -7.3562     9.0286   139.3656 </r>
       <r>    -7.2508    19.9033   141.4639 </r>
       <r>    -7.1454    23.8798   143.9814 </r>
       <r>    -7.0400    22.4335   146.3464 </r>
       <r>    -6.9345     9.7004   147.3691 </r>
       <r>    -6.8291    12.6405   148.7017 </r>
       <r>    -6.7237    13.4663   150.1213 </r>
       <r>    -6.6183     9.0049   151.0706 </r>
       <r>    -6.5128    10.4651   152.1739 </r>
       <r>    -6.4074    10.4496   153.2755 </r>
       <r>    -6.3020    13.5798   154.7072 </r>
       <r>    -6.1966    17.6118   156.5638 </r>
       <r>    -6.0911    20.7184   158.7481 </r>
       <r>    -5.9857    12.4649   160.0621 </r>
       <r>    -5.8803    13.4073   161.4756 </r>
       <r>    -5.7749     9.2463   162.4504 </r>
       <r>    -5.6695    16.3074   164.1695 </r>
       <r>    -5.5640    13.3435   165.5762 </r>
       <r>    -5.4586     7.7494   166.3932 </r>
       <r>    -5.3532     3.3269   166.7439 </r>
       <r>    -5.2478     2.3555   166.9923 </r>
       <r>    -5.1423     3.2706   167.3371 </r>
       <r>    -5.0369    17.0051   169.1298 </r>
       <r>    -4.9315    19.2326   171.1573 </r>
       <r>    -4.8261    18.9994   173.1603 </r>
       <r>    -4.7206    14.2507   174.6627 </r>
       <r>    -4.6152     6.5967   175.3581 </r>
       <r>    -4.5098     7.4983   176.1486 </r>
       <r>    -4.4044     4.7039   176.6445 </r>
       <r>    -4.2990     9.8227   177.6801 </r>
       <r>    -4.1935     7.9493   178.5181 </r>
       <r>    -4.0881     8.5182   179.4161 </r>
       <r>    -3.9827     8.9791   180.3627 </r>
       <r>    -3.8773     9.6711   181.3823 </r>
       <r>    -3.7718     3.6585   181.7680 </r>
       <r>    -3.6664     2.0837   181.9877 </r>
       <r>    -3.5610     0.1172   182.0000 </r>
       <r>    -3.4556     0.4432   182.0467 </r>
       <r>    -3.3501     2.5252   182.3129 </r>
       <r>    -3.2447     5.9849   182.9439 </r>
       <r>    -3.1393     3.2486   183.2864 </r>
       <r>    -3.0339     1.9980   183.4970 </r>
       <r>    -2.9285     0.0284   183.5000 </r>
       <r>    -2.8230     0.0002   183.5000 </r>
       <r>    -2.7176     0.5560   183.5586 </r>
       <r>    -2.6122     2.2333   183.7941 </r>
       <r>    -2.5068     1.9107   183.9955 </r>
       <r>    -2.4013     0.0431   184.0000 </r>
       <r>    -2.2959     0.7830   184.0826 </r>
       <r>    -2.1905     3.7188   184.4746 </r>
       <r>    -2.0851     0.2405   184.5000 </r>
       <r>    -1.9796     0.0359   184.5038 </r>
       <r>    -1.8742     1.8476   184.6986 </r>
       <r>    -1.7688     1.9016   184.8990 </r>
       <r>    -1.6634     3.8491   185.3048 </r>
       <r>    -1.5580     5.8265   185.9191 </r>
       <r>    -1.4525     0.7732   186.0006 </r>
       <r>    -1.3471     2.1920   186.2317 </r>
       <r>    -1.2417     7.8528   187.0595 </r>
       <r>    -1.1363     3.8449   187.4649 </r>
       <r>    -1.0308     0.4285   187.5101 </r>
       <r>    -0.9254     5.6765   188.1085 </r>
       <r>    -0.8200    16.6222   189.8609 </r>
       <r>    -0.7146    10.9395   191.0141 </r>
       <r>    -0.6091     6.0853   191.6557 </r>
       <r>    -0.5037    10.5024   192.7629 </r>
       <r>    -0.3983     8.7852   193.6890 </r>
       <r>    -0.2929     4.2982   194.1422 </r>
       <r>    -0.1875     4.0986   194.5743 </r>
       <r>    -0.0820    11.3269   195.7684 </r>
       <r>     0.0234     9.0988   196.7276 </r>
       <r>     0.1288    10.8964   197.8763 </r>
       <r>     0.2342    11.7464   199.1147 </r>
       <r>     0.3397     4.9884   199.6406 </r>
       <r>     0.4451     3.3854   199.9975 </r>
       <r>     0.5505     2.4893   200.2599 </r>
       <r>     0.6559     6.4981   200.9449 </r>
       <r>     0.7614    12.0782   202.2183 </r>
       <r>     0.8668    12.5120   203.5373 </r>
       <r>     0.9722     4.0139   203.9605 </r>
       <r>     1.0776    12.6535   205.2944 </r>
       <r>     1.1831     5.2926   205.8524 </r>
       <r>     1.2885     8.5920   206.7582 </r>
       <r>     1.3939    10.1742   207.8308 </r>
       <r>     1.4993    13.3257   209.2356 </r>
       <r>     1.6047    19.4461   211.2857 </r>
       <r>     1.7102    16.5457   213.0300 </r>
       <r>     1.8156     7.9016   213.8630 </r>
       <r>     1.9210     8.8102   214.7918 </r>
       <r>     2.0264    14.8493   216.3573 </r>
       <r>     2.1319    22.8202   218.7630 </r>
       <r>     2.2373    15.5794   220.4055 </r>
       <r>     2.3427    16.6903   222.1650 </r>
       <r>     2.4481    28.9623   225.2183 </r>
       <r>     2.5536     8.5721   226.1220 </r>
       <r>     2.6590     9.8852   227.1641 </r>
       <r>     2.7644    13.2397   228.5599 </r>
       <r>     2.8698    28.6838   231.5839 </r>
       <r>     2.9752    39.9028   235.7905 </r>
       <r>     3.0807    25.6216   238.4916 </r>
       <r>     3.1861    17.7552   240.3635 </r>
       <r>     3.2915    21.8387   242.6658 </r>
       <r>     3.3969     9.2812   243.6442 </r>
       <r>     3.5024    25.5209   246.3347 </r>
       <r>     3.6078    21.7024   248.6226 </r>
       <r>     3.7132    11.5078   249.8358 </r>
       <r>     3.8186    28.3854   252.8283 </r>
       <r>     3.9241    23.0324   255.2565 </r>
       <r>     4.0295    23.7863   257.7641 </r>
       <r>     4.1349    15.3742   259.3849 </r>
       <r>     4.2403    17.2257   261.2009 </r>
       <r>     4.3457    28.8506   264.2424 </r>
       <r>     4.4512     7.1000   264.9909 </r>
       <r>     4.5566     0.0864   265.0000 </r>
       <r>     4.6620     0.0000   265.0000 </r>
       <r>     4.7674     0.0000   265.0000 </r>
       <r>     4.8729     0.0000   265.0000 </r>
       <r>     4.9783     0.0000   265.0000 </r>
       <r>     5.0837     0.0000   265.0000 </r>
       <r>     5.1891     0.0000   265.0000 </r>
       <r>     5.2946     0.0000   265.0000 </r>
       <r>     5.4000     0.0000   265.0000 </r>
       <r>     5.5054     0.0000   265.0000 </r>
       <r>     5.6108     0.0000   265.0000 </r>
       <r>     5.7162     0.0000   265.0000 </r>
       <r>     5.8217     0.0000   265.0000 </r>
      </set>
     </set>
    </array>
   </total>
  </dos>
 </calculation>
 <structure name="finalpos" >
  <crystal>
   <varray name="basis" >
    <v>      17.27103806       0.00000000       0.00000000 </v>
    <v>      -8.63551903      14.95715771       0.00000000 </v>
    <v>       0.00000000       0.00000000      15.00000000 </v>
   </varray>
   <i name="volume">   3874.88459904 </i>
   <varray name="rec_basis" >
    <v>       0.05790040       0.03342881       0.00000000 </v>
    <v>       0.00000000       0.06685762       0.00000000 </v>
    <v>       0.00000000       0.00000000       0.06666667 </v>
   </varray>
  </crystal>
  <varray name="positions" >
   <v>       0.00035293       0.99954317       0.49649881 </v>
   <v>       0.99995666       0.14210608       0.49585265 </v>
   <v>      -0.00000018       0.28509310       0.49587195 </v>
   <v>       0.99996117       0.42802040       0.49635358 </v>
   <v>       0.00006463       0.57090591       0.49729368 </v>
   <v>       0.00069582       0.71380556       0.49816407 </v>
   <v>       0.00100653       0.85715303       0.49783147 </v>
   <v>       0.14392206       0.00066103       0.49597906 </v>
   <v>       0.14348448       0.14315622       0.49527161 </v>
   <v>       0.14274447       0.28545672       0.49483085 </v>
   <v>       0.14281348       0.42882425       0.49505254 </v>
   <v>       0.14294720       0.57132107       0.49593518 </v>
   <v>       0.14333171       0.71418264       0.49665922 </v>
   <v>       0.14351189       0.85741062       0.49685614 </v>
   <v>       0.28669226       0.00069191       0.49624313 </v>
   <v>       0.28730165       0.14391009       0.49523659 </v>
   <v>       0.28676373       0.28763236       0.49334348 </v>
   <v>       0.28496475       0.42879313       0.49143240 </v>
   <v>       0.28688093       0.57216628       0.49323627 </v>
   <v>       0.28607762       0.71505947       0.49544330 </v>
   <v>       0.28576783       0.85771778       0.49626866 </v>
   <v>       0.42915195       0.00001097       0.49604698 </v>
   <v>       0.43035418       0.14386802       0.49638665 </v>
   <v>       0.42965403       0.28448459       0.49610222 </v>
   <v>       0.42785424       0.85648126       0.49563505 </v>
   <v>       0.57119424       0.99902207       0.49595978 </v>
   <v>       0.57198862       0.14221569       0.49663638 </v>
   <v>       0.57589874       0.28847517       0.49821078 </v>
   <v>       0.57011272       0.85472946       0.49676011 </v>
   <v>       0.71338001       0.99798295       0.49672895 </v>
   <v>       0.71444691       0.14151011       0.49634170 </v>
   <v>       0.71505218       0.28441578       0.49765205 </v>
   <v>       0.71113508       0.42389060       0.50041764 </v>
   <v>       0.71655486       0.57083545       0.50556036 </v>
   <v>       0.71806887       0.71426113       0.50601448 </v>
   <v>       0.71253253       0.85510961       0.49971632 </v>
   <v>       0.85683702       0.99873226       0.49728573 </v>
   <v>       0.85682662       0.14157230       0.49609034 </v>
   <v>       0.85730031       0.28462124       0.49662411 </v>
   <v>       0.85722832       0.42756839       0.49802645 </v>
   <v>       0.85680840       0.56994223       0.50008882 </v>
   <v>       0.85881133       0.71375955       0.50134823 </v>
   <v>       0.85767641       0.85617640       0.49961510 </v>
   <v>       0.04808096       0.09494547       0.49582834 </v>
   <v>       0.04731562       0.23729343       0.49556385 </v>
   <v>       0.04735110       0.38051441       0.49586476 </v>
   <v>       0.04772203       0.52340530       0.49649473 </v>
   <v>       0.04801881       0.66629737       0.49734207 </v>
   <v>       0.04819174       0.80926358       0.49758638 </v>
   <v>       0.04842650       0.95234182       0.49665035 </v>
   <v>       0.19164905       0.09578660       0.49531033 </v>
   <v>       0.19084047       0.23836818       0.49458598 </v>
   <v>       0.18945625       0.38062599       0.49406660 </v>
   <v>       0.19078959       0.52434233       0.49502462 </v>
   <v>       0.19073374       0.66676366       0.49598929 </v>
   <v>       0.19084234       0.80972669       0.49662292 </v>
   <v>       0.19147122       0.95283152       0.49637350 </v>
   <v>       0.33493913       0.09639455       0.49591801 </v>
   <v>       0.33610312       0.23948750       0.49474656 </v>
   <v>       0.33077865       0.38042444       0.49073296 </v>
   <v>       0.33040323       0.52328182       0.49014330 </v>
   <v>       0.33672786       0.67040773       0.49438815 </v>
   <v>       0.33308878       0.80988446       0.49578823 </v>
   <v>       0.33376779       0.95278609       0.49626646 </v>
   <v>       0.47700761       0.09518953       0.49640966 </v>
   <v>       0.47816006       0.23956523       0.49689427 </v>
   <v>       0.47234449       0.80567793       0.49562666 </v>
   <v>       0.47620566       0.95193681       0.49583364 </v>
   <v>       0.61906255       0.09418681       0.49627729 </v>
   <v>       0.62031256       0.23765434       0.49751158 </v>
   <v>       0.61905033       0.81031070       0.49859835 </v>
   <v>       0.61793628       0.95045419       0.49643869 </v>
   <v>       0.76159848       0.09368374       0.49618719 </v>
   <v>       0.76239616       0.23659692       0.49681776 </v>
   <v>       0.76189798       0.37925921       0.49868310 </v>
   <v>       0.76054569       0.52220752       0.50220822 </v>
   <v>       0.76344198       0.66552575       0.50474548 </v>
   <v>       0.76181037       0.80697220       0.50200289 </v>
   <v>       0.76117688       0.95063657       0.49785004 </v>
   <v>       0.90446629       0.09382368       0.49624105 </v>
   <v>       0.90468827       0.23696708       0.49610017 </v>
   <v>       0.90467483       0.38014928       0.49697071 </v>
   <v>       0.90479272       0.52302848       0.49835265 </v>
   <v>       0.90523187       0.66545273       0.49987378 </v>
   <v>       0.90560253       0.80892542       0.49967554 </v>
   <v>       0.90498804       0.95136952       0.49763440 </v>
   <v>       0.46870662       0.35717976       0.49674980 </v>
   <v>       0.40334408       0.41856875       0.48866066 </v>
   <v>       0.40266626       0.56132865       0.48619146 </v>
   <v>       0.64574976       0.67542359       0.50933613 </v>
   <v>       0.64394932       0.53509536       0.50777284 </v>
   <v>       0.58046062       0.73768520       0.49905749 </v>
   <v>       0.49971021       0.56347016       0.53980821 </v>
   <v>       0.51511174       0.56686168       0.43812638 </v>
   <v>       0.42685779       0.71510923       0.49481038 </v>
   <v>       0.62112936       0.37889008       0.49993911 </v>
   <v>       0.52728800       0.54573319       0.49360367 </v>
  </varray>
  <varray name="selective"  type="logical" >
   <v type="logical" >  T  T  T </v>
   <v type="logical" >  T  T  T </v>
   <v type="logical" >  T  T  T </v>
   <v type="logical" >  T  T  T </v>
   <v type="logical" >  T  T  T </v>
   <v type="logical" >  T  T  T </v>
   <v type="logical" >  T  T  T </v>
   <v type="logical" >  T  T  T </v>
   <v type="logical" >  T  T  T </v>
   <v type="logical" >  T  T  T </v>
   <v type="logical" >  T  T  T </v>
   <v type="logical" >  T  T  T </v>
   <v type="logical" >  T  T  T </v>
   <v type="logical" >  T  T  T </v>
   <v type="logical" >  T  T  T </v>
   <v type="logical" >  T  T  T </v>
   <v type="logical" >  T  T  T </v>
   <v type="logical" >  T  T  T </v>
   <v type="logical" >  T  T  T </v>
   <v type="logical" >  T  T  T </v>
   <v type="logical" >  T  T  T </v>
   <v type="logical" >  T  T  T </v>
   <v type="logical" >  T  T  T </v>
   <v type="logical" >  T  T  T </v>
   <v type="logical" >  T  T  T </v>
   <v type="logical" >  T  T  T </v>
   <v type="logical" >  T  T  T </v>
   <v type="logical" >  T  T  T </v>
   <v type="logical" >  T  T  T </v>
   <v type="logical" >  T  T  T </v>
   <v type="logical" >  T  T  T </v>
   <v type="logical" >  T  T  T </v>
   <v type="logical" >  T  T  T </v>
   <v type="logical" >  T  T  T </v>
   <v type="logical" >  T  T  T </v>
   <v type="logical" >  T  T  T </v>
   <v type="logical" >  T  T  T </v>
   <v type="logical" >  T  T  T </v>
   <v type="logical" >  T  T  T </v>
   <v type="logical" >  T  T  T </v>
   <v type="logical" >  T  T  T </v>
   <v type="logical" >  T  T  T </v>
   <v type="logical" >  T  T  T </v>
   <v type="logical" >  T  T  T </v>
   <v type="logical" >  T  T  T </v>
   <v type="logical" >  T  T  T </v>
   <v type="logical" >  T  T  T </v>
   <v type="logical" >  T  T  T </v>
   <v type="logical" >  T  T  T </v>
   <v type="logical" >  T  T  T </v>
   <v type="logical" >  T  T  T </v>
   <v type="logical" >  T  T  T </v>
   <v type="logical" >  T  T  T </v>
   <v type="logical" >  T  T  T </v>
   <v type="logical" >  T  T  T </v>
   <v type="logical" >  T  T  T </v>
   <v type="logical" >  T  T  T </v>
   <v type="logical" >  T  T  T </v>
   <v type="logical" >  T  T  T </v>
   <v type="logical" >  T  T  T </v>
   <v type="logical" >  T  T  T </v>
   <v type="logical" >  T  T  T </v>
   <v type="logical" >  T  T  T </v>
   <v type="logical" >  T  T  T </v>
   <v type="logical" >  T  T  T </v>
   <v type="logical" >  T  T  T </v>
   <v type="logical" >  T  T  T </v>
   <v type="logical" >  T  T  T </v>
   <v type="logical" >  T  T  T </v>
   <v type="logical" >  T  T  T </v>
   <v type="logical" >  T  T  T </v>
   <v type="logical" >  T  T  T </v>
   <v type="logical" >  T  T  T </v>
   <v type="logical" >  T  T  T </v>
   <v type="logical" >  T  T  T </v>
   <v type="logical" >  T  T  T </v>
   <v type="logical" >  T  T  T </v>
   <v type="logical" >  T  T  T </v>
   <v type="logical" >  T  T  T </v>
   <v type="logical" >  T  T  T </v>
   <v type="logical" >  T  T  T </v>
   <v type="logical" >  T  T  T </v>
   <v type="logical" >  T  T  T </v>
   <v type="logical" >  T  T  T </v>
   <v type="logical" >  T  T  T </v>
   <v type="logical" >  T  T  T </v>
   <v type="logical" >  T  T  T </v>
   <v type="logical" >  T  T  T </v>
   <v type="logical" >  T  T  T </v>
   <v type="logical" >  T  T  T </v>
   <v type="logical" >  T  T  T </v>
   <v type="logical" >  T  T  T </v>
   <v type="logical" >  T  T  T </v>
   <v type="logical" >  T  T  T </v>
   <v type="logical" >  T  T  T </v>
   <v type="logical" >  T  T  T </v>
   <v type="logical" >  T  T  T </v>
  </varray>
  <nose>
   <v>      -3.00000000       0.00000000       0.00010000       0.00010000 </v>
  </nose>
 </structure>
</modeling>
