unknown system                          
           1
    17.271038    0.000000    0.000000
    -8.635519   14.957158    0.000000
     0.000000    0.000000   15.000000
   C    H    N    O 
    86     8     2     1
Direct configuration=     1
   0.00037725  0.99952810  0.49586094
   0.99996782  0.14208695  0.49585111
   0.00000224  0.28506562  0.49614874
   0.99996982  0.42799677  0.49656066
   0.00009186  0.57087212  0.49698905
   0.00074869  0.71378847  0.49730267
   0.00102070  0.85712348  0.49679464
   0.14395167  0.00064574  0.49583506
   0.14351342  0.14315021  0.49528906
   0.14275469  0.28544277  0.49503579
   0.14281749  0.42879399  0.49540725
   0.14296956  0.57130385  0.49622169
   0.14336750  0.71416551  0.49663816
   0.14354919  0.85740460  0.49664009
   0.28671251  0.00067613  0.49632859
   0.28733158  0.14390138  0.49533908
   0.28680110  0.28763573  0.49348192
   0.28497415  0.42878000  0.49159030
   0.28688199  0.57214518  0.49345605
   0.28610574  0.71504404  0.49565361
   0.28578865  0.85769748  0.49640693
   0.42916475 -0.00000145  0.49614446
   0.43037905  0.14385602  0.49631944
   0.42968823  0.28447127  0.49600020
   0.42786585  0.85646823  0.49570051
   0.57119640  0.99901332  0.49594632
   0.57200594  0.14220823  0.49660224
   0.57593166  0.28846749  0.49764378
   0.57011054  0.85471208  0.49630594
   0.71337132  0.99796252  0.49634464
   0.71445420  0.14148713  0.49634211
   0.71507552  0.28439566  0.49742096
   0.71116055  0.42387722  0.49924593
   0.71652367  0.57078766  0.50347869
   0.71807007  0.71419696  0.50358937
   0.71252710  0.85508198  0.49833297
   0.85683996  0.99870441  0.49657390
   0.85682262  0.14154257  0.49608393
   0.85731177  0.28459543  0.49671332
   0.85724483  0.42753929  0.49762680
   0.85683314  0.56990860  0.49872712
   0.85884073  0.71372372  0.49934735
   0.85767447  0.85614354  0.49793512
   0.04810367  0.09493325  0.49566896
   0.04732337  0.23727529  0.49579457
   0.04734730  0.38047885  0.49619131
   0.04774665  0.52337935  0.49662855
   0.04805726  0.66626593  0.49696222
   0.04822730  0.80925118  0.49688565
   0.04845326  0.95231909  0.49602774
   0.19167765  0.09577693  0.49534567
   0.19086583  0.23836576  0.49469751
   0.18946634  0.38060369  0.49434202
   0.19080162  0.52431839  0.49537412
   0.19076461  0.66674650  0.49617066
   0.19086732  0.80971044  0.49661177
   0.19150316  0.95282258  0.49631270
   0.33496508  0.09638163  0.49598653
   0.33613582  0.23948206  0.49483352
   0.33081321  0.38043415  0.49092547
   0.33039414  0.52325986  0.49019081
   0.33674205  0.67038670  0.49455307
   0.33310332  0.80986375  0.49595474
   0.33378108  0.95276610  0.49637319
   0.47702807  0.09518116  0.49640494
   0.47819416  0.23955411  0.49660256
   0.47234712  0.80565961  0.49553042
   0.47621106  0.95192594  0.49588713
   0.61907389  0.09417708  0.49628129
   0.62034008  0.23764800  0.49726773
   0.61903631  0.81028059  0.49745905
   0.61792907  0.95044104  0.49619740
   0.76159361  0.09365380  0.49608107
   0.76241087  0.23657287  0.49681758
   0.76191977  0.37923981  0.49811539
   0.76055400  0.52219068  0.50052839
   0.76346048  0.66548298  0.50248460
   0.76180602  0.80692802  0.50000942
   0.76116925  0.95060629  0.49701409
   0.90446707  0.09379806  0.49605090
   0.90469112  0.23693476  0.49626925
   0.90468854  0.38012030  0.49700271
   0.90482423  0.52299195  0.49763706
   0.90528081  0.66543362  0.49838062
   0.90560261  0.80889633  0.49796397
   0.90500724  0.95135249  0.49659156
   0.46874758  0.35716566  0.49667214
   0.40339472  0.41862225  0.48932486
   0.40263318  0.56128080  0.48599109
   0.64576777  0.67533494  0.50707081
   0.64392442  0.53506310  0.50594197
   0.58046423  0.73765838  0.49757181
   0.49919813  0.56482016  0.54552815
   0.51434470  0.56644801  0.44394265
   0.42686961  0.71508960  0.49480768
   0.62115711  0.37888607  0.49881548
   0.52710570  0.54671834  0.50000902
Direct configuration=     2
   0.00037797  0.99953060  0.49586305
   0.99996865  0.14208806  0.49585107
   0.00000290  0.28506488  0.49614495
   0.99997063  0.42799888  0.49655705
   0.00009411  0.57087677  0.49698779
   0.00075183  0.71378436  0.49730363
   0.00102277  0.85712315  0.49679438
   0.14394954  0.00064868  0.49583554
   0.14351684  0.14315151  0.49528877
   0.14275636  0.28544258  0.49503340
   0.14282032  0.42879593  0.49540638
   0.14297009  0.57130741  0.49621868
   0.14336486  0.71416262  0.49663686
   0.14354851  0.85740006  0.49664072
   0.28671319  0.00067684  0.49632822
   0.28733276  0.14390188  0.49533695
   0.28680188  0.28763498  0.49348204
   0.28497481  0.42878088  0.49159095
   0.28688039  0.57214742  0.49345272
   0.28610091  0.71503985  0.49565109
   0.28578070  0.85769498  0.49640542
   0.42916145 -0.00000474  0.49614352
   0.43037636  0.14385311  0.49631914
   0.42968951  0.28447043  0.49599938
   0.42786025  0.85646687  0.49570035
   0.57119450  0.99901092  0.49594695
   0.57199619  0.14219355  0.49660156
   0.57592984  0.28846776  0.49764485
   0.57010912  0.85471087  0.49630580
   0.71337097  0.99796055  0.49634587
   0.71445047  0.14148374  0.49634272
   0.71507215  0.28439464  0.49742124
   0.71115539  0.42387483  0.49924729
   0.71652245  0.57078524  0.50348331
   0.71807036  0.71419837  0.50359134
   0.71252428  0.85508021  0.49833574
   0.85684045  0.99870551  0.49657553
   0.85682460  0.14154223  0.49608388
   0.85731039  0.28459894  0.49671260
   0.85724542  0.42754139  0.49762648
   0.85683343  0.56990861  0.49872782
   0.85884045  0.71372099  0.49934954
   0.85767423  0.85614401  0.49793792
   0.04810212  0.09493000  0.49566958
   0.04732442  0.23727635  0.49579194
   0.04734754  0.38047938  0.49619099
   0.04774580  0.52337635  0.49662488
   0.04805368  0.66626769  0.49696391
   0.04822660  0.80925748  0.49688509
   0.04845360  0.95231927  0.49602887
   0.19167694  0.09577529  0.49534443
   0.19086675  0.23836386  0.49469818
   0.18946733  0.38060343  0.49434284
   0.19080201  0.52431629  0.49536956
   0.19076723  0.66674621  0.49616770
   0.19087362  0.80971826  0.49661121
   0.19150389  0.95282330  0.49631152
   0.33496523  0.09638219  0.49598562
   0.33613568  0.23948214  0.49483206
   0.33081322  0.38043385  0.49092397
   0.33039583  0.52325835  0.49018912
   0.33674393  0.67038722  0.49455215
   0.33311232  0.80986921  0.49595254
   0.33378308  0.95276732  0.49637213
   0.47703776  0.09518939  0.49640573
   0.47819671  0.23955734  0.49660293
   0.47234802  0.80566074  0.49553009
   0.47621290  0.95192535  0.49588681
   0.61907759  0.09418431  0.49628211
   0.62034742  0.23765669  0.49726816
   0.61903641  0.81028256  0.49746253
   0.61793030  0.95044145  0.49619722
   0.76159413  0.09365542  0.49608239
   0.76241227  0.23657384  0.49681873
   0.76192135  0.37923964  0.49811530
   0.76055474  0.52219120  0.50053079
   0.76346203  0.66548411  0.50248905
   0.76180504  0.80692518  0.50001307
   0.76116878  0.95060630  0.49701592
   0.90446669  0.09379987  0.49605120
   0.90469201  0.23693470  0.49626623
   0.90468884  0.38011874  0.49699924
   0.90482259  0.52299082  0.49763737
   0.90527832  0.66543598  0.49838214
   0.90560317  0.80889892  0.49796591
   0.90500745  0.95135147  0.49659486
   0.46874799  0.35716649  0.49667175
   0.40339485  0.41862190  0.48932266
   0.40263228  0.56128139  0.48598970
   0.64576642  0.67533472  0.50707502
   0.64392487  0.53506290  0.50594465
   0.58046366  0.73765657  0.49757609
   0.49918993  0.56480795  0.54553238
   0.51433923  0.56644704  0.44394603
   0.42686740  0.71508726  0.49480729
   0.62115963  0.37888639  0.49881733
   0.52710868  0.54671785  0.50002039
Direct configuration=     3
   0.00037777  0.99953002  0.49586332
   0.99996862  0.14208802  0.49585104
   0.00000283  0.28506509  0.49614456
   0.99997037  0.42799818  0.49655663
   0.00009332  0.57087553  0.49698776
   0.00075084  0.71378606  0.49730376
   0.00102239  0.85712373  0.49679441
   0.14394992  0.00064806  0.49583539
   0.14351648  0.14315108  0.49528876
   0.14275642  0.28544253  0.49503325
   0.14281980  0.42879512  0.49540619
   0.14296997  0.57130644  0.49621826
   0.14336553  0.71416351  0.49663673
   0.14354878  0.85740161  0.49664055
   0.28671312  0.00067692  0.49632815
   0.28733264  0.14390191  0.49533674
   0.28680203  0.28763510  0.49348206
   0.28497494  0.42878075  0.49159104
   0.28688089  0.57214687  0.49345235
   0.28610247  0.71504107  0.49565081
   0.28578295  0.85769600  0.49640506
   0.42916254 -0.00000386  0.49614345
   0.43037731  0.14385419  0.49631916
   0.42968962  0.28447100  0.49599943
   0.42786163  0.85646735  0.49570031
   0.57119538  0.99901175  0.49594702
   0.57199899  0.14219774  0.49660185
   0.57593054  0.28846801  0.49764502
   0.57010908  0.85471116  0.49630587
   0.71337124  0.99796102  0.49634604
   0.71445152  0.14148488  0.49634282
   0.71507333  0.28439523  0.49742123
   0.71115675  0.42387544  0.49924739
   0.71652307  0.57078577  0.50348383
   0.71807014  0.71419791  0.50359194
   0.71252458  0.85508033  0.49833620
   0.85684047  0.99870549  0.49657578
   0.85682440  0.14154270  0.49608385
   0.85731055  0.28459810  0.49671238
   0.85724530  0.42754088  0.49762640
   0.85683312  0.56990874  0.49872801
   0.85884046  0.71372190  0.49934992
   0.85767427  0.85614389  0.49793835
   0.04810256  0.09493073  0.49566942
   0.04732474  0.23727627  0.49579163
   0.04734790  0.38047967  0.49619083
   0.04774616  0.52337761  0.49662447
   0.04805452  0.66626731  0.49696376
   0.04822688  0.80925606  0.49688508
   0.04845358  0.95231955  0.49602901
   0.19167731  0.09577577  0.49534432
   0.19086692  0.23836396  0.49469823
   0.18946747  0.38060352  0.49434292
   0.19080203  0.52431715  0.49536913
   0.19076643  0.66674635  0.49616737
   0.19087193  0.80971617  0.49661133
   0.19150368  0.95282306  0.49631145
   0.33496526  0.09638204  0.49598552
   0.33613580  0.23948198  0.49483193
   0.33081322  0.38043374  0.49092391
   0.33039529  0.52325878  0.49018905
   0.33674306  0.67038696  0.49455202
   0.33310982  0.80986772  0.49595231
   0.33378246  0.95276693  0.49637202
   0.47703519  0.09518700  0.49640554
   0.47819601  0.23955637  0.49660294
   0.47234743  0.80566028  0.49553009
   0.47621226  0.95192527  0.49588680
   0.61907612  0.09418213  0.49628235
   0.62034529  0.23765436  0.49726809
   0.61903593  0.81028187  0.49746299
   0.61792992  0.95044117  0.49619726
   0.76159388  0.09365486  0.49608254
   0.76241166  0.23657343  0.49681884
   0.76192111  0.37923984  0.49811535
   0.76055460  0.52219102  0.50053119
   0.76346169  0.66548365  0.50248974
   0.76180493  0.80692552  0.50001358
   0.76116880  0.95060607  0.49701620
   0.90446705  0.09379962  0.49605134
   0.90469199  0.23693485  0.49626592
   0.90468900  0.38011951  0.49699890
   0.90482334  0.52299160  0.49763739
   0.90527911  0.66543548  0.49838234
   0.90560315  0.80889859  0.49796618
   0.90500741  0.95135184  0.49659525
   0.46874793  0.35716638  0.49667174
   0.40339487  0.41862186  0.48932249
   0.40263249  0.56128161  0.48598960
   0.64576644  0.67533474  0.50707585
   0.64392471  0.53506280  0.50594522
   0.58046380  0.73765676  0.49757669
   0.49918829  0.56480658  0.54553312
   0.51433837  0.56644635  0.44394720
   0.42686808  0.71508780  0.49480729
   0.62115909  0.37888637  0.49881761
   0.52710922  0.54671819  0.50001916
Direct configuration=     4
   0.00037741  0.99952899  0.49586384
   0.99996863  0.14208794  0.49585098
   0.00000275  0.28506551  0.49614381
   0.99996997  0.42799699  0.49655581
   0.00009197  0.57087330  0.49698768
   0.00074908  0.71378916  0.49730403
   0.00102168  0.85712477  0.49679448
   0.14395070  0.00064692  0.49583508
   0.14351579  0.14315030  0.49528876
   0.14275659  0.28544243  0.49503297
   0.14281886  0.42879367  0.49540584
   0.14296977  0.57130475  0.49621745
   0.14336670  0.71416511  0.49663648
   0.14354927  0.85740436  0.49664021
   0.28671300  0.00067703  0.49632802
   0.28733245  0.14390196  0.49533636
   0.28680231  0.28763531  0.49348216
   0.28497520  0.42878050  0.49159127
   0.28688178  0.57214590  0.49345167
   0.28610520  0.71504330  0.49565028
   0.28578663  0.85769774  0.49640455
   0.42916449 -0.00000224  0.49614332
   0.43037899  0.14385606  0.49631920
   0.42968977  0.28447200  0.49599957
   0.42786414  0.85646821  0.49570024
   0.57119694  0.99901322  0.49594715
   0.57200409  0.14220544  0.49660243
   0.57593173  0.28846839  0.49764538
   0.57010898  0.85471165  0.49630606
   0.71337173  0.99796186  0.49634639
   0.71445337  0.14148687  0.49634304
   0.71507547  0.28439623  0.49742120
   0.71115932  0.42387662  0.49924764
   0.71652419  0.57078672  0.50348501
   0.71806971  0.71419699  0.50359331
   0.71252514  0.85508054  0.49833720
   0.85684052  0.99870545  0.49657630
   0.85682402  0.14154350  0.49608380
   0.85731089  0.28459651  0.49671194
   0.85724515  0.42754002  0.49762626
   0.85683264  0.56990901  0.49872843
   0.85884053  0.71372357  0.49935075
   0.85767431  0.85614370  0.49793926
   0.04810339  0.09493209  0.49566911
   0.04732533  0.23727616  0.49579102
   0.04734853  0.38048016  0.49619052
   0.04774678  0.52337982  0.49662366
   0.04805605  0.66626662  0.49696347
   0.04822736  0.80925354  0.49688507
   0.04845351  0.95232004  0.49602929
   0.19167804  0.09577663  0.49534411
   0.19086698  0.23836414  0.49469810
   0.18946773  0.38060364  0.49434310
   0.19080205  0.52431864  0.49536831
   0.19076503  0.66674664  0.49616672
   0.19086914  0.80971259  0.49661135
   0.19150331  0.95282266  0.49631131
   0.33496535  0.09638180  0.49598534
   0.33613610  0.23948174  0.49483170
   0.33081325  0.38043354  0.49092385
   0.33039435  0.52325957  0.49018895
   0.33674158  0.67038653  0.49455178
   0.33310532  0.80986502  0.49595188
   0.33378139  0.95276625  0.49637180
   0.47703048  0.09518269  0.49640517
   0.47819480  0.23955460  0.49660298
   0.47234641  0.80565947  0.49553013
   0.47621122  0.95192519  0.49588678
   0.61907356  0.09417825  0.49628282
   0.62034146  0.23765008  0.49726799
   0.61903505  0.81028063  0.49746398
   0.61792928  0.95044069  0.49619736
   0.76159349  0.09365393  0.49608283
   0.76241061  0.23657271  0.49681903
   0.76192073  0.37924022  0.49811546
   0.76055439  0.52219067  0.50053205
   0.76346108  0.66548282  0.50249123
   0.76180479  0.80692618  0.50001471
   0.76116887  0.95060564  0.49701678
   0.90446773  0.09379916  0.49605163
   0.90469194  0.23693515  0.49626529
   0.90468928  0.38012086  0.49699821
   0.90482466  0.52299296  0.49763743
   0.90528054  0.66543465  0.49838278
   0.90560313  0.80889799  0.49796677
   0.90500735  0.95135251  0.49659604
   0.46874784  0.35716621  0.49667173
   0.40339493  0.41862176  0.48932220
   0.40263284  0.56128208  0.48598944
   0.64576647  0.67533473  0.50707781
   0.64392445  0.53506265  0.50594655
   0.58046408  0.73765710  0.49757798
   0.49918482  0.56480352  0.54553409
   0.51433614  0.56644498  0.44394892
   0.42686929  0.71508875  0.49480733
   0.62115807  0.37888635  0.49881823
   0.52711038  0.54671900  0.50001646
Direct configuration=     5
   0.00037701  0.99952783  0.49586465
   0.99996878  0.14208788  0.49585087
   0.00000283  0.28506611  0.49614262
   0.99996963  0.42799580  0.49655449
   0.00009047  0.57087070  0.49698752
   0.00074709  0.71379293  0.49730444
   0.00102088  0.85712601  0.49679463
   0.14395187  0.00064551  0.49583461
   0.14351496  0.14314935  0.49528874
   0.14275693  0.28544231  0.49503256
   0.14281778  0.42879196  0.49540531
   0.14296955  0.57130289  0.49621616
   0.14336802  0.71416694  0.49663606
   0.14354967  0.85740723  0.49663993
   0.28671287  0.00067713  0.49632780
   0.28733229  0.14390201  0.49533579
   0.28680269  0.28763551  0.49348235
   0.28497557  0.42878022  0.49159171
   0.28688277  0.57214482  0.49345068
   0.28610825  0.71504591  0.49564946
   0.28579073  0.85769965  0.49640387
   0.42916674 -0.00000035  0.49614312
   0.43038091  0.14385813  0.49631928
   0.42968990  0.28447317  0.49599982
   0.42786702  0.85646919  0.49570014
   0.57119870  0.99901489  0.49594738
   0.57200973  0.14221464  0.49660313
   0.57593305  0.28846879  0.49764599
   0.57010882  0.85471218  0.49630644
   0.71337229  0.99796279  0.49634697
   0.71445544  0.14148904  0.49634336
   0.71507801  0.28439738  0.49742117
   0.71116268  0.42387827  0.49924814
   0.71652556  0.57078785  0.50348720
   0.71806912  0.71419578  0.50359587
   0.71252577  0.85508073  0.49833891
   0.85684061  0.99870542  0.49657716
   0.85682356  0.14154441  0.49608370
   0.85731140  0.28459451  0.49671123
   0.85724512  0.42753918  0.49762604
   0.85683223  0.56990940  0.49872916
   0.85884069  0.71372557  0.49935218
   0.85767431  0.85614350  0.49794078
   0.04810452  0.09493371  0.49566898
   0.04732607  0.23727608  0.49579009
   0.04734929  0.38048065  0.49618998
   0.04774744  0.52338228  0.49662237
   0.04805791  0.66626618  0.49696334
   0.04822791  0.80925076  0.49688504
   0.04845345  0.95232063  0.49602970
   0.19167899  0.09577761  0.49534379
   0.19086694  0.23836437  0.49469781
   0.18946811  0.38060374  0.49434341
   0.19080207  0.52432028  0.49536704
   0.19076348  0.66674703  0.49616569
   0.19086602  0.80970860  0.49661122
   0.19150289  0.95282230  0.49631107
   0.33496551  0.09638160  0.49598507
   0.33613662  0.23948156  0.49483140
   0.33081339  0.38043335  0.49092387
   0.33039330  0.52326052  0.49018887
   0.33674001  0.67038608  0.49455141
   0.33310005  0.80986188  0.49595120
   0.33378024  0.95276556  0.49637146
   0.47702486  0.09517763  0.49640464
   0.47819344  0.23955254  0.49660311
   0.47234521  0.80565857  0.49553023
   0.47621015  0.95192516  0.49588676
   0.61907070  0.09417379  0.49628356
   0.62033709  0.23764504  0.49726786
   0.61903394  0.81027914  0.49746565
   0.61792861  0.95044019  0.49619755
   0.76159315  0.09365295  0.49608327
   0.76240970  0.23657198  0.49681900
   0.76192035  0.37924069  0.49811565
   0.76055423  0.52219026  0.50053355
   0.76346041  0.66548191  0.50249385
   0.76180464  0.80692698  0.50001671
   0.76116902  0.95060515  0.49701776
   0.90446858  0.09379866  0.49605208
   0.90469189  0.23693558  0.49626429
   0.90468959  0.38012236  0.49699711
   0.90482611  0.52299452  0.49763751
   0.90528216  0.66543381  0.49838355
   0.90560311  0.80889734  0.49796777
   0.90500728  0.95135330  0.49659731
   0.46874783  0.35716610  0.49667177
   0.40339505  0.41862160  0.48932186
   0.40263323  0.56128282  0.48598929
   0.64576648  0.67533459  0.50708148
   0.64392426  0.53506259  0.50594900
   0.58046443  0.73765743  0.49758016
   0.49917916  0.56479808  0.54553438
   0.51433156  0.56644295  0.44394999
   0.42687061  0.71508977  0.49480743
   0.62115694  0.37888636  0.49881929
   0.52711231  0.54672044  0.50001239
Direct configuration=     6
   0.00037674  0.99952704  0.49586573
   0.99996915  0.14208791  0.49585069
   0.00000321  0.28506677  0.49614102
   0.99996961  0.42799518  0.49655269
   0.00008941  0.57086864  0.49698723
   0.00074519  0.71379528  0.49730476
   0.00102033  0.85712711  0.49679488
   0.14395275  0.00064455  0.49583422
   0.14351430  0.14314852  0.49528871
   0.14275746  0.28544220  0.49503206
   0.14281743  0.42879119  0.49540491
   0.14296942  0.57130163  0.49621440
   0.14336901  0.71416838  0.49663546
   0.14354993  0.85740926  0.49663971
   0.28671283  0.00067719  0.49632751
   0.28733230  0.14390203  0.49533508
   0.28680309  0.28763559  0.49348269
   0.28497603  0.42878005  0.49159243
   0.28688344  0.57214407  0.49344949
   0.28611044  0.71504798  0.49564837
   0.28579383  0.85770102  0.49640304
   0.42916851  0.00000113  0.49614284
   0.43038238  0.14385959  0.49631937
   0.42968998  0.28447414  0.49600021
   0.42786922  0.85646993  0.49570003
   0.57119999  0.99901611  0.49594770
   0.57201392  0.14222153  0.49660343
   0.57593387  0.28846895  0.49764652
   0.57010863  0.85471251  0.49630708
   0.71337273  0.99796343  0.49634780
   0.71445693  0.14149051  0.49634378
   0.71508012  0.28439826  0.49742113
   0.71116510  0.42387940  0.49924919
   0.71652637  0.57078848  0.50349054
   0.71806879  0.71419510  0.50359960
   0.71252621  0.85508080  0.49834145
   0.85684074  0.99870542  0.49657839
   0.85682322  0.14154511  0.49608355
   0.85731195  0.28459328  0.49671033
   0.85724534  0.42753879  0.49762573
   0.85683216  0.56990985  0.49873026
   0.85884096  0.71372728  0.49935432
   0.85767422  0.85614341  0.49794299
   0.04810564  0.09493509  0.49566903
   0.04732682  0.23727615  0.49578884
   0.04734993  0.38048093  0.49618919
   0.04774789  0.52338407  0.49662062
   0.04805940  0.66626619  0.49696335
   0.04822838  0.80924889  0.49688499
   0.04845349  0.95232120  0.49603025
   0.19167995  0.09577834  0.49534336
   0.19086724  0.23836457  0.49469770
   0.18946860  0.38060377  0.49434388
   0.19080208  0.52432143  0.49536538
   0.19076243  0.66674746  0.49616429
   0.19086364  0.80970570  0.49661093
   0.19150265  0.95282217  0.49631071
   0.33496577  0.09638159  0.49598472
   0.33613734  0.23948159  0.49483107
   0.33081370  0.38043326  0.49092409
   0.33039254  0.52326131  0.49018888
   0.33673899  0.67038580  0.49455096
   0.33309627  0.80985991  0.49595032
   0.33377950  0.95276519  0.49637098
   0.47702048  0.09517363  0.49640435
   0.47819244  0.23955092  0.49660337
   0.47234426  0.80565790  0.49553044
   0.47620956  0.95192524  0.49588676
   0.61906857  0.09417041  0.49628455
   0.62033386  0.23764105  0.49726778
   0.61903293  0.81027787  0.49746810
   0.61792823  0.95043986  0.49619788
   0.76159309  0.09365236  0.49608384
   0.76240934  0.23657158  0.49681874
   0.76192021  0.37924114  0.49811592
   0.76055429  0.52218997  0.50053579
   0.76345999  0.66548129  0.50249780
   0.76180456  0.80692761  0.50001976
   0.76116923  0.95060476  0.49701920
   0.90446941  0.09379831  0.49605266
   0.90469195  0.23693606  0.49626291
   0.90468982  0.38012342  0.49699560
   0.90482713  0.52299572  0.49763764
   0.90528338  0.66543337  0.49838471
   0.90560314  0.80889695  0.49796925
   0.90500724  0.95135393  0.49659907
   0.46874797  0.35716616  0.49667188
   0.40339526  0.41862138  0.48932159
   0.40263348  0.56128383  0.48598926
   0.64576641  0.67533423  0.50708735
   0.64392432  0.53506278  0.50595287
   0.58046479  0.73765757  0.49758333
   0.49917123  0.56478978  0.54553281
   0.51432372  0.56644039  0.44394891
   0.42687155  0.71509043  0.49480765
   0.62115620  0.37888649  0.49882087
   0.52711504  0.54672268  0.50000717
Direct configuration=     7
   0.00037671  0.99952686  0.49586702
   0.99996975  0.14208807  0.49585044
   0.00000389  0.28506737  0.49613908
   0.99996996  0.42799537  0.49655047
   0.00008909  0.57086769  0.49698681
   0.00074458  0.71379597  0.49730523
   0.00102021  0.85712782  0.49679524
   0.14395332  0.00064425  0.49583391
   0.14351402  0.14314802  0.49528865
   0.14275813  0.28544214  0.49503153
   0.14281789  0.42879146  0.49540463
   0.14296943  0.57130136  0.49621226
   0.14336940  0.71416906  0.49663469
   0.14355003  0.85740997  0.49663950
   0.28671291  0.00067721  0.49632715
   0.28733256  0.14390203  0.49533427
   0.28680347  0.28763552  0.49348320
   0.28497656  0.42878006  0.49159347
   0.28688359  0.57214388  0.49344824
   0.28611114  0.71504897  0.49564709
   0.28579512  0.85770149  0.49640207
   0.42916929  0.00000176  0.49614249
   0.43038301  0.14386002  0.49631949
   0.42969002  0.28447468  0.49600073
   0.42787010  0.85647022  0.49569991
   0.57120045  0.99901651  0.49594810
   0.57201563  0.14222410  0.49660365
   0.57593402  0.28846886  0.49764705
   0.57010841  0.85471252  0.49630801
   0.71337295  0.99796359  0.49634886
   0.71445742  0.14149085  0.49634427
   0.71508092  0.28439857  0.49742132
   0.71116623  0.42387993  0.49925080
   0.71652652  0.57078848  0.50349516
   0.71806874  0.71419502  0.50360470
   0.71252629  0.85508067  0.49834481
   0.85684091  0.99870548  0.49657996
   0.85682313  0.14154542  0.49608334
   0.85731249  0.28459297  0.49670955
   0.85724581  0.42753904  0.49762536
   0.85683251  0.56991029  0.49873173
   0.85884132  0.71372827  0.49935717
   0.85767407  0.85614347  0.49794583
   0.04810651  0.09493589  0.49566926
   0.04732745  0.23727638  0.49578735
   0.04735036  0.38048095  0.49618815
   0.04774802  0.52338469  0.49661848
   0.04806005  0.66626659  0.49696345
   0.04822864  0.80924851  0.49688493
   0.04845367  0.95232165  0.49603088
   0.19168073  0.09577861  0.49534286
   0.19086783  0.23836467  0.49469778
   0.18946917  0.38060372  0.49434450
   0.19080210  0.52432178  0.49536344
   0.19076217  0.66674784  0.49616258
   0.19086265  0.80970469  0.49661046
   0.19150268  0.95282235  0.49631025
   0.33496611  0.09638181  0.49598432
   0.33613817  0.23948185  0.49483079
   0.33081417  0.38043330  0.49092460
   0.33039228  0.52326173  0.49018904
   0.33673883  0.67038579  0.49455045
   0.33309496  0.80985959  0.49594929
   0.33377941  0.95276530  0.49637039
   0.47701845  0.09517172  0.49640427
   0.47819208  0.23955016  0.49660379
   0.47234379  0.80565762  0.49553079
   0.47620967  0.95192543  0.49588676
   0.61906826  0.09416951  0.49628523
   0.62033274  0.23763927  0.49726776
   0.61903222  0.81027712  0.49747130
   0.61792826  0.95043980  0.49619835
   0.76159337  0.09365233  0.49608450
   0.76240968  0.23657164  0.49681827
   0.76192041  0.37924148  0.49811629
   0.76055461  0.52218989  0.50053878
   0.76345996  0.66548116  0.50250310
   0.76180454  0.80692790  0.50002390
   0.76116948  0.95060455  0.49702107
   0.90446997  0.09379849  0.49605311
   0.90469217  0.23693649  0.49626122
   0.90468994  0.38012376  0.49699375
   0.90482743  0.52299626  0.49763782
   0.90528382  0.66543351  0.49838626
   0.90560323  0.80889698  0.49797120
   0.90500724  0.95135426  0.49660126
   0.46874832  0.35716646  0.49667209
   0.40339556  0.41862111  0.48932148
   0.40263351  0.56128507  0.48598940
   0.64576625  0.67533360  0.50709558
   0.64392467  0.53506329  0.50595824
   0.58046511  0.73765741  0.49758746
   0.49916120  0.56477859  0.54552857
   0.51431229  0.56643738  0.44394481
   0.42687180  0.71509051  0.49480801
   0.62115610  0.37888673  0.49882295
   0.52711846  0.54672586  0.50000071
Direct configuration=     8
   0.00037697  0.99952738  0.49586850
   0.99997056  0.14208838  0.49585013
   0.00000480  0.28506781  0.49613684
   0.99997066  0.42799628  0.49654786
   0.00008957  0.57086804  0.49698624
   0.00074534  0.71379502  0.49730582
   0.00102059  0.85712809  0.49679574
   0.14395360  0.00064465  0.49583366
   0.14351430  0.14314795  0.49528858
   0.14275895  0.28544215  0.49503102
   0.14281909  0.42879263  0.49540446
   0.14296959  0.57130214  0.49620976
   0.14336915  0.71416894  0.49663374
   0.14355003  0.85740935  0.49663929
   0.28671315  0.00067724  0.49632671
   0.28733312  0.14390206  0.49533344
   0.28680387  0.28763532  0.49348393
   0.28497718  0.42878028  0.49159488
   0.28688319  0.57214431  0.49344702
   0.28611032  0.71504877  0.49564564
   0.28579444  0.85770106  0.49640098
   0.42916899  0.00000139  0.49614209
   0.43038273  0.14385935  0.49631965
   0.42969015  0.28447478  0.49600144
   0.42786939  0.85646980  0.49570008
   0.57120006  0.99901602  0.49594860
   0.57201460  0.14222203  0.49660379
   0.57593356  0.28846856  0.49764767
   0.57010821  0.85471220  0.49630931
   0.71337299  0.99796326  0.49635017
   0.71445692  0.14149005  0.49634478
   0.71508040  0.28439830  0.49742168
   0.71116576  0.42387973  0.49925279
   0.71652616  0.57078795  0.50350137
   0.71806893  0.71419547  0.50361163
   0.71252599  0.85508036  0.49834912
   0.85684114  0.99870562  0.49658190
   0.85682340  0.14154536  0.49608307
   0.85731301  0.28459362  0.49670882
   0.85724647  0.42753988  0.49762493
   0.85683322  0.56991071  0.49873365
   0.85884173  0.71372843  0.49936085
   0.85767391  0.85614371  0.49794938
   0.04810702  0.09493599  0.49566963
   0.04732797  0.23727676  0.49578567
   0.04735062  0.38048081  0.49618684
   0.04774787  0.52338410  0.49661598
   0.04805978  0.66626728  0.49696360
   0.04822868  0.80924970  0.49688486
   0.04845403  0.95232198  0.49603159
   0.19168125  0.09577840  0.49534231
   0.19086835  0.23836461  0.49469781
   0.18946950  0.38060362  0.49434505
   0.19080215  0.52432133  0.49536130
   0.19076276  0.66674812  0.49616059
   0.19086323  0.80970575  0.49660981
   0.19150304  0.95282280  0.49630969
   0.33496654  0.09638221  0.49598390
   0.33613901  0.23948230  0.49483061
   0.33081479  0.38043345  0.49092551
   0.33039254  0.52326172  0.49018946
   0.33673952  0.67038606  0.49454993
   0.33309631  0.80986092  0.49594813
   0.33378003  0.95276586  0.49636970
   0.47701956  0.09517260  0.49640455
   0.47819242  0.23955039  0.49660440
   0.47234388  0.80565775  0.49553133
   0.47621050  0.95192569  0.49588679
   0.61906974  0.09417114  0.49628564
   0.62033394  0.23764001  0.49726784
   0.61903195  0.81027698  0.49747534
   0.61792872  0.95044000  0.49619901
   0.76159394  0.09365285  0.49608522
   0.76241068  0.23657214  0.49681764
   0.76192098  0.37924166  0.49811677
   0.76055518  0.52219007  0.50054264
   0.76346041  0.66548156  0.50250994
   0.76180461  0.80692780  0.50002929
   0.76116975  0.95060454  0.49702344
   0.90447026  0.09379916  0.49605343
   0.90469262  0.23693684  0.49625924
   0.90469001  0.38012340  0.49699159
   0.90482705  0.52299612  0.49763806
   0.90528347  0.66543422  0.49838825
   0.90560342  0.80889749  0.49797368
   0.90500733  0.95135427  0.49660387
   0.46874888  0.35716697  0.49667243
   0.40339601  0.41862078  0.48932168
   0.40263330  0.56128658  0.48598984
   0.64576605  0.67533266  0.50710663
   0.64392530  0.53506414  0.50596541
   0.58046539  0.73765692  0.49759262
   0.49914878  0.56476419  0.54552080
   0.51429655  0.56643380  0.44393679
   0.42687138  0.71509000  0.49480856
   0.62115669  0.37888705  0.49882559
   0.52712266  0.54673030  0.49999207
Direct configuration=     9
   0.00037761  0.99952863  0.49587039