  99  99   0   0
  0.3914025E+02  0.1727104E-08  0.1727104E-08  0.1500000E-08  0.0000000E+00
  1.000000000000000E-004
  CAR 
 unknown system                          
      4.57689334    -31.14129917  301     -2.36226955      1.00000000
    -31.141  0.0000E+00  0.0000E+00  0.0000E+00  0.0000E+00
    -31.022  0.0000E+00  0.0000E+00  0.0000E+00  0.0000E+00
    -30.903  0.0000E+00  0.0000E+00  0.0000E+00  0.0000E+00
    -30.784  0.0000E+00  0.0000E+00  0.0000E+00  0.0000E+00
    -30.665  0.0000E+00  0.0000E+00  0.0000E+00  0.0000E+00
    -30.546  0.0000E+00  0.0000E+00  0.0000E+00  0.0000E+00
    -30.427  0.0000E+00  0.0000E+00  0.0000E+00  0.0000E+00
    -30.308  0.0000E+00  0.0000E+00  0.0000E+00  0.0000E+00
    -30.189  0.0000E+00  0.0000E+00  0.0000E+00  0.0000E+00
    -30.070  0.0000E+00  0.0000E+00  0.0000E+00  0.0000E+00
    -29.951  0.0000E+00  0.0000E+00  0.0000E+00  0.0000E+00
    -29.832  0.0000E+00  0.0000E+00  0.0000E+00  0.0000E+00
    -29.713  0.1497E-09  0.1497E-09  0.1782E-10  0.1782E-10
    -29.594  0.1346E-03  0.1346E-03  0.1603E-04  0.1603E-04
    -29.474  0.7898E-02  0.7898E-02  0.9564E-03  0.9564E-03
    -29.355  0.8506E-02  0.8506E-02  0.1969E-02  0.1969E-02
    -29.236  0.2592E-03  0.2592E-03  0.2000E-02  0.2000E-02
    -29.117  0.6896E-09  0.6896E-09  0.2000E-02  0.2000E-02
    -28.998  0.0000E+00  0.0000E+00  0.2000E-02  0.2000E-02
    -28.879  0.0000E+00  0.0000E+00  0.2000E-02  0.2000E-02
    -28.760  0.0000E+00  0.0000E+00  0.2000E-02  0.2000E-02
    -28.641  0.0000E+00  0.0000E+00  0.2000E-02  0.2000E-02
    -28.522  0.0000E+00  0.0000E+00  0.2000E-02  0.2000E-02
    -28.403  0.0000E+00  0.0000E+00  0.2000E-02  0.2000E-02
    -28.284  0.0000E+00  0.0000E+00  0.2000E-02  0.2000E-02
    -28.165  0.0000E+00  0.0000E+00  0.2000E-02  0.2000E-02
    -28.046  0.0000E+00  0.0000E+00  0.2000E-02  0.2000E-02
    -27.927  0.0000E+00  0.0000E+00  0.2000E-02  0.2000E-02
    -27.808  0.0000E+00  0.0000E+00  0.2000E-02  0.2000E-02
    -27.689  0.0000E+00  0.0000E+00  0.2000E-02  0.2000E-02
    -27.569  0.0000E+00  0.0000E+00  0.2000E-02  0.2000E-02
    -27.450  0.0000E+00  0.0000E+00  0.2000E-02  0.2000E-02
    -27.331  0.0000E+00  0.0000E+00  0.2000E-02  0.2000E-02
    -27.212  0.0000E+00  0.0000E+00  0.2000E-02  0.2000E-02
    -27.093  0.0000E+00  0.0000E+00  0.2000E-02  0.2000E-02
    -26.974  0.0000E+00  0.0000E+00  0.2000E-02  0.2000E-02
    -26.855  0.0000E+00  0.0000E+00  0.2000E-02  0.2000E-02
    -26.736  0.0000E+00  0.0000E+00  0.2000E-02  0.2000E-02
    -26.617  0.0000E+00  0.0000E+00  0.2000E-02  0.2000E-02
    -26.498  0.0000E+00  0.0000E+00  0.2000E-02  0.2000E-02
    -26.379  0.0000E+00  0.0000E+00  0.2000E-02  0.2000E-02
    -26.260  0.0000E+00  0.0000E+00  0.2000E-02  0.2000E-02
    -26.141  0.0000E+00  0.0000E+00  0.2000E-02  0.2000E-02
    -26.022  0.0000E+00  0.0000E+00  0.2000E-02  0.2000E-02
    -25.903  0.0000E+00  0.0000E+00  0.2000E-02  0.2000E-02
    -25.784  0.0000E+00  0.0000E+00  0.2000E-02  0.2000E-02
    -25.665  0.0000E+00  0.0000E+00  0.2000E-02  0.2000E-02
    -25.545  0.0000E+00  0.0000E+00  0.2000E-02  0.2000E-02
    -25.426  0.0000E+00  0.0000E+00  0.2000E-02  0.2000E-02
    -25.307  0.0000E+00  0.0000E+00  0.2000E-02  0.2000E-02
    -25.188  0.0000E+00  0.0000E+00  0.2000E-02  0.2000E-02
    -25.069  0.0000E+00  0.0000E+00  0.2000E-02  0.2000E-02
    -24.950  0.0000E+00  0.0000E+00  0.2000E-02  0.2000E-02
    -24.831  0.0000E+00  0.0000E+00  0.2000E-02  0.2000E-02
    -24.712  0.0000E+00  0.0000E+00  0.2000E-02  0.2000E-02
    -24.593  0.0000E+00  0.0000E+00  0.2000E-02  0.2000E-02
    -24.474  0.0000E+00  0.0000E+00  0.2000E-02  0.2000E-02
    -24.355  0.0000E+00  0.0000E+00  0.2000E-02  0.2000E-02
    -24.236  0.8636E-12  0.8636E-12  0.2000E-02  0.2000E-02
    -24.117  0.1173E-04  0.1173E-04  0.2001E-02  0.2001E-02
    -23.998  0.5425E-02  0.5425E-02  0.2647E-02  0.2647E-02
    -23.879  0.2962E-02  0.2962E-02  0.3000E-02  0.3000E-02
    -23.760  0.7559E-06  0.7559E-06  0.3000E-02  0.3000E-02
    -23.640  0.4765E-14  0.4765E-14  0.3000E-02  0.3000E-02
    -23.521  0.0000E+00  0.0000E+00  0.3000E-02  0.3000E-02
    -23.402  0.0000E+00  0.0000E+00  0.3000E-02  0.3000E-02
    -23.283  0.0000E+00  0.0000E+00  0.3000E-02  0.3000E-02
    -23.164  0.0000E+00  0.0000E+00  0.3000E-02  0.3000E-02
    -23.045  0.0000E+00  0.0000E+00  0.3000E-02  0.3000E-02
    -22.926  0.0000E+00  0.0000E+00  0.3000E-02  0.3000E-02
    -22.807  0.0000E+00  0.0000E+00  0.3000E-02  0.3000E-02
    -22.688  0.0000E+00  0.0000E+00  0.3000E-02  0.3000E-02
    -22.569  0.0000E+00  0.0000E+00  0.3000E-02  0.3000E-02
    -22.450  0.0000E+00  0.0000E+00  0.3000E-02  0.3000E-02
    -22.331  0.0000E+00  0.0000E+00  0.3000E-02  0.3000E-02
    -22.212  0.0000E+00  0.0000E+00  0.3000E-02  0.3000E-02
    -22.093  0.0000E+00  0.0000E+00  0.3000E-02  0.3000E-02
    -21.974  0.7750E-12  0.7750E-12  0.3000E-02  0.3000E-02
    -21.855  0.5570E-05  0.5570E-05  0.3001E-02  0.3001E-02
    -21.736  0.2190E-02  0.2190E-02  0.3261E-02  0.3261E-02
    -21.616  0.8643E-02  0.8643E-02  0.4290E-02  0.4290E-02
    -21.497  0.3836E-02  0.3836E-02  0.4747E-02  0.4747E-02
    -21.378  0.5794E-02  0.5794E-02  0.5437E-02  0.5437E-02
    -21.259  0.1013E-01  0.1013E-01  0.6644E-02  0.6644E-02
    -21.140  0.5198E-02  0.5198E-02  0.7262E-02  0.7262E-02
    -21.021  0.2202E-02  0.2202E-02  0.7525E-02  0.7525E-02
    -20.902  0.1038E-01  0.1038E-01  0.8760E-02  0.8760E-02
    -20.783  0.9758E-02  0.9758E-02  0.9922E-02  0.9922E-02
    -20.664  0.6738E-02  0.6738E-02  0.1072E-01  0.1072E-01
    -20.545  0.6654E-03  0.6654E-03  0.1080E-01  0.1080E-01
    -20.426  0.5956E-02  0.5956E-02  0.1151E-01  0.1151E-01
    -20.307  0.9631E-02  0.9631E-02  0.1266E-01  0.1266E-01
    -20.188  0.1151E-01  0.1151E-01  0.1403E-01  0.1403E-01
    -20.069  0.8585E-02  0.8585E-02  0.1505E-01  0.1505E-01
    -19.950  0.1865E-02  0.1865E-02  0.1527E-01  0.1527E-01
    -19.831  0.4664E-02  0.4664E-02  0.1583E-01  0.1583E-01
    -19.711  0.7858E-02  0.7858E-02  0.1676E-01  0.1676E-01
    -19.592  0.2840E-02  0.2840E-02  0.1710E-01  0.1710E-01
    -19.473  0.1163E-01  0.1163E-01  0.1849E-01  0.1849E-01
    -19.354  0.1441E-01  0.1441E-01  0.2020E-01  0.2020E-01
    -19.235  0.4439E-02  0.4439E-02  0.2073E-01  0.2073E-01
    -19.116  0.3784E-02  0.3784E-02  0.2118E-01  0.2118E-01
    -18.997  0.8493E-02  0.8493E-02  0.2219E-01  0.2219E-01
    -18.878  0.4159E-02  0.4159E-02  0.2269E-01  0.2269E-01
    -18.759  0.4395E-02  0.4395E-02  0.2321E-01  0.2321E-01
    -18.640  0.5898E-02  0.5898E-02  0.2391E-01  0.2391E-01
    -18.521  0.1169E-01  0.1169E-01  0.2531E-01  0.2531E-01
    -18.402  0.1399E-01  0.1399E-01  0.2697E-01  0.2697E-01
    -18.283  0.3630E-02  0.3630E-02  0.2740E-01  0.2740E-01
    -18.164  0.8088E-02  0.8088E-02  0.2837E-01  0.2837E-01
    -18.045  0.6915E-02  0.6915E-02  0.2919E-01  0.2919E-01
    -17.926  0.7726E-02  0.7726E-02  0.3011E-01  0.3011E-01
    -17.807  0.4273E-02  0.4273E-02  0.3062E-01  0.3062E-01
    -17.687  0.5066E-02  0.5066E-02  0.3122E-01  0.3122E-01
    -17.568  0.3399E-02  0.3399E-02  0.3163E-01  0.3163E-01
    -17.449  0.1081E-01  0.1081E-01  0.3291E-01  0.3291E-01
    -17.330  0.1621E-01  0.1621E-01  0.3484E-01  0.3484E-01
    -17.211  0.8253E-02  0.8253E-02  0.3582E-01  0.3582E-01
    -17.092  0.1157E-01  0.1157E-01  0.3720E-01  0.3720E-01
    -16.973  0.2780E-02  0.2780E-02  0.3753E-01  0.3753E-01
    -16.854  0.8350E-02  0.8350E-02  0.3853E-01  0.3853E-01
    -16.735  0.9388E-02  0.9388E-02  0.3965E-01  0.3965E-01
    -16.616  0.4125E-02  0.4125E-02  0.4014E-01  0.4014E-01
    -16.497  0.7004E-02  0.7004E-02  0.4097E-01  0.4097E-01
    -16.378  0.4790E-02  0.4790E-02  0.4154E-01  0.4154E-01
    -16.259  0.1710E-01  0.1710E-01  0.4358E-01  0.4358E-01
    -16.140  0.9451E-02  0.9451E-02  0.4470E-01  0.4470E-01
    -16.021  0.2449E-02  0.2449E-02  0.4499E-01  0.4499E-01
    -15.902  0.4418E-02  0.4418E-02  0.4552E-01  0.4552E-01
    -15.782  0.1935E-02  0.1935E-02  0.4575E-01  0.4575E-01
    -15.663  0.1952E-02  0.1952E-02  0.4598E-01  0.4598E-01
    -15.544  0.2262E-02  0.2262E-02  0.4625E-01  0.4625E-01
    -15.425  0.4075E-02  0.4075E-02  0.4674E-01  0.4674E-01
    -15.306  0.6877E-02  0.6877E-02  0.4756E-01  0.4756E-01
    -15.187  0.1131E-01  0.1131E-01  0.4890E-01  0.4890E-01
    -15.068  0.5304E-02  0.5304E-02  0.4953E-01  0.4953E-01
    -14.949  0.8273E-02  0.8273E-02  0.5052E-01  0.5052E-01
    -14.830  0.1558E-01  0.1558E-01  0.5237E-01  0.5237E-01
    -14.711  0.5374E-02  0.5374E-02  0.5301E-01  0.5301E-01
    -14.592  0.3588E-02  0.3588E-02  0.5344E-01  0.5344E-01
    -14.473  0.1281E-01  0.1281E-01  0.5497E-01  0.5497E-01
    -14.354  0.9503E-02  0.9503E-02  0.5610E-01  0.5610E-01
    -14.235  0.9333E-02  0.9333E-02  0.5721E-01  0.5721E-01
    -14.116  0.1112E-01  0.1112E-01  0.5853E-01  0.5853E-01
    -13.997  0.1002E-01  0.1002E-01  0.5972E-01  0.5972E-01
    -13.878  0.4188E-02  0.4188E-02  0.6022E-01  0.6022E-01
    -13.758  0.5162E-02  0.5162E-02  0.6084E-01  0.6084E-01
    -13.639  0.5526E-02  0.5526E-02  0.6150E-01  0.6150E-01
    -13.520  0.9307E-02  0.9307E-02  0.6260E-01  0.6260E-01
    -13.401  0.8319E-02  0.8319E-02  0.6359E-01  0.6359E-01
    -13.282  0.6576E-02  0.6576E-02  0.6438E-01  0.6438E-01
    -13.163  0.8028E-02  0.8028E-02  0.6533E-01  0.6533E-01
    -13.044  0.6319E-02  0.6319E-02  0.6609E-01  0.6609E-01
    -12.925  0.5885E-02  0.5885E-02  0.6679E-01  0.6679E-01
    -12.806  0.5744E-02  0.5744E-02  0.6747E-01  0.6747E-01
    -12.687  0.7083E-02  0.7083E-02  0.6831E-01  0.6831E-01
    -12.568  0.5590E-02  0.5590E-02  0.6898E-01  0.6898E-01
    -12.449  0.1727E-01  0.1727E-01  0.7103E-01  0.7103E-01
    -12.330  0.1069E-01  0.1069E-01  0.7231E-01  0.7231E-01
    -12.211  0.1190E-01  0.1190E-01  0.7372E-01  0.7372E-01
    -12.092  0.6160E-02  0.6160E-02  0.7446E-01  0.7446E-01
    -11.973  0.6036E-02  0.6036E-02  0.7518E-01  0.7518E-01
    -11.853  0.8480E-02  0.8480E-02  0.7619E-01  0.7619E-01
    -11.734  0.1087E-01  0.1087E-01  0.7748E-01  0.7748E-01
    -11.615  0.7323E-02  0.7323E-02  0.7835E-01  0.7835E-01
    -11.496  0.9984E-02  0.9984E-02  0.7954E-01  0.7954E-01
    -11.377  0.1190E-01  0.1190E-01  0.8096E-01  0.8096E-01
    -11.258  0.1179E-01  0.1179E-01  0.8236E-01  0.8236E-01
    -11.139  0.1237E-01  0.1237E-01  0.8383E-01  0.8383E-01
    -11.020  0.1122E-01  0.1122E-01  0.8517E-01  0.8517E-01
    -10.901  0.1062E-01  0.1062E-01  0.8643E-01  0.8643E-01
    -10.782  0.1097E-01  0.1097E-01  0.8774E-01  0.8774E-01
    -10.663  0.7262E-02  0.7262E-02  0.8861E-01  0.8861E-01
    -10.544  0.6559E-02  0.6559E-02  0.8939E-01  0.8939E-01
    -10.425  0.7614E-02  0.7614E-02  0.9029E-01  0.9029E-01
    -10.306  0.7093E-02  0.7093E-02  0.9114E-01  0.9114E-01
    -10.187  0.1418E-01  0.1418E-01  0.9283E-01  0.9283E-01
    -10.068  0.1932E-01  0.1932E-01  0.9513E-01  0.9513E-01
     -9.949  0.1738E-01  0.1738E-01  0.9720E-01  0.9720E-01
     -9.829  0.1951E-01  0.1951E-01  0.9952E-01  0.9952E-01
     -9.710  0.1449E-01  0.1449E-01  0.1012E+00  0.1012E+00
     -9.591  0.2107E-01  0.2107E-01  0.1038E+00  0.1038E+00
     -9.472  0.9329E-02  0.9329E-02  0.1049E+00  0.1049E+00
     -9.353  0.1804E-01  0.1804E-01  0.1070E+00  0.1070E+00
     -9.234  0.1640E-01  0.1640E-01  0.1090E+00  0.1090E+00
     -9.115  0.1927E-01  0.1927E-01  0.1113E+00  0.1113E+00
     -8.996  0.2271E-01  0.2271E-01  0.1140E+00  0.1140E+00
     -8.877  0.1983E-01  0.1983E-01  0.1163E+00  0.1163E+00
     -8.758  0.2716E-01  0.2716E-01  0.1196E+00  0.1196E+00
     -8.639  0.3215E-01  0.3215E-01  0.1234E+00  0.1234E+00
     -8.520  0.1590E-01  0.1590E-01  0.1253E+00  0.1253E+00
     -8.401  0.2021E-01  0.2021E-01  0.1277E+00  0.1277E+00
     -8.282  0.1678E-01  0.1678E-01  0.1297E+00  0.1297E+00
     -8.163  0.1709E-01  0.1709E-01  0.1317E+00  0.1317E+00
     -8.044  0.2103E-01  0.2103E-01  0.1342E+00  0.1342E+00
     -7.924  0.2584E-01  0.2584E-01  0.1373E+00  0.1373E+00
     -7.805  0.1779E-01  0.1779E-01  0.1394E+00  0.1394E+00
     -7.686  0.1481E-01  0.1481E-01  0.1412E+00  0.1412E+00
     -7.567  0.1689E-01  0.1689E-01  0.1432E+00  0.1432E+00
     -7.448  0.1657E-01  0.1657E-01  0.1452E+00  0.1452E+00
     -7.329  0.6802E-02  0.6802E-02  0.1460E+00  0.1460E+00
     -7.210  0.1333E-01  0.1333E-01  0.1476E+00  0.1476E+00
     -7.091  0.2161E-01  0.2161E-01  0.1501E+00  0.1501E+00
     -6.972  0.2182E-01  0.2182E-01  0.1527E+00  0.1527E+00
     -6.853  0.1720E-01  0.1720E-01  0.1548E+00  0.1548E+00
     -6.734  0.1030E-01  0.1030E-01  0.1560E+00  0.1560E+00
     -6.615  0.8820E-02  0.8820E-02  0.1571E+00  0.1571E+00
     -6.496  0.1585E-01  0.1585E-01  0.1589E+00  0.1589E+00
     -6.377  0.9265E-02  0.9265E-02  0.1600E+00  0.1600E+00
     -6.258  0.1200E-01  0.1200E-01  0.1615E+00  0.1615E+00
     -6.139  0.1450E-01  0.1450E-01  0.1632E+00  0.1632E+00
     -6.020  0.1952E-01  0.1952E-01  0.1655E+00  0.1655E+00
     -5.900  0.1294E-01  0.1294E-01  0.1671E+00  0.1671E+00
     -5.781  0.1675E-01  0.1675E-01  0.1691E+00  0.1691E+00
     -5.662  0.1629E-01  0.1629E-01  0.1710E+00  0.1710E+00
     -5.543  0.1408E-01  0.1408E-01  0.1727E+00  0.1727E+00
     -5.424  0.8853E-02  0.8853E-02  0.1737E+00  0.1737E+00
     -5.305  0.5793E-02  0.5793E-02  0.1744E+00  0.1744E+00
     -5.186  0.3476E-02  0.3476E-02  0.1748E+00  0.1748E+00
     -5.067  0.2136E-02  0.2136E-02  0.1751E+00  0.1751E+00
     -4.948  0.1779E-01  0.1779E-01  0.1772E+00  0.1772E+00
     -4.829  0.1968E-01  0.1968E-01  0.1795E+00  0.1795E+00
     -4.710  0.1454E-01  0.1454E-01  0.1813E+00  0.1813E+00
     -4.591  0.4039E-02  0.4039E-02  0.1818E+00  0.1818E+00
     -4.472  0.1007E-01  0.1007E-01  0.1830E+00  0.1830E+00
     -4.353  0.2482E-02  0.2482E-02  0.1833E+00  0.1833E+00
     -4.234  0.2420E-02  0.2420E-02  0.1835E+00  0.1835E+00
     -4.115  0.8528E-02  0.8528E-02  0.1846E+00  0.1846E+00
     -3.995  0.6475E-02  0.6475E-02  0.1853E+00  0.1853E+00
     -3.876  0.7525E-02  0.7525E-02  0.1862E+00  0.1862E+00
     -3.757  0.7489E-02  0.7489E-02  0.1871E+00  0.1871E+00
     -3.638  0.6645E-02  0.6645E-02  0.1879E+00  0.1879E+00
     -3.519  0.8054E-03  0.8054E-03  0.1880E+00  0.1880E+00
     -3.400  0.3615E-05  0.3615E-05  0.1880E+00  0.1880E+00
     -3.281  0.1566E-02  0.1566E-02  0.1882E+00  0.1882E+00
     -3.162  0.6025E-02  0.6025E-02  0.1889E+00  0.1889E+00
     -3.043  0.2893E-02  0.2893E-02  0.1892E+00  0.1892E+00
     -2.924  0.1537E-02  0.1537E-02  0.1894E+00  0.1894E+00
     -2.805  0.5739E-03  0.5739E-03  0.1895E+00  0.1895E+00
     -2.686  0.1014E-05  0.1014E-05  0.1895E+00  0.1895E+00
     -2.567  0.1842E-02  0.1842E-02  0.1897E+00  0.1897E+00
     -2.448  0.2353E-02  0.2353E-02  0.1900E+00  0.1900E+00
     -2.329  0.2860E-05  0.2860E-05  0.1900E+00  0.1900E+00
     -2.210  0.4071E-03  0.4071E-03  0.1900E+00  0.1900E+00
     -2.091  0.3710E-02  0.3710E-02  0.1905E+00  0.1905E+00
     -1.971  0.8197E-04  0.8197E-04  0.1905E+00  0.1905E+00
     -1.852  0.1911E-05  0.1911E-05  0.1905E+00  0.1905E+00
     -1.733  0.1278E-02  0.1278E-02  0.1907E+00  0.1907E+00
     -1.614  0.2664E-02  0.2664E-02  0.1910E+00  0.1910E+00
     -1.495  0.6208E-02  0.6208E-02  0.1917E+00  0.1917E+00
     -1.376  0.2445E-02  0.2445E-02  0.1920E+00  0.1920E+00
     -1.257  0.1105E-04  0.1105E-04  0.1920E+00  0.1920E+00
     -1.138  0.3587E-02  0.3587E-02  0.1924E+00  0.1924E+00
     -1.019  0.7402E-02  0.7402E-02  0.1933E+00  0.1933E+00
     -0.900  0.4039E-02  0.4039E-02  0.1938E+00  0.1938E+00
     -0.781  0.1227E-01  0.1227E-01  0.1953E+00  0.1953E+00
     -0.662  0.1307E-01  0.1307E-01  0.1968E+00  0.1968E+00
     -0.543  0.4185E-02  0.4185E-02  0.1973E+00  0.1973E+00
     -0.424  0.1251E-01  0.1251E-01  0.1988E+00  0.1988E+00
     -0.305  0.7542E-02  0.7542E-02  0.1997E+00  0.1997E+00
     -0.186  0.5314E-02  0.5314E-02  0.2003E+00  0.2003E+00
     -0.066  0.6668E-02  0.6668E-02  0.2011E+00  0.2011E+00
      0.053  0.9116E-02  0.9116E-02  0.2022E+00  0.2022E+00
      0.172  0.9265E-02  0.9265E-02  0.2033E+00  0.2033E+00
      0.291  0.1297E-01  0.1297E-01  0.2049E+00  0.2049E+00
      0.410  0.7608E-02  0.7608E-02  0.2058E+00  0.2058E+00
      0.529  0.2020E-02  0.2020E-02  0.2060E+00  0.2060E+00
      0.648  0.5085E-02  0.5085E-02  0.2066E+00  0.2066E+00
      0.767  0.1307E-01  0.1307E-01  0.2082E+00  0.2082E+00
      0.886  0.8031E-02  0.8031E-02  0.2091E+00  0.2091E+00
      1.005  0.5934E-02  0.5934E-02  0.2098E+00  0.2098E+00
      1.124  0.1067E-01  0.1067E-01  0.2111E+00  0.2111E+00
      1.243  0.5844E-02  0.5844E-02  0.2118E+00  0.2118E+00
      1.362  0.9625E-02  0.9625E-02  0.2129E+00  0.2129E+00
      1.481  0.9027E-02  0.9027E-02  0.2140E+00  0.2140E+00
      1.600  0.1869E-01  0.1869E-01  0.2162E+00  0.2162E+00
      1.719  0.1552E-01  0.1552E-01  0.2181E+00  0.2181E+00
      1.838  0.1433E-01  0.1433E-01  0.2198E+00  0.2198E+00
      1.958  0.9349E-02  0.9349E-02  0.2209E+00  0.2209E+00
      2.077  0.1923E-01  0.1923E-01  0.2232E+00  0.2232E+00
      2.196  0.1662E-01  0.1662E-01  0.2252E+00  0.2252E+00
      2.315  0.1784E-01  0.1784E-01  0.2273E+00  0.2273E+00
      2.434  0.2387E-01  0.2387E-01  0.2301E+00  0.2301E+00
      2.553  0.1614E-01  0.1614E-01  0.2321E+00  0.2321E+00
      2.672  0.8991E-02  0.8991E-02  0.2331E+00  0.2331E+00
      2.791  0.1934E-01  0.1934E-01  0.2354E+00  0.2354E+00
      2.910  0.2662E-01  0.2662E-01  0.2386E+00  0.2386E+00
      3.029  0.1169E-01  0.1169E-01  0.2400E+00  0.2400E+00
      3.148  0.5633E-04  0.5632E-04  0.2400E+00  0.2400E+00
      3.267  0.4254E-10  0.4254E-10  0.2400E+00  0.2400E+00
      3.386  0.0000E+00  0.0000E+00  0.2400E+00  0.2400E+00
      3.505  0.0000E+00  0.0000E+00  0.2400E+00  0.2400E+00
      3.624  0.0000E+00  0.0000E+00  0.2400E+00  0.2400E+00
      3.743  0.0000E+00  0.0000E+00  0.2400E+00  0.2400E+00
      3.863  0.0000E+00  0.0000E+00  0.2400E+00  0.2400E+00
      3.982  0.0000E+00  0.0000E+00  0.2400E+00  0.2400E+00
      4.101  0.0000E+00  0.0000E+00  0.2400E+00  0.2400E+00
      4.220  0.0000E+00  0.0000E+00  0.2400E+00  0.2400E+00
      4.339  0.0000E+00  0.0000E+00  0.2400E+00  0.2400E+00
      4.458  0.0000E+00  0.0000E+00  0.2400E+00  0.2400E+00
      4.577  0.0000E+00  0.0000E+00  0.2400E+00  0.2400E+00
