 vasp.6.4.2 20Jul23 (build Aug 26 2025 15:10:52) complex                        
  
 POSCAR found type information on POSCAR C H F O 
 04/POSCAR found :  4 types and      99 ions
 Reading from existing POTCAR
 scaLAPACK will be used
 -----------------------------------------------------------------------------
|                                                                             |
|           W    W    AA    RRRRR   N    N  II  N    N   GGGG   !!!           |
|           W    W   A  A   R    R  NN   N  II  NN   N  G    G  !!!           |
|           W    W  A    A  R    R  N N  N  II  N N  N  G       !!!           |
|           W WW W  AAAAAA  RRRRR   N  N N  II  N  N N  G  GGG   !            |
|           WW  WW  A    A  R   R   N   NN  II  N   NN  G    G                |
|           W    W  A    A  R    R  N    N  II  N    N   GGGG   !!!           |
|                                                                             |
|     For optimal performance we recommend to set                             |
|       NCORE = 2 up to number-of-cores-per-socket                            |
|     NCORE specifies how many cores store one orbital (NPAR=cpu/NCORE).      |
|     This setting can greatly improve the performance of VASP for DFT.       |
|     The default, NCORE=1 might be grossly inefficient on modern             |
|     multi-core architectures or massively parallel machines. Do your        |
|     own testing! More info at https://www.vasp.at/wiki/index.php/NCORE      |
|     Unfortunately you need to use the default for GW and RPA                |
|     calculations (for HF NCORE is supported but not extensively tested      |
|     yet).                                                                   |
|                                                                             |
 -----------------------------------------------------------------------------

 Reading from existing POTCAR
 LDA part: xc-table for Pade appr. of Perdew
 POSCAR found type information on POSCAR C H F O 
 00/POSCAR found :  4 types and      99 ions
 POSCAR found type information on POSCAR C H F O 
 06/POSCAR found :  4 types and      99 ions
 Jacobian:    33.7825262909836     
 POSCAR found type information on POSCAR C H F O 
 00/POSCAR found :  4 types and      99 ions
 POSCAR found type information on POSCAR C H F O 
 06/POSCAR found :  4 types and      99 ions
 POSCAR, INCAR and KPOINTS ok, starting setup
 FFT: planning ... GRIDC
 FFT: planning ... GRID_SOFT
 FFT: planning ... GRID
 WAVECAR not read
 entering main loop
       N       E                     dE             d eps       ncg     rms          rms(c)
DAV:   1     0.355532368899E+04    0.35553E+04   -0.14464E+05  4200   0.120E+03
DAV:   2    -0.203106088392E+03   -0.37584E+04   -0.35731E+04  5620   0.290E+02
DAV:   3    -0.887640359779E+03   -0.68453E+03   -0.68169E+03  4590   0.130E+02
DAV:   4    -0.912853027657E+03   -0.25213E+02   -0.25068E+02  4590   0.316E+01
DAV:   5    -0.913634781759E+03   -0.78175E+00   -0.78018E+00  5300   0.484E+00    0.438E+01
DAV:   6    -0.880449368548E+03    0.33185E+02   -0.21280E+01  4380   0.923E+00    0.334E+01
DAV:   7    -0.851984163945E+03    0.28465E+02   -0.10923E+02  4260   0.189E+01    0.131E+01
DAV:   8    -0.851735048450E+03    0.24912E+00   -0.64252E+00  4530   0.592E+00    0.656E+00
DAV:   9    -0.851787543662E+03   -0.52495E-01   -0.11904E+00  4420   0.266E+00    0.247E+00
DAV:  10    -0.851672355396E+03    0.11519E+00   -0.40462E-01  4500   0.148E+00    0.106E+00
DAV:  11    -0.851657534758E+03    0.14821E-01   -0.11603E-01  4390   0.805E-01    0.315E-01
DAV:  12    -0.851656136112E+03    0.13986E-02   -0.23315E-02  4490   0.407E-01    0.157E-01
DAV:  13    -0.851656185073E+03   -0.48961E-04   -0.33143E-03  4450   0.147E-01    0.119E-01
DAV:  14    -0.851656195131E+03   -0.10058E-04   -0.20623E-03  4370   0.107E-01    0.588E-02
DAV:  15    -0.851656183841E+03    0.11290E-04   -0.23252E-04  4720   0.474E-02    0.386E-02
DAV:  16    -0.851656216668E+03   -0.32827E-04   -0.23902E-04  4640   0.494E-02    0.280E-02
DAV:  17    -0.851656207061E+03    0.96072E-05   -0.10129E-04  5050   0.322E-02    0.910E-03
DAV:  18    -0.851656209902E+03   -0.28418E-05   -0.22592E-05  4390   0.996E-03    0.532E-03
DAV:  19    -0.851656209762E+03    0.14053E-06   -0.15647E-06  3350   0.440E-03
   1 F= -.85957047E+03 E0= -.85957047E+03  d E =-.859570E+03  mag=    -0.0000
quench:  g(F)=  0.000E+00 g(S)=  0.000E+00 dE (1.order)= 0.000E+00
 bond charge predicted
       N       E                     dE             d eps       ncg     rms          rms(c)
DAV:   1    -0.851656337625E+03   -0.12772E-03   -0.43399E-03  4040   0.121E-01    0.133E-02
DAV:   2    -0.851656343362E+03   -0.57371E-05   -0.93521E-05  4160   0.158E-02    0.110E-02
DAV:   3    -0.851656341759E+03    0.16035E-05   -0.17777E-06  3310   0.292E-03    0.870E-03
DAV:   4    -0.851656343033E+03   -0.12739E-05   -0.48288E-06  3540   0.445E-03    0.257E-03
DAV:   5    -0.851656343298E+03   -0.26543E-06   -0.10023E-06  2890   0.168E-03
   2 F= -.85957058E+03 E0= -.85957058E+03  d E =-.116772E-03  mag=    -0.0000
quench:  g(F)=  0.000E+00 g(S)=  0.000E+00 dE (1.order)= 0.000E+00
 bond charge predicted
       N       E                     dE             d eps       ncg     rms          rms(c)
DAV:   1    -0.851656549897E+03   -0.20686E-03   -0.11213E-02  4050   0.198E-01    0.209E-02
DAV:   2    -0.851656563391E+03   -0.13493E-04   -0.21983E-04  4020   0.253E-02    0.167E-02
DAV:   3    -0.851656560173E+03    0.32173E-05   -0.38170E-06  3860   0.424E-03    0.131E-02
DAV:   4    -0.851656565516E+03   -0.53425E-05   -0.10652E-05  3600   0.671E-03    0.295E-03
DAV:   5    -0.851656565816E+03   -0.29976E-06   -0.20291E-06  3090   0.254E-03
   3 F= -.85957078E+03 E0= -.85957078E+03  d E =-.191647E-03  mag=     0.0000
quench:  g(F)=  0.000E+00 g(S)=  0.000E+00 dE (1.order)= 0.000E+00
 bond charge predicted
       N       E                     dE             d eps       ncg     rms          rms(c)
DAV:   1    -0.851656871225E+03   -0.30571E-03   -0.17332E-02  4060   0.257E-01    0.265E-02
DAV:   2    -0.851656892573E+03   -0.21348E-04   -0.32236E-04  4000   0.323E-02    0.206E-02
DAV:   3    -0.851656888943E+03    0.36296E-05   -0.54999E-06  4020   0.523E-03    0.159E-02
DAV:   4    -0.851656896653E+03   -0.77098E-05   -0.13735E-05  3730   0.796E-03    0.312E-03
DAV:   5    -0.851656896609E+03    0.43707E-07   -0.25238E-06  3400   0.314E-03
   4 F= -.85957106E+03 E0= -.85957106E+03  d E =-.288254E-03  mag=     0.0000
quench:  g(F)=  0.000E+00 g(S)=  0.000E+00 dE (1.order)= 0.000E+00
 bond charge predicted
       N       E                     dE             d eps       ncg     rms          rms(c)
DAV:   1    -0.851657248749E+03   -0.35210E-03   -0.27824E-02  4040   0.331E-01    0.335E-02
DAV:   2    -0.851657284460E+03   -0.35711E-04   -0.52411E-04  4000   0.420E-02    0.263E-02
DAV:   3    -0.851657278824E+03    0.56366E-05   -0.94888E-06  4320   0.688E-03    0.203E-02
DAV:   4    -0.851657289962E+03   -0.11138E-04   -0.21967E-05  3820   0.104E-02    0.432E-03
DAV:   5    -0.851657289921E+03    0.41247E-07   -0.41730E-06  3900   0.413E-03
   5 F= -.85957140E+03 E0= -.85957140E+03  d E =-.339291E-03  mag=     0.0000
quench:  g(F)=  0.000E+00 g(S)=  0.000E+00 dE (1.order)= 0.000E+00
 bond charge predicted
       N       E                     dE             d eps       ncg     rms          rms(c)
DAV:   1    -0.851657665552E+03   -0.37559E-03   -0.43683E-02  4000   0.410E-01    0.413E-02
DAV:   2    -0.851657719131E+03   -0.53580E-04   -0.82451E-04  3980   0.523E-02    0.325E-02
DAV:   3    -0.851657709792E+03    0.93398E-05   -0.13918E-05  4480   0.825E-03    0.252E-02
DAV:   4    -0.851657729421E+03   -0.19629E-04   -0.39033E-05  3810   0.130E-02    0.507E-03
DAV:   5    -0.851657729387E+03    0.33193E-07   -0.69503E-06  4260   0.499E-03
   6 F= -.85957178E+03 E0= -.85957178E+03  d E =-.376264E-03  mag=    -0.0000
quench:  g(F)=  0.000E+00 g(S)=  0.000E+00 dE (1.order)= 0.000E+00
 bond charge predicted
       N       E                     dE             d eps       ncg     rms          rms(c)
DAV:   1    -0.851658093093E+03   -0.36367E-03   -0.60106E-02  3980   0.484E-01    0.485E-02
DAV:   2    -0.851658167437E+03   -0.74344E-04   -0.11621E-03  3960   0.626E-02    0.385E-02
DAV:   3    -0.851658154817E+03    0.12620E-04   -0.19680E-05  4640   0.982E-03    0.300E-02
DAV:   4    -0.851658181270E+03   -0.26453E-04   -0.55368E-05  3830   0.155E-02    0.593E-03
DAV:   5    -0.851658181741E+03   -0.47137E-06   -0.10141E-05  4340   0.580E-03    0.450E-03
DAV:   6    -0.851658182247E+03   -0.50628E-06   -0.12362E-06  2720   0.271E-03
   7 F= -.85957216E+03 E0= -.85957216E+03  d E =-.383046E-03  mag=     0.0000
quench:  g(F)=  0.000E+00 g(S)=  0.000E+00 dE (1.order)= 0.000E+00
 bond charge predicted
       N       E                     dE             d eps       ncg     rms          rms(c)
DAV:   1    -0.851658567328E+03   -0.38559E-03   -0.83407E-02  3960   0.586E-01    0.576E-02
DAV:   2    -0.851658671661E+03   -0.10433E-03   -0.15968E-03  3920   0.760E-02    0.459E-02
DAV:   3    -0.851658654895E+03    0.16767E-04   -0.28834E-05  4580   0.122E-02    0.353E-02
DAV:   4    -0.851658686005E+03   -0.31110E-04   -0.74455E-05  3900   0.183E-02    0.698E-03
DAV:   5    -0.851658686352E+03   -0.34710E-06   -0.14020E-05  4320   0.709E-03    0.506E-03
DAV:   6    -0.851658687066E+03   -0.71357E-06   -0.17819E-06  2960   0.306E-03
   8 F= -.85957259E+03 E0= -.85957259E+03  d E =-.424810E-03  mag=     0.0000
quench:  g(F)=  0.000E+00 g(S)=  0.000E+00 dE (1.order)= 0.000E+00
 bond charge predicted
       N       E                     dE             d eps       ncg     rms          rms(c)
DAV:   1    -0.851659112615E+03   -0.42626E-03   -0.11346E-01  3960   0.699E-01    0.687E-02
DAV:   2    -0.851659251687E+03   -0.13907E-03   -0.21410E-03  3940   0.906E-02    0.552E-02
DAV:   3    -0.851659231226E+03    0.20461E-04   -0.42613E-05  4560   0.151E-02    0.419E-02
DAV:   4    -0.851659269327E+03   -0.38101E-04   -0.96956E-05  4040   0.216E-02    0.855E-03
DAV:   5    -0.851659269689E+03   -0.36167E-06   -0.19078E-05  4320   0.855E-03    0.588E-03
DAV:   6    -0.851659270599E+03   -0.91015E-06   -0.27968E-06  3320   0.374E-03
   9 F= -.85957308E+03 E0= -.85957308E+03  d E =-.492484E-03  mag=    -0.0000
quench:  g(F)=  0.000E+00 g(S)=  0.000E+00 dE (1.order)= 0.000E+00
 bond charge predicted
       N       E                     dE             d eps       ncg     rms          rms(c)
DAV:   1    -0.851659743686E+03   -0.47400E-03   -0.18229E-01  3920   0.875E-01    0.873E-02
DAV:   2    -0.851659957448E+03   -0.21376E-03   -0.33888E-03  3980   0.113E-01    0.717E-02
DAV:   3    -0.851659921464E+03    0.35985E-04   -0.67796E-05  4540   0.190E-02    0.543E-02
DAV:   4    -0.851659977271E+03   -0.55807E-04   -0.18104E-04  4290   0.283E-02    0.111E-02
DAV:   5    -0.851659978029E+03   -0.75803E-06   -0.33944E-05  4320   0.111E-02    0.766E-03
DAV:   6    -0.851659980568E+03   -0.25397E-05   -0.39717E-06  3560   0.448E-03    0.365E-03
DAV:   7    -0.851659980831E+03   -0.26304E-06   -0.86368E-07  2980   0.197E-03
  10 F= -.85957368E+03 E0= -.85957368E+03  d E =-.598405E-03  mag=     0.0000
quench:  g(F)=  0.000E+00 g(S)=  0.000E+00 dE (1.order)= 0.000E+00
 bond charge predicted
       N       E                     dE             d eps       ncg     rms          rms(c)
DAV:   1    -0.851660548207E+03   -0.56764E-03   -0.25894E-01  3920   0.106E+00    0.106E-01
DAV:   2    -0.851660850544E+03   -0.30234E-03   -0.47161E-03  3910   0.136E-01    0.874E-02
DAV:   3    -0.851660798500E+03    0.52044E-04   -0.10346E-04  4520   0.238E-02    0.653E-02
DAV:   4    -0.851660863117E+03   -0.64617E-04   -0.24867E-04  4380   0.334E-02    0.133E-02
DAV:   5    -0.851660863375E+03   -0.25770E-06   -0.48044E-05  4300   0.134E-02    0.896E-03
DAV:   6    -0.851660866537E+03   -0.31626E-05   -0.60171E-06  3700   0.519E-03    0.422E-03
DAV:   7    -0.851660867058E+03   -0.52033E-06   -0.11012E-06  2820   0.221E-03
  11 F= -.85957443E+03 E0= -.85957443E+03  d E =-.748826E-03  mag=    -0.0000
quench:  g(F)=  0.000E+00 g(S)=  0.000E+00 dE (1.order)= 0.000E+00
 bond charge predicted
       N       E                     dE             d eps       ncg     rms          rms(c)
DAV:   1    -0.851661519299E+03   -0.65276E-03   -0.38797E-01  3920   0.130E+00    0.131E-01
DAV:   2    -0.851661978201E+03   -0.45890E-03   -0.70069E-03  3920   0.166E-01    0.109E-01
DAV:   3    -0.851661899010E+03    0.79191E-04   -0.15715E-04  4540   0.294E-02    0.809E-02
DAV:   4    -0.851661980477E+03   -0.81468E-04   -0.37846E-04  4510   0.414E-02    0.165E-02
DAV:   5    -0.851661979807E+03    0.67052E-06   -0.74010E-05  4270   0.168E-02    0.110E-02
DAV:   6    -0.851661984774E+03   -0.49673E-05   -0.93754E-06  3800   0.653E-03    0.506E-03
DAV:   7    -0.851661985516E+03   -0.74167E-06   -0.15431E-06  2980   0.261E-03
  12 F= -.85957536E+03 E0= -.85957536E+03  d E =-.933414E-03  mag=    -0.0000
quench:  g(F)=  0.000E+00 g(S)=  0.000E+00 dE (1.order)= 0.000E+00
 bond charge predicted
       N       E                     dE             d eps       ncg     rms          rms(c)
DAV:   1    -0.851662524786E+03   -0.54001E-03   -0.64173E-01  3900   0.165E+00    0.166E-01
DAV:   2    -0.851663346889E+03   -0.82210E-03   -0.11929E-02  3960   0.213E-01    0.138E-01
DAV:   3    -0.851663211057E+03    0.13583E-03   -0.25019E-04  4560   0.366E-02    0.105E-01
DAV:   4    -0.851663299916E+03   -0.88860E-04   -0.66527E-04  4580   0.536E-02    0.216E-02
DAV:   5    -0.851663305367E+03   -0.54506E-05   -0.12039E-04  4200   0.204E-02    0.149E-02
DAV:   6    -0.851663314818E+03   -0.94510E-05   -0.15518E-05  3900   0.851E-03    0.690E-03
DAV:   7    -0.851663316304E+03   -0.14859E-05   -0.34556E-06  3560   0.365E-03    0.370E-03
DAV:   8    -0.851663316321E+03   -0.17339E-07   -0.11580E-06  3050   0.268E-03
  13 F= -.85957647E+03 E0= -.85957647E+03  d E =-.110987E-02  mag=    -0.0000
quench:  g(F)=  0.000E+00 g(S)=  0.000E+00 dE (1.order)= 0.000E+00
 bond charge predicted
       N       E                     dE             d eps       ncg     rms          rms(c)
DAV:   1    -0.851663168593E+03    0.14771E-03   -0.83374E-01  3860   0.197E+00    0.195E-01
DAV:   2    -0.851664338153E+03   -0.11696E-02   -0.16342E-02  4060   0.259E-01    0.166E-01
DAV:   3    -0.851664151706E+03    0.18645E-03   -0.43648E-04  4720   0.475E-02    0.126E-01
DAV:   4    -0.851664197905E+03   -0.46199E-04   -0.75170E-04  4440   0.637E-02    0.295E-02
DAV:   5    -0.851664214652E+03   -0.16746E-04   -0.16467E-04  4280   0.250E-02    0.181E-02
DAV:   6    -0.851664220550E+03   -0.58983E-05   -0.25045E-05  4160   0.111E-02    0.820E-03
DAV:   7    -0.851664221878E+03   -0.13283E-05   -0.39609E-06  3660   0.416E-03    0.507E-03
DAV:   8    -0.851664221899E+03   -0.20467E-07   -0.21764E-06  3220   0.355E-03
  14 F= -.85957709E+03 E0= -.85957709E+03  d E =-.623405E-03  mag=    -0.0000
quench:  g(F)=  0.000E+00 g(S)=  0.000E+00 dE (1.order)= 0.000E+00
 bond charge predicted
       N       E                     dE             d eps       ncg     rms          rms(c)
DAV:   1    -0.851665359418E+03   -0.11375E-02   -0.68167E-02  3880   0.593E-01    0.574E-02
DAV:   2    -0.851665485109E+03   -0.12569E-03   -0.17761E-03  4480   0.853E-02    0.530E-02
DAV:   3    -0.851665456786E+03    0.28323E-04   -0.69159E-05  5080   0.172E-02    0.427E-02
DAV:   4    -0.851665428106E+03    0.28680E-04   -0.66443E-05  4060   0.196E-02    0.168E-02
DAV:   5    -0.851665428853E+03   -0.74680E-06   -0.24946E-05  4240   0.990E-03    0.642E-03
DAV:   6    -0.851665429261E+03   -0.40778E-06   -0.19563E-06  2860   0.305E-03
  15 F= -.85957830E+03 E0= -.85957830E+03  d E =-.120707E-02  mag=    -0.0000
quench:  g(F)=  0.000E+00 g(S)=  0.000E+00 dE (1.order)= 0.000E+00
 bond charge predicted
       N       E                     dE             d eps       ncg     rms          rms(c)
DAV:   1    -0.851665454021E+03   -0.25168E-04   -0.84008E-05  4000   0.206E-02    0.275E-03
DAV:   2    -0.851665454082E+03   -0.61489E-07   -0.17618E-06  2740   0.291E-03
  16 F= -.85957832E+03 E0= -.85957832E+03  d E =-.221365E-04  mag=    -0.0000
quench:  g(F)=  0.000E+00 g(S)=  0.000E+00 dE (1.order)= 0.000E+00
 bond charge predicted
       N       E                     dE             d eps       ncg     rms          rms(c)
DAV:   1    -0.851665499983E+03   -0.45962E-04   -0.31082E-04  3920   0.394E-02    0.470E-03
DAV:   2    -0.851665500297E+03   -0.31386E-06   -0.62452E-06  4060   0.523E-03
  17 F= -.85957836E+03 E0= -.85957836E+03  d E =-.408965E-04  mag=    -0.0000
quench:  g(F)=  0.000E+00 g(S)=  0.000E+00 dE (1.order)= 0.000E+00
 bond charge predicted
       N       E                     dE             d eps       ncg     rms          rms(c)
DAV:   1    -0.851665563494E+03   -0.63511E-04   -0.64544E-04  3920   0.560E-02    0.762E-03
DAV:   2    -0.851665563961E+03   -0.46753E-06   -0.12108E-05  4140   0.727E-03    0.648E-03
DAV:   3    -0.851665563706E+03    0.25487E-06   -0.62675E-07  2690   0.206E-03
  18 F= -.85957842E+03 E0= -.85957842E+03  d E =-.554607E-04  mag=    -0.0000
quench:  g(F)=  0.000E+00 g(S)=  0.000E+00 dE (1.order)= 0.000E+00
 bond charge predicted
       N       E                     dE             d eps       ncg     rms          rms(c)
DAV:   1    -0.851665642960E+03   -0.78998E-04   -0.10483E-03  3880   0.700E-02    0.695E-03
DAV:   2    -0.851665644190E+03   -0.12307E-05   -0.18229E-05  3980   0.869E-03    0.587E-03
DAV:   3    -0.851665644055E+03    0.13500E-06   -0.37388E-07  2620   0.158E-03
  19 F= -.85957849E+03 E0= -.85957849E+03  d E =-.700479E-04  mag=    -0.0000
quench:  g(F)=  0.000E+00 g(S)=  0.000E+00 dE (1.order)= 0.000E+00
 bond charge predicted
       N       E                     dE             d eps       ncg     rms          rms(c)
DAV:   1    -0.851665740683E+03   -0.96493E-04   -0.15545E-03  3880   0.840E-02    0.805E-03
DAV:   2    -0.851665742437E+03   -0.17534E-05   -0.26405E-05  3920   0.103E-02    0.678E-03
DAV:   3    -0.851665742215E+03    0.22196E-06   -0.51310E-07  2720   0.185E-03
  20 F= -.85957858E+03 E0= -.85957858E+03  d E =-.857532E-04  mag=    -0.0000
quench:  g(F)=  0.000E+00 g(S)=  0.000E+00 dE (1.order)= 0.000E+00
 bond charge predicted
       N       E                     dE             d eps       ncg     rms          rms(c)
DAV:   1    -0.851665858136E+03   -0.11570E-03   -0.22321E-03  3880   0.100E-01    0.961E-03
DAV:   2    -0.851665860559E+03   -0.24233E-05   -0.37861E-05  3940   0.123E-02    0.811E-03
DAV:   3    -0.851665860242E+03    0.31685E-06   -0.71094E-07  2760   0.216E-03
  21 F= -.85957868E+03 E0= -.85957868E+03  d E =-.103615E-03  mag=    -0.0000
quench:  g(F)=  0.000E+00 g(S)=  0.000E+00 dE (1.order)= 0.000E+00
 bond charge predicted
       N       E                     dE             d eps       ncg     rms          rms(c)
DAV:   1    -0.851666004800E+03   -0.14424E-03   -0.38352E-03  3880   0.131E-01    0.125E-02
DAV:   2    -0.851666008995E+03   -0.41952E-05   -0.65885E-05  3880   0.161E-02    0.106E-02
DAV:   3    -0.851666008443E+03    0.55286E-06   -0.13779E-06  3160   0.285E-03
  22 F= -.85957881E+03 E0= -.85957881E+03  d E =-.130380E-03  mag=    -0.0000
quench:  g(F)=  0.000E+00 g(S)=  0.000E+00 dE (1.order)= 0.000E+00
 bond charge predicted
       N       E                     dE             d eps       ncg     rms          rms(c)
DAV:   1    -0.851666186125E+03   -0.17713E-03   -0.61205E-03  3880   0.165E-01    0.160E-02
DAV:   2    -0.851666192578E+03   -0.64529E-05   -0.10346E-04  3900   0.203E-02    0.136E-02
DAV:   3    -0.851666191738E+03    0.84048E-06   -0.23126E-06  3480   0.364E-03
  23 F= -.85957897E+03 E0= -.85957897E+03  d E =-.161497E-03  mag=     0.0000
quench:  g(F)=  0.000E+00 g(S)=  0.000E+00 dE (1.order)= 0.000E+00
 bond charge predicted
       N       E                     dE             d eps       ncg     rms          rms(c)
DAV:   1    -0.851666412126E+03   -0.21955E-03   -0.94696E-03  3880   0.206E-01    0.201E-02
DAV:   2    -0.851666421955E+03   -0.98290E-05   -0.15816E-04  3860   0.252E-02    0.170E-02
DAV:   3    -0.851666420738E+03    0.12170E-05   -0.38142E-06  3980   0.460E-03    0.126E-02
DAV:   4    -0.851666423768E+03   -0.30298E-05   -0.72764E-06  3580   0.617E-03    0.255E-03
DAV:   5    -0.851666423760E+03    0.79890E-08   -0.15882E-06  3060   0.245E-03
  24 F= -.85957918E+03 E0= -.85957918E+03  d E =-.205147E-03  mag=    -0.0000
quench:  g(F)=  0.000E+00 g(S)=  0.000E+00 dE (1.order)= 0.000E+00
 bond charge predicted
       N       E                     dE             d eps       ncg     rms          rms(c)
DAV:   1    -0.851666693860E+03   -0.27009E-03   -0.14851E-02  3920   0.258E-01    0.244E-02
DAV:   2    -0.851666711513E+03   -0.17652E-04   -0.26858E-04  3860   0.331E-02    0.206E-02
DAV:   3    -0.851666708561E+03    0.29515E-05   -0.65983E-06  4220   0.607E-03    0.155E-02
DAV:   4    -0.851666711609E+03   -0.30475E-05   -0.12962E-05  3620   0.829E-03    0.344E-03
DAV:   5    -0.851666711678E+03   -0.69551E-07   -0.27427E-06  3280   0.322E-03
  25 F= -.85957943E+03 E0= -.85957943E+03  d E =-.254380E-03  mag=    -0.0000
quench:  g(F)=  0.000E+00 g(S)=  0.000E+00 dE (1.order)= 0.000E+00
 bond charge predicted
       N       E                     dE             d eps       ncg     rms          rms(c)
DAV:   1    -0.851667036539E+03   -0.32493E-03   -0.22989E-02  3920   0.321E-01    0.305E-02
DAV:   2    -0.851667063800E+03   -0.27261E-04   -0.41596E-04  3860   0.411E-02    0.258E-02
DAV:   3    -0.851667059177E+03    0.46222E-05   -0.10323E-05  4600   0.757E-03    0.194E-02
DAV:   4    -0.851667063860E+03   -0.46830E-05   -0.19503E-05  3710   0.102E-02    0.431E-03
DAV:   5    -0.851667064076E+03   -0.21506E-06   -0.42353E-06  3640   0.396E-03
  26 F= -.85957974E+03 E0= -.85957974E+03  d E =-.310449E-03  mag=    -0.0000
quench:  g(F)=  0.000E+00 g(S)=  0.000E+00 dE (1.order)= 0.000E+00
 bond charge predicted
       N       E                     dE             d eps       ncg     rms          rms(c)
DAV:   1    -0.851667456953E+03   -0.39309E-03   -0.35849E-02  3920   0.398E-01    0.379E-02
DAV:   2    -0.851667499272E+03   -0.42319E-04   -0.64944E-04  3840   0.509E-02    0.319E-02
DAV:   3    -0.851667491989E+03    0.72828E-05   -0.15498E-05  4580   0.925E-03    0.241E-02
DAV:   4    -0.851667499962E+03   -0.79723E-05   -0.31675E-05  3740   0.128E-02    0.526E-03
DAV:   5    -0.851667500266E+03   -0.30401E-06   -0.66879E-06  4080   0.495E-03
  27 F= -.85958012E+03 E0= -.85958012E+03  d E =-.384117E-03  mag=    -0.0000
quench:  g(F)=  0.000E+00 g(S)=  0.000E+00 dE (1.order)= 0.000E+00
 bond charge predicted
       N       E                     dE             d eps       ncg     rms          rms(c)
DAV:   1    -0.851667972449E+03   -0.47249E-03   -0.56224E-02  3920   0.498E-01    0.473E-02
DAV:   2    -0.851668040752E+03   -0.68303E-04   -0.10331E-03  3840   0.638E-02    0.397E-02
DAV:   3    -0.851668029354E+03    0.11399E-04   -0.23573E-05  4580   0.114E-02    0.301E-02
DAV:   4    -0.851668041955E+03   -0.12601E-04   -0.51161E-05  3840   0.160E-02    0.646E-03
DAV:   5    -0.851668042334E+03   -0.37901E-06   -0.10423E-05  4320   0.620E-03    0.436E-03
DAV:   6    -0.851668042675E+03   -0.34088E-06   -0.15073E-06  2700   0.292E-03
  28 F= -.85958060E+03 E0= -.85958060E+03  d E =-.475786E-03  mag=    -0.0000
quench:  g(F)=  0.000E+00 g(S)=  0.000E+00 dE (1.order)= 0.000E+00
 bond charge predicted
       N       E                     dE             d eps       ncg     rms          rms(c)
DAV:   1    -0.851668608916E+03   -0.56658E-03   -0.83732E-02  3920   0.610E-01    0.574E-02
DAV:   2    -0.851668712529E+03   -0.10361E-03   -0.15357E-03  3860   0.782E-02    0.480E-02
DAV:   3    -0.851668695112E+03    0.17417E-04   -0.35063E-05  4560   0.140E-02    0.363E-02
DAV:   4    -0.851668710902E+03   -0.15790E-04   -0.77315E-05  4060   0.197E-02    0.771E-03
DAV:   5    -0.851668710962E+03   -0.60434E-07   -0.15581E-05  4320   0.775E-03    0.512E-03
DAV:   6    -0.851668711551E+03   -0.58838E-06   -0.21459E-06  3060   0.333E-03
  29 F= -.85958118E+03 E0= -.85958118E+03  d E =-.580074E-03  mag=    -0.0000
quench:  g(F)=  0.000E+00 g(S)=  0.000E+00 dE (1.order)= 0.000E+00
 bond charge predicted
       N       E                     dE             d eps       ncg     rms          rms(c)
DAV:   1    -0.851669388693E+03   -0.67773E-03   -0.12352E-01  3920   0.745E-01    0.702E-02
DAV:   2    -0.851669544067E+03   -0.15537E-03   -0.22759E-03  3860   0.958E-02    0.585E-02
DAV:   3    -0.851669519548E+03    0.24519E-04   -0.52509E-05  4560   0.171E-02    0.441E-02
DAV:   4    -0.851669540484E+03   -0.20936E-04   -0.11088E-04  4220   0.238E-02    0.944E-03
DAV:   5    -0.851669540680E+03   -0.19561E-06   -0.22312E-05  4300   0.939E-03    0.620E-03
DAV:   6    -0.851669541439E+03   -0.75992E-06   -0.33462E-06  3500   0.418E-03
  30 F= -.85958190E+03 E0= -.85958190E+03  d E =-.716084E-03  mag=    -0.0000
quench:  g(F)=  0.000E+00 g(S)=  0.000E+00 dE (1.order)= 0.000E+00
 bond charge predicted
       N       E                     dE             d eps       ncg     rms          rms(c)
DAV:   1    -0.851670308707E+03   -0.76803E-03   -0.19528E-01  3920   0.934E-01    0.878E-02
DAV:   2    -0.851670565210E+03   -0.25650E-03   -0.36796E-03  3920   0.121E-01    0.728E-02
DAV:   3    -0.851670527277E+03    0.37934E-04   -0.78869E-05  4560   0.209E-02    0.553E-02
DAV:   4    -0.851670558229E+03   -0.30952E-04   -0.17927E-04  4280   0.299E-02    0.118E-02
DAV:   5    -0.851670559487E+03   -0.12580E-05   -0.34014E-05  4300   0.114E-02    0.786E-03
DAV:   6    -0.851670560840E+03   -0.13534E-05   -0.52206E-06  3660   0.528E-03    0.353E-03
DAV:   7    -0.851670561150E+03   -0.30958E-06   -0.10042E-06  2960   0.211E-03
  31 F= -.85958278E+03 E0= -.85958278E+03  d E =-.884571E-03  mag=     0.0000
quench:  g(F)=  0.000E+00 g(S)=  0.000E+00 dE (1.order)= 0.000E+00
 bond charge predicted
       N       E                     dE             d eps       ncg     rms          rms(c)
DAV:   1    -0.851671420648E+03   -0.85981E-03   -0.28470E-01  3920   0.114E+00    0.106E-01
DAV:   2    -0.851671800199E+03   -0.37955E-03   -0.53578E-03  3940   0.147E-01    0.876E-02
DAV:   3    -0.851671745330E+03    0.54869E-04   -0.11780E-04  4560   0.256E-02    0.663E-02
DAV:   4    -0.851671781097E+03   -0.35767E-04   -0.24684E-04  4360   0.350E-02    0.146E-02
DAV:   5    -0.851671783917E+03   -0.28194E-05   -0.46595E-05  4300   0.134E-02    0.930E-03
DAV:   6    -0.851671785614E+03   -0.16970E-05   -0.77392E-06  3680   0.628E-03    0.408E-03
DAV:   7    -0.851671786102E+03   -0.48802E-06   -0.13786E-06  3020   0.246E-03
  32 F= -.85958384E+03 E0= -.85958384E+03  d E =-.106361E-02  mag=     0.0000
quench:  g(F)=  0.000E+00 g(S)=  0.000E+00 dE (1.order)= 0.000E+00
 bond charge predicted
       N       E                     dE             d eps       ncg     rms          rms(c)
DAV:   1    -0.851672726822E+03   -0.94121E-03   -0.42448E-01  3920   0.138E+00    0.129E-01
DAV:   2    -0.851673306596E+03   -0.57977E-03   -0.80717E-03  3960   0.180E-01    0.107E-01
DAV:   3    -0.851673224303E+03    0.82293E-04   -0.17186E-04  4540   0.312E-02    0.810E-02
DAV:   4    -0.851673271309E+03   -0.47006E-04   -0.37742E-04  4440   0.436E-02    0.174E-02
DAV:   5    -0.851673274845E+03   -0.35357E-05   -0.72628E-05  4300   0.167E-02    0.113E-02
DAV:   6    -0.851673278228E+03   -0.33828E-05   -0.96172E-06  3740   0.707E-03    0.518E-03
DAV:   7    -0.851673279052E+03   -0.82425E-06   -0.22156E-06  3120   0.316E-03
  33 F= -.85958513E+03 E0= -.85958513E+03  d E =-.128403E-02  mag=    -0.0000
quench:  g(F)=  0.000E+00 g(S)=  0.000E+00 dE (1.order)= 0.000E+00
 bond charge predicted
       N       E                     dE             d eps       ncg     rms          rms(c)
DAV:   1    -0.851674174694E+03   -0.89647E-03   -0.59909E-01  3920   0.166E+00    0.153E-01
DAV:   2    -0.851675014097E+03   -0.83940E-03   -0.11478E-02  3920   0.216E-01    0.126E-01
DAV:   3    -0.851674902173E+03    0.11192E-03   -0.25714E-04  4620   0.376E-02    0.959E-02
DAV:   4    -0.851674952244E+03   -0.50070E-04   -0.50534E-04  4440   0.507E-02    0.216E-02
DAV:   5    -0.851674959653E+03   -0.74090E-05   -0.97948E-05  4260   0.193E-02    0.137E-02
DAV:   6    -0.851674963903E+03   -0.42506E-05   -0.15850E-05  3800   0.902E-03    0.600E-03
DAV:   7    -0.851674965097E+03   -0.11935E-05   -0.28960E-06  3340   0.353E-03    0.349E-03
DAV:   8    -0.851674965147E+03   -0.49986E-07   -0.10538E-06  2940   0.284E-03
  34 F= -.85958658E+03 E0= -.85958658E+03  d E =-.144865E-02  mag=     0.0000
quench:  g(F)=  0.000E+00 g(S)=  0.000E+00 dE (1.order)= 0.000E+00
 bond charge predicted
       N       E                     dE             d eps       ncg     rms          rms(c)
DAV:   1    -0.851675241473E+03   -0.27638E-03   -0.94060E-01  3900   0.209E+00    0.186E-01
DAV:   2    -0.851676679763E+03   -0.14383E-02   -0.18894E-02  3940   0.276E-01    0.155E-01
DAV:   3    -0.851676503222E+03    0.17654E-03   -0.41600E-04  4740   0.468E-02    0.120E-01
DAV:   4    -0.851676533818E+03   -0.30596E-04   -0.77761E-04  4500   0.634E-02    0.289E-02
DAV:   5    -0.851676551736E+03   -0.17917E-04   -0.15893E-04  4240   0.239E-02    0.175E-02
DAV:   6    -0.851676559010E+03   -0.72747E-05   -0.23631E-05  4060   0.107E-02    0.783E-03
DAV:   7    -0.851676561396E+03   -0.23860E-05   -0.42009E-06  3760   0.415E-03    0.453E-03
DAV:   8    -0.851676561393E+03    0.33688E-08   -0.12766E-06  2980   0.294E-03
  35 F= -.85958789E+03 E0= -.85958789E+03  d E =-.131306E-02  mag=     0.0000
quench:  g(F)=  0.000E+00 g(S)=  0.000E+00 dE (1.order)= 0.000E+00
 bond charge predicted
       N       E                     dE             d eps       ncg     rms          rms(c)
DAV:   1    -0.851677172547E+03   -0.61115E-03   -0.26105E-02  3860   0.374E-01    0.361E-02
DAV:   2    -0.851677221009E+03   -0.48462E-04   -0.67414E-04  4680   0.540E-02    0.333E-02
DAV:   3    -0.851677210414E+03    0.10595E-04   -0.30789E-05  4980   0.116E-02    0.265E-02
DAV:   4    -0.851677198453E+03    0.11961E-04   -0.20564E-05  4080   0.113E-02    0.117E-02
DAV:   5    -0.851677197763E+03    0.69052E-06   -0.10030E-05  4210   0.676E-03    0.423E-03
DAV:   6    -0.851677197785E+03   -0.22359E-07   -0.10128E-06  2440   0.232E-03
  36 F= -.85958851E+03 E0= -.85958851E+03  d E =-.615536E-03  mag=     0.0000
quench:  g(F)=  0.000E+00 g(S)=  0.000E+00 dE (1.order)= 0.000E+00
 bond charge predicted
       N       E                     dE             d eps       ncg     rms          rms(c)
DAV:   1    -0.851676893678E+03    0.30408E-03   -0.28264E-02  3840   0.391E-01    0.362E-02
DAV:   2    -0.851676948567E+03   -0.54889E-04   -0.72721E-04  4660   0.565E-02    0.330E-02
DAV:   3    -0.851676939235E+03    0.93319E-05   -0.31067E-05  4920   0.116E-02    0.265E-02
DAV:   4    -0.851676928623E+03    0.10612E-04   -0.21936E-05  4040   0.117E-02    0.114E-02
DAV:   5    -0.851676928459E+03    0.16398E-06   -0.94183E-06  4270   0.649E-03
  37 F= -.85958820E+03 E0= -.85958820E+03  d E =0.310139E-03  mag=     0.0000
quench:  g(F)=  0.000E+00 g(S)=  0.000E+00 dE (1.order)= 0.000E+00
 bond charge predicted
       N       E                     dE             d eps       ncg     rms          rms(c)
DAV:   1    -0.851677123636E+03   -0.19501E-03   -0.13037E-03  3840   0.834E-02    0.799E-03
DAV:   2    -0.851677125904E+03   -0.22673E-05   -0.35227E-05  4680   0.123E-02    0.748E-03
DAV:   3    -0.851677125243E+03    0.66109E-06   -0.14295E-06  2720   0.274E-03
  38 F= -.85958839E+03 E0= -.85958839E+03  d E =-.195952E-03  mag=     0.0000
quench:  g(F)=  0.000E+00 g(S)=  0.000E+00 dE (1.order)= 0.000E+00
 bond charge predicted
       N       E                     dE             d eps       ncg     rms          rms(c)
DAV:   1    -0.851677340465E+03   -0.21456E-03   -0.40130E-03  3840   0.146E-01    0.156E-02
DAV:   2    -0.851677346915E+03   -0.64491E-05   -0.97161E-05  4700   0.206E-02    0.143E-02
DAV:   3    -0.851677344844E+03    0.20710E-05   -0.48017E-06  4000   0.477E-03    0.109E-02
DAV:   4    -0.851677343103E+03    0.17409E-05   -0.49516E-06  3720   0.539E-03    0.397E-03
DAV:   5    -0.851677343122E+03   -0.18976E-07   -0.12349E-06  2540   0.235E-03
  39 F= -.85958861E+03 E0= -.85958861E+03  d E =-.216170E-03  mag=     0.0000
quench:  g(F)=  0.000E+00 g(S)=  0.000E+00 dE (1.order)= 0.000E+00
 bond charge predicted
       N       E                     dE             d eps       ncg     rms          rms(c)
DAV:   1    -0.851677391702E+03   -0.48599E-04   -0.58938E-03  3840   0.178E-01    0.168E-02
DAV:   2    -0.851677403055E+03   -0.11353E-04   -0.15218E-04  4660   0.258E-02    0.154E-02
DAV:   3    -0.851677400990E+03    0.20659E-05   -0.64449E-06  4480   0.533E-03    0.125E-02
DAV:   4    -0.851677398680E+03    0.23095E-05   -0.52990E-06  3780   0.555E-03    0.533E-03
DAV:   5    -0.851677398637E+03    0.42834E-07   -0.17861E-06  2690   0.289E-03
  40 F= -.85958866E+03 E0= -.85958866E+03  d E =-.520697E-04  mag=    -0.0000
quench:  g(F)=  0.000E+00 g(S)=  0.000E+00 dE (1.order)= 0.000E+00
 bond charge predicted
       N       E                     dE             d eps       ncg     rms          rms(c)
DAV:   1    -0.851677401418E+03   -0.27384E-05   -0.69264E-06  3640   0.603E-03    0.133E-03
DAV:   2    -0.851677401423E+03   -0.42201E-08   -0.22385E-07  2100   0.108E-03
  41 F= -.85958866E+03 E0= -.85958866E+03  d E =-.234695E-05  mag=     0.0000
quench:  g(F)=  0.000E+00 g(S)=  0.000E+00 dE (1.order)= 0.000E+00
 bond charge predicted
       N       E                     dE             d eps       ncg     rms          rms(c)
DAV:   1    -0.851677405915E+03   -0.44969E-05   -0.24308E-05  3840   0.113E-02    0.139E-03
DAV:   2    -0.851677405947E+03   -0.32029E-07   -0.55221E-07  2240   0.163E-03
  42 F= -.85958867E+03 E0= -.85958867E+03  d E =-.368703E-05  mag=    -0.0000
quench:  g(F)=  0.000E+00 g(S)=  0.000E+00 dE (1.order)= 0.000E+00
 bond charge predicted
       N       E                     dE             d eps       ncg     rms          rms(c)
DAV:   1    -0.851677411238E+03   -0.53225E-05   -0.53389E-05  3880   0.167E-02    0.215E-03
DAV:   2    -0.851677411293E+03   -0.55305E-07   -0.11658E-06  2320   0.236E-03
  43 F= -.85958867E+03 E0= -.85958867E+03  d E =-.412811E-05  mag=    -0.0000
quench:  g(F)=  0.000E+00 g(S)=  0.000E+00 dE (1.order)= 0.000E+00
 bond charge predicted
       N       E                     dE             d eps       ncg     rms          rms(c)
DAV:   1    -0.851677417058E+03   -0.58201E-05   -0.88806E-05  3880   0.215E-02    0.288E-03
DAV:   2    -0.851677417143E+03   -0.85020E-07   -0.19079E-06  2960   0.299E-03
  44 F= -.85958867E+03 E0= -.85958867E+03  d E =-.420033E-05  mag=    -0.0000
quench:  g(F)=  0.000E+00 g(S)=  0.000E+00 dE (1.order)= 0.000E+00
 bond charge predicted
       N       E                     dE             d eps       ncg     rms          rms(c)
DAV:   1    -0.851677424155E+03   -0.70972E-05   -0.12805E-04  3860   0.257E-02    0.350E-03
DAV:   2    -0.851677424291E+03   -0.13620E-06   -0.28179E-06  3420   0.354E-03
  45 F= -.85958868E+03 E0= -.85958868E+03  d E =-.493198E-05  mag=     0.0000
quench:  g(F)=  0.000E+00 g(S)=  0.000E+00 dE (1.order)= 0.000E+00
 bond charge predicted
       N       E                     dE             d eps       ncg     rms          rms(c)
DAV:   1    -0.851677434884E+03   -0.10729E-04   -0.16699E-04  3880   0.291E-02    0.405E-03
DAV:   2    -0.851677435058E+03   -0.17432E-06   -0.35814E-06  3700   0.394E-03
  46 F= -.85958869E+03 E0= -.85958869E+03  d E =-.777211E-05  mag=     0.0000
quench:  g(F)=  0.000E+00 g(S)=  0.000E+00 dE (1.order)= 0.000E+00
 bond charge predicted
       N       E                     dE             d eps       ncg     rms          rms(c)
DAV:   1    -0.851677454150E+03   -0.19266E-04   -0.24919E-04  3900   0.353E-02    0.471E-03
DAV:   2    -0.851677454428E+03   -0.27784E-06   -0.52290E-06  3940   0.470E-03
  47 F= -.85958870E+03 E0= -.85958870E+03  d E =-.149148E-04  mag=     0.0000
quench:  g(F)=  0.000E+00 g(S)=  0.000E+00 dE (1.order)= 0.000E+00
 bond charge predicted
       N       E                     dE             d eps       ncg     rms          rms(c)
DAV:   1    -0.851677488199E+03   -0.34049E-04   -0.36910E-04  3880   0.426E-02    0.562E-03
DAV:   2    -0.851677488576E+03   -0.37697E-06   -0.75593E-06  4160   0.563E-03
  48 F= -.85958873E+03 E0= -.85958873E+03  d E =-.277103E-04  mag=     0.0000
quench:  g(F)=  0.000E+00 g(S)=  0.000E+00 dE (1.order)= 0.000E+00
 bond charge predicted
       N       E                     dE             d eps       ncg     rms          rms(c)
DAV:   1    -0.851677543755E+03   -0.55556E-04   -0.56254E-04  3880   0.518E-02    0.692E-03
DAV:   2    -0.851677544219E+03   -0.46332E-06   -0.11054E-05  3880   0.674E-03    0.571E-03
DAV:   3    -0.851677544197E+03    0.21966E-07   -0.34103E-07  2560   0.154E-03
  49 F= -.85958878E+03 E0= -.85958878E+03  d E =-.465889E-04  mag=     0.0000
quench:  g(F)=  0.000E+00 g(S)=  0.000E+00 dE (1.order)= 0.000E+00
 bond charge predicted
       N       E                     dE             d eps       ncg     rms          rms(c)
DAV:   1    -0.851677626996E+03   -0.82777E-04   -0.88480E-04  3880   0.637E-02    0.598E-03
DAV:   2    -0.851677628117E+03   -0.11213E-05   -0.16630E-05  3840   0.804E-03    0.477E-03
DAV:   3    -0.851677628052E+03    0.65069E-07   -0.22858E-07  2320   0.123E-03
  50 F= -.85958885E+03 E0= -.85958885E+03  d E =-.717292E-04  mag=    -0.0000
quench:  g(F)=  0.000E+00 g(S)=  0.000E+00 dE (1.order)= 0.000E+00
 bond charge predicted
       N       E                     dE             d eps       ncg     rms          rms(c)
DAV:   1    -0.851677743649E+03   -0.11553E-03   -0.14655E-03  3880   0.808E-02    0.760E-03
DAV:   2    -0.851677745433E+03   -0.17844E-05   -0.27380E-05  3840   0.102E-02    0.613E-03
DAV:   3    -0.851677745256E+03    0.17772E-06   -0.38539E-07  2620   0.158E-03
  51 F= -.85958895E+03 E0= -.85958895E+03  d E =-.101302E-03  mag=    -0.0000
quench:  g(F)=  0.000E+00 g(S)=  0.000E+00 dE (1.order)= 0.000E+00
 bond charge predicted
       N       E                     dE             d eps       ncg     rms          rms(c)
DAV:   1    -0.851677899664E+03   -0.15423E-03   -0.24000E-03  3880   0.102E-01    0.991E-03
DAV:   2    -0.851677902406E+03   -0.27420E-05   -0.44257E-05  3860   0.128E-02    0.804E-03
DAV:   3    -0.851677902092E+03    0.31428E-06   -0.65206E-07  2820   0.200E-03
  52 F= -.85958909E+03 E0= -.85958909E+03  d E =-.136229E-03  mag=     0.0000
quench:  g(F)=  0.000E+00 g(S)=  0.000E+00 dE (1.order)= 0.000E+00
 bond charge predicted
       N       E                     dE             d eps       ncg     rms          rms(c)
DAV:   1    -0.851678101227E+03   -0.19882E-03   -0.38944E-03  3880   0.129E-01    0.128E-02
DAV:   2    -0.851678105410E+03   -0.41833E-05   -0.71145E-05  3900   0.161E-02    0.104E-02
DAV:   3    -0.851678104857E+03    0.55369E-06   -0.10440E-06  3000   0.252E-03
  53 F= -.85958926E+03 E0= -.85958926E+03  d E =-.176393E-03  mag=     0.0000
quench:  g(F)=  0.000E+00 g(S)=  0.000E+00 dE (1.order)= 0.000E+00
 bond charge predicted
       N       E                     dE             d eps       ncg     rms          rms(c)
DAV:   1    -0.851678356851E+03   -0.25144E-03   -0.61731E-03  3880   0.161E-01    0.162E-02
DAV:   2    -0.851678363174E+03   -0.63230E-05   -0.11187E-04  3900   0.201E-02    0.131E-02
DAV:   3    -0.851678362282E+03    0.89205E-06   -0.16946E-06  3420   0.310E-03
  54 F= -.85958949E+03 E0= -.85958949E+03  d E =-.224161E-03  mag=     0.0000
quench:  g(F)=  0.000E+00 g(S)=  0.000E+00 dE (1.order)= 0.000E+00
 bond charge predicted
       N       E                     dE             d eps       ncg     rms          rms(c)
DAV:   1    -0.851678678214E+03   -0.31504E-03   -0.95317E-03  3880   0.199E-01    0.203E-02
DAV:   2    -0.851678687816E+03   -0.96017E-05   -0.17165E-04  3900   0.248E-02    0.164E-02
DAV:   3    -0.851678686552E+03    0.12641E-05   -0.27022E-06  3740   0.384E-03    0.126E-02
DAV:   4    -0.851678692925E+03   -0.63731E-05   -0.69927E-06  3520   0.566E-03    0.230E-03
DAV:   5    -0.851678692913E+03    0.11678E-07   -0.12757E-06  2900   0.218E-03
  55 F= -.85958978E+03 E0= -.85958978E+03  d E =-.289220E-03  mag=     0.0000
quench:  g(F)=  0.000E+00 g(S)=  0.000E+00 dE (1.order)= 0.000E+00
 bond charge predicted
       N       E                     dE             d eps       ncg     rms          rms(c)
DAV:   1    -0.851679073136E+03   -0.38021E-03   -0.14679E-02  3920   0.247E-01    0.246E-02
DAV:   2    -0.851679091150E+03   -0.18014E-04   -0.28465E-04  3880   0.322E-02    0.199E-02
DAV:   3    -0.851679088376E+03    0.27739E-05   -0.48161E-06  4060   0.510E-03    0.154E-02
DAV:   4    -0.851679095547E+03   -0.71705E-05   -0.12506E-05  3620   0.759E-03    0.303E-03
DAV:   5    -0.851679095606E+03   -0.58688E-07   -0.22488E-06  3260   0.287E-03
  56 F= -.85959013E+03 E0= -.85959013E+03  d E =-.352380E-03  mag=     0.0000
quench:  g(F)=  0.000E+00 g(S)=  0.000E+00 dE (1.order)= 0.000E+00
 bond charge predicted
       N       E                     dE             d eps       ncg     rms          rms(c)
DAV:   1    -0.851679542294E+03   -0.44675E-03   -0.21781E-02  3920   0.304E-01    0.300E-02
DAV:   2    -0.851679570240E+03   -0.27946E-04   -0.42481E-04  3880   0.397E-02    0.242E-02
DAV:   3    -0.851679566559E+03    0.36815E-05   -0.73535E-06  4200   0.629E-03    0.187E-02
DAV:   4    -0.851679575794E+03   -0.92350E-05   -0.17576E-05  3700   0.915E-03    0.369E-03
DAV:   5    -0.851679575943E+03   -0.14933E-06   -0.32555E-06  3540   0.346E-03
  57 F= -.85959055E+03 E0= -.85959055E+03  d E =-.420653E-03  mag=    -0.0000
quench:  g(F)=  0.000E+00 g(S)=  0.000E+00 dE (1.order)= 0.000E+00
 bond charge predicted
       N       E                     dE             d eps       ncg     rms          rms(c)
DAV:   1    -0.851680090884E+03   -0.51509E-03   -0.32110E-02  3920   0.373E-01    0.359E-02
DAV:   2    -0.851680134418E+03   -0.43535E-04   -0.63297E-04  3860   0.489E-02    0.288E-02
DAV:   3    -0.851680129542E+03    0.48768E-05   -0.10891E-05  4480   0.766E-03    0.222E-02
DAV:   4    -0.851680141147E+03   -0.11605E-04   -0.24872E-05  3740   0.110E-02    0.443E-03
DAV:   5    -0.851680141395E+03   -0.24779E-06   -0.46908E-06  3960   0.416E-03
  58 F= -.85959104E+03 E0= -.85959104E+03  d E =-.496216E-03  mag=     0.0000
quench:  g(F)=  0.000E+00 g(S)=  0.000E+00 dE (1.order)= 0.000E+00
 bond charge predicted
       N       E                     dE             d eps       ncg     rms          rms(c)
DAV:   1    -0.851680719433E+03   -0.57829E-03   -0.48449E-02  3920   0.462E-01    0.431E-02
DAV:   2    -0.851680789719E+03   -0.70286E-04   -0.97855E-04  3860   0.611E-02    0.345E-02
DAV:   3    -0.851680782628E+03    0.70908E-05   -0.16444E-05  4580   0.943E-03    0.267E-02
DAV:   4    -0.851680797029E+03   -0.14401E-04   -0.37098E-05  3760   0.136E-02    0.546E-03
DAV:   5    -0.851680797589E+03   -0.56034E-06   -0.71314E-06  4280   0.510E-03
  59 F= -.85959162E+03 E0= -.85959162E+03  d E =-.573808E-03  mag=     0.0000
quench:  g(F)=  0.000E+00 g(S)=  0.000E+00 dE (1.order)= 0.000E+00
 bond charge predicted
       N       E                     dE             d eps       ncg     rms          rms(c)
DAV:   1    -0.851681412854E+03   -0.61583E-03   -0.71873E-02  3920   0.569E-01    0.515E-02
DAV:   2    -0.851681523763E+03   -0.11091E-03   -0.14887E-03  3880   0.760E-02    0.409E-02
DAV:   3    -0.851681513841E+03    0.99211E-05   -0.24808E-05  4580   0.116E-02    0.318E-02
DAV:   4    -0.851681531111E+03   -0.17269E-04   -0.53180E-05  3920   0.166E-02    0.664E-03
DAV:   5    -0.851681532172E+03   -0.10613E-05   -0.10232E-05  4320   0.616E-03    0.460E-03
DAV:   6    -0.851681532630E+03   -0.45863E-06   -0.16216E-06  2940   0.317E-03
  60 F= -.85959226E+03 E0= -.85959226E+03  d E =-.637151E-03  mag=    -0.0000
quench:  g(F)=  0.000E+00 g(S)=  0.000E+00 dE (1.order)= 0.000E+00
 bond charge predicted
       N       E                     dE             d eps       ncg     rms          rms(c)
DAV:   1    -0.851682175228E+03   -0.64306E-03   -0.10094E-01  3920   0.683E-01    0.598E-02
DAV:   2    -0.851682335136E+03   -0.15991E-03   -0.21003E-03  3860   0.914E-02    0.471E-02
DAV:   3    -0.851682321355E+03    0.13781E-04   -0.36320E-05  4640   0.141E-02    0.365E-02
DAV:   4    -0.851682339057E+03   -0.17702E-04   -0.71706E-05  4060   0.197E-02    0.798E-03
DAV:   5    -0.851682340636E+03   -0.15787E-05   -0.13912E-05  4320   0.725E-03    0.532E-03
DAV:   6    -0.851682341112E+03   -0.47598E-06   -0.23474E-06  3260   0.373E-03
  61 F= -.85959295E+03 E0= -.85959295E+03  d E =-.694572E-03  mag=    -0.0000
quench:  g(F)=  0.000E+00 g(S)=  0.000E+00 dE (1.order)= 0.000E+00
 bond charge predicted
       N       E                     dE             d eps       ncg     rms          rms(c)
DAV:   1    -0.851683000336E+03   -0.65970E-03   -0.13733E-01  3920   0.802E-01    0.692E-02
DAV:   2    -0.851683215994E+03   -0.21566E-03   -0.28223E-03  3860   0.107E-01    0.545E-02
DAV:   3    -0.851683196682E+03    0.19312E-04   -0.52027E-05  4640   0.168E-02    0.420E-02
DAV:   4    -0.851683215970E+03   -0.19289E-04   -0.95836E-05  4220   0.227E-02    0.949E-03
DAV:   5    -0.851683218056E+03   -0.20858E-05   -0.18482E-05  4280   0.846E-03    0.600E-03
DAV:   6    -0.851683218740E+03   -0.68356E-06   -0.33168E-06  3440   0.423E-03
  62 F= -.85959370E+03 E0= -.85959370E+03  d E =-.753462E-03  mag=     0.0000
quench:  g(F)=  0.000E+00 g(S)=  0.000E+00 dE (1.order)= 0.000E+00
 bond charge predicted
       N       E                     dE             d eps       ncg     rms          rms(c)
DAV:   1    -0.851683870618E+03   -0.65256E-03   -0.19605E-01  3920   0.961E-01    0.817E-02
DAV:   2    -0.851684181943E+03   -0.31133E-03   -0.40333E-03  3880   0.127E-01    0.643E-02
DAV:   3    -0.851684154097E+03    0.27846E-04   -0.75242E-05  4660   0.203E-02    0.494E-02
DAV:   4    -0.851684176718E+03   -0.22621E-04   -0.13884E-04  4360   0.271E-02    0.113E-02
DAV:   5    -0.851684179239E+03   -0.25212E-05   -0.26612E-05  4280   0.103E-02    0.705E-03
DAV:   6    -0.851684180443E+03   -0.12038E-05   -0.44893E-06  3660   0.478E-03    0.313E-03
DAV:   7    -0.851684180877E+03   -0.43416E-06   -0.70316E-07  2680   0.183E-03
  63 F= -.85959453E+03 E0= -.85959453E+03  d E =-.824910E-03  mag=     0.0000
quench:  g(F)=  0.000E+00 g(S)=  0.000E+00 dE (1.order)= 0.000E+00
 bond charge predicted
       N       E                     dE             d eps       ncg     rms          rms(c)
DAV:   1    -0.851684862992E+03   -0.68255E-03   -0.28213E-01  3920   0.115E+00    0.975E-02
DAV:   2    -0.851685307831E+03   -0.44484E-03   -0.57599E-03  3900   0.152E-01    0.775E-02
DAV:   3    -0.851685266278E+03    0.41554E-04   -0.10907E-04  4660   0.245E-02    0.596E-02
DAV:   4    -0.851685291440E+03   -0.25163E-04   -0.20572E-04  4400   0.331E-02    0.136E-02
DAV:   5    -0.851685295297E+03   -0.38565E-05   -0.38690E-05  4260   0.123E-02    0.857E-03
DAV:   6    -0.851685297195E+03   -0.18983E-05   -0.62603E-06  3680   0.579E-03    0.383E-03
DAV:   7    -0.851685297821E+03   -0.62596E-06   -0.12082E-06  2860   0.237E-03
  64 F= -.85959548E+03 E0= -.85959548E+03  d E =-.952889E-03  mag=    -0.0000
quench:  g(F)=  0.000E+00 g(S)=  0.000E+00 dE (1.order)= 0.000E+00
 bond charge predicted
       N       E                     dE             d eps       ncg     rms          rms(c)
DAV:   1    -0.851686057076E+03   -0.75988E-03   -0.39505E-01  3920   0.137E+00    0.117E-01
DAV:   2    -0.851686675648E+03   -0.61857E-03   -0.80133E-03  3920   0.180E-01    0.928E-02
DAV:   3    -0.851686618893E+03    0.56755E-04   -0.15723E-04  4580   0.293E-02    0.710E-02
DAV:   4    -0.851686650959E+03   -0.32066E-04   -0.27944E-04  4440   0.391E-02    0.163E-02
DAV:   5    -0.851686655728E+03   -0.47697E-05   -0.53820E-05  4260   0.146E-02    0.100E-02
DAV:   6    -0.851686657720E+03   -0.19919E-05   -0.90628E-06  3660   0.698E-03    0.436E-03
DAV:   7    -0.851686658531E+03   -0.81040E-06   -0.17433E-06  3020   0.281E-03
  65 F= -.85959664E+03 E0= -.85959664E+03  d E =-.115798E-02  mag=     0.0000
quench:  g(F)=  0.000E+00 g(S)=  0.000E+00 dE (1.order)= 0.000E+00
 bond charge predicted
       N       E                     dE             d eps       ncg     rms          rms(c)
DAV:   1    -0.851687474936E+03   -0.81722E-03   -0.57114E-01  3920   0.163E+00    0.142E-01
DAV:   2    -0.851688353506E+03   -0.87857E-03   -0.11452E-02  3920   0.215E-01    0.115E-01
DAV:   3    -0.851688264218E+03    0.89288E-04   -0.22919E-04  4600   0.353E-02    0.880E-02
DAV:   4    -0.851688301305E+03   -0.37086E-04   -0.44267E-04  4440   0.485E-02    0.200E-02
DAV:   5    -0.851688308504E+03   -0.71994E-05   -0.84383E-05  4260   0.179E-02    0.127E-02
DAV:   6    -0.851688312260E+03   -0.37558E-05   -0.13550E-05  3800   0.856E-03    0.555E-03
DAV:   7    -0.851688313685E+03   -0.14253E-05   -0.28572E-06  3400   0.349E-03    0.324E-03
DAV:   8    -0.851688313728E+03   -0.42564E-07   -0.81162E-07  2780   0.280E-03
  66 F= -.85959805E+03 E0= -.85959805E+03  d E =-.141494E-02  mag=     0.0000
quench:  g(F)=  0.000E+00 g(S)=  0.000E+00 dE (1.order)= 0.000E+00
 bond charge predicted
       N       E                     dE             d eps       ncg     rms          rms(c)
DAV:   1    -0.851689292244E+03   -0.97856E-03   -0.75636E-01  3920   0.188E+00    0.166E-01
DAV:   2    -0.851690421755E+03   -0.11295E-02   -0.14794E-02  3920   0.246E-01    0.136E-01
DAV:   3    -0.851690299869E+03    0.12189E-03   -0.32596E-04  4620   0.419E-02    0.104E-01
DAV:   4    -0.851690341303E+03   -0.41433E-04   -0.56411E-04  4440   0.551E-02    0.246E-02
DAV:   5    -0.851690352708E+03   -0.11406E-04   -0.11058E-04  4280   0.206E-02    0.150E-02
DAV:   6    -0.851690356490E+03   -0.37819E-05   -0.20993E-05  3800   0.107E-02    0.631E-03
DAV:   7    -0.851690358047E+03   -0.15575E-05   -0.38208E-06  3960   0.397E-03    0.389E-03
DAV:   8    -0.851690358102E+03   -0.54788E-07   -0.11740E-06  3020   0.344E-03
  67 F= -.85959981E+03 E0= -.85959981E+03  d E =-.175209E-02  mag=     0.0000
quench:  g(F)=  0.000E+00 g(S)=  0.000E+00 dE (1.order)= 0.000E+00
 bond charge predicted
       N       E                     dE             d eps       ncg     rms          rms(c)
DAV:   1    -0.851690816895E+03   -0.45885E-03   -0.11725E+00  3900   0.231E+00    0.206E-01
DAV:   2    -0.851692640294E+03   -0.18234E-02   -0.23478E-02  3960   0.304E-01    0.172E-01
DAV:   3    -0.851692427536E+03    0.21276E-03   -0.49594E-04  4700   0.511E-02    0.134E-01
DAV:   4    -0.851692448748E+03   -0.21212E-04   -0.10109E-03  4480   0.722E-02    0.313E-02
DAV:   5    -0.851692466842E+03   -0.18094E-04   -0.20165E-04  4240   0.269E-02    0.197E-02
DAV:   6    -0.851692475936E+03   -0.90933E-05   -0.28997E-05  4080   0.119E-02    0.863E-03
DAV:   7    -0.851692478935E+03   -0.29998E-05   -0.53562E-06  4120   0.463E-03    0.509E-03
DAV:   8    -0.851692478915E+03    0.20613E-07   -0.15501E-06  3100   0.329E-03
  68 F= -.85960158E+03 E0= -.85960158E+03  d E =-.176880E-02  mag=    -0.0000
quench:  g(F)=  0.000E+00 g(S)=  0.000E+00 dE (1.order)= 0.000E+00
 bond charge predicted
       N       E                     dE             d eps       ncg     rms          rms(c)
DAV:   1    -0.851693112046E+03   -0.63311E-03   -0.27592E-02  3860   0.384E-01    0.376E-02
DAV:   2    -0.851693163314E+03   -0.51268E-04   -0.72958E-04  4660   0.559E-02    0.345E-02
DAV:   3    -0.851693150567E+03    0.12747E-04   -0.32817E-05  5120   0.120E-02    0.272E-02
DAV:   4    -0.851693137688E+03    0.12879E-04   -0.28665E-05  4160   0.130E-02    0.113E-02
DAV:   5    -0.851693137471E+03    0.21629E-06   -0.96313E-06  4040   0.640E-03
  69 F= -.85960222E+03 E0= -.85960222E+03  d E =-.647778E-03  mag=     0.0000
quench:  g(F)=  0.000E+00 g(S)=  0.000E+00 dE (1.order)= 0.000E+00
 bond charge predicted
       N       E                     dE             d eps       ncg     rms          rms(c)
DAV:   1    -0.851692871253E+03    0.26643E-03   -0.26772E-02  3840   0.380E-01    0.369E-02
DAV:   2    -0.851692921995E+03   -0.50742E-04   -0.68898E-04  4600   0.548E-02    0.336E-02
DAV:   3    -0.851692911193E+03    0.10802E-04   -0.31384E-05  5040   0.118E-02    0.264E-02
DAV:   4    -0.851692900507E+03    0.10685E-04   -0.28657E-05  4120   0.131E-02    0.105E-02
DAV:   5    -0.851692900549E+03   -0.41779E-07   -0.81362E-06  3920   0.588E-03
  70 F= -.85960196E+03 E0= -.85960196E+03  d E =0.262119E-03  mag=     0.0000
quench:  g(F)=  0.000E+00 g(S)=  0.000E+00 dE (1.order)= 0.000E+00
 bond charge predicted
       N       E                     dE             d eps       ncg     rms          rms(c)
DAV:   1    -0.851693106889E+03   -0.20638E-03   -0.14648E-03  3860   0.873E-02    0.866E-03
DAV:   2    -0.851693109334E+03   -0.24454E-05   -0.40027E-05  4580   0.129E-02    0.813E-03
DAV:   3    -0.851693108487E+03    0.84717E-06   -0.15124E-06  2800   0.281E-03
  71 F= -.85960217E+03 E0= -.85960217E+03  d E =-.205666E-03  mag=    -0.0000
quench:  g(F)=  0.000E+00 g(S)=  0.000E+00 dE (1.order)= 0.000E+00
 bond charge predicted
       N       E                     dE             d eps       ncg     rms          rms(c)
DAV:   1    -0.851693347294E+03   -0.23796E-03   -0.44887E-03  3880   0.153E-01    0.163E-02
DAV:   2    -0.851693354011E+03   -0.67163E-05   -0.10828E-04  4680   0.213E-02    0.148E-02
DAV:   3    -0.851693351663E+03    0.23476E-05   -0.48360E-06  3860   0.482E-03    0.113E-02
DAV:   4    -0.851693350318E+03    0.13454E-05   -0.67027E-06  3780   0.617E-03    0.380E-03
DAV:   5    -0.851693350422E+03   -0.10414E-06   -0.13922E-06  2890   0.242E-03
  72 F= -.85960240E+03 E0= -.85960240E+03  d E =-.237158E-03  mag=     0.0000
quench:  g(F)=  0.000E+00 g(S)=  0.000E+00 dE (1.order)= 0.000E+00
 bond charge predicted
       N       E                     dE             d eps       ncg     rms          rms(c)
DAV:   1    -0.851693436007E+03   -0.85690E-04   -0.66360E-03  3880   0.185E-01    0.178E-02
DAV:   2    -0.851693447964E+03   -0.11957E-04   -0.17084E-04  4620   0.267E-02    0.162E-02
DAV:   3    -0.851693445199E+03    0.27651E-05   -0.68509E-06  4340   0.553E-03    0.129E-02
DAV:   4    -0.851693443290E+03    0.19087E-05   -0.78706E-06  3820   0.659E-03    0.504E-03
DAV:   5    -0.851693443478E+03   -0.18781E-06   -0.18809E-06  3100   0.281E-03
  73 F= -.85960249E+03 E0= -.85960249E+03  d E =-.851406E-04  mag=     0.0000
quench:  g(F)=  0.000E+00 g(S)=  0.000E+00 dE (1.order)= 0.000E+00
 bond charge predicted
       N       E                     dE             d eps       ncg     rms          rms(c)
DAV:   1    -0.851693450302E+03   -0.70112E-05   -0.60724E-06  3660   0.565E-03    0.132E-03
DAV:   2    -0.851693450304E+03   -0.23210E-08   -0.21287E-07  2100   0.105E-03
  74 F= -.85960250E+03 E0= -.85960250E+03  d E =-.623924E-05  mag=    -0.0000
quench:  g(F)=  0.000E+00 g(S)=  0.000E+00 dE (1.order)= 0.000E+00
 bond charge predicted
       N       E                     dE             d eps       ncg     rms          rms(c)
DAV:   1    -0.851693463271E+03   -0.12969E-04   -0.19826E-05  3840   0.102E-02    0.139E-03
DAV:   2    -0.851693463293E+03   -0.21741E-07   -0.42697E-07  2040   0.147E-03
  75 F= -.85960251E+03 E0= -.85960251E+03  d E =-.118078E-04  mag=     0.0000
quench:  g(F)=  0.000E+00 g(S)=  0.000E+00 dE (1.order)= 0.000E+00
 bond charge predicted
       N       E                     dE             d eps       ncg     rms          rms(c)
DAV:   1    -0.851693481704E+03   -0.18433E-04   -0.42685E-05  3900   0.150E-02    0.210E-03
DAV:   2    -0.851693481741E+03   -0.37537E-07   -0.90238E-07  2400   0.211E-03
  76 F= -.85960252E+03 E0= -.85960252E+03  d E =-.166629E-04  mag=     0.0000
quench:  g(F)=  0.000E+00 g(S)=  0.000E+00 dE (1.order)= 0.000E+00
 bond charge predicted
       N       E                     dE             d eps       ncg     rms          rms(c)
DAV:   1    -0.851693504604E+03   -0.22900E-04   -0.69874E-05  3880   0.191E-02    0.276E-03
DAV:   2    -0.851693504659E+03   -0.55050E-07   -0.13881E-06  2760   0.262E-03
  77 F= -.85960254E+03 E0= -.85960254E+03  d E =-.205157E-04  mag=    -0.0000
quench:  g(F)=  0.000E+00 g(S)=  0.000E+00 dE (1.order)= 0.000E+00
 bond charge predicted
       N       E                     dE             d eps       ncg     rms          rms(c)
DAV:   1    -0.851693531141E+03   -0.26537E-04   -0.99430E-05  3840   0.227E-02    0.328E-03
DAV:   2    -0.851693531232E+03   -0.91328E-07   -0.20230E-06  3080   0.306E-03
  78 F= -.85960257E+03 E0= -.85960257E+03  d E =-.234986E-04  mag=     0.0000
quench:  g(F)=  0.000E+00 g(S)=  0.000E+00 dE (1.order)= 0.000E+00
 bond charge predicted
       N       E                     dE             d eps       ncg     rms          rms(c)
DAV:   1    -0.851693561158E+03   -0.30017E-04   -0.13038E-04  3860   0.257E-02    0.382E-03
DAV:   2    -0.851693561256E+03   -0.98284E-07   -0.25009E-06  3480   0.338E-03
  79 F= -.85960259E+03 E0= -.85960259E+03  d E =-.262643E-04  mag=     0.0000
quench:  g(F)=  0.000E+00 g(S)=  0.000E+00 dE (1.order)= 0.000E+00
 bond charge predicted
       N       E                     dE             d eps       ncg     rms          rms(c)
DAV:   1    -0.851693598704E+03   -0.37547E-04   -0.20134E-04  3880   0.315E-02    0.447E-03
DAV:   2    -0.851693598853E+03   -0.14821E-06   -0.37331E-06  3580   0.404E-03
  80 F= -.85960263E+03 E0= -.85960263E+03  d E =-.326573E-04  mag=    -0.0000
quench:  g(F)=  0.000E+00 g(S)=  0.000E+00 dE (1.order)= 0.000E+00
 bond charge predicted
       N       E                     dE             d eps       ncg     rms          rms(c)
DAV:   1    -0.851693645751E+03   -0.47047E-04   -0.31032E-04  3880   0.385E-02    0.545E-03
DAV:   2    -0.851693645952E+03   -0.20058E-06   -0.56064E-06  3940   0.487E-03
  81 F= -.85960267E+03 E0= -.85960267E+03  d E =-.407579E-04  mag=     0.0000
quench:  g(F)=  0.000E+00 g(S)=  0.000E+00 dE (1.order)= 0.000E+00
 bond charge predicted
       N       E                     dE             d eps       ncg     rms          rms(c)
DAV:   1    -0.851693705674E+03   -0.59923E-04   -0.47388E-04  3900   0.468E-02    0.665E-03
DAV:   2    -0.851693705923E+03   -0.24867E-06   -0.82239E-06  3820   0.583E-03
  82 F= -.85960272E+03 E0= -.85960272E+03  d E =-.519811E-04  mag=     0.0000
quench:  g(F)=  0.000E+00 g(S)=  0.000E+00 dE (1.order)= 0.000E+00
 bond charge predicted
       N       E                     dE             d eps       ncg     rms          rms(c)
DAV:   1    -0.851693782387E+03   -0.76713E-04   -0.74569E-04  3880   0.581E-02    0.817E-03
DAV:   2    -0.851693782718E+03   -0.33090E-06   -0.12839E-05  3960   0.720E-03    0.683E-03
DAV:   3    -0.851693782808E+03   -0.89865E-07   -0.51517E-07  2500   0.188E-03
  83 F= -.85960279E+03 E0= -.85960279E+03  d E =-.670142E-04  mag=     0.0000
quench:  g(F)=  0.000E+00 g(S)=  0.000E+00 dE (1.order)= 0.000E+00
 bond charge predicted
       N       E                     dE             d eps       ncg     rms          rms(c)
DAV:   1    -0.851693879549E+03   -0.96830E-04   -0.11931E-03  3880   0.732E-02    0.694E-03
DAV:   2    -0.851693880850E+03   -0.13018E-05   -0.20835E-05  3940   0.897E-03    0.583E-03
DAV:   3    -0.851693880721E+03    0.12941E-06   -0.34801E-07  2620   0.151E-03
  84 F= -.85960287E+03 E0= -.85960287E+03  d E =-.857619E-04  mag=     0.0000
quench:  g(F)=  0.000E+00 g(S)=  0.000E+00 dE (1.order)= 0.000E+00
 bond charge predicted
       N       E                     dE             d eps       ncg     rms          rms(c)
DAV:   1    -0.851693999839E+03   -0.11899E-03   -0.19071E-03  3880   0.925E-02    0.860E-03
DAV:   2    -0.851694001959E+03   -0.21201E-05   -0.33693E-05  3980   0.114E-02    0.728E-03
DAV:   3    -0.851694001665E+03    0.29380E-06   -0.57677E-07  2770   0.194E-03
  85 F= -.85960298E+03 E0= -.85960298E+03  d E =-.106043E-03  mag=     0.0000
quench:  g(F)=  0.000E+00 g(S)=  0.000E+00 dE (1.order)= 0.000E+00
 bond charge predicted
       N       E                     dE             d eps       ncg     rms          rms(c)
DAV:   1    -0.851694145224E+03   -0.14327E-03   -0.29545E-03  3900   0.115E-01    0.107E-02
DAV:   2    -0.851694148459E+03   -0.32348E-05   -0.51811E-05  3960   0.141E-02    0.909E-03
DAV:   3    -0.851694148012E+03    0.44678E-06   -0.93295E-07  2930   0.240E-03
  86 F= -.85960311E+03 E0= -.85960311E+03  d E =-.127907E-03  mag=    -0.0000
quench:  g(F)=  0.000E+00 g(S)=  0.000E+00 dE (1.order)= 0.000E+00
 bond charge predicted
       N       E                     dE             d eps       ncg     rms          rms(c)
DAV:   1    -0.851694322321E+03   -0.17386E-03   -0.43393E-03  3900   0.140E-01    0.131E-02
DAV:   2    -0.851694326915E+03   -0.45948E-05   -0.74158E-05  3940   0.170E-02    0.110E-02
DAV:   3    -0.851694326328E+03    0.58739E-06   -0.14404E-06  3150   0.294E-03
  87 F= -.85960326E+03 E0= -.85960326E+03  d E =-.155589E-03  mag=    -0.0000
quench:  g(F)=  0.000E+00 g(S)=  0.000E+00 dE (1.order)= 0.000E+00
 bond charge predicted
       N       E                     dE             d eps       ncg     rms          rms(c)
DAV:   1    -0.851694542766E+03   -0.21585E-03   -0.62943E-03  3900   0.168E-01    0.159E-02
DAV:   2    -0.851694549360E+03   -0.65934E-05   -0.10583E-04  3940   0.205E-02    0.134E-02
DAV:   3    -0.851694548556E+03    0.80385E-06   -0.22398E-06  3400   0.361E-03
  88 F= -.85960346E+03 E0= -.85960346E+03  d E =-.194261E-03  mag=    -0.0000
quench:  g(F)=  0.000E+00 g(S)=  0.000E+00 dE (1.order)= 0.000E+00
 bond charge predicted
       N       E                     dE             d eps       ncg     rms          rms(c)
DAV:   1    -0.851694813567E+03   -0.26421E-03   -0.93750E-03  3900   0.206E-01    0.196E-02
DAV:   2    -0.851694823499E+03   -0.99321E-05   -0.15767E-04  3920   0.252E-02    0.166E-02
DAV:   3    -0.851694822331E+03    0.11683E-05   -0.37295E-06  4000   0.453E-03    0.123E-02
DAV:   4    -0.851694825472E+03   -0.31410E-05   -0.66390E-06  3500   0.602E-03    0.257E-03
DAV:   5    -0.851694825498E+03   -0.26732E-07   -0.15670E-06  3080   0.243E-03
  89 F= -.85960370E+03 E0= -.85960370E+03  d E =-.242849E-03  mag=    -0.0000
quench:  g(F)=  0.000E+00 g(S)=  0.000E+00 dE (1.order)= 0.000E+00
 bond charge predicted
       N       E                     dE             d eps       ncg     rms          rms(c)
DAV:   1    -0.851695137575E+03   -0.31210E-03   -0.14558E-02  3920   0.257E-01    0.235E-02
DAV:   2    -0.851695155227E+03   -0.17652E-04   -0.26563E-04  3920   0.329E-02    0.199E-02
DAV:   3    -0.851695152243E+03    0.29841E-05   -0.64407E-06  4310   0.594E-03    0.150E-02
DAV:   4    -0.851695155368E+03   -0.31250E-05   -0.11875E-05  3620   0.799E-03    0.349E-03
DAV:   5    -0.851695155507E+03   -0.13905E-06   -0.26127E-06  3300   0.312E-03
  90 F= -.85960399E+03 E0= -.85960399E+03  d E =-.288837E-03  mag=    -0.0000
quench:  g(F)=  0.000E+00 g(S)=  0.000E+00 dE (1.order)= 0.000E+00
 bond charge predicted
       N       E                     dE             d eps       ncg     rms          rms(c)
DAV:   1    -0.851695524472E+03   -0.36910E-03   -0.21685E-02  3920   0.312E-01    0.287E-02
DAV:   2    -0.851695550439E+03   -0.25967E-04   -0.39516E-04  3920   0.398E-02    0.242E-02
DAV:   3    -0.851695546075E+03    0.43639E-05   -0.91268E-06  4460   0.711E-03    0.182E-02
DAV:   4    -0.851695551219E+03   -0.51434E-05   -0.18054E-05  3680   0.981E-03    0.411E-03
DAV:   5    -0.851695551412E+03   -0.19366E-06   -0.39406E-06  3660   0.383E-03
  91 F= -.85960433E+03 E0= -.85960433E+03  d E =-.345580E-03  mag=     0.0000
quench:  g(F)=  0.000E+00 g(S)=  0.000E+00 dE (1.order)= 0.000E+00
 bond charge predicted
       N       E                     dE             d eps       ncg     rms          rms(c)
DAV:   1    -0.851695990677E+03   -0.43946E-03   -0.32285E-02  3920   0.380E-01    0.350E-02
DAV:   2    -0.851696030039E+03   -0.39362E-04   -0.59444E-04  3920   0.485E-02    0.295E-02
DAV:   3    -0.851696023487E+03    0.65516E-05   -0.13436E-05  4580   0.861E-03    0.224E-02
DAV:   4    -0.851696031184E+03   -0.76966E-05   -0.27265E-05  3720   0.121E-02    0.503E-03
DAV:   5    -0.851696031578E+03   -0.39446E-06   -0.59171E-06  4060   0.465E-03
  92 F= -.85960475E+03 E0= -.85960475E+03  d E =-.420253E-03  mag=    -0.0000
quench:  g(F)=  0.000E+00 g(S)=  0.000E+00 dE (1.order)= 0.000E+00
 bond charge predicted
       N       E                     dE             d eps       ncg     rms          rms(c)
DAV:   1    -0.851696543555E+03   -0.51237E-03   -0.47339E-02  3920   0.460E-01    0.425E-02
DAV:   2    -0.851696602154E+03   -0.58599E-04   -0.87410E-04  3920   0.589E-02    0.357E-02
DAV:   3    -0.851696592835E+03    0.93193E-05   -0.19786E-05  4540   0.104E-02    0.270E-02
DAV:   4    -0.851696603549E+03   -0.10714E-04   -0.38708E-05  3800   0.145E-02    0.614E-03
DAV:   5    -0.851696604272E+03   -0.72335E-06   -0.83655E-06  4300   0.552E-03
  93 F= -.85960526E+03 E0= -.85960526E+03  d E =-.502449E-03  mag=     0.0000
quench:  g(F)=  0.000E+00 g(S)=  0.000E+00 dE (1.order)= 0.000E+00
 bond charge predicted
       N       E                     dE             d eps       ncg     rms          rms(c)
DAV:   1    -0.851697214927E+03   -0.61138E-03   -0.67796E-02  3920   0.552E-01    0.510E-02
DAV:   2    -0.851697298687E+03   -0.83761E-04   -0.12393E-03  3900   0.704E-02    0.428E-02
DAV:   3    -0.851697285804E+03    0.12883E-04   -0.29152E-05  4520   0.127E-02    0.323E-02
DAV:   4    -0.851697299507E+03   -0.13703E-04   -0.53611E-05  3880   0.171E-02    0.740E-03
DAV:   5    -0.851697300633E+03   -0.11263E-05   -0.11709E-05  4320   0.654E-03    0.460E-03
DAV:   6    -0.851697300883E+03   -0.25046E-06   -0.19387E-06  2960   0.336E-03
  94 F= -.85960587E+03 E0= -.85960587E+03  d E =-.611569E-03  mag=    -0.0000
quench:  g(F)=  0.000E+00 g(S)=  0.000E+00 dE (1.order)= 0.000E+00
 bond charge predicted
       N       E                     dE             d eps       ncg     rms          rms(c)
DAV:   1    -0.851698009183E+03   -0.70855E-03   -0.10128E-01  3920   0.675E-01    0.616E-02
DAV:   2    -0.851698137256E+03   -0.12807E-03   -0.18604E-03  3920   0.862E-02    0.516E-02
DAV:   3    -0.851698117393E+03    0.19863E-04   -0.43334E-05  4560   0.154E-02    0.389E-02
DAV:   4    -0.851698134139E+03   -0.16745E-04   -0.82459E-05  4220   0.209E-02    0.897E-03
DAV:   5    -0.851698135547E+03   -0.14084E-05   -0.16803E-05  4280   0.804E-03    0.553E-03
DAV:   6    -0.851698136121E+03   -0.57356E-06   -0.27429E-06  3260   0.392E-03
  95 F= -.85960660E+03 E0= -.85960660E+03  d E =-.729445E-03  mag=     0.0000
quench:  g(F)=  0.000E+00 g(S)=  0.000E+00 dE (1.order)= 0.000E+00
 bond charge predicted
       N       E                     dE             d eps       ncg     rms          rms(c)
DAV:   1    -0.851698953058E+03   -0.81751E-03   -0.15116E-01  3920   0.824E-01    0.748E-02
DAV:   2    -0.851699150586E+03   -0.19753E-03   -0.28060E-03  3940   0.105E-01    0.625E-02
DAV:   3    -0.851699122226E+03    0.28360E-04   -0.62600E-05  4520   0.186E-02    0.473E-02
DAV:   4    -0.851699145138E+03   -0.22912E-04   -0.12490E-04  4280   0.256E-02    0.107E-02
DAV:   5    -0.851699146933E+03   -0.17950E-05   -0.24795E-05  4260   0.978E-03    0.671E-03
DAV:   6    -0.851699147909E+03   -0.97603E-06   -0.39643E-06  3540   0.465E-03
  96 F= -.85960747E+03 E0= -.85960747E+03  d E =-.876477E-03  mag=    -0.0000
quench:  g(F)=  0.000E+00 g(S)=  0.000E+00 dE (1.order)= 0.000E+00
 bond charge predicted
       N       E                     dE             d eps       ncg     rms          rms(c)
DAV:   1    -0.851700094307E+03   -0.94737E-03   -0.21524E-01  3920   0.978E-01    0.897E-02
DAV:   2    -0.851700372771E+03   -0.27846E-03   -0.39464E-03  3940   0.125E-01    0.750E-02
DAV:   3    -0.851700332332E+03    0.40439E-04   -0.89300E-05  4540   0.222E-02    0.565E-02
DAV:   4    -0.851700362906E+03   -0.30574E-04   -0.18123E-04  4400   0.305E-02    0.127E-02
DAV:   5    -0.851700364701E+03   -0.17951E-05   -0.35377E-05  4260   0.118E-02    0.795E-03
DAV:   6    -0.851700366292E+03   -0.15909E-05   -0.54470E-06  3660   0.525E-03    0.342E-03
DAV:   7    -0.851700366608E+03   -0.31565E-06   -0.92801E-07  2840   0.205E-03
  97 F= -.85960853E+03 E0= -.85960853E+03  d E =-.105339E-02  mag=     0.0000
quench:  g(F)=  0.000E+00 g(S)=  0.000E+00 dE (1.order)= 0.000E+00
 bond charge predicted
       N       E                     dE             d eps       ncg     rms          rms(c)
DAV:   1    -0.851701508233E+03   -0.11419E-02   -0.29686E-01  3920   0.115E+00    0.107E-01
DAV:   2    -0.851701873665E+03   -0.36543E-03   -0.52567E-03  3980   0.144E-01    0.902E-02
DAV:   3    -0.851701813396E+03    0.60269E-04   -0.12816E-04  4540   0.267E-02    0.672E-02
DAV:   4    -0.851701848256E+03   -0.34860E-04   -0.25461E-04  4440   0.358E-02    0.152E-02
DAV:   5    -0.851701850012E+03   -0.17554E-05   -0.52300E-05  4260   0.143E-02    0.914E-03
DAV:   6    -0.851701852411E+03   -0.23990E-05   -0.70858E-06  3660   0.570E-03    0.401E-03
DAV:   7    -0.851701852813E+03   -0.40252E-06   -0.10824E-06  2960   0.223E-03
  98 F= -.85960981E+03 E0= -.85960981E+03  d E =-.128333E-02  mag=     0.0000
quench:  g(F)=  0.000E+00 g(S)=  0.000E+00 dE (1.order)= 0.000E+00
 bond charge predicted
       N       E                     dE             d eps       ncg     rms          rms(c)
DAV:   1    -0.851703163140E+03   -0.13107E-02   -0.43471E-01  3920   0.138E+00    0.129E-01
DAV:   2    -0.851703702370E+03   -0.53923E-03   -0.76731E-03  4000   0.173E-01    0.110E-01
DAV:   3    -0.851703611936E+03    0.90434E-04   -0.18632E-04  4560   0.320E-02    0.822E-02
DAV:   4    -0.851703655271E+03   -0.43336E-04   -0.39131E-04  4440   0.438E-02    0.184E-02
DAV:   5    -0.851703657839E+03   -0.25673E-05   -0.77257E-05  4260   0.172E-02    0.114E-02
DAV:   6    -0.851703661556E+03   -0.37176E-05   -0.10985E-05  3740   0.708E-03    0.481E-03
DAV:   7    -0.851703662089E+03   -0.53310E-06   -0.16814E-06  3100   0.271E-03
  99 F= -.85961137E+03 E0= -.85961137E+03  d E =-.155661E-02  mag=    -0.0000
quench:  g(F)=  0.000E+00 g(S)=  0.000E+00 dE (1.order)= 0.000E+00
 bond charge predicted
       N       E                     dE             d eps       ncg     rms          rms(c)
DAV:   1    -0.851705078262E+03   -0.14167E-02   -0.59573E-01  3920   0.162E+00    0.153E-01
DAV:   2    -0.851705814230E+03   -0.73597E-03   -0.10466E-02  4040   0.205E-01    0.131E-01
DAV:   3    -0.851705687459E+03    0.12677E-03   -0.27318E-04  4560   0.390E-02    0.970E-02
DAV:   4    -0.851705735059E+03   -0.47600E-04   -0.51635E-04  4460   0.518E-02    0.225E-02
DAV:   5    -0.851705739575E+03   -0.45155E-05   -0.11298E-04  4260   0.209E-02    0.134E-02
DAV:   6    -0.851705743842E+03   -0.42674E-05   -0.14302E-05  3980   0.807E-03    0.591E-03
DAV:   7    -0.851705744635E+03   -0.79331E-06   -0.21509E-06  3160   0.314E-03
 100 F= -.85961316E+03 E0= -.85961316E+03  d E =-.179724E-02  mag=     0.0000
quench:  g(F)=  0.000E+00 g(S)=  0.000E+00 dE (1.order)= 0.000E+00
 bond charge predicted
       N       E                     dE             d eps       ncg     rms          rms(c)
DAV:   1    -0.851706741515E+03   -0.99767E-03   -0.91136E-01  3880   0.201E+00    0.187E-01
DAV:   2    -0.851707964012E+03   -0.12225E-02   -0.16878E-02  4100   0.258E-01    0.162E-01
DAV:   3    -0.851707762558E+03    0.20145E-03   -0.45202E-04  4720   0.483E-02    0.124E-01
DAV:   4    -0.851707777444E+03   -0.14886E-04   -0.83177E-04  4420   0.652E-02    0.318E-02
DAV:   5    -0.851707799098E+03   -0.21654E-04   -0.17238E-04  4260   0.247E-02    0.192E-02
DAV:   6    -0.851707805975E+03   -0.68774E-05   -0.26808E-05  4040   0.112E-02    0.770E-03
DAV:   7    -0.851707806976E+03   -0.10013E-05   -0.40762E-06  3840   0.417E-03    0.492E-03
DAV:   8    -0.851707806972E+03    0.40964E-08   -0.17489E-06  3180   0.343E-03
 101 F= -.85961487E+03 E0= -.85961487E+03  d E =-.171006E-02  mag=    -0.0000
quench:  g(F)=  0.000E+00 g(S)=  0.000E+00 dE (1.order)= 0.000E+00
 bond charge predicted
       N       E                     dE             d eps       ncg     rms          rms(c)
DAV:   1    -0.851708450166E+03   -0.64319E-03   -0.31420E-02  3860   0.412E-01    0.405E-02
DAV:   2    -0.851708508928E+03   -0.58762E-04   -0.83906E-04  4720   0.609E-02    0.369E-02
DAV:   3    -0.851708493856E+03    0.15072E-04   -0.41199E-05  5040   0.134E-02    0.286E-02
DAV:   4    -0.851708480644E+03    0.13212E-04   -0.31943E-05  4140   0.135E-02    0.131E-02
DAV:   5    -0.851708480123E+03    0.52124E-06   -0.98001E-06  4160   0.659E-03
 102 F= -.85961555E+03 E0= -.85961555E+03  d E =-.680834E-03  mag=     0.0000
quench:  g(F)=  0.000E+00 g(S)=  0.000E+00 dE (1.order)= 0.000E+00
 bond charge predicted
       N       E                     dE             d eps       ncg     rms          rms(c)
DAV:   1    -0.851708149249E+03    0.33139E-03   -0.29311E-02  3880   0.399E-01    0.390E-02
DAV:   2    -0.851708204924E+03   -0.55674E-04   -0.76259E-04  4700   0.584E-02    0.350E-02
DAV:   3    -0.851708192784E+03    0.12139E-04   -0.36489E-05  4960   0.129E-02    0.272E-02
DAV:   4    -0.851708182780E+03    0.10004E-04   -0.30095E-05  4200   0.132E-02    0.120E-02
DAV:   5    -0.851708182769E+03    0.10783E-07   -0.82840E-06  3980   0.607E-03
 103 F= -.85961525E+03 E0= -.85961525E+03  d E =0.306977E-03  mag=    -0.0000
quench:  g(F)=  0.000E+00 g(S)=  0.000E+00 dE (1.order)= 0.000E+00
 bond charge predicted
       N       E                     dE             d eps       ncg     rms          rms(c)
DAV:   1    -0.851708418665E+03   -0.23588E-03   -0.16609E-03  3860   0.941E-02    0.939E-03
DAV:   2    -0.851708421418E+03   -0.27534E-05   -0.45616E-05  4700   0.141E-02    0.876E-03
DAV:   3    -0.851708420428E+03    0.99052E-06   -0.20372E-06  2860   0.319E-03
 104 F= -.85961548E+03 E0= -.85961548E+03  d E =-.232244E-03  mag=     0.0000
quench:  g(F)=  0.000E+00 g(S)=  0.000E+00 dE (1.order)= 0.000E+00
 bond charge predicted
       N       E                     dE             d eps       ncg     rms          rms(c)
DAV:   1    -0.851708689163E+03   -0.26774E-03   -0.50253E-03  3860   0.164E-01    0.179E-02
DAV:   2    -0.851708696948E+03   -0.77853E-05   -0.12274E-04  4720   0.232E-02    0.160E-02
DAV:   3    -0.851708694144E+03    0.28039E-05   -0.66995E-06  4680   0.556E-03    0.120E-02
DAV:   4    -0.851708692541E+03    0.16034E-05   -0.57758E-06  3820   0.581E-03    0.491E-03
DAV:   5    -0.851708692596E+03   -0.55377E-07   -0.15247E-06  2800   0.256E-03
 105 F= -.85961574E+03 E0= -.85961574E+03  d E =-.261807E-03  mag=    -0.0000
quench:  g(F)=  0.000E+00 g(S)=  0.000E+00 dE (1.order)= 0.000E+00
 bond charge predicted
       N       E                     dE             d eps       ncg     rms          rms(c)
DAV:   1    -0.851708783670E+03   -0.91130E-04   -0.72890E-03  3860   0.197E-01    0.190E-02
DAV:   2    -0.851708797315E+03   -0.13644E-04   -0.18987E-04  4700   0.287E-02    0.171E-02
DAV:   3    -0.851708794272E+03    0.30423E-05   -0.84643E-06  4820   0.610E-03    0.134E-02
DAV:   4    -0.851708792087E+03    0.21854E-05   -0.73206E-06  3820   0.637E-03    0.595E-03
DAV:   5    -0.851708792203E+03   -0.11623E-06   -0.19440E-06  3000   0.293E-03
 106 F= -.85961583E+03 E0= -.85961583E+03  d E =-.849714E-04  mag=     0.0000
quench:  g(F)=  0.000E+00 g(S)=  0.000E+00 dE (1.order)= 0.000E+00
 bond charge predicted
       N       E                     dE             d eps       ncg     rms          rms(c)
DAV:   1    -0.851708799974E+03   -0.78873E-05   -0.83014E-06  3720   0.665E-03    0.139E-03
DAV:   2    -0.851708799971E+03    0.33688E-08   -0.27839E-07  2100   0.120E-03
 107 F= -.85961583E+03 E0= -.85961583E+03  d E =-.734409E-05  mag=     0.0000
quench:  g(F)=  0.000E+00 g(S)=  0.000E+00 dE (1.order)= 0.000E+00
 bond charge predicted
       N       E                     dE             d eps       ncg     rms          rms(c)
DAV:   1    -0.851708814690E+03   -0.14716E-04   -0.27739E-05  3920   0.122E-02    0.154E-03
DAV:   2    -0.851708814716E+03   -0.26354E-07   -0.57397E-07  2100   0.172E-03
 108 F= -.85961585E+03 E0= -.85961585E+03  d E =-.139202E-04  mag=    -0.0000
quench:  g(F)=  0.000E+00 g(S)=  0.000E+00 dE (1.order)= 0.000E+00
 bond charge predicted
       N       E                     dE             d eps       ncg     rms          rms(c)
DAV:   1    -0.851708835320E+03   -0.20630E-04   -0.59582E-05  3880   0.178E-02    0.242E-03
DAV:   2    -0.851708835366E+03   -0.46144E-07   -0.12747E-06  2560   0.253E-03
 109 F= -.85961587E+03 E0= -.85961587E+03  d E =-.193174E-04  mag=     0.0000
quench:  g(F)=  0.000E+00 g(S)=  0.000E+00 dE (1.order)= 0.000E+00
 bond charge predicted
       N       E                     dE             d eps       ncg     rms          rms(c)
DAV:   1    -0.851708860554E+03   -0.25234E-04   -0.96794E-05  3880   0.226E-02    0.322E-03
DAV:   2    -0.851708860634E+03   -0.79468E-07   -0.21017E-06  3360   0.317E-03
 110 F= -.85961589E+03 E0= -.85961589E+03  d E =-.233850E-04  mag=    -0.0000
quench:  g(F)=  0.000E+00 g(S)=  0.000E+00 dE (1.order)= 0.000E+00
 bond charge predicted
       N       E                     dE             d eps       ncg     rms          rms(c)
DAV:   1    -0.851708889362E+03   -0.28808E-04   -0.13626E-04  3840   0.266E-02    0.396E-03
DAV:   2    -0.851708889460E+03   -0.97913E-07   -0.28158E-06  3340   0.363E-03
 111 F= -.85961592E+03 E0= -.85961592E+03  d E =-.263599E-04  mag=     0.0000
quench:  g(F)=  0.000E+00 g(S)=  0.000E+00 dE (1.order)= 0.000E+00
 bond charge predicted
       N       E                     dE             d eps       ncg     rms          rms(c)
DAV:   1    -0.851708921529E+03   -0.32167E-04   -0.17311E-04  3860   0.297E-02    0.449E-03
DAV:   2    -0.851708921637E+03   -0.10758E-06   -0.34581E-06  3960   0.395E-03
 112 F= -.85961595E+03 E0= -.85961595E+03  d E =-.290746E-04  mag=    -0.0000
quench:  g(F)=  0.000E+00 g(S)=  0.000E+00 dE (1.order)= 0.000E+00
 bond charge predicted
       N       E                     dE             d eps       ncg     rms          rms(c)
DAV:   1    -0.851708961302E+03   -0.39772E-04   -0.25947E-04  3860   0.357E-02    0.525E-03
DAV:   2    -0.851708961469E+03   -0.16751E-06   -0.50116E-06  3860   0.466E-03
 113 F= -.85961598E+03 E0= -.85961598E+03  d E =-.356001E-04  mag=    -0.0000
quench:  g(F)=  0.000E+00 g(S)=  0.000E+00 dE (1.order)= 0.000E+00
 bond charge predicted
       N       E                     dE             d eps       ncg     rms          rms(c)
DAV:   1    -0.851709011488E+03   -0.50186E-04   -0.37651E-04  3860   0.421E-02    0.631E-03
DAV:   2    -0.851709011673E+03   -0.18528E-06   -0.68245E-06  4120   0.537E-03
 114 F= -.85961603E+03 E0= -.85961603E+03  d E =-.446470E-04  mag=     0.0000
quench:  g(F)=  0.000E+00 g(S)=  0.000E+00 dE (1.order)= 0.000E+00
 bond charge predicted
       N       E                     dE             d eps       ncg     rms          rms(c)
DAV:   1    -0.851709076762E+03   -0.65274E-04   -0.55934E-04  3860   0.503E-02    0.751E-03
DAV:   2    -0.851709076979E+03   -0.21731E-06   -0.96597E-06  3900   0.628E-03
 115 F= -.85961608E+03 E0= -.85961608E+03  d E =-.580689E-04  mag=     0.0000
quench:  g(F)=  0.000E+00 g(S)=  0.000E+00 dE (1.order)= 0.000E+00
 bond charge predicted
[...]
 410 F= -.85967430E+03 E0= -.85967430E+03  d E =-.272969E-04  mag=    -0.0000
quench:  g(F)=  0.000E+00 g(S)=  0.000E+00 dE (1.order)= 0.000E+00
 bond charge predicted
       N       E                     dE             d eps       ncg     rms          rms(c)
DAV:   1    -0.851775549849E+03   -0.37169E-04   -0.15948E-04  3840   0.238E-02    0.430E-03
DAV:   2    -0.851775549885E+03   -0.36154E-07   -0.24048E-06  2840   0.286E-03
 411 F= -.85967434E+03 E0= -.85967434E+03  d E =-.357972E-04  mag=     0.0000
quench:  g(F)=  0.000E+00 g(S)=  0.000E+00 dE (1.order)= 0.000E+00
 bond charge predicted
       N       E                     dE             d eps       ncg     rms          rms(c)
DAV:   1    -0.851775598287E+03   -0.48439E-04   -0.26672E-04  3840   0.306E-02    0.559E-03
DAV:   2    -0.851775598350E+03   -0.62115E-07   -0.41569E-06  3180   0.369E-03
 412 F= -.85967439E+03 E0= -.85967439E+03  d E =-.464105E-04  mag=     0.0000
quench:  g(F)=  0.000E+00 g(S)=  0.000E+00 dE (1.order)= 0.000E+00
 bond charge predicted
       N       E                     dE             d eps       ncg     rms          rms(c)
DAV:   1    -0.851775661327E+03   -0.63040E-04   -0.43915E-04  3840   0.383E-02    0.727E-03
DAV:   2    -0.851775661444E+03   -0.11663E-06   -0.69338E-06  3520   0.459E-03
 413 F= -.85967445E+03 E0= -.85967445E+03  d E =-.602199E-04  mag=    -0.0000
quench:  g(F)=  0.000E+00 g(S)=  0.000E+00 dE (1.order)= 0.000E+00
 bond charge predicted
       N       E                     dE             d eps       ncg     rms          rms(c)
DAV:   1    -0.851775741421E+03   -0.80094E-04   -0.69170E-04  3840   0.469E-02    0.926E-03
DAV:   2    -0.851775741627E+03   -0.20571E-06   -0.10814E-05  3920   0.555E-03    0.769E-03
DAV:   3    -0.851775742147E+03   -0.51987E-06   -0.46684E-07  2640   0.160E-03
 414 F= -.85967452E+03 E0= -.85967452E+03  d E =-.770977E-04  mag=     0.0000
quench:  g(F)=  0.000E+00 g(S)=  0.000E+00 dE (1.order)= 0.000E+00
 bond charge predicted
       N       E                     dE             d eps       ncg     rms          rms(c)
DAV:   1    -0.851775840903E+03   -0.99276E-04   -0.10430E-03  3840   0.566E-02    0.771E-03
DAV:   2    -0.851775841852E+03   -0.94945E-06   -0.16308E-05  4020   0.656E-03    0.631E-03
DAV:   3    -0.851775841968E+03   -0.11548E-06   -0.24195E-07  2760   0.114E-03
 415 F= -.85967462E+03 E0= -.85967462E+03  d E =-.955473E-04  mag=     0.0000
quench:  g(F)=  0.000E+00 g(S)=  0.000E+00 dE (1.order)= 0.000E+00
 bond charge predicted
       N       E                     dE             d eps       ncg     rms          rms(c)
DAV:   1    -0.851775961012E+03   -0.11916E-03   -0.15109E-03  3840   0.686E-02    0.916E-03
DAV:   2    -0.851775962413E+03   -0.14010E-05   -0.23430E-05  4000   0.793E-03    0.754E-03
DAV:   3    -0.851775962528E+03   -0.11423E-06   -0.38266E-07  2820   0.141E-03
 416 F= -.85967473E+03 E0= -.85967473E+03  d E =-.115928E-03  mag=    -0.0000
quench:  g(F)=  0.000E+00 g(S)=  0.000E+00 dE (1.order)= 0.000E+00
 bond charge predicted
       N       E                     dE             d eps       ncg     rms          rms(c)
DAV:   1    -0.851776101046E+03   -0.13863E-03   -0.21215E-03  3840   0.824E-02    0.109E-02
DAV:   2    -0.851776102956E+03   -0.19100E-05   -0.32486E-05  4080   0.955E-03    0.901E-03
DAV:   3    -0.851776103180E+03   -0.22329E-06   -0.58940E-07  2900   0.175E-03
 417 F= -.85967487E+03 E0= -.85967487E+03  d E =-.136026E-03  mag=     0.0000
quench:  g(F)=  0.000E+00 g(S)=  0.000E+00 dE (1.order)= 0.000E+00
 bond charge predicted
       N       E                     dE             d eps       ncg     rms          rms(c)
DAV:   1    -0.851776258777E+03   -0.15582E-03   -0.28769E-03  3840   0.979E-02    0.127E-02
DAV:   2    -0.851776261363E+03   -0.25866E-05   -0.44073E-05  4180   0.115E-02    0.105E-02
DAV:   3    -0.851776261718E+03   -0.35459E-06   -0.83277E-07  3060   0.212E-03
 418 F= -.85967502E+03 E0= -.85967502E+03  d E =-.153919E-03  mag=    -0.0000
quench:  g(F)=  0.000E+00 g(S)=  0.000E+00 dE (1.order)= 0.000E+00
 bond charge predicted
       N       E                     dE             d eps       ncg     rms          rms(c)
DAV:   1    -0.851776429305E+03   -0.16794E-03   -0.36465E-03  3840   0.114E-01    0.144E-02
DAV:   2    -0.851776432481E+03   -0.31764E-05   -0.54916E-05  4060   0.134E-02    0.119E-02
DAV:   3    -0.851776433067E+03   -0.58590E-06   -0.12077E-06  3080   0.262E-03
 419 F= -.85967519E+03 E0= -.85967519E+03  d E =-.167014E-03  mag=     0.0000
quench:  g(F)=  0.000E+00 g(S)=  0.000E+00 dE (1.order)= 0.000E+00
 bond charge predicted
       N       E                     dE             d eps       ncg     rms          rms(c)
DAV:   1    -0.851776601562E+03   -0.16908E-03   -0.47196E-03  3840   0.134E-01    0.162E-02
DAV:   2    -0.851776605758E+03   -0.41964E-05   -0.72116E-05  4060   0.161E-02    0.134E-02
DAV:   3    -0.851776606621E+03   -0.86288E-06   -0.17358E-06  3100   0.324E-03
 420 F= -.85967536E+03 E0= -.85967536E+03  d E =-.170552E-03  mag=     0.0000
quench:  g(F)=  0.000E+00 g(S)=  0.000E+00 dE (1.order)= 0.000E+00
 bond charge predicted
       N       E                     dE             d eps       ncg     rms          rms(c)
DAV:   1    -0.851776766994E+03   -0.16124E-03   -0.60513E-03  3880   0.157E-01    0.182E-02
DAV:   2    -0.851776772233E+03   -0.52390E-05   -0.91613E-05  4020   0.189E-02    0.151E-02
DAV:   3    -0.851776773633E+03   -0.14003E-05   -0.25266E-06  3340   0.393E-03    0.100E-02
DAV:   4    -0.851776776658E+03   -0.30256E-05   -0.35953E-06  3500   0.438E-03    0.220E-03
DAV:   5    -0.851776776558E+03    0.10006E-06   -0.10939E-06  2820   0.221E-03
 421 F= -.85967553E+03 E0= -.85967553E+03  d E =-.170170E-03  mag=     0.0000
quench:  g(F)=  0.000E+00 g(S)=  0.000E+00 dE (1.order)= 0.000E+00
 bond charge predicted
       N       E                     dE             d eps       ncg     rms          rms(c)
DAV:   1    -0.851776914381E+03   -0.13772E-03   -0.83393E-03  3880   0.189E-01    0.207E-02
DAV:   2    -0.851776922659E+03   -0.82784E-05   -0.13816E-04  4000   0.241E-02    0.170E-02
DAV:   3    -0.851776923349E+03   -0.69034E-06   -0.43129E-06  3880   0.509E-03
 422 F= -.85967569E+03 E0= -.85967569E+03  d E =-.152843E-03  mag=    -0.0000
quench:  g(F)=  0.000E+00 g(S)=  0.000E+00 dE (1.order)= 0.000E+00
 bond charge predicted
       N       E                     dE             d eps       ncg     rms          rms(c)
DAV:   1    -0.851777037633E+03   -0.11497E-03   -0.11873E-02  3880   0.229E-01    0.259E-02
DAV:   2    -0.851777048317E+03   -0.10684E-04   -0.18747E-04  4020   0.284E-02    0.211E-02
DAV:   3    -0.851777051335E+03   -0.30176E-05   -0.58803E-06  4040   0.587E-03    0.138E-02
DAV:   4    -0.851777056963E+03   -0.56282E-05   -0.57849E-06  3680   0.578E-03    0.318E-03
DAV:   5    -0.851777056913E+03    0.50029E-07   -0.20791E-06  3060   0.292E-03
 423 F= -.85967583E+03 E0= -.85967583E+03  d E =-.147236E-03  mag=     0.0000
quench:  g(F)=  0.000E+00 g(S)=  0.000E+00 dE (1.order)= 0.000E+00
 bond charge predicted
       N       E                     dE             d eps       ncg     rms          rms(c)
DAV:   1    -0.851777153329E+03   -0.96366E-04   -0.17965E-02  3900   0.282E-01    0.298E-02
DAV:   2    -0.851777172364E+03   -0.19035E-04   -0.31020E-04  3960   0.366E-02    0.241E-02
DAV:   3    -0.851777173526E+03   -0.11611E-05   -0.94711E-06  4320   0.758E-03    0.165E-02
DAV:   4    -0.851777180516E+03   -0.69906E-05   -0.10621E-05  3740   0.778E-03    0.434E-03
DAV:   5    -0.851777180688E+03   -0.17155E-06   -0.37743E-06  3560   0.385E-03
 424 F= -.85967597E+03 E0= -.85967597E+03  d E =-.139150E-03  mag=     0.0000
quench:  g(F)=  0.000E+00 g(S)=  0.000E+00 dE (1.order)= 0.000E+00
 bond charge predicted
       N       E                     dE             d eps       ncg     rms          rms(c)
DAV:   1    -0.851777279901E+03   -0.99384E-04   -0.25575E-02  3900   0.336E-01    0.358E-02
DAV:   2    -0.851777306934E+03   -0.27034E-04   -0.44516E-04  3980   0.433E-02    0.288E-02
DAV:   3    -0.851777308967E+03   -0.20323E-05   -0.13485E-05  4420   0.900E-03    0.197E-02
DAV:   4    -0.851777319277E+03   -0.10310E-04   -0.15322E-05  3840   0.948E-03    0.520E-03
DAV:   5    -0.851777319520E+03   -0.24347E-06   -0.56948E-06  4100   0.471E-03
 425 F= -.85967613E+03 E0= -.85967613E+03  d E =-.154972E-03  mag=    -0.0000
quench:  g(F)=  0.000E+00 g(S)=  0.000E+00 dE (1.order)= 0.000E+00
 bond charge predicted
       N       E                     dE             d eps       ncg     rms          rms(c)
DAV:   1    -0.851777450611E+03   -0.13133E-03   -0.34826E-02  3880   0.393E-01    0.428E-02
DAV:   2    -0.851777487837E+03   -0.37227E-04   -0.61198E-04  4060   0.514E-02    0.346E-02
DAV:   3    -0.851777489974E+03   -0.21367E-05   -0.20374E-05  4520   0.110E-02    0.238E-02
DAV:   4    -0.851777503812E+03   -0.13838E-04   -0.20201E-05  3920   0.112E-02    0.663E-03
DAV:   5    -0.851777504605E+03   -0.79317E-06   -0.72046E-06  4200   0.526E-03
 426 F= -.85967633E+03 E0= -.85967633E+03  d E =-.207876E-03  mag=    -0.0000
quench:  g(F)=  0.000E+00 g(S)=  0.000E+00 dE (1.order)= 0.000E+00
 bond charge predicted
       N       E                     dE             d eps       ncg     rms          rms(c)
DAV:   1    -0.851777688766E+03   -0.18495E-03   -0.49451E-02  3880   0.470E-01    0.506E-02
DAV:   2    -0.851777745577E+03   -0.56811E-04   -0.88022E-04  4120   0.617E-02    0.416E-02
DAV:   3    -0.851777745473E+03    0.10410E-06   -0.30892E-05  4480   0.130E-02    0.294E-02
DAV:   4    -0.851777763251E+03   -0.17778E-04   -0.31869E-05  3940   0.138E-02    0.864E-03
DAV:   5    -0.851777764615E+03   -0.13639E-05   -0.98127E-06  4280   0.624E-03    0.459E-03
DAV:   6    -0.851777764726E+03   -0.11106E-06   -0.16298E-06  2660   0.283E-03
 427 F= -.85967662E+03 E0= -.85967662E+03  d E =-.284930E-03  mag=    -0.0000
quench:  g(F)=  0.000E+00 g(S)=  0.000E+00 dE (1.order)= 0.000E+00
 bond charge predicted
       N       E                     dE             d eps       ncg     rms          rms(c)
DAV:   1    -0.851777921885E+03   -0.15727E-03   -0.82295E-02  3840   0.625E-01    0.642E-02
DAV:   2    -0.851778036780E+03   -0.11490E-03   -0.16374E-03  4260   0.845E-02    0.544E-02
DAV:   3    -0.851778027194E+03    0.95866E-05   -0.63350E-05  4700   0.179E-02    0.397E-02
DAV:   4    -0.851778044551E+03   -0.17357E-04   -0.58347E-05  4020   0.192E-02    0.132E-02
DAV:   5    -0.851778048395E+03   -0.38438E-05   -0.16952E-05  4260   0.817E-03    0.664E-03
DAV:   6    -0.851778048713E+03   -0.31863E-06   -0.26998E-06  3100   0.359E-03
 428 F= -.85967693E+03 E0= -.85967693E+03  d E =-.305867E-03  mag=     0.0000
quench:  g(F)=  0.000E+00 g(S)=  0.000E+00 dE (1.order)= 0.000E+00
 bond charge predicted
       N       E                     dE             d eps       ncg     rms          rms(c)
DAV:   1    -0.851778234326E+03   -0.18593E-03   -0.82898E-03  3920   0.212E-01    0.210E-02
DAV:   2    -0.851778249590E+03   -0.15264E-04   -0.22350E-04  4680   0.313E-02    0.193E-02
DAV:   3    -0.851778245374E+03    0.42158E-05   -0.11495E-05  4900   0.704E-03    0.148E-02
DAV:   4    -0.851778241435E+03    0.39393E-05   -0.89050E-06  3960   0.719E-03    0.656E-03
DAV:   5    -0.851778241244E+03    0.19028E-06   -0.26770E-06  2920   0.345E-03
 429 F= -.85967712E+03 E0= -.85967712E+03  d E =-.190287E-03  mag=     0.0000
quench:  g(F)=  0.000E+00 g(S)=  0.000E+00 dE (1.order)= 0.000E+00
 bond charge predicted
       N       E                     dE             d eps       ncg     rms          rms(c)
DAV:   1    -0.851778156317E+03    0.85117E-04   -0.80311E-03  3960   0.208E-01    0.205E-02
DAV:   2    -0.851778171481E+03   -0.15163E-04   -0.21113E-04  4640   0.305E-02    0.183E-02
DAV:   3    -0.851778168009E+03    0.34716E-05   -0.10236E-05  4840   0.671E-03    0.141E-02
DAV:   4    -0.851778165230E+03    0.27795E-05   -0.89352E-06  3980   0.714E-03    0.609E-03
DAV:   5    -0.851778165240E+03   -0.10521E-07   -0.21971E-06  2940   0.312E-03
 430 F= -.85967704E+03 E0= -.85967704E+03  d E =0.804287E-04  mag=     0.0000
quench:  g(F)=  0.000E+00 g(S)=  0.000E+00 dE (1.order)= 0.000E+00
 bond charge predicted
       N       E                     dE             d eps       ncg     rms          rms(c)
DAV:   1    -0.851778228392E+03   -0.63162E-04   -0.42395E-04  3940   0.480E-02    0.494E-03
DAV:   2    -0.851778229114E+03   -0.72251E-06   -0.12034E-05  4660   0.725E-03    0.461E-03
DAV:   3    -0.851778228847E+03    0.26770E-06   -0.52653E-07  2160   0.172E-03
 431 F= -.85967710E+03 E0= -.85967710E+03  d E =-.640151E-04  mag=     0.0000
quench:  g(F)=  0.000E+00 g(S)=  0.000E+00 dE (1.order)= 0.000E+00
 bond charge predicted
       N       E                     dE             d eps       ncg     rms          rms(c)
DAV:   1    -0.851778299621E+03   -0.70506E-04   -0.12600E-03  3960   0.827E-02    0.910E-03
DAV:   2    -0.851778301738E+03   -0.21169E-05   -0.31966E-05  4780   0.118E-02    0.818E-03
DAV:   3    -0.851778300957E+03    0.78083E-06   -0.15132E-06  2580   0.292E-03
 432 F= -.85967717E+03 E0= -.85967717E+03  d E =-.726952E-04  mag=    -0.0000
quench:  g(F)=  0.000E+00 g(S)=  0.000E+00 dE (1.order)= 0.000E+00
 bond charge predicted
       N       E                     dE             d eps       ncg     rms          rms(c)
DAV:   1    -0.851778321004E+03   -0.19266E-04   -0.17535E-03  3940   0.976E-02    0.109E-02
DAV:   2    -0.851778324007E+03   -0.30035E-05   -0.42683E-05  4760   0.137E-02    0.967E-03
DAV:   3    -0.851778323050E+03    0.95675E-06   -0.20523E-06  2880   0.337E-03
 433 F= -.85967719E+03 E0= -.85967719E+03  d E =-.225907E-04  mag=     0.0000
quench:  g(F)=  0.000E+00 g(S)=  0.000E+00 dE (1.order)= 0.000E+00
 bond charge predicted
       N       E                     dE             d eps       ncg     rms          rms(c)
DAV:   1    -0.851778324656E+03   -0.64899E-06   -0.71873E-06  3840   0.625E-03    0.262E-03
DAV:   2    -0.851778324635E+03    0.20882E-07   -0.77216E-07  2160   0.194E-03
 434 F= -.85967720E+03 E0= -.85967720E+03  d E =-.155443E-05  mag=     0.0000
quench:  g(F)=  0.000E+00 g(S)=  0.000E+00 dE (1.order)= 0.000E+00
 bond charge predicted
       N       E                     dE             d eps       ncg     rms          rms(c)
DAV:   1    -0.851778328620E+03   -0.39637E-05   -0.58979E-06  3700   0.557E-03    0.117E-03
DAV:   2    -0.851778328629E+03   -0.94806E-08   -0.16120E-07  2100   0.890E-04
 435 F= -.85967720E+03 E0= -.85967720E+03  d E =-.391673E-05  mag=    -0.0000
quench:  g(F)=  0.000E+00 g(S)=  0.000E+00 dE (1.order)= 0.000E+00
 bond charge predicted
       N       E                     dE             d eps       ncg     rms          rms(c)
DAV:   1    -0.851778334439E+03   -0.58195E-05   -0.12841E-05  3820   0.823E-03    0.127E-03
DAV:   2    -0.851778334447E+03   -0.78508E-08   -0.30561E-07  2040   0.124E-03
 436 F= -.85967721E+03 E0= -.85967721E+03  d E =-.568640E-05  mag=     0.0000
quench:  g(F)=  0.000E+00 g(S)=  0.000E+00 dE (1.order)= 0.000E+00
 bond charge predicted
       N       E                     dE             d eps       ncg     rms          rms(c)
DAV:   1    -0.851778341672E+03   -0.72326E-05   -0.20786E-05  3960   0.104E-02    0.173E-03
DAV:   2    -0.851778341673E+03   -0.10550E-08   -0.46822E-07  2150   0.153E-03
 437 F= -.85967721E+03 E0= -.85967721E+03  d E =-.704063E-05  mag=     0.0000
quench:  g(F)=  0.000E+00 g(S)=  0.000E+00 dE (1.order)= 0.000E+00
 bond charge predicted
       N       E                     dE             d eps       ncg     rms          rms(c)
DAV:   1    -0.851778349925E+03   -0.82533E-05   -0.27552E-05  3880   0.118E-02    0.199E-03
DAV:   2    -0.851778349922E+03    0.31505E-08   -0.55842E-07  2280   0.166E-03
 438 F= -.85967722E+03 E0= -.85967722E+03  d E =-.802087E-05  mag=    -0.0000
quench:  g(F)=  0.000E+00 g(S)=  0.000E+00 dE (1.order)= 0.000E+00
 bond charge predicted
       N       E                     dE             d eps       ncg     rms          rms(c)
DAV:   1    -0.851778359308E+03   -0.93824E-05   -0.33268E-05  3880   0.128E-02    0.217E-03
DAV:   2    -0.851778359304E+03    0.31214E-08   -0.65334E-07  2400   0.178E-03
 439 F= -.85967723E+03 E0= -.85967723E+03  d E =-.909613E-05  mag=     0.0000
quench:  g(F)=  0.000E+00 g(S)=  0.000E+00 dE (1.order)= 0.000E+00
 bond charge predicted
       N       E                     dE             d eps       ncg     rms          rms(c)
DAV:   1    -0.851778371029E+03   -0.11721E-04   -0.45729E-05  3880   0.147E-02    0.241E-03
DAV:   2    -0.851778371025E+03    0.36744E-08   -0.86136E-07  2720   0.198E-03
 440 F= -.85967724E+03 E0= -.85967724E+03  d E =-.112927E-04  mag=    -0.0000
quench:  g(F)=  0.000E+00 g(S)=  0.000E+00 dE (1.order)= 0.000E+00
 bond charge predicted
       N       E                     dE             d eps       ncg     rms          rms(c)
DAV:   1    -0.851778385710E+03   -0.14681E-04   -0.61585E-05  3880   0.166E-02    0.273E-03
DAV:   2    -0.851778385709E+03    0.11423E-08   -0.10958E-06  2640   0.216E-03
 441 F= -.85967726E+03 E0= -.85967726E+03  d E =-.141263E-04  mag=    -0.0000
quench:  g(F)=  0.000E+00 g(S)=  0.000E+00 dE (1.order)= 0.000E+00
 bond charge predicted
       N       E                     dE             d eps       ncg     rms          rms(c)
DAV:   1    -0.851778404216E+03   -0.18506E-04   -0.82226E-05  3880   0.185E-02    0.309E-03
DAV:   2    -0.851778404210E+03    0.55516E-08   -0.13565E-06  2740   0.232E-03
 442 F= -.85967727E+03 E0= -.85967727E+03  d E =-.178336E-04  mag=     0.0000
quench:  g(F)=  0.000E+00 g(S)=  0.000E+00 dE (1.order)= 0.000E+00
 bond charge predicted
       N       E                     dE             d eps       ncg     rms          rms(c)
DAV:   1    -0.851778427904E+03   -0.23688E-04   -0.11741E-04  3880   0.219E-02    0.359E-03
DAV:   2    -0.851778427914E+03   -0.96770E-08   -0.18868E-06  2880   0.271E-03
 443 F= -.85967730E+03 E0= -.85967730E+03  d E =-.230666E-04  mag=     0.0000
quench:  g(F)=  0.000E+00 g(S)=  0.000E+00 dE (1.order)= 0.000E+00
 bond charge predicted
       N       E                     dE             d eps       ncg     rms          rms(c)
DAV:   1    -0.851778457501E+03   -0.29597E-04   -0.18415E-04  3840   0.279E-02    0.440E-03
DAV:   2    -0.851778457549E+03   -0.48421E-07   -0.31535E-06  3440   0.352E-03
 444 F= -.85967732E+03 E0= -.85967732E+03  d E =-.289785E-04  mag=     0.0000
quench:  g(F)=  0.000E+00 g(S)=  0.000E+00 dE (1.order)= 0.000E+00
 bond charge predicted
       N       E                     dE             d eps       ncg     rms          rms(c)
DAV:   1    -0.851778492847E+03   -0.35346E-04   -0.29093E-04  3880   0.354E-02    0.563E-03
DAV:   2    -0.851778492945E+03   -0.97993E-07   -0.51421E-06  4080   0.450E-03
 445 F= -.85967736E+03 E0= -.85967736E+03  d E =-.346451E-04  mag=     0.0000
quench:  g(F)=  0.000E+00 g(S)=  0.000E+00 dE (1.order)= 0.000E+00
 bond charge predicted
       N       E                     dE             d eps       ncg     rms          rms(c)
DAV:   1    -0.851778534983E+03   -0.42136E-04   -0.42185E-04  3880   0.422E-02    0.694E-03
DAV:   2    -0.851778535068E+03   -0.85005E-07   -0.70387E-06  4080   0.521E-03
 446 F= -.85967740E+03 E0= -.85967740E+03  d E =-.411786E-04  mag=    -0.0000
quench:  g(F)=  0.000E+00 g(S)=  0.000E+00 dE (1.order)= 0.000E+00
 bond charge predicted
       N       E                     dE             d eps       ncg     rms          rms(c)
DAV:   1    -0.851778585338E+03   -0.50355E-04   -0.59681E-04  3840   0.496E-02    0.818E-03
DAV:   2    -0.851778585458E+03   -0.11962E-06   -0.95929E-06  4120   0.602E-03
 447 F= -.85967745E+03 E0= -.85967745E+03  d E =-.493938E-04  mag=    -0.0000
quench:  g(F)=  0.000E+00 g(S)=  0.000E+00 dE (1.order)= 0.000E+00
 reached required accuracy - stopping structural energy minimisation
