unknown system                          
           1
    17.271038    0.000000    0.000000
    -8.635519   14.957158    0.000000
     0.000000    0.000000   15.000000
   C    H    F    O 
    88     8     2     1
Direct configuration=     1
   0.99999932  0.00062112  0.50157039
   0.99947875  0.14323327  0.50237704
   0.99950881  0.28626567  0.50290423
   0.00013888  0.42944364  0.50220633
   0.00103722  0.57254986  0.50140671
   0.00188346  0.71576559  0.50031172
   0.00144246  0.85873917  0.50027783
   0.14329186  0.00112845  0.50769779
   0.14224349  0.14321878  0.50942551
   0.14131427  0.28532296  0.51208134
   0.14193394  0.42890204  0.51138669
   0.14354363  0.57217770  0.50832506
   0.14392978  0.71535536  0.50731548
   0.14379400  0.85841995  0.50672733
   0.28607366  0.00101865  0.50889745
   0.28556052  0.14340696  0.51321776
   0.28430442  0.28635668  0.52382932
   0.28162880  0.42601924  0.53157953
   0.28630787  0.57177115  0.52178722
   0.28631937  0.71558415  0.51200044
   0.28621510  0.85851417  0.50856475
   0.42903783  0.00161668  0.50624622
   0.42875808  0.14408559  0.50782931
   0.42666253  0.28356581  0.51383522
   0.42778210  0.71801893  0.50850837
   0.42888927  0.85904444  0.50646143
   0.57167858  0.00188435  0.50144441
   0.57168618  0.14423511  0.50245938
   0.57251291  0.28774086  0.50027291
   0.57248686  0.85961989  0.49846038
   0.71452181  0.00129592  0.49575181
   0.71457726  0.14419451  0.49890243
   0.71459804  0.28699810  0.49725088
   0.71458577  0.42907507  0.48888138
   0.72061860  0.57481643  0.46860850
   0.72336155  0.71894287  0.46609178
   0.71365081  0.85841392  0.48715122
   0.85723906  0.00096593  0.49463522
   0.85701116  0.14377049  0.49804997
   0.85714893  0.28662938  0.49854336
   0.85790966  0.42966444  0.49576749
   0.85912050  0.57308195  0.49114309
   0.86084319  0.71668279  0.48722840
   0.85827313  0.85819911  0.49065289
   0.04731805  0.09576050  0.50431385
   0.04644164  0.23808761  0.50524494
   0.04695140  0.38145118  0.50496352
   0.04840610  0.52472462  0.50386323
   0.04885299  0.66786089  0.50334172
   0.04878793  0.81087031  0.50282455
   0.04818309  0.95350210  0.50353536
   0.19035047  0.09581234  0.51072178
   0.18913278  0.23803802  0.51452689
   0.18764354  0.38000834  0.51702645
   0.19046233  0.52409203  0.51298010
   0.19121115  0.66777786  0.50991388
   0.19130403  0.81079322  0.50799556
   0.19109695  0.95350559  0.50817828
   0.33360913  0.09640567  0.51010344
   0.33357029  0.23846005  0.51799512
   0.32740866  0.37805426  0.53749402
   0.32582272  0.51987486  0.53683517
   0.33497054  0.66882723  0.51525247
   0.33382969  0.81077978  0.50909290
   0.33366511  0.95361822  0.50799927
   0.47654595  0.09662405  0.50527195
   0.47566148  0.23928494  0.50732767
   0.47593867  0.81126556  0.50425692
   0.47659192  0.95427745  0.50467435
   0.61921261  0.09678026  0.50085136
   0.61947107  0.23950530  0.49992109
   0.62147562  0.38102109  0.49330828
   0.62074724  0.81471942  0.49279726
   0.61946172  0.95444392  0.49818687
   0.76210612  0.09660894  0.49749121
   0.76216867  0.23918579  0.49822627
   0.76264343  0.38206069  0.49376165
   0.76385300  0.52627364  0.48239214
   0.76692250  0.66875191  0.47258202
   0.76261569  0.81025475  0.48086635
   0.76214006  0.95372709  0.49186680
   0.90441634  0.09574690  0.49818484
   0.90446484  0.23886449  0.49958578
   0.90496427  0.38200759  0.49873980
   0.90604021  0.52516308  0.49652740
   0.90701871  0.66819952  0.49310121
   0.90658597  0.81132045  0.49285706
   0.90497598  0.95307275  0.49608340
   0.46220255  0.35603969  0.51334417
   0.39884375  0.41517243  0.54833933
   0.64917514  0.54054507  0.45630002
   0.58561786  0.41765663  0.49143186
   0.58413524  0.74266430  0.49347240
   0.46429349  0.68246391  0.50650534
   0.52796627  0.54477031  0.50207714
   0.49078889  0.50388259  0.41042174
   0.41522208  0.56010318  0.55805278
   0.63408654  0.67011691  0.44480625
   0.51404168  0.49316087  0.46506246
Direct configuration=     2
   0.99999930  0.00062133  0.50157067
   0.99947958  0.14323356  0.50237787
   0.99950985  0.28626586  0.50290519
   0.00013993  0.42944418  0.50220881
   0.00103687  0.57254921  0.50140736
   0.00188439  0.71576686  0.50031120
   0.00144238  0.85873813  0.50027503
   0.14329331  0.00112874  0.50769873
   0.14224080  0.14321571  0.50942944
   0.14131359  0.28532406  0.51208659
   0.14193679  0.42890446  0.51139672
   0.14354723  0.57217762  0.50833147
   0.14393163  0.71535553  0.50732017
   0.14379228  0.85841872  0.50672956
   0.28607504  0.00101997  0.50889860
   0.28556098  0.14340711  0.51322113
   0.28430028  0.28635117  0.52383718
   0.28162810  0.42602098  0.53159520
   0.28630806  0.57177605  0.52179145
   0.28631768  0.71558339  0.51200310
   0.28621588  0.85851381  0.50856701
   0.42903954  0.00161617  0.50624351
   0.42875757  0.14408551  0.50782839
   0.42666111  0.28356758  0.51383151
   0.42778216  0.71801707  0.50851370
   0.42889042  0.85904603  0.50646173
   0.57167991  0.00188233  0.50144032
   0.57168361  0.14423076  0.50245529
   0.57251874  0.28774353  0.50026800
   0.57248603  0.85961884  0.49845275
   0.71451911  0.00129495  0.49574992
   0.71457568  0.14419165  0.49889821
   0.71459981  0.28700039  0.49724368
   0.71458525  0.42907711  0.48887259
   0.72061831  0.57481551  0.46859316
   0.72336096  0.71894440  0.46608451
   0.71364764  0.85841739  0.48714287
   0.85723841  0.00096649  0.49463115
   0.85701254  0.14377005  0.49804737
   0.85714910  0.28662935  0.49853940
   0.85791024  0.42966495  0.49576335
   0.85911897  0.57308244  0.49113516
   0.86084340  0.71668385  0.48722473
   0.85827365  0.85819814  0.49064615
   0.04731764  0.09576093  0.50431456
   0.04644116  0.23808823  0.50524557
   0.04695245  0.38145223  0.50496808
   0.04840676  0.52472455  0.50386732
   0.04885137  0.66786030  0.50334338
   0.04878707  0.81086766  0.50282446
   0.04818348  0.95349975  0.50353559
   0.19035002  0.09581245  0.51072760
   0.18913281  0.23803848  0.51453251
   0.18764325  0.38000448  0.51703616
   0.19046202  0.52409082  0.51298675
   0.19120721  0.66777552  0.50991771
   0.19130344  0.81079285  0.50799905
   0.19109679  0.95350518  0.50817970
   0.33361225  0.09640651  0.51010658
   0.33357104  0.23846082  0.51800056
   0.32740920  0.37805158  0.53750609
   0.32581828  0.51987086  0.53684940
   0.33496976  0.66882706  0.51525478
   0.33382926  0.81078025  0.50909363
   0.33366701  0.95361929  0.50799928
   0.47654690  0.09662525  0.50527040
   0.47566377  0.23928547  0.50732501
   0.47594078  0.81126489  0.50425547
   0.47659335  0.95427704  0.50467223
   0.61921525  0.09677770  0.50084875
   0.61946740  0.23950660  0.49991640
   0.62147265  0.38101582  0.49329490
   0.62074631  0.81471684  0.49278636
   0.61946340  0.95444403  0.49818503
   0.76210621  0.09660886  0.49748714
   0.76216952  0.23918467  0.49821907
   0.76264171  0.38205865  0.49375477
   0.76385462  0.52627383  0.48238327
   0.76692517  0.66875487  0.47257445
   0.76261391  0.81025121  0.48084869
   0.76214076  0.95372737  0.49186188
   0.90441400  0.09574473  0.49817881
   0.90446767  0.23886570  0.49958311
   0.90496561  0.38200713  0.49873794
   0.90604155  0.52516284  0.49652361
   0.90702182  0.66819974  0.49309527
   0.90658747  0.81132114  0.49285366
   0.90497502  0.95307256  0.49607800
   0.46220225  0.35604076  0.51334353
   0.39884178  0.41517169  0.54835925
   0.64917692  0.54054625  0.45628754
   0.58561760  0.41765945  0.49142008
   0.58413462  0.74266349  0.49345774
   0.46429313  0.68246358  0.50651139
   0.52797113  0.54476559  0.50205830
   0.49076614  0.50389197  0.41040063
   0.41521616  0.56009668  0.55807575
   0.63408618  0.67011640  0.44479579
   0.51405841  0.49318374  0.46498683
Direct configuration=     3
   0.99999854  0.00062036  0.50157074
   0.99947715  0.14323275  0.50237820
   0.99951143  0.28626728  0.50290662
   0.00014115  0.42944465  0.50221261
   0.00103712  0.57254881  0.50140843
   0.00188513  0.71576614  0.50031023
   0.00144290  0.85873623  0.50027124
   0.14329424  0.00112826  0.50770047
   0.14223968  0.14321487  0.50943424
   0.14131254  0.28532334  0.51209424
   0.14193820  0.42890342  0.51141107
   0.14354711  0.57217568  0.50834056
   0.14392973  0.71535458  0.50732690
   0.14379045  0.85841697  0.50673289
   0.28607663  0.00102070  0.50890043
   0.28556243  0.14340752  0.51322639
   0.28429932  0.28634953  0.52384840
   0.28162583  0.42601510  0.53161570
   0.28630836  0.57177719  0.52179884
   0.28631485  0.71558283  0.51200669
   0.28621596  0.85851435  0.50857025
   0.42904175  0.00161609  0.50624093
   0.42875981  0.14408770  0.50782699
   0.42666215  0.28356880  0.51382547
   0.42778317  0.71801775  0.50851973
   0.42889171  0.85904595  0.50646186
   0.57168222  0.00188025  0.50143477
   0.57168325  0.14422876  0.50244931
   0.57251935  0.28774250  0.50026032
   0.57248608  0.85961705  0.49844181
   0.71451912  0.00129503  0.49574685
   0.71457740  0.14419026  0.49889294
   0.71459859  0.28699929  0.49723301
   0.71458357  0.42907667  0.48885898
   0.72062156  0.57481761  0.46857099
   0.72335917  0.71894330  0.46607148
   0.71364601  0.85841671  0.48712813
   0.85723708  0.00096573  0.49462450
   0.85701345  0.14377010  0.49804304
   0.85715004  0.28662856  0.49853350
   0.85791071  0.42966314  0.49575819
   0.85912029  0.57308314  0.49112367
   0.86084532  0.71668449  0.48721875
   0.85827295  0.85819658  0.49063529
   0.04731700  0.09575877  0.50431598
   0.04644088  0.23808846  0.50524685
   0.04695542  0.38145426  0.50497514
   0.04840918  0.52472521  0.50387359
   0.04885225  0.66786003  0.50334530
   0.04878648  0.81086652  0.50282441
   0.04818399  0.95349849  0.50353575
   0.19034968  0.09581204  0.51073563
   0.18912933  0.23803562  0.51454039
   0.18764308  0.38000351  0.51705060
   0.19046433  0.52409196  0.51299678
   0.19120605  0.66777372  0.50992378
   0.19130373  0.81079282  0.50800440
   0.19109744  0.95350511  0.50818180
   0.33361344  0.09640728  0.51011073
   0.33356970  0.23845947  0.51800748
   0.32740852  0.37804822  0.53752219
   0.32581264  0.51987130  0.53686982
   0.33496900  0.66882829  0.51525830
   0.33382922  0.81078009  0.50909501
   0.33366915  0.95362002  0.50799930
   0.47654665  0.09662398  0.50526775
   0.47566557  0.23928758  0.50732060
   0.47594132  0.81126351  0.50425348
   0.47659401  0.95427717  0.50466859
   0.61921541  0.09677482  0.50084572
   0.61946699  0.23950518  0.49990913
   0.62147343  0.38102072  0.49327491
   0.62074321  0.81471496  0.49277121
   0.61946312  0.95444175  0.49818179
   0.76210609  0.09660791  0.49748146
   0.76216925  0.23918336  0.49820866
   0.76264119  0.38205968  0.49374419
   0.76385446  0.52627446  0.48236865
   0.76692630  0.66875604  0.47256198
   0.76261277  0.81025280  0.48082451
   0.76213956  0.95372867  0.49185466
   0.90441397  0.09574399  0.49817087
   0.90446982  0.23886615  0.49957934
   0.90496642  0.38200734  0.49873515
   0.90604106  0.52516251  0.49651775
   0.90702286  0.66820042  0.49308625
   0.90658856  0.81132198  0.49284836
   0.90497361  0.95307107  0.49607242
   0.46220180  0.35604283  0.51334152
   0.39883968  0.41517060  0.54838745
   0.64917821  0.54054738  0.45626724
   0.58561778  0.41766129  0.49140175
   0.58413327  0.74266117  0.49343548
   0.46429289  0.68246216  0.50652024
   0.52797693  0.54474984  0.50202600
   0.49072442  0.50391391  0.41035105
   0.41520715  0.56008683  0.55810959
   0.63408992  0.67011899  0.44477935
   0.51409589  0.49321904  0.46490636
Direct configuration=     4
   0.99999693  0.00061739  0.50157036
   0.99947324  0.14323082  0.50237746
   0.99951357  0.28626992  0.50290849
   0.00014274  0.42944522  0.50221781
   0.00103829  0.57255101  0.50140934
   0.00188521  0.71576341  0.50030840
   0.00144386  0.85873471  0.50026669
   0.14329422  0.00112717  0.50770327
   0.14223979  0.14321524  0.50944000
   0.14131078  0.28532029  0.51210419
   0.14193862  0.42890068  0.51142939
   0.14354429  0.57217291  0.50835219
   0.14392450  0.71535249  0.50733460
   0.14378995  0.85841584  0.50673726
   0.28607822  0.00102051  0.50890296
   0.28556344  0.14340731  0.51323371
   0.28430059  0.28635048  0.52386234
   0.28162294  0.42600701  0.53163920
   0.28630882  0.57177542  0.52180971
   0.28631223  0.71558281  0.51201100
   0.28621580  0.85851570  0.50857434
   0.42904341  0.00161613  0.50623841
   0.42876380  0.14409085  0.50782501
   0.42666525  0.28357077  0.51381963
   0.42778365  0.71801947  0.50852606
   0.42889223  0.85904378  0.50646134
   0.57168389  0.00187811  0.50142819
   0.57168521  0.14422874  0.50244154
   0.57251598  0.28774108  0.50024841
   0.57248498  0.85961336  0.49842928
   0.71452114  0.00129562  0.49574220
   0.71458099  0.14419043  0.49888630
   0.71459547  0.28699563  0.49721850
   0.71458222  0.42907549  0.48883925
   0.72062918  0.57482383  0.46854416
   0.72335777  0.71894084  0.46605104
   0.71364586  0.85841477  0.48710697
   0.85723525  0.00096340  0.49461481
   0.85701364  0.14377045  0.49803638
   0.85714995  0.28662641  0.49852628
   0.85791026  0.42966016  0.49575147
   0.85912334  0.57308339  0.49110824
   0.86084781  0.71668477  0.48720938
   0.85827064  0.85819506  0.49061954
   0.04731528  0.09575492  0.50431815
   0.04644042  0.23808773  0.50524900
   0.04695917  0.38145632  0.50498477
   0.04841139  0.52472561  0.50388203
   0.04885432  0.66785953  0.50334763
   0.04878762  0.81086779  0.50282546
   0.04818428  0.95349824  0.50353555
   0.19034994  0.09581117  0.51074517
   0.18912415  0.23803114  0.51455049
   0.18764296  0.38000289  0.51706864
   0.19046751  0.52409373  0.51301008
   0.19120685  0.66777282  0.50993222
   0.19130404  0.81079267  0.50801165
   0.19109889  0.95350483  0.50818457
   0.33361336  0.09640818  0.51011525
   0.33356823  0.23845738  0.51801477
   0.32740713  0.37804514  0.53754197
   0.32580623  0.51987213  0.53689649
   0.33496894  0.66883103  0.51526317
   0.33382957  0.81077958  0.50909723
   0.33367091  0.95362016  0.50799939
   0.47654597  0.09662147  0.50526357
   0.47566690  0.23929095  0.50731365
   0.47594046  0.81126232  0.50425069
   0.47659476  0.95427719  0.50466326
   0.61921383  0.09677254  0.50084168
   0.61946956  0.23950121  0.49989876
   0.62147603  0.38103068  0.49324861
   0.62073942  0.81471341  0.49275068
   0.61946163  0.95443737  0.49817639
   0.76210824  0.09660809  0.49747551
   0.76216844  0.23918236  0.49819521
   0.76264162  0.38206204  0.49372963
   0.76385469  0.52627575  0.48234853
   0.76692675  0.66875614  0.47254364
   0.76261335  0.81025859  0.48079587
   0.76213573  0.95372852  0.49184595
   0.90441668  0.09574558  0.49816287
   0.90447063  0.23886560  0.49957449
   0.90496681  0.38200738  0.49873140
   0.90603957  0.52516193  0.49650971
   0.90702219  0.66820121  0.49307423
   0.90658999  0.81132220  0.49284168
   0.90497178  0.95306842  0.49606630
   0.46220106  0.35604576  0.51333698
   0.39883786  0.41516917  0.54842245
   0.64917989  0.54054896  0.45623747
   0.58561783  0.41766258  0.49137571
   0.58413106  0.74265745  0.49340503
   0.46429254  0.68245958  0.50653170
   0.52798633  0.54472827  0.50198617
   0.49066890  0.50395004  0.41028553
   0.41519891  0.56007338  0.55815419
   0.63408981  0.67011891  0.44475387
   0.51414724  0.49326039  0.46481050
Direct configuration=     5
   0.99999473  0.00061304  0.50156948
   0.99947377  0.14323035  0.50237577
   0.99951367  0.28627018  0.50291181
   0.00014442  0.42944578  0.50222455
   0.00103874  0.57254994  0.50141068
   0.00188477  0.71576133  0.50030542
   0.00144501  0.85873506  0.50026184
   0.14329376  0.00112610  0.50770747
   0.14223917  0.14321358  0.50944698
   0.14130805  0.28531590  0.51211657
   0.14194024  0.42890170  0.51145034
   0.14354295  0.57217155  0.50836655
   0.14392198  0.71535089  0.50734360
   0.14379197  0.85841652  0.50674277
   0.28607982  0.00102018  0.50890625
   0.28556271  0.14340598  0.51324323
   0.28430098  0.28634994  0.52387825
   0.28161986  0.42600315  0.53166578
   0.28630995  0.57177513  0.52182443
   0.28631146  0.71558347  0.51201613
   0.28621615  0.85851657  0.50857923
   0.42904387  0.00161537  0.50623565
   0.42876652  0.14409245  0.50782235
   0.42666476  0.28357239  0.51381589
   0.42778262  0.71801937  0.50853250
   0.42889147  0.85904110  0.50645968
   0.57168350  0.00187568  0.50142092
   0.57168731  0.14422785  0.50243215
   0.57251491  0.28774598  0.50023160
   0.57248203  0.85960890  0.49841549
   0.71452194  0.00129545  0.49573572
   0.71458302  0.14419066  0.49887797
   0.71459417  0.28699318  0.49719974
   0.71458346  0.42907741  0.48881214
   0.72063565  0.57482897  0.46851149
   0.72335640  0.71893959  0.46602295
   0.71364463  0.85841343  0.48707917
   0.85723287  0.00096274  0.49460340
   0.85701461  0.14377098  0.49802711
   0.85714916  0.28662450  0.49851737
   0.85790883  0.42965820  0.49574247
   0.85912509  0.57308267  0.49108839
   0.86084901  0.71668549  0.48719549
   0.85826812  0.85819421  0.49059874
   0.04731153  0.09575369  0.50432078
   0.04643922  0.23808609  0.50525229
   0.04696167  0.38145733  0.50499705
   0.04841048  0.52472511  0.50389254
   0.04885345  0.66785884  0.50335139
   0.04878759  0.81086656  0.50282613
   0.04818414  0.95349784  0.50353477
   0.19035059  0.09581004  0.51075566
   0.18912155  0.23802802  0.51456164
   0.18764224  0.37999935  0.51709032
   0.19046814  0.52409284  0.51302659
   0.19120583  0.66777239  0.50994303
   0.19130302  0.81079157  0.50802072
   0.19110056  0.95350398  0.50818811
   0.33361457  0.09640932  0.51011966
   0.33357291  0.23845903  0.51802044
   0.32740750  0.37804313  0.53756420
   0.32580071  0.51986689  0.53693017
   0.33496942  0.66883351  0.51526992
   0.33382970  0.81077952  0.50910042
   0.33367191  0.95361999  0.50799977
   0.47654683  0.09662128  0.50525904
   0.47566846  0.23929427  0.50730360
   0.47593937  0.81126174  0.50424687
   0.47659581  0.95427595  0.50465633
   0.61921392  0.09677177  0.50083590
   0.61947121  0.23949798  0.49988477
   0.62147466  0.38103089  0.49321646
   0.62073712  0.81471027  0.49272347
   0.61946117  0.95443307  0.49816823
   0.76211200  0.09660919  0.49746928
   0.76216812  0.23918173  0.49817903
   0.76264115  0.38206148  0.49371082
   0.76385756  0.52627606  0.48232303
   0.76692944  0.66875883  0.47252034
   0.76261387  0.81025982  0.48076341
   0.76213200  0.95372594  0.49183483
   0.90441842  0.09574581  0.49815627
   0.90447066  0.23886502  0.49956858
   0.90496726  0.38200582  0.49872685
   0.90603973  0.52516136  0.49649954
   0.90702208  0.66820211  0.49306087
   0.90659055  0.81132102  0.49283272
   0.90496922  0.95306508  0.49605883
   0.46220008  0.35604942  0.51332902
   0.39883626  0.41516730  0.54846292
   0.64918501  0.54055267  0.45619749
   0.58561681  0.41766508  0.49134106
   0.58412827  0.74265326  0.49336616
   0.46429135  0.68245639  0.50654574
   0.52800230  0.54470912  0.50194626
   0.49060995  0.50399824  0.41022829
   0.41519038  0.56005846  0.55820626
   0.63409512  0.67012324  0.44471851
   0.51419658  0.49329962  0.46467754
Direct configuration=     6
   0.99999184  0.00060969  0.50156805
   0.99947738  0.14323098  0.50237313
   0.99951425  0.28627043  0.50291561
   0.00014490  0.42944511  0.50223297
   0.00103757  0.57254612  0.50141251
   0.00188356  0.71576132  0.50030126
   0.00144543  0.85873588  0.50025691
   0.14329385  0.00112514  0.50771324
   0.14223794  0.14320896  0.50945427
   0.14130513  0.28531179  0.51213164
   0.14194268  0.42890432  0.51147399
   0.14354409  0.57217229  0.50838377
   0.14392324  0.71535052  0.50735431
   0.14379451  0.85841753  0.50674939
   0.28608161  0.00102077  0.50891037
   0.28555970  0.14340621  0.51325411
   0.28430049  0.28634792  0.52389411
   0.28161674  0.42600301  0.53169606
   0.28631212  0.57177668  0.52184426
   0.28631224  0.71558455  0.51202242
   0.28621648  0.85851581  0.50858502
   0.42904399  0.00161432  0.50623230
   0.42876756  0.14409315  0.50781874
   0.42666353  0.28357542  0.51381346
   0.42778102  0.71801677  0.50853893
   0.42888995  0.85903978  0.50645641
   0.57168327  0.00187458  0.50141430
   0.57168820  0.14422595  0.50242120
   0.57251799  0.28775289  0.50020865
   0.57247870  0.85960476  0.49840012
   0.71452039  0.00129393  0.49572707
   0.71458250  0.14419008  0.49886752
   0.71459547  0.28699308  0.49717638
   0.71458638  0.42908091  0.48877684
   0.72064156  0.57483140  0.46847523
   0.72335727  0.71894174  0.46598590
   0.71364146  0.85841244  0.48704444
   0.85723094  0.00096339  0.49459058
   0.85701760  0.14377141  0.49801545
   0.85714854  0.28662389  0.49850634
   0.85790765  0.42965783  0.49573037
   0.85912562  0.57308201  0.49106400
   0.86084889  0.71668692  0.48717643
   0.85826760  0.85819432  0.49057481
   0.04730818  0.09575356  0.50432379
   0.04643750  0.23808433  0.50525698
   0.04696202  0.38145693  0.50501212
   0.04840745  0.52472383  0.50390521
   0.04885037  0.66785636  0.50335546
   0.04878721  0.81086366  0.50282631
   0.04818396  0.95349706  0.50353340
   0.19035053  0.09580851  0.51076674
   0.18912338  0.23802545  0.51457290
   0.18763980  0.37999298  0.51711556
   0.19046661  0.52409057  0.51304662
   0.19120259  0.66777192  0.50995627
   0.19130173  0.81079006  0.50803148
   0.19110200  0.95350359  0.50819273
   0.33361718  0.09641003  0.51012382
   0.33357530  0.23846054  0.51802507
   0.32740906  0.37804364  0.53758799
   0.32579619  0.51985753  0.53696969
   0.33496929  0.66883341  0.51527918
   0.33382902  0.81077999  0.50910457
   0.33367222  0.95361972  0.50800071
   0.47654944  0.09662335  0.50525374
   0.47566959  0.23929686  0.50729045
   0.47593816  0.81126055  0.50424181
   0.47659604  0.95427312  0.50464807
   0.61921704  0.09677153  0.50082771
   0.61946896  0.23950055  0.49986785
   0.62146847  0.38102349  0.49317968
   0.62073741  0.81470376  0.49269145
   0.61946182  0.95443060  0.49815704
   0.76211497  0.09661003  0.49746232
   0.76216860  0.23918120  0.49816036
   0.76263918  0.38205797  0.49368705
   0.76386329  0.52627577  0.48229161
   0.76693653  0.66876644  0.47249140
   0.76261438  0.81025435  0.48072681
   0.76213041  0.95372214  0.49182011
   0.90441730  0.09574369  0.49815046
   0.90447046  0.23886523  0.49956155
   0.90496778  0.38200329  0.49872158
   0.90604186  0.52516033  0.49648708
   0.90702423  0.66820268  0.49304740
   0.90659040  0.81131916  0.49282182
   0.90496607  0.95306239  0.49604887
   0.46219863  0.35605335  0.51331696
   0.39883534  0.41516512  0.54850770
   0.64919501  0.54055939  0.45614633
   0.58561523  0.41766829  0.49129705
   0.58412512  0.74264912  0.49331855
   0.46428879  0.68245308  0.50656231
   0.52802413  0.54468746  0.50190382
   0.49054956  0.50405969  0.41018378
   0.41518449  0.56004263  0.55826400
   0.63409706  0.67012555  0.44466953
   0.51423837  0.49333544  0.46451830
Direct configuration=     7
   0.99998794  0.00060865  0.50156558
   0.99947876  0.14323067  0.50236937
   0.99951435  0.28626999  0.50292064
   0.00014289  0.42944185  0.50224450
   0.00103561  0.57254552  0.50141440
   0.00188231  0.71576157  0.50029556
   0.00144462  0.85873415  0.50025133
   0.14329464  0.00112324  0.50772134
   0.14223569  0.14320289  0.50946312
   0.14130350  0.28530716  0.51215163
   0.14194274  0.42890230  0.51150367
   0.14354411  0.57217288  0.50840629
   0.14392443  0.71534777  0.50736678
   0.14379456  0.85841609  0.50675788
   0.28608359  0.00102236  0.50891590
   0.28556227  0.14340662  0.51326756
   0.28430283  0.28634663  0.52390973
   0.28161208  0.42599704  0.53173274
   0.28631498  0.57177519  0.52187423
   0.28631220  0.71558444  0.51203135
   0.28621533  0.85851336  0.50859267
   0.42904493  0.00161395  0.50622740
   0.42876860  0.14409523  0.50781293
   0.42666507  0.28357975  0.51381012
   0.42777949  0.71801249  0.50854608
   0.42888768  0.85903897  0.50645239
   0.57168446  0.00187389  0.50140675
   0.57168907  0.14422683  0.50240694
   0.57251803  0.28775047  0.50017542
   0.57247936  0.85959939  0.49838191
   0.71451886  0.00129106  0.49571416
   0.71458231  0.14418894  0.49885280
   0.71459710  0.28699421  0.49714851
   0.71458419  0.42908002  0.48872944
   0.72065366  0.57483873  0.46843484
   0.72335937  0.71894357  0.46593135
   0.71363729  0.85840723  0.48699932
   0.85722929  0.00096259  0.49457484
   0.85702142  0.14377120  0.49800046
   0.85714853  0.28662364  0.49849110
   0.85790807  0.42965707  0.49571225
   0.85913042  0.57308361  0.49103388
   0.86085135  0.71669052  0.48715088
   0.85826907  0.85819259  0.49054481
   0.04730900  0.09574809  0.50432756
   0.04643641  0.23808291  0.50526400
   0.04696034  0.38145606  0.50503029
   0.04840595  0.52472156  0.50392195
   0.04884729  0.66785247  0.50336036
   0.04879019  0.81086500  0.50282750
   0.04818372  0.95349615  0.50353143
   0.19034814  0.09580517  0.51077941
   0.18912692  0.23802176  0.51458587
   0.18763491  0.37998651  0.51714763
   0.19046672  0.52409073  0.51307371
   0.19120254  0.66777121  0.50997243
   0.19130241  0.81078911  0.50804513
   0.19110313  0.95350440  0.50819957
   0.33361859  0.09641057  0.51012830
   0.33357157  0.23846005  0.51803001
   0.32740993  0.37804509  0.53761625
   0.32579504  0.51985421  0.53701778
   0.33496784  0.66882969  0.51529291
   0.33382763  0.81077970  0.50910996
   0.33367226  0.95361887  0.50800258
   0.47655229  0.09662441  0.50524632
   0.47566876  0.23929953  0.50727240
   0.47593587  0.81125645  0.50423439
   0.47659738  0.95427291  0.50463923
   0.61921954  0.09676993  0.50081721
   0.61946551  0.23950701  0.49984412
   0.62146766  0.38102768  0.49313119
   0.62073505  0.81469744  0.49264901
   0.61946088  0.95442879  0.49814127
   0.76211502  0.09660880  0.49745273
   0.76216880  0.23918009  0.49813671
   0.76263733  0.38205548  0.49365332
   0.76386682  0.52627925  0.48225040
   0.76694252  0.66877289  0.47245151
   0.76261564  0.81025140  0.48068182
   0.76213008  0.95371876  0.49179790
   0.90441598  0.09574091  0.49814371
   0.90447285  0.23886783  0.49955390
   0.90496753  0.38200173  0.49871478
   0.90604240  0.52515783  0.49647186
   0.90702532  0.66820157  0.49303041
   0.90659060  0.81131993  0.49280564
   0.90496292  0.95306145  0.49603353
   0.46219625  0.35605768  0.51329792
   0.39883565  0.41516242  0.54856045
   0.64921096  0.54056957  0.45607505
   0.58561384  0.41766958  0.49123642
   0.58412085  0.74264277  0.49325530
   0.46428466  0.68244839  0.50658332
   0.52805274  0.54464625  0.50184660
   0.49047382  0.50414843  0.41013261
   0.41516903  0.56002042  0.55832969
   0.63410269  0.67013744  0.44460230
   0.51428273  0.49337661  0.46434448
Direct configuration=     8
   0.99998476  0.00060670  0.50156148
   0.99947597  0.14322559  0.50236554
   0.99951444  0.28626948  0.50292796
   0.00013945  0.42943820  0.50226033
   0.00103395  0.57254556  0.50141701
   0.00188404  0.71576126  0.50028905
   0.00144500  0.85873207  0.50024514
   0.14329604  0.00112399  0.50773009
   0.14223610  0.14319819  0.50947481
   0.14130424  0.28529887  0.51217605
   0.14193743  0.42889514  0.51154170
   0.14353877  0.57216803  0.50843126
   0.14392147  0.71534290  0.50738236
   0.14379407  0.85841391  0.50676916
   0.28608443  0.00102274  0.50892351
   0.28556225  0.14340656  0.51328221
   0.28430577  0.28634828  0.52392408
   0.28160578  0.42598657  0.53177931
   0.28631597  0.57176859  0.52191835
   0.28631140  0.71558073  0.51204485
   0.28621447  0.85851465  0.50860253
   0.42904675  0.00161443  0.50622062
   0.42877017  0.14409807  0.50780397
   0.42666611  0.28358273  0.51380366
   0.42777625  0.71800709  0.50855508
   0.42888737  0.85903776  0.50644702
   0.57168664  0.00187243  0.50139695
   0.57169225  0.14423377  0.50239072
   0.57251217  0.28774969  0.50013094
   0.57248186  0.85959416  0.49835861
   0.71451700  0.00128732  0.49569696
   0.71458373  0.14418613  0.49883471
   0.71459533  0.28699492  0.49711610
   0.71457797  0.42907612  0.48866649
   0.72066821  0.57485099  0.46838458
   0.72336212  0.71894102  0.46585491
   0.71363721  0.85839920  0.48694158
   0.85722713  0.00095748  0.49455526
   0.85702222  0.14377414  0.49798688
   0.85714905  0.28662296  0.49847058
   0.85790752  0.42965458  0.49568790
   0.85913698  0.57308458  0.49099713
   0.86085689  0.71669414  0.48711718
   0.85827226  0.85819416  0.49051219
   0.04731028  0.09574513  0.50433138
   0.04643692  0.23808043  0.50527430
   0.04695904  0.38145432  0.50505304
   0.04840682  0.52471912  0.50394386
   0.04884779  0.66785158  0.50336635
   0.04879063  0.81086604  0.50282766
   0.04818163  0.95349384  0.50352953
   0.19034778  0.09580079  0.51079452
   0.18912903  0.23801735  0.51459978
   0.18762964  0.37998122  0.51718881
   0.19046967  0.52409168  0.51311112
   0.19120734  0.66777024  0.50999285
   0.19130341  0.81078643  0.50806203
   0.19110432  0.95350421  0.50821009
   0.33361991  0.09641194  0.51013382
   0.33357385  0.23846165  0.51803481
   0.32741476  0.37804398  0.53764824
   0.32579178  0.51985203  0.53707455
   0.33496614  0.66882389  0.51531343
   0.33382634  0.81077701  0.50911672
   0.33367016  0.95361790  0.50800457
   0.47655334  0.09662398  0.50523560
   0.47566660  0.23930206  0.50724885
   0.47593360  0.81124971  0.50422412
   0.47659853  0.95427495  0.50463033
   0.61921846  0.09676906  0.50080341
   0.61946642  0.23950947  0.49981057
   0.62147225  0.38103952  0.49306655
   0.62073036  0.81469564  0.49259821
   0.61945534  0.95442270  0.49812244
   0.76211127  0.09660310  0.49744000
   0.76216784  0.23917864  0.49810721
   0.76263986  0.38205887  0.49360832
   0.76387006  0.52628723  0.48219707
   0.76694923  0.66877777  0.47239896
   0.76261869  0.81025552  0.48062433
   0.76212642  0.95371217  0.49176667
   0.90441849  0.09574017  0.49813416
   0.90447629  0.23886885  0.49954456
   0.90496859  0.38200366  0.49871006