 running  100 mpi-ranks, on    2 nodes
 each image running on   20 cores
 distrk:  each k-point on   10 cores,    2 groups
 distr:  one band on    1 cores,   10 groups
 vasp.6.4.2 20Jul23 (build Aug 26 2025 15:10:52) complex                        
  
 POSCAR found type information on POSCAR C H N O 
 01/POSCAR found :  4 types and      98 ions
 Reading from existing POTCAR
 scaLAPACK will be used
 -----------------------------------------------------------------------------
|                                                                             |
|           W    W    AA    RRRRR   N    N  II  N    N   GGGG   !!!           |
|           W    W   A  A   R    R  NN   N  II  NN   N  G    G  !!!           |
|           W    W  A    A  R    R  N N  N  II  N N  N  G       !!!           |
|           W WW W  AAAAAA  RRRRR   N  N N  II  N  N N  G  GGG   !            |
|           WW  WW  A    A  R   R   N   NN  II  N   NN  G    G                |
|           W    W  A    A  R    R  N    N  II  N    N   GGGG   !!!           |
|                                                                             |
|     For optimal performance we recommend to set                             |
|       NCORE = 2 up to number-of-cores-per-socket                            |
|     NCORE specifies how many cores store one orbital (NPAR=cpu/NCORE).      |
|     This setting can greatly improve the performance of VASP for DFT.       |
|     The default, NCORE=1 might be grossly inefficient on modern             |
|     multi-core architectures or massively parallel machines. Do your        |
|     own testing! More info at https://www.vasp.at/wiki/index.php/NCORE      |
|     Unfortunately you need to use the default for GW and RPA                |
|     calculations (for HF NCORE is supported but not extensively tested      |
|     yet).                                                                   |
|                                                                             |
 -----------------------------------------------------------------------------

 Reading from existing POTCAR
 LDA part: xc-table for Pade appr. of Perdew
 POSCAR found type information on POSCAR C H N O 
 00/POSCAR found :  4 types and      98 ions
 POSCAR found type information on POSCAR C H N O 
 06/POSCAR found :  4 types and      98 ions
 Jacobian:    33.7254124986634     
 POSCAR found type information on POSCAR C H N O 
 00/POSCAR found :  4 types and      98 ions
 POSCAR found type information on POSCAR C H N O 
 06/POSCAR found :  4 types and      98 ions
 POSCAR, INCAR and KPOINTS ok, starting setup
 FFT: planning ... GRIDC
 FFT: planning ... GRID_SOFT
 FFT: planning ... GRID
 WAVECAR not read
 entering main loop
       N       E                     dE             d eps       ncg     rms          rms(c)
DAV:   1     0.326599615049E+04    0.32660E+04   -0.13688E+05  4610   0.103E+03
DAV:   2    -0.256996352777E+03   -0.35230E+04   -0.33112E+04  6540   0.255E+02
DAV:   3    -0.869917900434E+03   -0.61292E+03   -0.61012E+03  5450   0.109E+02
DAV:   4    -0.892093937929E+03   -0.22176E+02   -0.22099E+02  5550   0.261E+01
DAV:   5    -0.892716224172E+03   -0.62229E+00   -0.62150E+00  6130   0.376E+00    0.520E+01
DAV:   6    -0.874971798834E+03    0.17744E+02   -0.22313E+01  5270   0.715E+00    0.338E+01
DAV:   7    -0.852257355263E+03    0.22714E+02   -0.33065E+01  5210   0.856E+00    0.205E+01
DAV:   8    -0.847390389453E+03    0.48670E+01   -0.24713E+01  5280   0.734E+00    0.826E+00
DAV:   9    -0.847247863120E+03    0.14253E+00   -0.11756E+00  5080   0.198E+00    0.317E+00
DAV:  10    -0.847170016559E+03    0.77847E-01   -0.38690E-01  5120   0.108E+00    0.933E-01
DAV:  11    -0.847156733597E+03    0.13283E-01   -0.77110E-02  4950   0.484E-01    0.309E-01
DAV:  12    -0.847155535663E+03    0.11979E-02   -0.69975E-03  5450   0.159E-01    0.158E-01
DAV:  13    -0.847155252509E+03    0.28315E-03   -0.26011E-03  5290   0.106E-01    0.710E-02
DAV:  14    -0.847155366577E+03   -0.11407E-03   -0.47611E-04  5150   0.395E-02    0.513E-02
DAV:  15    -0.847155404573E+03   -0.37996E-04   -0.81246E-05  5230   0.169E-02    0.267E-02
DAV:  16    -0.847155412866E+03   -0.82926E-05   -0.31124E-05  4830   0.108E-02    0.972E-03
DAV:  17    -0.847155412787E+03    0.78951E-07   -0.81853E-06  5420   0.609E-03
   1 F= -.85496685E+03 E0= -.85496685E+03  d E =-.854967E+03  mag=     0.0002
quench:  g(F)=  0.000E+00 g(S)=  0.000E+00 dE (1.order)= 0.000E+00
 bond charge predicted
       N       E                     dE             d eps       ncg     rms          rms(c)
DAV:   1    -0.847155417050E+03   -0.41841E-05   -0.37806E-04  4640   0.383E-02    0.458E-03
DAV:   2    -0.847155417412E+03   -0.36223E-06   -0.80427E-06  4940   0.522E-03
   2 F= -.85496686E+03 E0= -.85496686E+03  d E =-.472332E-05  mag=     0.0000
quench:  g(F)=  0.000E+00 g(S)=  0.000E+00 dE (1.order)= 0.000E+00
 bond charge predicted
       N       E                     dE             d eps       ncg     rms          rms(c)
DAV:   1    -0.847155420798E+03   -0.37487E-05   -0.91149E-04  4560   0.567E-02    0.822E-03
DAV:   2    -0.847155421094E+03   -0.29513E-06   -0.13756E-05  4700   0.682E-03    0.717E-03
DAV:   3    -0.847155420516E+03    0.57721E-06   -0.14206E-06  3320   0.270E-03
   3 F= -.85496686E+03 E0= -.85496686E+03  d E =-.243237E-05  mag=    -0.0000
quench:  g(F)=  0.000E+00 g(S)=  0.000E+00 dE (1.order)= 0.000E+00
 bond charge predicted
       N       E                     dE             d eps       ncg     rms          rms(c)
DAV:   1    -0.847155432759E+03   -0.11665E-04   -0.18740E-03  4540   0.806E-02    0.915E-03
DAV:   2    -0.847155434145E+03   -0.13865E-05   -0.25775E-05  4670   0.928E-03    0.816E-03
DAV:   3    -0.847155433753E+03    0.39190E-06   -0.11288E-06  3430   0.238E-03
   4 F= -.85496687E+03 E0= -.85496687E+03  d E =-.109754E-04  mag=     0.0000
quench:  g(F)=  0.000E+00 g(S)=  0.000E+00 dE (1.order)= 0.000E+00
 bond charge predicted
       N       E                     dE             d eps       ncg     rms          rms(c)
DAV:   1    -0.847155442848E+03   -0.87031E-05   -0.32843E-03  4480   0.106E-01    0.120E-02
DAV:   2    -0.847155445385E+03   -0.25365E-05   -0.45182E-05  4630   0.122E-02    0.107E-02
DAV:   3    -0.847155444818E+03    0.56641E-06   -0.19873E-06  4060   0.306E-03
   5 F= -.85496688E+03 E0= -.85496688E+03  d E =-.921206E-05  mag=    -0.0000
quench:  g(F)=  0.000E+00 g(S)=  0.000E+00 dE (1.order)= 0.000E+00
 bond charge predicted
       N       E                     dE             d eps       ncg     rms          rms(c)
DAV:   1    -0.847155458764E+03   -0.13380E-04   -0.48945E-03  4480   0.129E-01    0.145E-02
DAV:   2    -0.847155462390E+03   -0.36261E-05   -0.65106E-05  4620   0.146E-02    0.129E-02
DAV:   3    -0.847155461659E+03    0.73142E-06   -0.30168E-06  4400   0.374E-03
   6 F= -.85496689E+03 E0= -.85496689E+03  d E =-.151932E-04  mag=     0.0000
quench:  g(F)=  0.000E+00 g(S)=  0.000E+00 dE (1.order)= 0.000E+00
 bond charge predicted
       N       E                     dE             d eps       ncg     rms          rms(c)
DAV:   1    -0.847155479008E+03   -0.16618E-04   -0.70526E-03  4500   0.156E-01    0.176E-02
DAV:   2    -0.847155484310E+03   -0.53017E-05   -0.94578E-05  4670   0.177E-02    0.156E-02
DAV:   3    -0.847155483158E+03    0.11522E-05   -0.44710E-06  4840   0.455E-03    0.940E-03
DAV:   4    -0.847155484366E+03   -0.12083E-05   -0.36725E-06  4440   0.388E-03    0.262E-03
DAV:   5    -0.847155484345E+03    0.20693E-07   -0.16242E-06  3240   0.238E-03
   7 F= -.85496691E+03 E0= -.85496691E+03  d E =-.191841E-04  mag=    -0.0000
quench:  g(F)=  0.000E+00 g(S)=  0.000E+00 dE (1.order)= 0.000E+00
 bond charge predicted
       N       E                     dE             d eps       ncg     rms          rms(c)
DAV:   1    -0.847155507824E+03   -0.23458E-04   -0.11613E-02  4530   0.199E-01    0.211E-02
DAV:   2    -0.847155516587E+03   -0.87625E-05   -0.16212E-04  4570   0.231E-02    0.188E-02
DAV:   3    -0.847155513536E+03    0.30507E-05   -0.74830E-06  4970   0.590E-03    0.116E-02
DAV:   4    -0.847155514741E+03   -0.12048E-05   -0.62967E-06  4620   0.507E-03    0.343E-03
DAV:   5    -0.847155514846E+03   -0.10448E-06   -0.29419E-06  4000   0.301E-03
   8 F= -.85496694E+03 E0= -.85496694E+03  d E =-.249229E-04  mag=    -0.0000
quench:  g(F)=  0.000E+00 g(S)=  0.000E+00 dE (1.order)= 0.000E+00
 bond charge predicted
       N       E                     dE             d eps       ncg     rms          rms(c)
DAV:   1    -0.847155536388E+03   -0.21647E-04   -0.19263E-02  4540   0.256E-01    0.271E-02
DAV:   2    -0.847155551186E+03   -0.14799E-04   -0.27037E-04  4550   0.298E-02    0.242E-02
DAV:   3    -0.847155546116E+03    0.50703E-05   -0.12339E-05  5200   0.755E-03    0.151E-02
DAV:   4    -0.847155548019E+03   -0.19029E-05   -0.10450E-05  4640   0.658E-03    0.445E-03
DAV:   5    -0.847155548218E+03   -0.19872E-06   -0.50060E-06  4520   0.387E-03
   9 F= -.85496697E+03 E0= -.85496697E+03  d E =-.284560E-04  mag=    -0.0000
quench:  g(F)=  0.000E+00 g(S)=  0.000E+00 dE (1.order)= 0.000E+00
 bond charge predicted
       N       E                     dE             d eps       ncg     rms          rms(c)
DAV:   1    -0.847155569735E+03   -0.21716E-04   -0.29709E-02  4440   0.318E-01    0.337E-02
DAV:   2    -0.847155594302E+03   -0.24567E-04   -0.43077E-04  4570   0.375E-02    0.302E-02
DAV:   3    -0.847155586584E+03    0.77175E-05   -0.19015E-05  5240   0.930E-03    0.191E-02
DAV:   4    -0.847155589444E+03   -0.28592E-05   -0.16475E-05  4600   0.839E-03    0.547E-03
DAV:   5    -0.847155589771E+03   -0.32748E-06   -0.82677E-06  4580   0.491E-03
  10 F= -.85496700E+03 E0= -.85496700E+03  d E =-.325521E-04  mag=    -0.0000
quench:  g(F)=  0.000E+00 g(S)=  0.000E+00 dE (1.order)= 0.000E+00
 bond charge predicted
       N       E                     dE             d eps       ncg     rms          rms(c)
DAV:   1    -0.847155614385E+03   -0.24941E-04   -0.44623E-02  4400   0.391E-01    0.417E-02
DAV:   2    -0.847155649669E+03   -0.35284E-04   -0.63079E-04  4580   0.457E-02    0.370E-02
DAV:   3    -0.847155638048E+03    0.11621E-04   -0.28965E-05  5200   0.116E-02    0.231E-02
DAV:   4    -0.847155642488E+03   -0.44403E-05   -0.24442E-05  4700   0.101E-02    0.678E-03
DAV:   5    -0.847155642915E+03   -0.42628E-06   -0.12105E-05  4580   0.610E-03    0.253E-03
DAV:   6    -0.847155643164E+03   -0.24942E-06   -0.46619E-07  2920   0.155E-03
  11 F= -.85496704E+03 E0= -.85496704E+03  d E =-.381138E-04  mag=     0.0000
quench:  g(F)=  0.000E+00 g(S)=  0.000E+00 dE (1.order)= 0.000E+00
 bond charge predicted
       N       E                     dE             d eps       ncg     rms          rms(c)
DAV:   1    -0.847155664318E+03   -0.21403E-04   -0.68516E-02  4360   0.485E-01    0.518E-02
DAV:   2    -0.847155722288E+03   -0.57971E-04   -0.10074E-03  4540   0.574E-02    0.463E-02
DAV:   3    -0.847155703726E+03    0.18563E-04   -0.43873E-05  5270   0.141E-02    0.300E-02
DAV:   4    -0.847155709296E+03   -0.55700E-05   -0.40629E-05  4620   0.133E-02    0.868E-03
DAV:   5    -0.847155710040E+03   -0.74384E-06   -0.19694E-05  4580   0.757E-03    0.340E-03
DAV:   6    -0.847155710519E+03   -0.47968E-06   -0.61951E-07  2920   0.176E-03
  12 F= -.85496708E+03 E0= -.85496708E+03  d E =-.473515E-04  mag=     0.0000
quench:  g(F)=  0.000E+00 g(S)=  0.000E+00 dE (1.order)= 0.000E+00
 bond charge predicted
       N       E                     dE             d eps       ncg     rms          rms(c)
DAV:   1    -0.847155682347E+03    0.27692E-04   -0.10262E-01  4320   0.600E-01    0.637E-02
DAV:   2    -0.847155774756E+03   -0.92409E-04   -0.15775E-03  4590   0.722E-02    0.575E-02
DAV:   3    -0.847155744543E+03    0.30213E-04   -0.70399E-05  5340   0.176E-02    0.381E-02
DAV:   4    -0.847155750421E+03   -0.58777E-05   -0.66619E-05  4550   0.172E-02    0.115E-02
DAV:   5    -0.847155751504E+03   -0.10828E-05   -0.28817E-05  4630   0.921E-03    0.492E-03
DAV:   6    -0.847155752412E+03   -0.90836E-06   -0.12247E-06  3100   0.236E-03
  13 F= -.85496710E+03 E0= -.85496710E+03  d E =-.193887E-04  mag=    -0.0000
quench:  g(F)=  0.000E+00 g(S)=  0.000E+00 dE (1.order)= 0.000E+00
 bond charge predicted
       N       E                     dE             d eps       ncg     rms          rms(c)
DAV:   1    -0.847155404928E+03    0.34658E-03   -0.18152E-01  4320   0.811E-01    0.856E-02
DAV:   2    -0.847155614484E+03   -0.20956E-03   -0.32642E-03  4590   0.103E-01    0.785E-02
DAV:   3    -0.847155555833E+03    0.58651E-04   -0.13448E-04  5680   0.228E-02    0.579E-02
DAV:   4    -0.847155543269E+03    0.12564E-04   -0.16611E-04  4690   0.272E-02    0.181E-02
DAV:   5    -0.847155545893E+03   -0.26237E-05   -0.44378E-05  4720   0.114E-02    0.946E-03
DAV:   6    -0.847155548182E+03   -0.22886E-05   -0.44655E-06  4480   0.364E-03    0.405E-03
DAV:   7    -0.847155548018E+03    0.16335E-06   -0.40759E-07  3540   0.145E-03
  14 F= -.85496685E+03 E0= -.85496685E+03  d E =0.255359E-03  mag=     0.0000
quench:  g(F)=  0.000E+00 g(S)=  0.000E+00 dE (1.order)= 0.000E+00
 bond charge predicted
       N       E                     dE             d eps       ncg     rms          rms(c)
DAV:   1    -0.847155949839E+03   -0.40166E-03   -0.23221E-02  4400   0.305E-01    0.355E-02
DAV:   2    -0.847155989145E+03   -0.39305E-04   -0.59109E-04  5220   0.447E-02    0.320E-02
DAV:   3    -0.847155975977E+03    0.13167E-04   -0.30153E-05  5830   0.101E-02    0.240E-02
DAV:   4    -0.847155965918E+03    0.10059E-04   -0.24662E-05  4480   0.103E-02    0.106E-02
DAV:   5    -0.847155965407E+03    0.51046E-06   -0.68917E-06  4360   0.467E-03
  15 F= -.85496728E+03 E0= -.85496728E+03  d E =-.428557E-03  mag=     0.0000
quench:  g(F)=  0.000E+00 g(S)=  0.000E+00 dE (1.order)= 0.000E+00
 bond charge predicted
       N       E                     dE             d eps       ncg     rms          rms(c)
DAV:   1    -0.847155969205E+03   -0.32873E-05   -0.25198E-05  4480   0.100E-02    0.213E-03
DAV:   2    -0.847155969202E+03    0.36234E-08   -0.65529E-07  2570   0.157E-03
  16 F= -.85496728E+03 E0= -.85496728E+03  d E =-.340527E-05  mag=     0.0000
quench:  g(F)=  0.000E+00 g(S)=  0.000E+00 dE (1.order)= 0.000E+00
 bond charge predicted
       N       E                     dE             d eps       ncg     rms          rms(c)
DAV:   1    -0.847155975221E+03   -0.60154E-05   -0.83402E-05  4480   0.180E-02    0.228E-03
DAV:   2    -0.847155975291E+03   -0.70730E-07   -0.14441E-06  3060   0.230E-03
  17 F= -.85496729E+03 E0= -.85496729E+03  d E =-.532073E-05  mag=     0.0000
quench:  g(F)=  0.000E+00 g(S)=  0.000E+00 dE (1.order)= 0.000E+00
 bond charge predicted
       N       E                     dE             d eps       ncg     rms          rms(c)
DAV:   1    -0.847155982067E+03   -0.68461E-05   -0.15707E-04  4480   0.243E-02    0.354E-03
DAV:   2    -0.847155982154E+03   -0.87690E-07   -0.25909E-06  3800   0.303E-03
  18 F= -.85496729E+03 E0= -.85496729E+03  d E =-.577815E-05  mag=    -0.0000
quench:  g(F)=  0.000E+00 g(S)=  0.000E+00 dE (1.order)= 0.000E+00
 bond charge predicted
       N       E                     dE             d eps       ncg     rms          rms(c)
DAV:   1    -0.847155989978E+03   -0.79113E-05   -0.23064E-04  4480   0.290E-02    0.432E-03
DAV:   2    -0.847155990071E+03   -0.92674E-07   -0.32737E-06  4120   0.337E-03
  19 F= -.85496730E+03 E0= -.85496730E+03  d E =-.655257E-05  mag=     0.0000
quench:  g(F)=  0.000E+00 g(S)=  0.000E+00 dE (1.order)= 0.000E+00
 bond charge predicted
       N       E                     dE             d eps       ncg     rms          rms(c)
DAV:   1    -0.847156000021E+03   -0.10043E-04   -0.31637E-04  4500   0.335E-02    0.481E-03
DAV:   2    -0.847156000141E+03   -0.11959E-06   -0.40616E-06  4220   0.373E-03
  20 F= -.85496731E+03 E0= -.85496731E+03  d E =-.855802E-05  mag=    -0.0000
quench:  g(F)=  0.000E+00 g(S)=  0.000E+00 dE (1.order)= 0.000E+00
 bond charge predicted
       N       E                     dE             d eps       ncg     rms          rms(c)
DAV:   1    -0.847156012794E+03   -0.12773E-04   -0.43898E-04  4460   0.394E-02    0.554E-03
DAV:   2    -0.847156012977E+03   -0.18300E-06   -0.57347E-06  4480   0.441E-03
  21 F= -.85496732E+03 E0= -.85496732E+03  d E =-.110647E-04  mag=     0.0000
quench:  g(F)=  0.000E+00 g(S)=  0.000E+00 dE (1.order)= 0.000E+00
 bond charge predicted
       N       E                     dE             d eps       ncg     rms          rms(c)
DAV:   1    -0.847156028594E+03   -0.15799E-04   -0.74202E-04  4450   0.512E-02    0.713E-03
DAV:   2    -0.847156028922E+03   -0.32799E-06   -0.10016E-05  4740   0.581E-03    0.622E-03
DAV:   3    -0.847156028822E+03    0.99375E-07   -0.80527E-07  3140   0.213E-03
  22 F= -.85496733E+03 E0= -.85496733E+03  d E =-.137284E-04  mag=     0.0000
quench:  g(F)=  0.000E+00 g(S)=  0.000E+00 dE (1.order)= 0.000E+00
 bond charge predicted
       N       E                     dE             d eps       ncg     rms          rms(c)
DAV:   1    -0.847156047168E+03   -0.18246E-04   -0.12216E-03  4440   0.654E-02    0.700E-03
DAV:   2    -0.847156048147E+03   -0.97947E-06   -0.16592E-05  4660   0.743E-03    0.628E-03
DAV:   3    -0.847156047951E+03    0.19639E-06   -0.57876E-07  3340   0.178E-03
  23 F= -.85496735E+03 E0= -.85496735E+03  d E =-.164519E-04  mag=     0.0000
quench:  g(F)=  0.000E+00 g(S)=  0.000E+00 dE (1.order)= 0.000E+00
 bond charge predicted
       N       E                     dE             d eps       ncg     rms          rms(c)
DAV:   1    -0.847156071065E+03   -0.22918E-04   -0.19250E-03  4400   0.816E-02    0.866E-03
DAV:   2    -0.847156072492E+03   -0.14264E-05   -0.25217E-05  4640   0.912E-03    0.774E-03
DAV:   3    -0.847156072161E+03    0.33076E-06   -0.93873E-07  3630   0.223E-03
  24 F= -.85496737E+03 E0= -.85496737E+03  d E =-.207756E-04  mag=     0.0000
quench:  g(F)=  0.000E+00 g(S)=  0.000E+00 dE (1.order)= 0.000E+00
 bond charge predicted
       N       E                     dE             d eps       ncg     rms          rms(c)
DAV:   1    -0.847156102322E+03   -0.29830E-04   -0.30643E-03  4360   0.103E-01    0.109E-02
DAV:   2    -0.847156104580E+03   -0.22584E-05   -0.40312E-05  4600   0.115E-02    0.978E-03
DAV:   3    -0.847156104057E+03    0.52383E-06   -0.15991E-06  3960   0.280E-03
  25 F= -.85496740E+03 E0= -.85496740E+03  d E =-.275111E-04  mag=     0.0000
quench:  g(F)=  0.000E+00 g(S)=  0.000E+00 dE (1.order)= 0.000E+00
 bond charge predicted
       N       E                     dE             d eps       ncg     rms          rms(c)
DAV:   1    -0.847156140579E+03   -0.35998E-04   -0.49114E-03  4340   0.130E-01    0.139E-02
DAV:   2    -0.847156144210E+03   -0.36316E-05   -0.64944E-05  4560   0.146E-02    0.124E-02
DAV:   3    -0.847156143355E+03    0.85579E-06   -0.27229E-06  4400   0.355E-03
  26 F= -.85496743E+03 E0= -.85496743E+03  d E =-.336676E-04  mag=     0.0000
quench:  g(F)=  0.000E+00 g(S)=  0.000E+00 dE (1.order)= 0.000E+00
 bond charge predicted
       N       E                     dE             d eps       ncg     rms          rms(c)
DAV:   1    -0.847156190168E+03   -0.45957E-04   -0.76006E-03  4340   0.161E-01    0.173E-02
DAV:   2    -0.847156195654E+03   -0.54868E-05   -0.99514E-05  4580   0.181E-02    0.155E-02
DAV:   3    -0.847156194319E+03    0.13357E-05   -0.43857E-06  4880   0.446E-03    0.971E-03
DAV:   4    -0.847156195434E+03   -0.11148E-05   -0.37532E-06  4260   0.407E-03    0.258E-03
DAV:   5    -0.847156195462E+03   -0.28114E-07   -0.19055E-06  3500   0.239E-03
  27 F= -.85496747E+03 E0= -.85496747E+03  d E =-.442740E-04  mag=     0.0000
quench:  g(F)=  0.000E+00 g(S)=  0.000E+00 dE (1.order)= 0.000E+00
 bond charge predicted
       N       E                     dE             d eps       ncg     rms          rms(c)
DAV:   1    -0.847156253588E+03   -0.58155E-04   -0.11848E-02  4360   0.202E-01    0.202E-02
DAV:   2    -0.847156263064E+03   -0.94754E-05   -0.16920E-04  4520   0.235E-02    0.182E-02
DAV:   3    -0.847156259940E+03    0.31238E-05   -0.70567E-06  5140   0.558E-03    0.120E-02
DAV:   4    -0.847156260724E+03   -0.78457E-06   -0.65680E-06  4320   0.543E-03
  28 F= -.85496753E+03 E0= -.85496753E+03  d E =-.550089E-04  mag=    -0.0000
quench:  g(F)=  0.000E+00 g(S)=  0.000E+00 dE (1.order)= 0.000E+00
 bond charge predicted
       N       E                     dE             d eps       ncg     rms          rms(c)
DAV:   1    -0.847156328386E+03   -0.68446E-04   -0.17755E-02  4400   0.246E-01    0.257E-02
DAV:   2    -0.847156340651E+03   -0.12265E-04   -0.23979E-04  4440   0.282E-02    0.228E-02
DAV:   3    -0.847156335960E+03    0.46908E-05   -0.10832E-05  5180   0.707E-03    0.144E-02
DAV:   4    -0.847156337590E+03   -0.16298E-05   -0.96426E-06  4540   0.641E-03    0.423E-03
DAV:   5    -0.847156337825E+03   -0.23472E-06   -0.47827E-06  4420   0.372E-03
  29 F= -.85496760E+03 E0= -.85496760E+03  d E =-.681717E-04  mag=     0.0000
quench:  g(F)=  0.000E+00 g(S)=  0.000E+00 dE (1.order)= 0.000E+00
 bond charge predicted
       N       E                     dE             d eps       ncg     rms          rms(c)
DAV:   1    -0.847156413957E+03   -0.76367E-04   -0.26598E-02  4360   0.301E-01    0.303E-02
DAV:   2    -0.847156435166E+03   -0.21209E-04   -0.37813E-04  4420   0.351E-02    0.272E-02
DAV:   3    -0.847156428375E+03    0.67908E-05   -0.15357E-05  5280   0.827E-03    0.181E-02
DAV:   4    -0.847156430191E+03   -0.18160E-05   -0.14961E-05  4540   0.816E-03    0.509E-03
DAV:   5    -0.847156430544E+03   -0.35355E-06   -0.69689E-06  4600   0.437E-03
  30 F= -.85496768E+03 E0= -.85496768E+03  d E =-.801832E-04  mag=    -0.0000
quench:  g(F)=  0.000E+00 g(S)=  0.000E+00 dE (1.order)= 0.000E+00
 bond charge predicted
       N       E                     dE             d eps       ncg     rms          rms(c)
DAV:   1    -0.847156521845E+03   -0.91654E-04   -0.39424E-02  4360   0.366E-01    0.370E-02
DAV:   2    -0.847156553464E+03   -0.31619E-04   -0.56162E-04  4480   0.427E-02    0.331E-02
DAV:   3    -0.847156543454E+03    0.10010E-04   -0.22624E-05  5260   0.100E-02    0.221E-02
DAV:   4    -0.847156546221E+03   -0.27675E-05   -0.22461E-05  4530   0.100E-02    0.614E-03
DAV:   5    -0.847156546722E+03   -0.50075E-06   -0.10527E-05  4600   0.540E-03    0.246E-03
DAV:   6    -0.847156546978E+03   -0.25603E-06   -0.26827E-07  2900   0.115E-03
  31 F= -.85496777E+03 E0= -.85496777E+03  d E =-.951430E-04  mag=     0.0000
quench:  g(F)=  0.000E+00 g(S)=  0.000E+00 dE (1.order)= 0.000E+00
 bond charge predicted
       N       E                     dE             d eps       ncg     rms          rms(c)
DAV:   1    -0.847156651953E+03   -0.10523E-03   -0.57501E-02  4340   0.442E-01    0.449E-02
DAV:   2    -0.847156697974E+03   -0.46020E-04   -0.82346E-04  4490   0.517E-02    0.403E-02
DAV:   3    -0.847156682656E+03    0.15317E-04   -0.33348E-05  5300   0.122E-02    0.269E-02
DAV:   4    -0.847156686198E+03   -0.35412E-05   -0.33093E-05  4550   0.121E-02    0.748E-03
DAV:   5    -0.847156686977E+03   -0.77980E-06   -0.15117E-05  4580   0.644E-03    0.303E-03
DAV:   6    -0.847156687369E+03   -0.39112E-06   -0.39685E-07  2950   0.139E-03
  32 F= -.85496789E+03 E0= -.85496789E+03  d E =-.117678E-03  mag=     0.0000
quench:  g(F)=  0.000E+00 g(S)=  0.000E+00 dE (1.order)= 0.000E+00
 bond charge predicted
       N       E                     dE             d eps       ncg     rms          rms(c)
DAV:   1    -0.847156806745E+03   -0.11977E-03   -0.82489E-02  4340   0.530E-01    0.540E-02
DAV:   2    -0.847156874252E+03   -0.67507E-04   -0.11944E-03  4520   0.622E-02    0.485E-02
DAV:   3    -0.847156851942E+03    0.22310E-04   -0.47985E-05  5300   0.146E-02    0.326E-02
DAV:   4    -0.847156856665E+03   -0.47232E-05   -0.49513E-05  4670   0.148E-02    0.905E-03
DAV:   5    -0.847156857724E+03   -0.10587E-05   -0.22587E-05  4520   0.799E-03    0.358E-03
DAV:   6    -0.847156858261E+03   -0.53759E-06   -0.61682E-07  3020   0.170E-03
  33 F= -.85496803E+03 E0= -.85496803E+03  d E =-.141989E-03  mag=     0.0000
quench:  g(F)=  0.000E+00 g(S)=  0.000E+00 dE (1.order)= 0.000E+00
 bond charge predicted
       N       E                     dE             d eps       ncg     rms          rms(c)
DAV:   1    -0.847156983437E+03   -0.12571E-03   -0.11565E-01  4340   0.632E-01    0.642E-02
DAV:   2    -0.847157079373E+03   -0.95936E-04   -0.16894E-03  4540   0.744E-02    0.580E-02
DAV:   3    -0.847157046600E+03    0.32773E-04   -0.71751E-05  5340   0.178E-02    0.385E-02
DAV:   4    -0.847157052081E+03   -0.54806E-05   -0.68298E-05  4580   0.175E-02    0.111E-02
DAV:   5    -0.847157053705E+03   -0.16248E-05   -0.32362E-05  4600   0.949E-03    0.437E-03
DAV:   6    -0.847157054511E+03   -0.80526E-06   -0.97234E-07  3100   0.211E-03
  34 F= -.85496819E+03 E0= -.85496818E+03  d E =-.153419E-03  mag=     0.0000
quench:  g(F)=  0.000E+00 g(S)=  0.000E+00 dE (1.order)= 0.000E+00
 bond charge predicted
       N       E                     dE             d eps       ncg     rms          rms(c)
DAV:   1    -0.847157078587E+03   -0.24882E-04   -0.16705E-01  4340   0.763E-01    0.779E-02
DAV:   2    -0.847157237342E+03   -0.15875E-03   -0.26349E-03  4540   0.924E-02    0.705E-02
DAV:   3    -0.847157188774E+03    0.48568E-04   -0.10268E-04  5480   0.208E-02    0.495E-02
DAV:   4    -0.847157189449E+03   -0.67477E-06   -0.11881E-04  4800   0.230E-02    0.140E-02
DAV:   5    -0.847157191706E+03   -0.22578E-05   -0.41255E-05  4660   0.109E-02    0.647E-03
DAV:   6    -0.847157193262E+03   -0.15559E-05   -0.20506E-06  3300   0.275E-03    0.338E-03
DAV:   7    -0.847157193197E+03    0.65113E-07   -0.39767E-07  3560   0.139E-03
  35 F= -.85496828E+03 E0= -.85496828E+03  d E =-.997333E-04  mag=     0.0000
quench:  g(F)=  0.000E+00 g(S)=  0.000E+00 dE (1.order)= 0.000E+00
 bond charge predicted
       N       E                     dE             d eps       ncg     rms          rms(c)
DAV:   1    -0.847157320131E+03   -0.12687E-03   -0.51721E-03  4380   0.145E-01    0.164E-02
DAV:   2    -0.847157329381E+03   -0.92504E-05   -0.13297E-04  5320   0.212E-02    0.148E-02
DAV:   3    -0.847157326724E+03    0.26577E-05   -0.60424E-06  5460   0.458E-03    0.113E-02
DAV:   4    -0.847157324314E+03    0.24093E-05   -0.62613E-06  4280   0.532E-03    0.441E-03
DAV:   5    -0.847157324266E+03    0.48232E-07   -0.15568E-06  3200   0.225E-03
  36 F= -.85496841E+03 E0= -.85496841E+03  d E =-.125603E-03  mag=    -0.0000
quench:  g(F)=  0.000E+00 g(S)=  0.000E+00 dE (1.order)= 0.000E+00
 bond charge predicted
       N       E                     dE             d eps       ncg     rms          rms(c)
DAV:   1    -0.847157268249E+03    0.56065E-04   -0.59985E-03  4320   0.156E-01    0.175E-02
DAV:   2    -0.847157278774E+03   -0.10525E-04   -0.14827E-04  5320   0.223E-02    0.157E-02
DAV:   3    -0.847157275921E+03    0.28534E-05   -0.68088E-06  5460   0.491E-03    0.119E-02
DAV:   4    -0.847157273671E+03    0.22491E-05   -0.74328E-06  4340   0.578E-03    0.449E-03
DAV:   5    -0.847157273647E+03    0.24520E-07   -0.17208E-06  3200   0.242E-03
  37 F= -.85496835E+03 E0= -.85496835E+03  d E =0.579639E-04  mag=    -0.0000
quench:  g(F)=  0.000E+00 g(S)=  0.000E+00 dE (1.order)= 0.000E+00
 bond charge predicted
       N       E                     dE             d eps       ncg     rms          rms(c)
DAV:   1    -0.847157307794E+03   -0.34122E-04   -0.23820E-04  4460   0.310E-02    0.356E-03
DAV:   2    -0.847157308202E+03   -0.40820E-06   -0.65488E-06  4960   0.465E-03
  38 F= -.85496839E+03 E0= -.85496839E+03  d E =-.350499E-04  mag=    -0.0000
quench:  g(F)=  0.000E+00 g(S)=  0.000E+00 dE (1.order)= 0.000E+00
 bond charge predicted
       N       E                     dE             d eps       ncg     rms          rms(c)
DAV:   1    -0.847157348704E+03   -0.40911E-04   -0.74968E-04  4380   0.549E-02    0.848E-03
DAV:   2    -0.847157349411E+03   -0.70666E-06   -0.18748E-05  5480   0.798E-03    0.746E-03
DAV:   3    -0.847157348403E+03    0.10086E-05   -0.16791E-06  2640   0.274E-03    0.459E-03
DAV:   4    -0.847157348133E+03    0.26992E-06   -0.15803E-06  2860   0.258E-03
  39 F= -.85496843E+03 E0= -.85496843E+03  d E =-.406505E-04  mag=     0.0000
quench:  g(F)=  0.000E+00 g(S)=  0.000E+00 dE (1.order)= 0.000E+00
 bond charge predicted
       N       E                     dE             d eps       ncg     rms          rms(c)
DAV:   1    -0.847157361515E+03   -0.13113E-04   -0.11058E-03  4380   0.667E-02    0.777E-03
DAV:   2    -0.847157363523E+03   -0.20081E-05   -0.28507E-05  5380   0.974E-03    0.699E-03
DAV:   3    -0.847157362939E+03    0.58430E-06   -0.11362E-06  2840   0.219E-03
  40 F= -.85496844E+03 E0= -.85496844E+03  d E =-.153598E-04  mag=    -0.0000
quench:  g(F)=  0.000E+00 g(S)=  0.000E+00 dE (1.order)= 0.000E+00
 bond charge predicted
       N       E                     dE             d eps       ncg     rms          rms(c)
DAV:   1    -0.847157363268E+03    0.25518E-06   -0.37960E-06  4160   0.390E-03    0.199E-03
DAV:   2    -0.847157363261E+03    0.72978E-08   -0.42447E-07  2400   0.128E-03
  41 F= -.85496844E+03 E0= -.85496844E+03  d E =-.229427E-06  mag=    -0.0000
quench:  g(F)=  0.000E+00 g(S)=  0.000E+00 dE (1.order)= 0.000E+00
 bond charge predicted
       N       E                     dE             d eps       ncg     rms          rms(c)
DAV:   1    -0.847157364704E+03   -0.14357E-05   -0.31286E-06  3940   0.348E-03    0.833E-04
DAV:   2    -0.847157364712E+03   -0.77780E-08   -0.92391E-08  2400   0.617E-04
  42 F= -.85496844E+03 E0= -.85496844E+03  d E =-.124973E-05  mag=    -0.0000
quench:  g(F)=  0.000E+00 g(S)=  0.000E+00 dE (1.order)= 0.000E+00
 bond charge predicted
       N       E                     dE             d eps       ncg     rms          rms(c)
DAV:   1    -0.847157366814E+03   -0.21097E-05   -0.65427E-06  4240   0.506E-03    0.761E-04
DAV:   2    -0.847157366822E+03   -0.88767E-08   -0.13367E-07  2400   0.721E-04
  43 F= -.85496845E+03 E0= -.85496845E+03  d E =-.181519E-05  mag=    -0.0000
quench:  g(F)=  0.000E+00 g(S)=  0.000E+00 dE (1.order)= 0.000E+00
 bond charge predicted
       N       E                     dE             d eps       ncg     rms          rms(c)
DAV:   1    -0.847157369486E+03   -0.26726E-05   -0.11079E-05  4240   0.654E-03    0.104E-03
DAV:   2    -0.847157369497E+03   -0.10899E-07   -0.22199E-07  2400   0.922E-04
  44 F= -.85496845E+03 E0= -.85496845E+03  d E =-.225539E-05  mag=    -0.0000
quench:  g(F)=  0.000E+00 g(S)=  0.000E+00 dE (1.order)= 0.000E+00
 bond charge predicted
       N       E                     dE             d eps       ncg     rms          rms(c)
DAV:   1    -0.847157372626E+03   -0.31398E-05   -0.16230E-05  4380   0.788E-03    0.122E-03
DAV:   2    -0.847157372640E+03   -0.13526E-07   -0.28001E-07  2400   0.103E-03
  45 F= -.85496845E+03 E0= -.85496845E+03  d E =-.261657E-05  mag=    -0.0000
quench:  g(F)=  0.000E+00 g(S)=  0.000E+00 dE (1.order)= 0.000E+00
 bond charge predicted
       N       E                     dE             d eps       ncg     rms          rms(c)
DAV:   1    -0.847157376277E+03   -0.36513E-05   -0.22034E-05  4430   0.909E-03    0.139E-03
DAV:   2    -0.847157376291E+03   -0.14166E-07   -0.33349E-07  2440   0.112E-03
  46 F= -.85496845E+03 E0= -.85496845E+03  d E =-.302437E-05  mag=     0.0000
quench:  g(F)=  0.000E+00 g(S)=  0.000E+00 dE (1.order)= 0.000E+00
 bond charge predicted
       N       E                     dE             d eps       ncg     rms          rms(c)
DAV:   1    -0.847157380571E+03   -0.42939E-05   -0.34898E-05  4440   0.113E-02    0.164E-03
DAV:   2    -0.847157380594E+03   -0.22534E-07   -0.51281E-07  2740   0.137E-03
  47 F= -.85496846E+03 E0= -.85496846E+03  d E =-.349952E-05  mag=    -0.0000
quench:  g(F)=  0.000E+00 g(S)=  0.000E+00 dE (1.order)= 0.000E+00
 bond charge predicted
       N       E                     dE             d eps       ncg     rms          rms(c)
DAV:   1    -0.847157385829E+03   -0.52577E-05   -0.54113E-05  4420   0.140E-02    0.201E-03
DAV:   2    -0.847157385857E+03   -0.28325E-07   -0.74775E-07  2840   0.166E-03
  48 F= -.85496846E+03 E0= -.85496846E+03  d E =-.425098E-05  mag=    -0.0000
quench:  g(F)=  0.000E+00 g(S)=  0.000E+00 dE (1.order)= 0.000E+00
 bond charge predicted
       N       E                     dE             d eps       ncg     rms          rms(c)
DAV:   1    -0.847157392651E+03   -0.68219E-05   -0.83679E-05  4380   0.172E-02    0.243E-03
DAV:   2    -0.847157392690E+03   -0.39363E-07   -0.10979E-06  2960   0.200E-03
  49 F= -.85496847E+03 E0= -.85496847E+03  d E =-.557478E-05  mag=    -0.0000
quench:  g(F)=  0.000E+00 g(S)=  0.000E+00 dE (1.order)= 0.000E+00
 bond charge predicted
       N       E                     dE             d eps       ncg     rms          rms(c)
DAV:   1    -0.847157401409E+03   -0.87578E-05   -0.13215E-04  4380   0.216E-02    0.300E-03
DAV:   2    -0.847157401481E+03   -0.72272E-07   -0.18508E-06  3460   0.251E-03
  50 F= -.85496848E+03 E0= -.85496848E+03  d E =-.724330E-05  mag=     0.0000
quench:  g(F)=  0.000E+00 g(S)=  0.000E+00 dE (1.order)= 0.000E+00
 bond charge predicted
       N       E                     dE             d eps       ncg     rms          rms(c)
DAV:   1    -0.847157412490E+03   -0.11081E-04   -0.21042E-04  4350   0.272E-02    0.394E-03
DAV:   2    -0.847157412579E+03   -0.88898E-07   -0.29299E-06  3760   0.316E-03
  51 F= -.85496848E+03 E0= -.85496848E+03  d E =-.918689E-05  mag=    -0.0000
quench:  g(F)=  0.000E+00 g(S)=  0.000E+00 dE (1.order)= 0.000E+00
 bond charge predicted
       N       E                     dE             d eps       ncg     rms          rms(c)
DAV:   1    -0.847157425744E+03   -0.13254E-04   -0.33066E-04  4340   0.341E-02    0.495E-03
DAV:   2    -0.847157425892E+03   -0.14839E-06   -0.46986E-06  4060   0.395E-03
  52 F= -.85496850E+03 E0= -.85496850E+03  d E =-.109401E-04  mag=     0.0000
quench:  g(F)=  0.000E+00 g(S)=  0.000E+00 dE (1.order)= 0.000E+00
 bond charge predicted
       N       E                     dE             d eps       ncg     rms          rms(c)
DAV:   1    -0.847157441594E+03   -0.15851E-04   -0.50630E-04  4340   0.421E-02    0.626E-03
DAV:   2    -0.847157441798E+03   -0.20370E-06   -0.71989E-06  4440   0.487E-03
  53 F= -.85496851E+03 E0= -.85496851E+03  d E =-.130835E-04  mag=    -0.0000
quench:  g(F)=  0.000E+00 g(S)=  0.000E+00 dE (1.order)= 0.000E+00
 bond charge predicted
       N       E                     dE             d eps       ncg     rms          rms(c)
DAV:   1    -0.847157460597E+03   -0.19002E-04   -0.76304E-04  4330   0.516E-02    0.769E-03
DAV:   2    -0.847157460897E+03   -0.30009E-06   -0.10702E-05  4580   0.594E-03    0.660E-03
DAV:   3    -0.847157460849E+03    0.48094E-07   -0.85770E-07  3060   0.214E-03
  54 F= -.85496852E+03 E0= -.85496852E+03  d E =-.157111E-04  mag=    -0.0000
quench:  g(F)=  0.000E+00 g(S)=  0.000E+00 dE (1.order)= 0.000E+00
 bond charge predicted
       N       E                     dE             d eps       ncg     rms          rms(c)
DAV:   1    -0.847157482505E+03   -0.21609E-04   -0.11556E-03  4320   0.633E-02    0.700E-03
DAV:   2    -0.847157483483E+03   -0.97730E-06   -0.16608E-05  4580   0.734E-03    0.617E-03
DAV:   3    -0.847157483336E+03    0.14651E-06   -0.54728E-07  3380   0.169E-03
  55 F= -.85496854E+03 E0= -.85496854E+03  d E =-.183616E-04  mag=    -0.0000
quench:  g(F)=  0.000E+00 g(S)=  0.000E+00 dE (1.order)= 0.000E+00
 bond charge predicted
       N       E                     dE             d eps       ncg     rms          rms(c)
DAV:   1    -0.847157509494E+03   -0.26011E-04   -0.16917E-03  4340   0.766E-02    0.846E-03
DAV:   2    -0.847157510781E+03   -0.12870E-05   -0.23328E-05  4580   0.872E-03    0.741E-03
DAV:   3    -0.847157510531E+03    0.24967E-06   -0.84876E-07  3280   0.213E-03
  56 F= -.85496856E+03 E0= -.85496856E+03  d E =-.220374E-04  mag=    -0.0000
quench:  g(F)=  0.000E+00 g(S)=  0.000E+00 dE (1.order)= 0.000E+00
 reached required accuracy - stopping structural energy minimisation
