  99  99   0   0
  0.3914025E+02  0.1727104E-08  0.1727104E-08  0.1500000E-08  0.0000000E+00
  1.000000000000000E-004
  CAR 
 unknown system                          
      4.57550395    -31.27364156  301     -2.41189580      1.00000000
    -31.274  0.0000E+00  0.0000E+00  0.0000E+00  0.0000E+00
    -31.154  0.0000E+00  0.0000E+00  0.0000E+00  0.0000E+00
    -31.035  0.0000E+00  0.0000E+00  0.0000E+00  0.0000E+00
    -30.915  0.0000E+00  0.0000E+00  0.0000E+00  0.0000E+00
    -30.796  0.0000E+00  0.0000E+00  0.0000E+00  0.0000E+00
    -30.676  0.0000E+00  0.0000E+00  0.0000E+00  0.0000E+00
    -30.557  0.0000E+00  0.0000E+00  0.0000E+00  0.0000E+00
    -30.437  0.0000E+00  0.0000E+00  0.0000E+00  0.0000E+00
    -30.318  0.0000E+00  0.0000E+00  0.0000E+00  0.0000E+00
    -30.198  0.0000E+00  0.0000E+00  0.0000E+00  0.0000E+00
    -30.079  0.0000E+00  0.0000E+00  0.0000E+00  0.0000E+00
    -29.959  0.0000E+00  0.0000E+00  0.0000E+00  0.0000E+00
    -29.840  0.2659E-09  0.2659E-09  0.3177E-10  0.3177E-10
    -29.720  0.2634E-03  0.2634E-03  0.3147E-04  0.3147E-04
    -29.601  0.1842E-01  0.1842E-01  0.2233E-02  0.2233E-02
    -29.481  0.1472E-01  0.1472E-01  0.3991E-02  0.3991E-02
    -29.362  0.7195E-04  0.7195E-04  0.4000E-02  0.4000E-02
    -29.242  0.1575E-10  0.1575E-10  0.4000E-02  0.4000E-02
    -29.123  0.0000E+00  0.0000E+00  0.4000E-02  0.4000E-02
    -29.003  0.0000E+00  0.0000E+00  0.4000E-02  0.4000E-02
    -28.884  0.0000E+00  0.0000E+00  0.4000E-02  0.4000E-02
    -28.764  0.0000E+00  0.0000E+00  0.4000E-02  0.4000E-02
    -28.645  0.0000E+00  0.0000E+00  0.4000E-02  0.4000E-02
    -28.525  0.0000E+00  0.0000E+00  0.4000E-02  0.4000E-02
    -28.406  0.0000E+00  0.0000E+00  0.4000E-02  0.4000E-02
    -28.286  0.0000E+00  0.0000E+00  0.4000E-02  0.4000E-02
    -28.167  0.0000E+00  0.0000E+00  0.4000E-02  0.4000E-02
    -28.047  0.0000E+00  0.0000E+00  0.4000E-02  0.4000E-02
    -27.928  0.0000E+00  0.0000E+00  0.4000E-02  0.4000E-02
    -27.808  0.0000E+00  0.0000E+00  0.4000E-02  0.4000E-02
    -27.689  0.0000E+00  0.0000E+00  0.4000E-02  0.4000E-02
    -27.569  0.0000E+00  0.0000E+00  0.4000E-02  0.4000E-02
    -27.450  0.0000E+00  0.0000E+00  0.4000E-02  0.4000E-02
    -27.330  0.0000E+00  0.0000E+00  0.4000E-02  0.4000E-02
    -27.211  0.0000E+00  0.0000E+00  0.4000E-02  0.4000E-02
    -27.091  0.0000E+00  0.0000E+00  0.4000E-02  0.4000E-02
    -26.972  0.0000E+00  0.0000E+00  0.4000E-02  0.4000E-02
    -26.852  0.0000E+00  0.0000E+00  0.4000E-02  0.4000E-02
    -26.733  0.0000E+00  0.0000E+00  0.4000E-02  0.4000E-02
    -26.613  0.0000E+00  0.0000E+00  0.4000E-02  0.4000E-02
    -26.494  0.0000E+00  0.0000E+00  0.4000E-02  0.4000E-02
    -26.374  0.0000E+00  0.0000E+00  0.4000E-02  0.4000E-02
    -26.255  0.0000E+00  0.0000E+00  0.4000E-02  0.4000E-02
    -26.135  0.0000E+00  0.0000E+00  0.4000E-02  0.4000E-02
    -26.016  0.0000E+00  0.0000E+00  0.4000E-02  0.4000E-02
    -25.896  0.0000E+00  0.0000E+00  0.4000E-02  0.4000E-02
    -25.777  0.0000E+00  0.0000E+00  0.4000E-02  0.4000E-02
    -25.657  0.0000E+00  0.0000E+00  0.4000E-02  0.4000E-02
    -25.538  0.0000E+00  0.0000E+00  0.4000E-02  0.4000E-02
    -25.418  0.0000E+00  0.0000E+00  0.4000E-02  0.4000E-02
    -25.299  0.0000E+00  0.0000E+00  0.4000E-02  0.4000E-02
    -25.179  0.0000E+00  0.0000E+00  0.4000E-02  0.4000E-02
    -25.060  0.0000E+00  0.0000E+00  0.4000E-02  0.4000E-02
    -24.940  0.0000E+00  0.0000E+00  0.4000E-02  0.4000E-02
    -24.821  0.0000E+00  0.0000E+00  0.4000E-02  0.4000E-02
    -24.701  0.0000E+00  0.0000E+00  0.4000E-02  0.4000E-02
    -24.582  0.0000E+00  0.0000E+00  0.4000E-02  0.4000E-02
    -24.462  0.0000E+00  0.0000E+00  0.4000E-02  0.4000E-02
    -24.343  0.0000E+00  0.0000E+00  0.4000E-02  0.4000E-02
    -24.223  0.0000E+00  0.0000E+00  0.4000E-02  0.4000E-02
    -24.104  0.0000E+00  0.0000E+00  0.4000E-02  0.4000E-02
    -23.984  0.0000E+00  0.0000E+00  0.4000E-02  0.4000E-02
    -23.865  0.3716E-17  0.3716E-17  0.4000E-02  0.4000E-02
    -23.745  0.1631E-07  0.1631E-07  0.4000E-02  0.4000E-02
    -23.626  0.1406E-02  0.1406E-02  0.4168E-02  0.4168E-02
    -23.506  0.1495E-01  0.1495E-01  0.5955E-02  0.5955E-02
    -23.387  0.3798E-03  0.3798E-03  0.6000E-02  0.6000E-02
    -23.267  0.6199E-09  0.6199E-09  0.6000E-02  0.6000E-02
    -23.148  0.0000E+00  0.0000E+00  0.6000E-02  0.6000E-02
    -23.028  0.0000E+00  0.0000E+00  0.6000E-02  0.6000E-02
    -22.909  0.0000E+00  0.0000E+00  0.6000E-02  0.6000E-02
    -22.789  0.0000E+00  0.0000E+00  0.6000E-02  0.6000E-02
    -22.670  0.0000E+00  0.0000E+00  0.6000E-02  0.6000E-02
    -22.550  0.0000E+00  0.0000E+00  0.6000E-02  0.6000E-02
    -22.431  0.0000E+00  0.0000E+00  0.6000E-02  0.6000E-02
    -22.311  0.0000E+00  0.0000E+00  0.6000E-02  0.6000E-02
    -22.192  0.0000E+00  0.0000E+00  0.6000E-02  0.6000E-02
    -22.072  0.9755E-17  0.9755E-17  0.6000E-02  0.6000E-02
    -21.953  0.1739E-07  0.1739E-07  0.6000E-02  0.6000E-02
    -21.833  0.6357E-03  0.6357E-03  0.6076E-02  0.6076E-02
    -21.714  0.1217E-01  0.1217E-01  0.7530E-02  0.7530E-02
    -21.594  0.1437E-01  0.1437E-01  0.9246E-02  0.9246E-02
    -21.475  0.3955E-02  0.3955E-02  0.9719E-02  0.9719E-02
    -21.355  0.2327E-01  0.2327E-01  0.1250E-01  0.1250E-01
    -21.236  0.1407E-01  0.1407E-01  0.1418E-01  0.1418E-01
    -21.116  0.5069E-02  0.5069E-02  0.1479E-01  0.1479E-01
    -20.997  0.1025E-01  0.1025E-01  0.1601E-01  0.1601E-01
    -20.877  0.2408E-01  0.2408E-01  0.1889E-01  0.1889E-01
    -20.758  0.1775E-01  0.1775E-01  0.2101E-01  0.2101E-01
    -20.638  0.4139E-02  0.4139E-02  0.2150E-01  0.2150E-01
    -20.519  0.7603E-02  0.7603E-02  0.2241E-01  0.2241E-01
    -20.399  0.1549E-01  0.1549E-01  0.2426E-01  0.2426E-01
    -20.280  0.2081E-01  0.2081E-01  0.2675E-01  0.2675E-01
    -20.160  0.2356E-01  0.2356E-01  0.2957E-01  0.2957E-01
    -20.041  0.7307E-02  0.7307E-02  0.3044E-01  0.3044E-01
    -19.921  0.4428E-02  0.4428E-02  0.3097E-01  0.3097E-01
    -19.802  0.1790E-01  0.1790E-01  0.3311E-01  0.3311E-01
    -19.682  0.6679E-02  0.6679E-02  0.3391E-01  0.3391E-01
    -19.563  0.1492E-01  0.1492E-01  0.3569E-01  0.3569E-01
    -19.443  0.2797E-01  0.2797E-01  0.3903E-01  0.3903E-01
    -19.324  0.1823E-01  0.1823E-01  0.4121E-01  0.4121E-01
    -19.204  0.4487E-02  0.4487E-02  0.4175E-01  0.4175E-01
    -19.085  0.1740E-01  0.1740E-01  0.4383E-01  0.4383E-01
    -18.965  0.9322E-02  0.9322E-02  0.4494E-01  0.4494E-01
    -18.846  0.9533E-02  0.9533E-02  0.4608E-01  0.4608E-01
    -18.726  0.8597E-02  0.8597E-02  0.4711E-01  0.4711E-01
    -18.607  0.1759E-01  0.1759E-01  0.4921E-01  0.4921E-01
    -18.487  0.3286E-01  0.3286E-01  0.5313E-01  0.5313E-01
    -18.368  0.1080E-01  0.1080E-01  0.5442E-01  0.5442E-01
    -18.248  0.1321E-01  0.1321E-01  0.5600E-01  0.5600E-01
    -18.129  0.1598E-01  0.1598E-01  0.5791E-01  0.5791E-01
    -18.009  0.1299E-01  0.1299E-01  0.5947E-01  0.5947E-01
    -17.890  0.1259E-01  0.1259E-01  0.6097E-01  0.6097E-01
    -17.770  0.8696E-02  0.8696E-02  0.6201E-01  0.6201E-01
    -17.651  0.8264E-02  0.8264E-02  0.6300E-01  0.6300E-01
    -17.531  0.1358E-01  0.1358E-01  0.6462E-01  0.6462E-01
    -17.412  0.3140E-01  0.3140E-01  0.6837E-01  0.6837E-01
    -17.292  0.2110E-01  0.2110E-01  0.7089E-01  0.7089E-01
    -17.173  0.2529E-01  0.2529E-01  0.7391E-01  0.7391E-01
    -17.053  0.6007E-02  0.6007E-02  0.7463E-01  0.7463E-01
    -16.934  0.1493E-01  0.1493E-01  0.7642E-01  0.7642E-01
    -16.814  0.1956E-01  0.1956E-01  0.7875E-01  0.7875E-01
    -16.695  0.1065E-01  0.1065E-01  0.8003E-01  0.8003E-01
    -16.575  0.1432E-01  0.1432E-01  0.8174E-01  0.8174E-01
    -16.456  0.4864E-02  0.4864E-02  0.8232E-01  0.8232E-01
    -16.336  0.3278E-01  0.3278E-01  0.8624E-01  0.8624E-01
    -16.217  0.2338E-01  0.2338E-01  0.8903E-01  0.8903E-01
    -16.098  0.7662E-02  0.7662E-02  0.8995E-01  0.8995E-01
    -15.978  0.7182E-02  0.7182E-02  0.9080E-01  0.9080E-01
    -15.859  0.5803E-02  0.5803E-02  0.9150E-01  0.9150E-01
    -15.739  0.1887E-02  0.1887E-02  0.9172E-01  0.9172E-01
    -15.620  0.6381E-02  0.6381E-02  0.9249E-01  0.9249E-01
    -15.500  0.4115E-02  0.4115E-02  0.9298E-01  0.9298E-01
    -15.381  0.1557E-01  0.1557E-01  0.9484E-01  0.9484E-01
    -15.261  0.2009E-01  0.2009E-01  0.9724E-01  0.9724E-01
    -15.142  0.1202E-01  0.1202E-01  0.9867E-01  0.9867E-01
    -15.022  0.1401E-01  0.1401E-01  0.1003E+00  0.1003E+00
    -14.903  0.2897E-01  0.2897E-01  0.1038E+00  0.1038E+00
    -14.783  0.1811E-01  0.1811E-01  0.1060E+00  0.1060E+00
    -14.664  0.4930E-02  0.4930E-02  0.1066E+00  0.1066E+00
    -14.544  0.2115E-01  0.2115E-01  0.1091E+00  0.1091E+00
    -14.425  0.2445E-01  0.2445E-01  0.1120E+00  0.1120E+00
    -14.305  0.1633E-01  0.1633E-01  0.1140E+00  0.1140E+00
    -14.186  0.2046E-01  0.2046E-01  0.1164E+00  0.1164E+00
    -14.066  0.2372E-01  0.2372E-01  0.1192E+00  0.1192E+00
    -13.947  0.9239E-02  0.9239E-02  0.1203E+00  0.1203E+00
    -13.827  0.1031E-01  0.1031E-01  0.1216E+00  0.1216E+00
    -13.708  0.1170E-01  0.1170E-01  0.1230E+00  0.1230E+00
    -13.588  0.1313E-01  0.1313E-01  0.1245E+00  0.1245E+00
    -13.469  0.1938E-01  0.1938E-01  0.1269E+00  0.1269E+00
    -13.349  0.1658E-01  0.1658E-01  0.1288E+00  0.1288E+00
    -13.230  0.1694E-01  0.1694E-01  0.1309E+00  0.1309E+00
    -13.110  0.9705E-02  0.9705E-02  0.1320E+00  0.1320E+00
    -12.991  0.8289E-02  0.8289E-02  0.1330E+00  0.1330E+00
    -12.871  0.1645E-01  0.1645E-01  0.1350E+00  0.1350E+00
    -12.752  0.1670E-01  0.1670E-01  0.1370E+00  0.1370E+00
    -12.632  0.1610E-01  0.1610E-01  0.1389E+00  0.1389E+00
    -12.513  0.2008E-01  0.2008E-01  0.1413E+00  0.1413E+00
    -12.393  0.2398E-01  0.2398E-01  0.1442E+00  0.1442E+00
    -12.274  0.2592E-01  0.2592E-01  0.1473E+00  0.1473E+00
    -12.154  0.1819E-01  0.1819E-01  0.1494E+00  0.1494E+00
    -12.035  0.1050E-01  0.1050E-01  0.1507E+00  0.1507E+00
    -11.915  0.1350E-01  0.1350E-01  0.1523E+00  0.1523E+00
    -11.796  0.1639E-01  0.1639E-01  0.1543E+00  0.1543E+00
    -11.676  0.2205E-01  0.2205E-01  0.1569E+00  0.1569E+00
    -11.557  0.1524E-01  0.1524E-01  0.1587E+00  0.1587E+00
    -11.437  0.2279E-01  0.2279E-01  0.1614E+00  0.1614E+00
    -11.318  0.2064E-01  0.2064E-01  0.1639E+00  0.1639E+00
    -11.198  0.2555E-01  0.2555E-01  0.1670E+00  0.1670E+00
    -11.079  0.2178E-01  0.2178E-01  0.1696E+00  0.1696E+00
    -10.959  0.2305E-01  0.2305E-01  0.1723E+00  0.1723E+00
    -10.840  0.3104E-01  0.3104E-01  0.1760E+00  0.1760E+00
    -10.720  0.1645E-01  0.1645E-01  0.1780E+00  0.1780E+00
    -10.601  0.5964E-02  0.5964E-02  0.1787E+00  0.1787E+00
    -10.481  0.1347E-01  0.1347E-01  0.1803E+00  0.1803E+00
    -10.362  0.1627E-01  0.1627E-01  0.1823E+00  0.1823E+00
    -10.242  0.2755E-01  0.2755E-01  0.1856E+00  0.1856E+00
    -10.123  0.3051E-01  0.3051E-01  0.1892E+00  0.1892E+00
    -10.003  0.3563E-01  0.3563E-01  0.1935E+00  0.1935E+00
     -9.884  0.3988E-01  0.3988E-01  0.1982E+00  0.1982E+00
     -9.764  0.3500E-01  0.3500E-01  0.2024E+00  0.2024E+00
     -9.645  0.3458E-01  0.3458E-01  0.2065E+00  0.2065E+00
     -9.525  0.2231E-01  0.2231E-01  0.2092E+00  0.2092E+00
     -9.406  0.4110E-01  0.4110E-01  0.2141E+00  0.2141E+00
     -9.286  0.3155E-01  0.3155E-01  0.2179E+00  0.2179E+00
     -9.167  0.3415E-01  0.3415E-01  0.2220E+00  0.2220E+00
     -9.047  0.4601E-01  0.4601E-01  0.2275E+00  0.2275E+00
     -8.928  0.4471E-01  0.4471E-01  0.2328E+00  0.2328E+00
     -8.808  0.5790E-01  0.5790E-01  0.2397E+00  0.2397E+00
     -8.689  0.5050E-01  0.5050E-01  0.2458E+00  0.2458E+00
     -8.569  0.3827E-01  0.3827E-01  0.2503E+00  0.2503E+00
     -8.450  0.3663E-01  0.3663E-01  0.2547E+00  0.2547E+00
     -8.330  0.3976E-01  0.3976E-01  0.2595E+00  0.2595E+00
     -8.211  0.3350E-01  0.3350E-01  0.2635E+00  0.2635E+00
     -8.091  0.4002E-01  0.4002E-01  0.2682E+00  0.2682E+00
     -7.972  0.4447E-01  0.4447E-01  0.2736E+00  0.2736E+00
     -7.852  0.3841E-01  0.3841E-01  0.2781E+00  0.2781E+00
     -7.733  0.3940E-01  0.3940E-01  0.2829E+00  0.2829E+00
     -7.613  0.2272E-01  0.2272E-01  0.2856E+00  0.2856E+00
     -7.494  0.2325E-01  0.2325E-01  0.2884E+00  0.2884E+00
     -7.374  0.2736E-01  0.2736E-01  0.2916E+00  0.2916E+00
     -7.255  0.3015E-01  0.3015E-01  0.2952E+00  0.2952E+00
     -7.135  0.4811E-01  0.4811E-01  0.3010E+00  0.3010E+00
     -7.016  0.3778E-01  0.3778E-01  0.3055E+00  0.3055E+00
     -6.896  0.3546E-01  0.3546E-01  0.3097E+00  0.3097E+00
     -6.777  0.1979E-01  0.1979E-01  0.3121E+00  0.3121E+00
     -6.657  0.1615E-01  0.1615E-01  0.3140E+00  0.3140E+00
     -6.538  0.3214E-01  0.3214E-01  0.3179E+00  0.3179E+00
     -6.418  0.2100E-01  0.2100E-01  0.3204E+00  0.3204E+00
     -6.299  0.2370E-01  0.2370E-01  0.3232E+00  0.3232E+00
     -6.179  0.2476E-01  0.2476E-01  0.3262E+00  0.3262E+00
     -6.060  0.4061E-01  0.4061E-01  0.3310E+00  0.3310E+00
     -5.940  0.2250E-01  0.2250E-01  0.3337E+00  0.3337E+00
     -5.821  0.3161E-01  0.3161E-01  0.3375E+00  0.3375E+00
     -5.701  0.2833E-01  0.2833E-01  0.3409E+00  0.3409E+00
     -5.582  0.2360E-01  0.2360E-01  0.3437E+00  0.3437E+00
     -5.462  0.2898E-01  0.2898E-01  0.3471E+00  0.3471E+00
     -5.343  0.1319E-01  0.1319E-01  0.3487E+00  0.3487E+00
     -5.223  0.7330E-02  0.7330E-02  0.3496E+00  0.3496E+00
     -5.104  0.4558E-02  0.4558E-02  0.3501E+00  0.3501E+00
     -4.984  0.3502E-01  0.3502E-01  0.3543E+00  0.3543E+00
     -4.865  0.3945E-01  0.3945E-01  0.3590E+00  0.3590E+00
     -4.745  0.2951E-01  0.2951E-01  0.3626E+00  0.3626E+00
     -4.626  0.9021E-02  0.9021E-02  0.3636E+00  0.3636E+00
     -4.506  0.1886E-01  0.1886E-01  0.3659E+00  0.3659E+00
     -4.387  0.5027E-02  0.5027E-02  0.3665E+00  0.3665E+00
     -4.267  0.5705E-02  0.5705E-02  0.3672E+00  0.3672E+00
     -4.148  0.1633E-01  0.1633E-01  0.3691E+00  0.3691E+00
     -4.028  0.1325E-01  0.1325E-01  0.3707E+00  0.3707E+00
     -3.909  0.1492E-01  0.1492E-01  0.3725E+00  0.3725E+00
     -3.789  0.1499E-01  0.1499E-01  0.3743E+00  0.3743E+00
     -3.670  0.1331E-01  0.1331E-01  0.3759E+00  0.3759E+00
     -3.550  0.9706E-03  0.9706E-03  0.3760E+00  0.3760E+00
     -3.431  0.7155E-04  0.7155E-04  0.3760E+00  0.3760E+00
     -3.311  0.4115E-02  0.4115E-02  0.3765E+00  0.3765E+00
     -3.192  0.1309E-01  0.1309E-01  0.3781E+00  0.3781E+00
     -3.072  0.3674E-02  0.3674E-02  0.3785E+00  0.3785E+00
     -2.953  0.3497E-02  0.3497E-02  0.3789E+00  0.3789E+00
     -2.833  0.6523E-03  0.6523E-03  0.3790E+00  0.3790E+00
     -2.714  0.3124E-04  0.3124E-04  0.3790E+00  0.3790E+00
     -2.594  0.5750E-02  0.5750E-02  0.3797E+00  0.3797E+00
     -2.475  0.2587E-02  0.2587E-02  0.3800E+00  0.3800E+00
     -2.355  0.1323E-05  0.1323E-05  0.3800E+00  0.3800E+00
     -2.236  0.2079E-02  0.2079E-02  0.3802E+00  0.3802E+00
     -2.116  0.6233E-02  0.6233E-02  0.3810E+00  0.3810E+00
     -1.997  0.5646E-04  0.5646E-04  0.3810E+00  0.3810E+00
     -1.877  0.5390E-04  0.5390E-04  0.3810E+00  0.3810E+00
     -1.758  0.3990E-02  0.3990E-02  0.3815E+00  0.3815E+00
     -1.638  0.4863E-02  0.4863E-02  0.3821E+00  0.3821E+00
     -1.519  0.1451E-01  0.1451E-01  0.3838E+00  0.3838E+00
     -1.399  0.1685E-02  0.1685E-02  0.3840E+00  0.3840E+00
     -1.280  0.5124E-03  0.5124E-03  0.3841E+00  0.3841E+00
     -1.160  0.1108E-01  0.1108E-01  0.3854E+00  0.3854E+00
     -1.041  0.1253E-01  0.1253E-01  0.3869E+00  0.3869E+00
     -0.921  0.9051E-02  0.9051E-02  0.3880E+00  0.3880E+00
     -0.802  0.3019E-01  0.3019E-01  0.3916E+00  0.3916E+00
     -0.682  0.1902E-01  0.1902E-01  0.3938E+00  0.3938E+00
     -0.563  0.1111E-01  0.1111E-01  0.3952E+00  0.3952E+00
     -0.443  0.2605E-01  0.2605E-01  0.3983E+00  0.3983E+00
     -0.324  0.1502E-01  0.1502E-01  0.4001E+00  0.4001E+00
     -0.204  0.9439E-02  0.9439E-02  0.4012E+00  0.4012E+00
     -0.085  0.1309E-01  0.1309E-01  0.4028E+00  0.4028E+00
      0.035  0.1602E-01  0.1602E-01  0.4047E+00  0.4047E+00
      0.154  0.2160E-01  0.2160E-01  0.4073E+00  0.4073E+00
      0.274  0.2710E-01  0.2710E-01  0.4105E+00  0.4105E+00
      0.393  0.1157E-01  0.1157E-01  0.4119E+00  0.4119E+00
      0.513  0.1015E-02  0.1015E-02  0.4120E+00  0.4120E+00
      0.632  0.1080E-01  0.1080E-01  0.4133E+00  0.4133E+00
      0.752  0.2010E-01  0.2010E-01  0.4157E+00  0.4157E+00
      0.871  0.2185E-01  0.2185E-01  0.4183E+00  0.4183E+00
      0.991  0.1608E-01  0.1608E-01  0.4202E+00  0.4202E+00
      1.110  0.1832E-01  0.1832E-01  0.4224E+00  0.4224E+00
      1.230  0.1360E-01  0.1360E-01  0.4241E+00  0.4241E+00
      1.349  0.1420E-01  0.1420E-01  0.4257E+00  0.4257E+00
      1.469  0.2503E-01  0.2503E-01  0.4287E+00  0.4287E+00
      1.588  0.3891E-01  0.3891E-01  0.4334E+00  0.4334E+00
      1.708  0.2869E-01  0.2869E-01  0.4368E+00  0.4368E+00
      1.827  0.2833E-01  0.2833E-01  0.4402E+00  0.4402E+00
      1.947  0.1486E-01  0.1486E-01  0.4420E+00  0.4420E+00
      2.066  0.3583E-01  0.3583E-01  0.4463E+00  0.4463E+00
      2.186  0.4123E-01  0.4123E-01  0.4512E+00  0.4512E+00
      2.305  0.3907E-01  0.3907E-01  0.4559E+00  0.4559E+00
      2.425  0.3351E-01  0.3351E-01  0.4599E+00  0.4599E+00
      2.544  0.3692E-01  0.3692E-01  0.4643E+00  0.4643E+00
      2.664  0.2214E-01  0.2214E-01  0.4669E+00  0.4669E+00
      2.783  0.3311E-01  0.3311E-01  0.4709E+00  0.4709E+00
      2.903  0.5346E-01  0.5346E-01  0.4773E+00  0.4773E+00
      3.022  0.2283E-01  0.2283E-01  0.4800E+00  0.4800E+00
      3.142  0.9733E-04  0.9737E-04  0.4800E+00  0.4800E+00
      3.261  0.7019E-10  0.7025E-10  0.4800E+00  0.4800E+00
      3.381  0.0000E+00  0.0000E+00  0.4800E+00  0.4800E+00
      3.500  0.0000E+00  0.0000E+00  0.4800E+00  0.4800E+00
      3.620  0.0000E+00  0.0000E+00  0.4800E+00  0.4800E+00
      3.739  0.0000E+00  0.0000E+00  0.4800E+00  0.4800E+00
      3.859  0.0000E+00  0.0000E+00  0.4800E+00  0.4800E+00
      3.978  0.0000E+00  0.0000E+00  0.4800E+00  0.4800E+00
      4.098  0.0000E+00  0.0000E+00  0.4800E+00  0.4800E+00
      4.217  0.0000E+00  0.0000E+00  0.4800E+00  0.4800E+00
      4.337  0.0000E+00  0.0000E+00  0.4800E+00  0.4800E+00
      4.456  0.0000E+00  0.0000E+00  0.4800E+00  0.4800E+00
      4.576  0.0000E+00  0.0000E+00  0.4800E+00  0.4800E+00
