 vasp.6.4.2 20Jul23 (build Aug 26 2025 15:10:52) complex                        
  
 POSCAR found type information on POSCAR C H F O 
 03/POSCAR found :  4 types and      99 ions
 Reading from existing POTCAR
 scaLAPACK will be used
 -----------------------------------------------------------------------------
|                                                                             |
|           W    W    AA    RRRRR   N    N  II  N    N   GGGG   !!!           |
|           W    W   A  A   R    R  NN   N  II  NN   N  G    G  !!!           |
|           W    W  A    A  R    R  N N  N  II  N N  N  G       !!!           |
|           W WW W  AAAAAA  RRRRR   N  N N  II  N  N N  G  GGG   !            |
|           WW  WW  A    A  R   R   N   NN  II  N   NN  G    G                |
|           W    W  A    A  R    R  N    N  II  N    N   GGGG   !!!           |
|                                                                             |
|     For optimal performance we recommend to set                             |
|       NCORE = 2 up to number-of-cores-per-socket                            |
|     NCORE specifies how many cores store one orbital (NPAR=cpu/NCORE).      |
|     This setting can greatly improve the performance of VASP for DFT.       |
|     The default, NCORE=1 might be grossly inefficient on modern             |
|     multi-core architectures or massively parallel machines. Do your        |
|     own testing! More info at https://www.vasp.at/wiki/index.php/NCORE      |
|     Unfortunately you need to use the default for GW and RPA                |
|     calculations (for HF NCORE is supported but not extensively tested      |
|     yet).                                                                   |
|                                                                             |
 -----------------------------------------------------------------------------

 Reading from existing POTCAR
 LDA part: xc-table for Pade appr. of Perdew
 POSCAR found type information on POSCAR C H F O 
 00/POSCAR found :  4 types and      99 ions
 POSCAR found type information on POSCAR C H F O 
 06/POSCAR found :  4 types and      99 ions
 Jacobian:    33.7825262909836     
 POSCAR found type information on POSCAR C H F O 
 00/POSCAR found :  4 types and      99 ions
 POSCAR found type information on POSCAR C H F O 
 06/POSCAR found :  4 types and      99 ions
 POSCAR, INCAR and KPOINTS ok, starting setup
 FFT: planning ... GRIDC
 FFT: planning ... GRID_SOFT
 FFT: planning ... GRID
 WAVECAR not read
 entering main loop
       N       E                     dE             d eps       ncg     rms          rms(c)
DAV:   1     0.354806740953E+04    0.35481E+04   -0.14464E+05  4210   0.120E+03
DAV:   2    -0.201752070382E+03   -0.37498E+04   -0.35681E+04  5630   0.289E+02
DAV:   3    -0.886556699081E+03   -0.68480E+03   -0.68181E+03  4600   0.130E+02
DAV:   4    -0.911999572025E+03   -0.25443E+02   -0.25288E+02  4590   0.317E+01
DAV:   5    -0.912783904100E+03   -0.78433E+00   -0.78264E+00  5310   0.484E+00    0.437E+01
DAV:   6    -0.879811421736E+03    0.32972E+02   -0.21451E+01  4400   0.931E+00    0.333E+01
DAV:   7    -0.851852015341E+03    0.27959E+02   -0.10579E+02  4260   0.187E+01    0.133E+01
DAV:   8    -0.851546071538E+03    0.30594E+00   -0.67196E+00  4510   0.592E+00    0.658E+00
DAV:   9    -0.851616512654E+03   -0.70441E-01   -0.12415E+00  4360   0.268E+00    0.270E+00
DAV:  10    -0.851489105977E+03    0.12741E+00   -0.43699E-01  4520   0.155E+00    0.116E+00
DAV:  11    -0.851473867237E+03    0.15239E-01   -0.12949E-01  4360   0.812E-01    0.333E-01
DAV:  12    -0.851471846324E+03    0.20209E-02   -0.23265E-02  4420   0.424E-01    0.148E-01
DAV:  13    -0.851472015385E+03   -0.16906E-03   -0.41881E-03  4570   0.151E-01    0.114E-01
DAV:  14    -0.851471986465E+03    0.28919E-04   -0.13868E-03  4530   0.882E-02    0.512E-02
DAV:  15    -0.851472006617E+03   -0.20152E-04   -0.14515E-04  4700   0.349E-02    0.353E-02
DAV:  16    -0.851472037085E+03   -0.30467E-04   -0.12753E-04  5070   0.354E-02    0.202E-02
DAV:  17    -0.851472029586E+03    0.74987E-05   -0.54372E-05  4770   0.224E-02    0.783E-03
DAV:  18    -0.851472031498E+03   -0.19115E-05   -0.19957E-05  4440   0.104E-02    0.613E-03
DAV:  19    -0.851472030946E+03    0.55205E-06   -0.22877E-06  3500   0.554E-03
   1 F= -.85937907E+03 E0= -.85937907E+03  d E =-.859379E+03  mag=    -0.0000
quench:  g(F)=  0.000E+00 g(S)=  0.000E+00 dE (1.order)= 0.000E+00
 bond charge predicted
       N       E                     dE             d eps       ncg     rms          rms(c)
DAV:   1    -0.851472192707E+03   -0.16121E-03   -0.43128E-03  4020   0.147E-01    0.124E-02
DAV:   2    -0.851472199044E+03   -0.63379E-05   -0.88912E-05  4240   0.196E-02    0.114E-02
DAV:   3    -0.851472197822E+03    0.12222E-05   -0.30623E-06  3420   0.392E-03    0.910E-03
DAV:   4    -0.851472197123E+03    0.69945E-06   -0.53847E-06  3720   0.561E-03
   2 F= -.85937922E+03 E0= -.85937922E+03  d E =-.151363E-03  mag=     0.0000
quench:  g(F)=  0.000E+00 g(S)=  0.000E+00 dE (1.order)= 0.000E+00
 bond charge predicted
       N       E                     dE             d eps       ncg     rms          rms(c)
DAV:   1    -0.851472465534E+03   -0.26771E-03   -0.13506E-02  4040   0.254E-01    0.224E-02
DAV:   2    -0.851472481487E+03   -0.15953E-04   -0.23596E-04  4020   0.321E-02    0.196E-02
DAV:   3    -0.851472478404E+03    0.30823E-05   -0.79035E-06  4630   0.647E-03    0.146E-02
DAV:   4    -0.851472478691E+03   -0.28615E-06   -0.93141E-06  3820   0.760E-03
   3 F= -.85937947E+03 E0= -.85937947E+03  d E =-.252082E-03  mag=     0.0000
quench:  g(F)=  0.000E+00 g(S)=  0.000E+00 dE (1.order)= 0.000E+00
 bond charge predicted
       N       E                     dE             d eps       ncg     rms          rms(c)
DAV:   1    -0.851472898693E+03   -0.42029E-03   -0.28290E-02  4020   0.365E-01    0.317E-02
DAV:   2    -0.851472931649E+03   -0.32956E-04   -0.48208E-04  4020   0.459E-02    0.274E-02
DAV:   3    -0.851472926008E+03    0.56410E-05   -0.15428E-05  4570   0.908E-03    0.203E-02
DAV:   4    -0.851472927408E+03   -0.14002E-05   -0.18038E-05  3860   0.105E-02    0.566E-03
DAV:   5    -0.851472928118E+03   -0.70992E-06   -0.50717E-06  3500   0.412E-03
   4 F= -.85937988E+03 E0= -.85937988E+03  d E =-.405762E-03  mag=    -0.0000
quench:  g(F)=  0.000E+00 g(S)=  0.000E+00 dE (1.order)= 0.000E+00
 bond charge predicted
       N       E                     dE             d eps       ncg     rms          rms(c)
DAV:   1    -0.851473446480E+03   -0.51907E-03   -0.50757E-02  4000   0.491E-01    0.414E-02
DAV:   2    -0.851473509171E+03   -0.62691E-04   -0.90439E-04  4000   0.627E-02    0.360E-02
DAV:   3    -0.851473498007E+03    0.11164E-04   -0.27833E-05  4640   0.122E-02    0.269E-02
DAV:   4    -0.851473499290E+03   -0.12826E-05   -0.36801E-05  4020   0.149E-02    0.751E-03
DAV:   5    -0.851473500344E+03   -0.10544E-05   -0.93629E-06  4200   0.572E-03    0.430E-03
DAV:   6    -0.851473500385E+03   -0.40585E-07   -0.15302E-06  2880   0.334E-03
   5 F= -.85938039E+03 E0= -.85938039E+03  d E =-.513408E-03  mag=    -0.0000
quench:  g(F)=  0.000E+00 g(S)=  0.000E+00 dE (1.order)= 0.000E+00
 bond charge predicted
       N       E                     dE             d eps       ncg     rms          rms(c)
DAV:   1    -0.851474151917E+03   -0.65157E-03   -0.77822E-02  4000   0.607E-01    0.506E-02
DAV:   2    -0.851474245816E+03   -0.93899E-04   -0.13638E-03  3960   0.771E-02    0.439E-02
DAV:   3    -0.851474228300E+03    0.17516E-04   -0.40551E-05  4560   0.150E-02    0.327E-02
DAV:   4    -0.851474230666E+03   -0.23660E-05   -0.58011E-05  4100   0.186E-02    0.870E-03
DAV:   5    -0.851474231935E+03   -0.12688E-05   -0.14240E-05  4260   0.713E-03    0.506E-03
DAV:   6    -0.851474232043E+03   -0.10851E-06   -0.22056E-06  3180   0.392E-03
   6 F= -.85938105E+03 E0= -.85938105E+03  d E =-.657861E-03  mag=    -0.0000
quench:  g(F)=  0.000E+00 g(S)=  0.000E+00 dE (1.order)= 0.000E+00
 bond charge predicted
       N       E                     dE             d eps       ncg     rms          rms(c)
DAV:   1    -0.851474984669E+03   -0.75273E-03   -0.11381E-01  3940   0.735E-01    0.613E-02
DAV:   2    -0.851475124334E+03   -0.13966E-03   -0.20138E-03  3940   0.937E-02    0.533E-02
DAV:   3    -0.851475098669E+03    0.25666E-04   -0.60388E-05  4580   0.182E-02    0.397E-02
DAV:   4    -0.851475100790E+03   -0.21209E-05   -0.85519E-05  4210   0.225E-02    0.108E-02
DAV:   5    -0.851475102796E+03   -0.20062E-05   -0.20107E-05  4340   0.856E-03    0.624E-03
DAV:   6    -0.851475102976E+03   -0.17960E-06   -0.32738E-06  3520   0.471E-03
   7 F= -.85938183E+03 E0= -.85938183E+03  d E =-.783615E-03  mag=    -0.0000
quench:  g(F)=  0.000E+00 g(S)=  0.000E+00 dE (1.order)= 0.000E+00
 bond charge predicted
       N       E                     dE             d eps       ncg     rms          rms(c)
DAV:   1    -0.851476031827E+03   -0.92903E-03   -0.19228E-01  3920   0.954E-01    0.799E-02
DAV:   2    -0.851476266753E+03   -0.23493E-03   -0.33875E-03  3910   0.122E-01    0.690E-02
DAV:   3    -0.851476224344E+03    0.42409E-04   -0.10042E-04  4560   0.235E-02    0.514E-02
DAV:   4    -0.851476228064E+03   -0.37198E-05   -0.14079E-04  4360   0.288E-02    0.139E-02
DAV:   5    -0.851476231670E+03   -0.36057E-05   -0.31743E-05  4300   0.109E-02    0.793E-03
DAV:   6    -0.851476231883E+03   -0.21299E-06   -0.57345E-06  3660   0.629E-03
   8 F= -.85938285E+03 E0= -.85938285E+03  d E =-.101828E-02  mag=    -0.0000
quench:  g(F)=  0.000E+00 g(S)=  0.000E+00 dE (1.order)= 0.000E+00
 bond charge predicted
       N       E                     dE             d eps       ncg     rms          rms(c)
DAV:   1    -0.851477345781E+03   -0.11141E-02   -0.31545E-01  3920   0.122E+00    0.102E-01
DAV:   2    -0.851477726349E+03   -0.38057E-03   -0.55227E-03  3900   0.155E-01    0.888E-02
DAV:   3    -0.851477655268E+03    0.71080E-04   -0.16894E-04  4560   0.304E-02    0.661E-02
DAV:   4    -0.851477659455E+03   -0.41866E-05   -0.22981E-04  4440   0.367E-02    0.183E-02
DAV:   5    -0.851477665625E+03   -0.61696E-05   -0.52371E-05  4260   0.139E-02    0.103E-02
DAV:   6    -0.851477666029E+03   -0.40478E-06   -0.94971E-06  3720   0.806E-03
   9 F= -.85938414E+03 E0= -.85938414E+03  d E =-.129563E-02  mag=     0.0000
quench:  g(F)=  0.000E+00 g(S)=  0.000E+00 dE (1.order)= 0.000E+00
 bond charge predicted
       N       E                     dE             d eps       ncg     rms          rms(c)
DAV:   1    -0.851478970736E+03   -0.13051E-02   -0.51359E-01  3920   0.156E+00    0.131E-01
DAV:   2    -0.851479597369E+03   -0.62663E-03   -0.90531E-03  3880   0.198E-01    0.113E-01
DAV:   3    -0.851479484178E+03    0.11319E-03   -0.27222E-04  4580   0.387E-02    0.841E-02
DAV:   4    -0.851479492194E+03   -0.80160E-05   -0.37506E-04  4590   0.470E-02    0.231E-02
DAV:   5    -0.851479501810E+03   -0.96164E-05   -0.83662E-05  4220   0.177E-02    0.131E-02
DAV:   6    -0.851479502443E+03   -0.63292E-06   -0.15168E-05  3860   0.103E-02    0.516E-03
DAV:   7    -0.851479503118E+03   -0.67501E-06   -0.39025E-06  4420   0.416E-03
  10 F= -.85938580E+03 E0= -.85938580E+03  d E =-.166013E-02  mag=     0.0000
quench:  g(F)=  0.000E+00 g(S)=  0.000E+00 dE (1.order)= 0.000E+00
 bond charge predicted
       N       E                     dE             d eps       ncg     rms          rms(c)
DAV:   1    -0.851480911686E+03   -0.14092E-02   -0.80605E-01  3920   0.195E+00    0.164E-01
DAV:   2    -0.851481862509E+03   -0.95082E-03   -0.13887E-02  3880   0.246E-01    0.142E-01
DAV:   3    -0.851481677456E+03    0.18505E-03   -0.43433E-04  4560   0.490E-02    0.105E-01
DAV:   4    -0.851481678142E+03   -0.68580E-06   -0.57043E-04  4700   0.573E-02    0.295E-02
DAV:   5    -0.851481694472E+03   -0.16330E-04   -0.13302E-04  4200   0.220E-02    0.159E-02
DAV:   6    -0.851481695575E+03   -0.11034E-05   -0.21970E-05  4140   0.118E-02    0.645E-03
DAV:   7    -0.851481696573E+03   -0.99813E-06   -0.55146E-06  4420   0.491E-03
  11 F= -.85938779E+03 E0= -.85938779E+03  d E =-.198766E-02  mag=     0.0000
quench:  g(F)=  0.000E+00 g(S)=  0.000E+00 dE (1.order)= 0.000E+00
 bond charge predicted
       N       E                     dE             d eps       ncg     rms          rms(c)
DAV:   1    -0.851483230222E+03   -0.15346E-02   -0.12485E+00  3920   0.242E+00    0.203E-01
DAV:   2    -0.851484677960E+03   -0.14477E-02   -0.21268E-02  3900   0.304E-01    0.178E-01
DAV:   3    -0.851484384281E+03    0.29368E-03   -0.68376E-04  4540   0.615E-02    0.131E-01
DAV:   4    -0.851484373059E+03    0.11222E-04   -0.88960E-04  4680   0.719E-02    0.369E-02
DAV:   5    -0.851484398302E+03   -0.25243E-04   -0.21464E-04  4180   0.277E-02    0.201E-02
DAV:   6    -0.851484400524E+03   -0.22218E-05   -0.32160E-05  4140   0.142E-02    0.819E-03
DAV:   7    -0.851484402003E+03   -0.14796E-05   -0.91016E-06  4520   0.638E-03    0.505E-03
DAV:   8    -0.851484401970E+03    0.33404E-07   -0.26836E-06  3520   0.572E-03
  12 F= -.85939023E+03 E0= -.85939023E+03  d E =-.243953E-02  mag=     0.0000
quench:  g(F)=  0.000E+00 g(S)=  0.000E+00 dE (1.order)= 0.000E+00
 bond charge predicted
       N       E                     dE             d eps       ncg     rms          rms(c)
DAV:   1    -0.851485748363E+03   -0.13464E-02   -0.18920E+00  3920   0.298E+00    0.250E-01
DAV:   2    -0.851487953762E+03   -0.22054E-02   -0.32153E-02  3920   0.373E-01    0.221E-01
DAV:   3    -0.851487497243E+03    0.45652E-03   -0.10435E-03  4580   0.756E-02    0.164E-01
DAV:   4    -0.851487440712E+03    0.56531E-04   -0.14226E-03  4660   0.910E-02    0.459E-02
DAV:   5    -0.851487475458E+03   -0.34746E-04   -0.33805E-04  4180   0.349E-02    0.255E-02
DAV:   6    -0.851487479686E+03   -0.42287E-05   -0.51840E-05  4160   0.183E-02    0.101E-02
DAV:   7    -0.851487481461E+03   -0.17743E-05   -0.13130E-05  4580   0.761E-03    0.666E-03
DAV:   8    -0.851487481489E+03   -0.27772E-07   -0.43868E-06  4040   0.729E-03
  13 F= -.85939299E+03 E0= -.85939299E+03  d E =-.276051E-02  mag=    -0.0000
quench:  g(F)=  0.000E+00 g(S)=  0.000E+00 dE (1.order)= 0.000E+00
 bond charge predicted
       N       E                     dE             d eps       ncg     rms          rms(c)
DAV:   1    -0.851486444597E+03    0.10369E-02   -0.28470E+00  3880   0.369E+00    0.312E-01
DAV:   2    -0.851489997203E+03   -0.35526E-02   -0.51033E-02  3960   0.470E-01    0.278E-01
DAV:   3    -0.851489291665E+03    0.70554E-03   -0.18503E-03  4820   0.964E-02    0.210E-01
DAV:   4    -0.851489037979E+03    0.25369E-03   -0.19070E-03  4640   0.109E-01    0.691E-02
DAV:   5    -0.851489127520E+03   -0.89540E-04   -0.55276E-04  4280   0.435E-02    0.347E-02
DAV:   6    -0.851489128481E+03   -0.96155E-06   -0.85508E-05  4160   0.244E-02    0.136E-02
DAV:   7    -0.851489131583E+03   -0.31018E-05   -0.21989E-05  4480   0.969E-03    0.891E-03
DAV:   8    -0.851489131588E+03   -0.52896E-08   -0.67994E-06  4320   0.917E-03
  14 F= -.85939425E+03 E0= -.85939425E+03  d E =-.125568E-02  mag=    -0.0000
quench:  g(F)=  0.000E+00 g(S)=  0.000E+00 dE (1.order)= 0.000E+00
 bond charge predicted
       N       E                     dE             d eps       ncg     rms          rms(c)
DAV:   1    -0.851491624652E+03   -0.24931E-02   -0.13814E-01  3920   0.861E-01    0.852E-02
DAV:   2    -0.851491881461E+03   -0.25681E-03   -0.36189E-03  4660   0.124E-01    0.774E-02
DAV:   3    -0.851491812081E+03    0.69380E-04   -0.18674E-04  5060   0.282E-02    0.586E-02
DAV:   4    -0.851491750116E+03    0.61965E-04   -0.13756E-04  4220   0.282E-02    0.250E-02
DAV:   5    -0.851491747259E+03    0.28577E-05   -0.41466E-05  4340   0.131E-02    0.102E-02
DAV:   6    -0.851491747706E+03   -0.44694E-06   -0.40568E-06  3160   0.441E-03
  15 F= -.85939687E+03 E0= -.85939687E+03  d E =-.261877E-02  mag=     0.0000
quench:  g(F)=  0.000E+00 g(S)=  0.000E+00 dE (1.order)= 0.000E+00
 bond charge predicted
       N       E                     dE             d eps       ncg     rms          rms(c)
DAV:   1    -0.851491786106E+03   -0.38847E-04   -0.22665E-04  4000   0.337E-02    0.420E-03
DAV:   2    -0.851491786329E+03   -0.22365E-06   -0.45662E-06  3560   0.455E-03
  16 F= -.85939690E+03 E0= -.85939690E+03  d E =-.359204E-04  mag=     0.0000
quench:  g(F)=  0.000E+00 g(S)=  0.000E+00 dE (1.order)= 0.000E+00
 bond charge predicted
       N       E                     dE             d eps       ncg     rms          rms(c)
DAV:   1    -0.851491855594E+03   -0.69488E-04   -0.84392E-04  3840   0.648E-02    0.703E-03
DAV:   2    -0.851491856438E+03   -0.84333E-06   -0.16133E-05  4380   0.843E-03    0.623E-03
DAV:   3    -0.851491856055E+03    0.38240E-06   -0.70982E-07  2420   0.219E-03
  17 F= -.85939697E+03 E0= -.85939697E+03  d E =-.642785E-04  mag=     0.0000
quench:  g(F)=  0.000E+00 g(S)=  0.000E+00 dE (1.order)= 0.000E+00
 bond charge predicted
       N       E                     dE             d eps       ncg     rms          rms(c)
DAV:   1    -0.851491949085E+03   -0.92648E-04   -0.17231E-03  3880   0.920E-02    0.850E-03
DAV:   2    -0.851491951060E+03   -0.19743E-05   -0.29461E-05  4200   0.113E-02    0.748E-03
DAV:   3    -0.851491950666E+03    0.39349E-06   -0.88350E-07  2720   0.243E-03
  18 F= -.85939705E+03 E0= -.85939705E+03  d E =-.863727E-04  mag=    -0.0000
quench:  g(F)=  0.000E+00 g(S)=  0.000E+00 dE (1.order)= 0.000E+00
 bond charge predicted
       N       E                     dE             d eps       ncg     rms          rms(c)
DAV:   1    -0.851492068191E+03   -0.11713E-03   -0.28516E-03  3880   0.117E-01    0.106E-02
DAV:   2    -0.851492071327E+03   -0.31357E-05   -0.46912E-05  4040   0.143E-02    0.929E-03
DAV:   3    -0.851492070761E+03    0.56620E-06   -0.14181E-06  3020   0.299E-03
  19 F= -.85939716E+03 E0= -.85939716E+03  d E =-.108953E-03  mag=    -0.0000
quench:  g(F)=  0.000E+00 g(S)=  0.000E+00 dE (1.order)= 0.000E+00
 bond charge predicted
       N       E                     dE             d eps       ncg     rms          rms(c)
DAV:   1    -0.851492217334E+03   -0.14601E-03   -0.42565E-03  3880   0.143E-01    0.130E-02
DAV:   2    -0.851492221896E+03   -0.45614E-05   -0.68539E-05  3960   0.172E-02    0.112E-02
DAV:   3    -0.851492221117E+03    0.77902E-06   -0.20481E-06  3260   0.356E-03
  20 F= -.85939730E+03 E0= -.85939730E+03  d E =-.136383E-03  mag=    -0.0000
quench:  g(F)=  0.000E+00 g(S)=  0.000E+00 dE (1.order)= 0.000E+00
 bond charge predicted
       N       E                     dE             d eps       ncg     rms          rms(c)
DAV:   1    -0.851492398879E+03   -0.17698E-03   -0.60231E-03  3880   0.169E-01    0.154E-02
DAV:   2    -0.851492405270E+03   -0.63916E-05   -0.96555E-05  3880   0.204E-02    0.134E-02
DAV:   3    -0.851492404211E+03    0.10596E-05   -0.29844E-06  3560   0.421E-03    0.989E-03
DAV:   4    -0.851492404785E+03   -0.57455E-06   -0.43498E-06  3500   0.506E-03
  21 F= -.85939747E+03 E0= -.85939747E+03  d E =-.166830E-03  mag=    -0.0000
quench:  g(F)=  0.000E+00 g(S)=  0.000E+00 dE (1.order)= 0.000E+00
 bond charge predicted
       N       E                     dE             d eps       ncg     rms          rms(c)
DAV:   1    -0.851492629147E+03   -0.22494E-03   -0.10348E-02  3880   0.221E-01    0.191E-02
DAV:   2    -0.851492641301E+03   -0.12154E-04   -0.17547E-04  3860   0.276E-02    0.166E-02
DAV:   3    -0.851492639314E+03    0.19872E-05   -0.54247E-06  4320   0.550E-03    0.126E-02
DAV:   4    -0.851492639642E+03   -0.32791E-06   -0.67258E-06  3580   0.654E-03
  22 F= -.85939768E+03 E0= -.85939768E+03  d E =-.212737E-03  mag=    -0.0000
quench:  g(F)=  0.000E+00 g(S)=  0.000E+00 dE (1.order)= 0.000E+00
 bond charge predicted
       N       E                     dE             d eps       ncg     rms          rms(c)
DAV:   1    -0.851492913138E+03   -0.27382E-03   -0.16724E-02  3880   0.281E-01    0.245E-02
DAV:   2    -0.851492932358E+03   -0.19221E-04   -0.28011E-04  3860   0.349E-02    0.213E-02
DAV:   3    -0.851492929146E+03    0.32120E-05   -0.89242E-06  4600   0.700E-03    0.160E-02
DAV:   4    -0.851492929676E+03   -0.52989E-06   -0.99615E-06  3680   0.803E-03
  23 F= -.85939794E+03 E0= -.85939794E+03  d E =-.261319E-03  mag=    -0.0000
quench:  g(F)=  0.000E+00 g(S)=  0.000E+00 dE (1.order)= 0.000E+00
 bond charge predicted
       N       E                     dE             d eps       ncg     rms          rms(c)
DAV:   1    -0.851493268441E+03   -0.33929E-03   -0.26462E-02  3880   0.353E-01    0.307E-02
DAV:   2    -0.851493298862E+03   -0.30421E-04   -0.44232E-04  3860   0.438E-02    0.267E-02
DAV:   3    -0.851493293844E+03    0.50180E-05   -0.14174E-05  4540   0.879E-03    0.200E-02
DAV:   4    -0.851493294814E+03   -0.96991E-06   -0.15556E-05  3720   0.100E-02    0.590E-03
DAV:   5    -0.851493295692E+03   -0.87784E-06   -0.47365E-06  3480   0.395E-03
  24 F= -.85939827E+03 E0= -.85939827E+03  d E =-.327947E-03  mag=     0.0000
quench:  g(F)=  0.000E+00 g(S)=  0.000E+00 dE (1.order)= 0.000E+00
 bond charge predicted
       N       E                     dE             d eps       ncg     rms          rms(c)
DAV:   1    -0.851493719138E+03   -0.42432E-03   -0.41990E-02  3920   0.445E-01    0.377E-02
DAV:   2    -0.851493769722E+03   -0.50583E-04   -0.73134E-04  3840   0.561E-02    0.328E-02
DAV:   3    -0.851493760842E+03    0.88798E-05   -0.22398E-05  4600   0.111E-02    0.249E-02
DAV:   4    -0.851493761129E+03   -0.28737E-06   -0.28622E-05  3730   0.136E-02    0.723E-03
DAV:   5    -0.851493762330E+03   -0.12008E-05   -0.78573E-06  4080   0.513E-03    0.411E-03
DAV:   6    -0.851493762277E+03    0.52416E-07   -0.12862E-06  2650   0.337E-03
  25 F= -.85939868E+03 E0= -.85939868E+03  d E =-.417421E-03  mag=    -0.0000
quench:  g(F)=  0.000E+00 g(S)=  0.000E+00 dE (1.order)= 0.000E+00
 bond charge predicted
       N       E                     dE             d eps       ncg     rms          rms(c)
DAV:   1    -0.851494278854E+03   -0.51652E-03   -0.66569E-02  3920   0.561E-01    0.471E-02
DAV:   2    -0.851494359025E+03   -0.80171E-04   -0.11661E-03  3840   0.709E-02    0.411E-02
DAV:   3    -0.851494344144E+03    0.14881E-04   -0.35348E-05  4640   0.140E-02    0.310E-02
DAV:   4    -0.851494343991E+03    0.15249E-06   -0.47636E-05  3840   0.173E-02    0.887E-03
DAV:   5    -0.851494345663E+03   -0.16717E-05   -0.12508E-05  4320   0.653E-03    0.511E-03
DAV:   6    -0.851494345658E+03    0.47512E-08   -0.20193E-06  3280   0.408E-03
  26 F= -.85939921E+03 E0= -.85939921E+03  d E =-.521578E-03  mag=    -0.0000
quench:  g(F)=  0.000E+00 g(S)=  0.000E+00 dE (1.order)= 0.000E+00
 bond charge predicted
       N       E                     dE             d eps       ncg     rms          rms(c)
DAV:   1    -0.851494973038E+03   -0.62738E-03   -0.10381E-01  3920   0.700E-01    0.589E-02
DAV:   2    -0.851495099349E+03   -0.12631E-03   -0.18256E-03  3840   0.888E-02    0.511E-02
DAV:   3    -0.851495076436E+03    0.22913E-04   -0.54498E-05  4600   0.174E-02    0.385E-02
DAV:   4    -0.851495076656E+03   -0.22002E-06   -0.74831E-05  4200   0.215E-02    0.109E-02
DAV:   5    -0.851495079066E+03   -0.24102E-05   -0.18215E-05  4260   0.807E-03    0.627E-03
DAV:   6    -0.851495079078E+03   -0.11583E-07   -0.32203E-06  3540   0.507E-03
  27 F= -.85939987E+03 E0= -.85939987E+03  d E =-.658584E-03  mag=     0.0000
quench:  g(F)=  0.000E+00 g(S)=  0.000E+00 dE (1.order)= 0.000E+00
 bond charge predicted
       N       E                     dE             d eps       ncg     rms          rms(c)
DAV:   1    -0.851495841618E+03   -0.76255E-03   -0.16057E-01  3920   0.870E-01    0.732E-02
DAV:   2    -0.851496037242E+03   -0.19562E-03   -0.28170E-03  3880   0.110E-01    0.633E-02
DAV:   3    -0.851496001673E+03    0.35569E-04   -0.84019E-05  4560   0.215E-02    0.476E-02
DAV:   4    -0.851496002060E+03   -0.38686E-06   -0.11563E-04  4300   0.265E-02    0.135E-02
DAV:   5    -0.851496005594E+03   -0.35346E-05   -0.27244E-05  4240   0.996E-03    0.766E-03
DAV:   6    -0.851496005643E+03   -0.48844E-07   -0.50163E-06  3660   0.620E-03
  28 F= -.85940070E+03 E0= -.85940070E+03  d E =-.836015E-03  mag=    -0.0000
quench:  g(F)=  0.000E+00 g(S)=  0.000E+00 dE (1.order)= 0.000E+00
 bond charge predicted
       N       E                     dE             d eps       ncg     rms          rms(c)
DAV:   1    -0.851496911795E+03   -0.90620E-03   -0.24737E-01  3920   0.108E+00    0.906E-02
DAV:   2    -0.851497212006E+03   -0.30021E-03   -0.43313E-03  3880   0.136E-01    0.782E-02
DAV:   3    -0.851497157447E+03    0.54559E-04   -0.12884E-04  4560   0.267E-02    0.586E-02
DAV:   4    -0.851497159487E+03   -0.20397E-05   -0.17670E-04  4420   0.325E-02    0.166E-02
DAV:   5    -0.851497164889E+03   -0.54020E-05   -0.41180E-05  4180   0.122E-02    0.934E-03
DAV:   6    -0.851497165024E+03   -0.13543E-06   -0.75420E-06  3640   0.750E-03
  29 F= -.85940175E+03 E0= -.85940175E+03  d E =-.104457E-02  mag=    -0.0000
quench:  g(F)=  0.000E+00 g(S)=  0.000E+00 dE (1.order)= 0.000E+00
 bond charge predicted
       N       E                     dE             d eps       ncg     rms          rms(c)
DAV:   1    -0.851498198364E+03   -0.10335E-02   -0.37842E-01  3920   0.133E+00    0.112E-01
DAV:   2    -0.851498657798E+03   -0.45943E-03   -0.66292E-03  3900   0.169E-01    0.965E-02
DAV:   3    -0.851498574721E+03    0.83078E-04   -0.19679E-04  4560   0.330E-02    0.724E-02
DAV:   4    -0.851498579114E+03   -0.43935E-05   -0.27035E-04  4540   0.402E-02    0.204E-02
DAV:   5    -0.851498587269E+03   -0.81549E-05   -0.62170E-05  4220   0.151E-02    0.115E-02
DAV:   6    -0.851498587560E+03   -0.29106E-06   -0.11123E-05  3780   0.902E-03    0.475E-03
DAV:   7    -0.851498588045E+03   -0.48456E-06   -0.31752E-06  4160   0.379E-03
  30 F= -.85940302E+03 E0= -.85940302E+03  d E =-.127738E-02  mag=     0.0000
quench:  g(F)=  0.000E+00 g(S)=  0.000E+00 dE (1.order)= 0.000E+00
 bond charge predicted
       N       E                     dE             d eps       ncg     rms          rms(c)
DAV:   1    -0.851499695881E+03   -0.11083E-02   -0.56733E-01  3920   0.163E+00    0.137E-01
DAV:   2    -0.851500376116E+03   -0.68023E-03   -0.98632E-03  3900   0.206E-01    0.118E-01
DAV:   3    -0.851500249196E+03    0.12692E-03   -0.29834E-04  4580   0.405E-02    0.879E-02
DAV:   4    -0.851500252012E+03   -0.28151E-05   -0.38799E-04  4580   0.477E-02    0.251E-02
DAV:   5    -0.851500265038E+03   -0.13027E-04   -0.92308E-05  4200   0.182E-02    0.135E-02
DAV:   6    -0.851500265558E+03   -0.51981E-06   -0.15044E-05  4000   0.101E-02    0.565E-03
DAV:   7    -0.851500266302E+03   -0.74341E-06   -0.42928E-06  4340   0.436E-03
  31 F= -.85940452E+03 E0= -.85940452E+03  d E =-.150077E-02  mag=     0.0000
quench:  g(F)=  0.000E+00 g(S)=  0.000E+00 dE (1.order)= 0.000E+00
 bond charge predicted
       N       E                     dE             d eps       ncg     rms          rms(c)
DAV:   1    -0.851501431362E+03   -0.11658E-02   -0.83681E-01  3920   0.198E+00    0.166E-01
DAV:   2    -0.851502424404E+03   -0.99304E-03   -0.14412E-02  3920   0.249E-01    0.144E-01
DAV:   3    -0.851502234987E+03    0.18942E-03   -0.44249E-04  4540   0.494E-02    0.107E-01
DAV:   4    -0.851502235508E+03   -0.52164E-06   -0.58818E-04  4620   0.586E-02    0.299E-02
DAV:   5    -0.851502253110E+03   -0.17602E-04   -0.13830E-04  4200   0.224E-02    0.163E-02
DAV:   6    -0.851502254398E+03   -0.12882E-05   -0.22022E-05  4100   0.122E-02    0.672E-03
DAV:   7    -0.851502255355E+03   -0.95640E-06   -0.61623E-06  4520   0.526E-03
  32 F= -.85940628E+03 E0= -.85940628E+03  d E =-.175806E-02  mag=     0.0000
quench:  g(F)=  0.000E+00 g(S)=  0.000E+00 dE (1.order)= 0.000E+00
 bond charge predicted
       N       E                     dE             d eps       ncg     rms          rms(c)
DAV:   1    -0.851503406738E+03   -0.11523E-02   -0.11973E+00  3920   0.236E+00    0.198E-01
DAV:   2    -0.851504783984E+03   -0.13772E-02   -0.20174E-02  3940   0.295E-01    0.174E-01
DAV:   3    -0.851504503577E+03    0.28041E-03   -0.65132E-04  4560   0.597E-02    0.128E-01
DAV:   4    -0.851504486463E+03    0.17114E-04   -0.84086E-04  4700   0.696E-02    0.363E-02
DAV:   5    -0.851504511488E+03   -0.25025E-04   -0.20077E-04  4200   0.268E-02    0.195E-02
DAV:   6    -0.851504513818E+03   -0.23298E-05   -0.31550E-05  4100   0.141E-02    0.789E-03
DAV:   7    -0.851504515238E+03   -0.14205E-05   -0.80168E-06  4500   0.593E-03    0.505E-03
DAV:   8    -0.851504515202E+03    0.36664E-07   -0.24800E-06  3480   0.559E-03
  33 F= -.85940827E+03 E0= -.85940827E+03  d E =-.198892E-02  mag=     0.0000
quench:  g(F)=  0.000E+00 g(S)=  0.000E+00 dE (1.order)= 0.000E+00
 bond charge predicted
       N       E                     dE             d eps       ncg     rms          rms(c)
DAV:   1    -0.851505477916E+03   -0.96268E-03   -0.16890E+00  3900   0.280E+00    0.235E-01
DAV:   2    -0.851507423303E+03   -0.19454E-02   -0.28300E-02  3960   0.349E-01    0.207E-01
DAV:   3    -0.851507022839E+03    0.40046E-03   -0.92386E-04  4640   0.710E-02    0.154E-01
DAV:   4    -0.851506967445E+03    0.55394E-04   -0.12414E-03  4620   0.852E-02    0.431E-02
DAV:   5    -0.851507000737E+03   -0.33292E-04   -0.29555E-04  4200   0.326E-02    0.238E-02
DAV:   6    -0.851507003992E+03   -0.32552E-05   -0.46363E-05  4200   0.177E-02    0.949E-03
DAV:   7    -0.851507005689E+03   -0.16974E-05   -0.12090E-05  4500   0.733E-03    0.636E-03
DAV:   8    -0.851507005643E+03    0.46748E-07   -0.35736E-06  3820   0.667E-03
  34 F= -.85941045E+03 E0= -.85941045E+03  d E =-.217606E-02  mag=    -0.0000
quench:  g(F)=  0.000E+00 g(S)=  0.000E+00 dE (1.order)= 0.000E+00
 bond charge predicted
       N       E                     dE             d eps       ncg     rms          rms(c)
DAV:   1    -0.851506775583E+03    0.23011E-03   -0.23735E+00  3880   0.335E+00    0.283E-01
DAV:   2    -0.851509655661E+03   -0.28801E-02   -0.41533E-02  3920   0.423E-01    0.250E-01
DAV:   3    -0.851509074366E+03    0.58129E-03   -0.14357E-03  4740   0.864E-02    0.187E-01
DAV:   4    -0.851508925178E+03    0.14919E-03   -0.16221E-03  4640   0.992E-02    0.577E-02
DAV:   5    -0.851508991925E+03   -0.66746E-04   -0.43813E-04  4240   0.388E-02    0.300E-02
DAV:   6    -0.851508996484E+03   -0.45593E-05   -0.64527E-05  4180   0.208E-02    0.118E-02
DAV:   7    -0.851508998570E+03   -0.20858E-05   -0.16058E-05  4580   0.832E-03    0.786E-03
DAV:   8    -0.851508998599E+03   -0.29038E-07   -0.53260E-06  4180   0.805E-03
  35 F= -.85941204E+03 E0= -.85941204E+03  d E =-.159192E-02  mag=    -0.0000
quench:  g(F)=  0.000E+00 g(S)=  0.000E+00 dE (1.order)= 0.000E+00
 bond charge predicted
       N       E                     dE             d eps       ncg     rms          rms(c)
DAV:   1    -0.851510190129E+03   -0.11916E-02   -0.53189E-02  3920   0.534E-01    0.522E-02
DAV:   2    -0.851510286494E+03   -0.96364E-04   -0.13687E-03  4640   0.767E-02    0.472E-02
DAV:   3    -0.851510260099E+03    0.26395E-04   -0.72338E-05  5020   0.174E-02    0.355E-02
DAV:   4    -0.851510237765E+03    0.22334E-04   -0.48517E-05  4140   0.167E-02    0.157E-02
DAV:   5    -0.851510236539E+03    0.12261E-05   -0.15565E-05  4240   0.810E-03    0.599E-03
DAV:   6    -0.851510236689E+03   -0.14993E-06   -0.12267E-06  2360   0.270E-03
  36 F= -.85941328E+03 E0= -.85941328E+03  d E =-.123636E-02  mag=     0.0000
quench:  g(F)=  0.000E+00 g(S)=  0.000E+00 dE (1.order)= 0.000E+00
 bond charge predicted
       N       E                     dE             d eps       ncg     rms          rms(c)
DAV:   1    -0.851509517574E+03    0.71897E-03   -0.58961E-02  3840   0.562E-01    0.531E-02
DAV:   2    -0.851509628063E+03   -0.11049E-03   -0.15029E-03  4740   0.803E-02    0.483E-02
DAV:   3    -0.851509603633E+03    0.24430E-04   -0.68294E-05  4980   0.170E-02    0.375E-02
DAV:   4    -0.851509580544E+03    0.23089E-04   -0.59313E-05  4200   0.185E-02    0.156E-02
DAV:   5    -0.851509580132E+03    0.41298E-06   -0.16364E-05  4180   0.826E-03    0.705E-03
DAV:   6    -0.851509580331E+03   -0.19934E-06   -0.17995E-06  2520   0.323E-03
  37 F= -.85941260E+03 E0= -.85941260E+03  d E =0.670350E-03  mag=    -0.0000
quench:  g(F)=  0.000E+00 g(S)=  0.000E+00 dE (1.order)= 0.000E+00
 bond charge predicted
       N       E                     dE             d eps       ncg     rms          rms(c)
DAV:   1    -0.851509954021E+03   -0.37389E-03   -0.24501E-03  3920   0.115E-01    0.111E-02
DAV:   2    -0.851509958206E+03   -0.41848E-05   -0.63624E-05  4660   0.165E-02    0.103E-02
DAV:   3    -0.851509956857E+03    0.13482E-05   -0.30971E-06  3180   0.377E-03    0.788E-03
DAV:   4    -0.851509955594E+03    0.12636E-05   -0.39754E-06  3400   0.452E-03    0.319E-03
DAV:   5    -0.851509955545E+03    0.49273E-07   -0.65785E-07  2160   0.176E-03
  38 F= -.85941298E+03 E0= -.85941298E+03  d E =-.372077E-03  mag=    -0.0000
quench:  g(F)=  0.000E+00 g(S)=  0.000E+00 dE (1.order)= 0.000E+00
 bond charge predicted
       N       E                     dE             d eps       ncg     rms          rms(c)
DAV:   1    -0.851510382386E+03   -0.42679E-03   -0.77345E-03  3920   0.204E-01    0.198E-02
DAV:   2    -0.851510396470E+03   -0.14083E-04   -0.19775E-04  4640   0.292E-02    0.178E-02
DAV:   3    -0.851510392769E+03    0.37001E-05   -0.10657E-05  4960   0.670E-03    0.133E-02
DAV:   4    -0.851510389871E+03    0.28980E-05   -0.64346E-06  3880   0.607E-03    0.611E-03
DAV:   5    -0.851510389701E+03    0.17026E-06   -0.20317E-06  2660   0.302E-03
  39 F= -.85941340E+03 E0= -.85941340E+03  d E =-.427371E-03  mag=    -0.0000
quench:  g(F)=  0.000E+00 g(S)=  0.000E+00 dE (1.order)= 0.000E+00
 bond charge predicted
       N       E                     dE             d eps       ncg     rms          rms(c)
DAV:   1    -0.851510525494E+03   -0.13562E-03   -0.11321E-02  3840   0.247E-01    0.235E-02
DAV:   2    -0.851510546990E+03   -0.21496E-04   -0.29279E-04  4700   0.355E-02    0.214E-02
DAV:   3    -0.851510542132E+03    0.48584E-05   -0.14169E-05  4980   0.772E-03    0.164E-02
DAV:   4    -0.851510537844E+03    0.42876E-05   -0.10012E-05  3960   0.759E-03    0.719E-03
DAV:   5    -0.851510537694E+03    0.15072E-06   -0.30232E-06  2800   0.363E-03
  40 F= -.85941354E+03 E0= -.85941354E+03  d E =-.137069E-03  mag=     0.0000
quench:  g(F)=  0.000E+00 g(S)=  0.000E+00 dE (1.order)= 0.000E+00
 bond charge predicted
       N       E                     dE             d eps       ncg     rms          rms(c)
DAV:   1    -0.851510544922E+03   -0.70777E-05   -0.11008E-05  3760   0.754E-03    0.165E-03
DAV:   2    -0.851510544925E+03   -0.32014E-08   -0.35272E-07  2160   0.134E-03
  41 F= -.85941355E+03 E0= -.85941355E+03  d E =-.659205E-05  mag=     0.0000
quench:  g(F)=  0.000E+00 g(S)=  0.000E+00 dE (1.order)= 0.000E+00
 bond charge predicted
       N       E                     dE             d eps       ncg     rms          rms(c)
DAV:   1    -0.851510558666E+03   -0.13744E-04   -0.37279E-05  3920   0.139E-02    0.172E-03
DAV:   2    -0.851510558717E+03   -0.50568E-07   -0.73263E-07  2240   0.190E-03
  42 F= -.85941356E+03 E0= -.85941356E+03  d E =-.125017E-04  mag=    -0.0000
quench:  g(F)=  0.000E+00 g(S)=  0.000E+00 dE (1.order)= 0.000E+00
 bond charge predicted
       N       E                     dE             d eps       ncg     rms          rms(c)
DAV:   1    -0.851510578094E+03   -0.19428E-04   -0.81927E-05  3860   0.206E-02    0.264E-03
DAV:   2    -0.851510578170E+03   -0.76230E-07   -0.15570E-06  2360   0.278E-03
  43 F= -.85941358E+03 E0= -.85941358E+03  d E =-.174738E-04  mag=    -0.0000
quench:  g(F)=  0.000E+00 g(S)=  0.000E+00 dE (1.order)= 0.000E+00
 bond charge predicted
       N       E                     dE             d eps       ncg     rms          rms(c)
DAV:   1    -0.851510601968E+03   -0.23874E-04   -0.13751E-04  3850   0.266E-02    0.348E-03
DAV:   2    -0.851510602108E+03   -0.14054E-06   -0.27427E-06  3440   0.356E-03
  44 F= -.85941360E+03 E0= -.85941360E+03  d E =-.212791E-04  mag=     0.0000
quench:  g(F)=  0.000E+00 g(S)=  0.000E+00 dE (1.order)= 0.000E+00
 bond charge predicted
       N       E                     dE             d eps       ncg     rms          rms(c)
DAV:   1    -0.851510629271E+03   -0.27303E-04   -0.20300E-04  3840   0.321E-02    0.437E-03
DAV:   2    -0.851510629443E+03   -0.17213E-06   -0.38801E-06  3580   0.423E-03
  45 F= -.85941362E+03 E0= -.85941362E+03  d E =-.239216E-04  mag=    -0.0000
quench:  g(F)=  0.000E+00 g(S)=  0.000E+00 dE (1.order)= 0.000E+00
 bond charge predicted
       N       E                     dE             d eps       ncg     rms          rms(c)
DAV:   1    -0.851510659517E+03   -0.30247E-04   -0.27182E-04  3840   0.369E-02    0.507E-03
DAV:   2    -0.851510659745E+03   -0.22793E-06   -0.51489E-06  4260   0.479E-03
  46 F= -.85941365E+03 E0= -.85941365E+03  d E =-.261616E-04  mag=     0.0000
quench:  g(F)=  0.000E+00 g(S)=  0.000E+00 dE (1.order)= 0.000E+00
 bond charge predicted
       N       E                     dE             d eps       ncg     rms          rms(c)
DAV:   1    -0.851510696502E+03   -0.36985E-04   -0.43070E-04  3860   0.460E-02    0.616E-03
DAV:   2    -0.851510696830E+03   -0.32739E-06   -0.77678E-06  4060   0.587E-03
  47 F= -.85941368E+03 E0= -.85941368E+03  d E =-.316567E-04  mag=    -0.0000
quench:  g(F)=  0.000E+00 g(S)=  0.000E+00 dE (1.order)= 0.000E+00
 bond charge predicted
       N       E                     dE             d eps       ncg     rms          rms(c)
DAV:   1    -0.851510742815E+03   -0.46313E-04   -0.66638E-04  3860   0.569E-02    0.755E-03
DAV:   2    -0.851510743254E+03   -0.43883E-06   -0.11617E-05  4160   0.717E-03    0.646E-03
DAV:   3    -0.851510743111E+03    0.14267E-06   -0.65051E-07  2420   0.212E-03
  48 F= -.85941372E+03 E0= -.85941372E+03  d E =-.392732E-04  mag=    -0.0000
quench:  g(F)=  0.000E+00 g(S)=  0.000E+00 dE (1.order)= 0.000E+00
 bond charge predicted
       N       E                     dE             d eps       ncg     rms          rms(c)
DAV:   1    -0.851510801924E+03   -0.58670E-04   -0.10235E-03  3860   0.700E-02    0.635E-03
DAV:   2    -0.851510803160E+03   -0.12360E-05   -0.17377E-05  3860   0.864E-03    0.547E-03
DAV:   3    -0.851510803030E+03    0.13011E-06   -0.41450E-07  2360   0.164E-03
  49 F= -.85941377E+03 E0= -.85941377E+03  d E =-.510333E-04  mag=     0.0000
quench:  g(F)=  0.000E+00 g(S)=  0.000E+00 dE (1.order)= 0.000E+00
 bond charge predicted
       N       E                     dE             d eps       ncg     rms          rms(c)
DAV:   1    -0.851510878447E+03   -0.75287E-04   -0.15869E-03  3880   0.870E-02    0.782E-03
DAV:   2    -0.851510880257E+03   -0.18098E-05   -0.26537E-05  3840   0.107E-02    0.671E-03
DAV:   3    -0.851510880008E+03    0.24861E-06   -0.64902E-07  2660   0.208E-03
  50 F= -.85941384E+03 E0= -.85941384E+03  d E =-.658339E-04  mag=     0.0000
quench:  g(F)=  0.000E+00 g(S)=  0.000E+00 dE (1.order)= 0.000E+00
 bond charge predicted
       N       E                     dE             d eps       ncg     rms          rms(c)
DAV:   1    -0.851510976177E+03   -0.95920E-04   -0.24693E-03  3860   0.109E-01    0.977E-03
DAV:   2    -0.851510979005E+03   -0.28275E-05   -0.41742E-05  3860   0.134E-02    0.841E-03
DAV:   3    -0.851510978613E+03    0.39166E-06   -0.11345E-06  2880   0.262E-03
  51 F= -.85941392E+03 E0= -.85941392E+03  d E =-.847110E-04  mag=    -0.0000
quench:  g(F)=  0.000E+00 g(S)=  0.000E+00 dE (1.order)= 0.000E+00
 bond charge predicted
       N       E                     dE             d eps       ncg     rms          rms(c)
DAV:   1    -0.851511097058E+03   -0.11805E-03   -0.38603E-03  3860   0.136E-01    0.123E-02
DAV:   2    -0.851511101400E+03   -0.43412E-05   -0.65199E-05  3860   0.168E-02    0.106E-02
DAV:   3    -0.851511100759E+03    0.64085E-06   -0.18879E-06  3160   0.332E-03
  52 F= -.85941403E+03 E0= -.85941403E+03  d E =-.104964E-03  mag=     0.0000
quench:  g(F)=  0.000E+00 g(S)=  0.000E+00 dE (1.order)= 0.000E+00
 bond charge predicted
       N       E                     dE             d eps       ncg     rms          rms(c)
DAV:   1    -0.851511242479E+03   -0.14108E-03   -0.59773E-03  3860   0.169E-01    0.154E-02
DAV:   2    -0.851511249185E+03   -0.67054E-05   -0.10084E-04  3840   0.208E-02    0.132E-02
DAV:   3    -0.851511248156E+03    0.10291E-05   -0.30712E-06  3660   0.416E-03    0.974E-03
DAV:   4    -0.851511249019E+03   -0.86378E-06   -0.42283E-06  3440   0.495E-03
  53 F= -.85941415E+03 E0= -.85941415E+03  d E =-.127386E-03  mag=    -0.0000
quench:  g(F)=  0.000E+00 g(S)=  0.000E+00 dE (1.order)= 0.000E+00
 bond charge predicted
       N       E                     dE             d eps       ncg     rms          rms(c)
DAV:   1    -0.851511418670E+03   -0.17051E-03   -0.93465E-03  3880   0.210E-01    0.183E-02
DAV:   2    -0.851511429812E+03   -0.11142E-04   -0.16217E-04  3840   0.265E-02    0.157E-02
DAV:   3    -0.851511428062E+03    0.17502E-05   -0.47610E-06  4180   0.513E-03    0.117E-02
DAV:   4    -0.851511428942E+03   -0.88042E-06   -0.61586E-06  3600   0.607E-03
  54 F= -.85941431E+03 E0= -.85941431E+03  d E =-.154673E-03  mag=     0.0000
quench:  g(F)=  0.000E+00 g(S)=  0.000E+00 dE (1.order)= 0.000E+00
 bond charge predicted
       N       E                     dE             d eps       ncg     rms          rms(c)
DAV:   1    -0.851511635912E+03   -0.20785E-03   -0.13979E-02  3920   0.257E-01    0.225E-02
DAV:   2    -0.851511651928E+03   -0.16016E-04   -0.23671E-04  3840   0.321E-02    0.191E-02
DAV:   3    -0.851511649338E+03    0.25896E-05   -0.68933E-06  4480   0.621E-03    0.141E-02
DAV:   4    -0.851511650748E+03   -0.14099E-05   -0.83378E-06  3680   0.717E-03    0.387E-03
DAV:   5    -0.851511651099E+03   -0.35062E-06   -0.24211E-06  2940   0.285E-03
  55 F= -.85941450E+03 E0= -.85941450E+03  d E =-.191487E-03  mag=    -0.0000
quench:  g(F)=  0.000E+00 g(S)=  0.000E+00 dE (1.order)= 0.000E+00
 bond charge predicted
       N       E                     dE             d eps       ncg     rms          rms(c)
DAV:   1    -0.851511901311E+03   -0.25056E-03   -0.21055E-02  3900   0.315E-01    0.268E-02
DAV:   2    -0.851511927159E+03   -0.25849E-04   -0.37690E-04  3840   0.403E-02    0.230E-02
DAV:   3    -0.851511922635E+03    0.45246E-05   -0.11068E-05  4560   0.779E-03    0.172E-02
DAV:   4    -0.851511923904E+03   -0.12688E-05   -0.14589E-05  3720   0.940E-03    0.478E-03
DAV:   5    -0.851511924391E+03   -0.48755E-06   -0.37789E-06  3380   0.362E-03
  56 F= -.85941474E+03 E0= -.85941474E+03  d E =-.236042E-03  mag=    -0.0000
quench:  g(F)=  0.000E+00 g(S)=  0.000E+00 dE (1.order)= 0.000E+00
 bond charge predicted
       N       E                     dE             d eps       ncg     rms          rms(c)
DAV:   1    -0.851512218727E+03   -0.29482E-03   -0.31731E-02  3900   0.387E-01    0.329E-02
DAV:   2    -0.851512257677E+03   -0.38951E-04   -0.56897E-04  3840   0.495E-02    0.282E-02
DAV:   3    -0.851512250879E+03    0.67979E-05   -0.16541E-05  4580   0.954E-03    0.211E-02
DAV:   4    -0.851512252963E+03   -0.20834E-05   -0.22097E-05  3740   0.116E-02    0.580E-03
DAV:   5    -0.851512253692E+03   -0.72897E-06   -0.57624E-06  3680   0.445E-03
  57 F= -.85941502E+03 E0= -.85941502E+03  d E =-.282806E-03  mag=    -0.0000
quench:  g(F)=  0.000E+00 g(S)=  0.000E+00 dE (1.order)= 0.000E+00
 bond charge predicted
       N       E                     dE             d eps       ncg     rms          rms(c)
DAV:   1    -0.851512597442E+03   -0.34448E-03   -0.46757E-02  3900   0.470E-01    0.398E-02
DAV:   2    -0.851512654523E+03   -0.57081E-04   -0.83404E-04  3840   0.600E-02    0.341E-02
DAV:   3    -0.851512644595E+03    0.99277E-05   -0.24089E-05  4560   0.115E-02    0.255E-02
DAV:   4    -0.851512647784E+03   -0.31895E-05   -0.32737E-05  3880   0.141E-02    0.689E-03
DAV:   5    -0.851512648827E+03   -0.10422E-05   -0.83099E-06  4200   0.539E-03    0.398E-03
DAV:   6    -0.851512648882E+03   -0.54999E-07   -0.13551E-06  2720   0.316E-03
  58 F= -.85941536E+03 E0= -.85941536E+03  d E =-.339047E-03  mag=    -0.0000
quench:  g(F)=  0.000E+00 g(S)=  0.000E+00 dE (1.order)= 0.000E+00
 bond charge predicted
       N       E                     dE             d eps       ncg     rms          rms(c)
DAV:   1    -0.851513055519E+03   -0.40669E-03   -0.68833E-02  3920   0.570E-01    0.479E-02
DAV:   2    -0.851513138254E+03   -0.82735E-04   -0.12193E-03  3840   0.726E-02    0.412E-02
DAV:   3    -0.851513122695E+03    0.15559E-04   -0.36054E-05  4560   0.141E-02    0.305E-02
DAV:   4    -0.851513126110E+03   -0.34154E-05   -0.48887E-05  3940   0.170E-02    0.832E-03
DAV:   5    -0.851513127516E+03   -0.14057E-05   -0.12469E-05  4260   0.660E-03    0.472E-03
DAV:   6    -0.851513127697E+03   -0.18133E-06   -0.18917E-06  3080   0.358E-03
  59 F= -.85941577E+03 E0= -.85941577E+03  d E =-.410423E-03  mag=    -0.0000
quench:  g(F)=  0.000E+00 g(S)=  0.000E+00 dE (1.order)= 0.000E+00
 bond charge predicted
       N       E                     dE             d eps       ncg     rms          rms(c)
DAV:   1    -0.851513589263E+03   -0.46175E-03   -0.10179E-01  3920   0.693E-01    0.583E-02
DAV:   2    -0.851513711048E+03   -0.12179E-03   -0.17992E-03  3860   0.881E-02    0.501E-02
DAV:   3    -0.851513688098E+03    0.22950E-04   -0.53605E-05  4540   0.172E-02    0.370E-02
DAV:   4    -0.851513693169E+03   -0.50713E-05   -0.71260E-05  4040   0.205E-02    0.101E-02
DAV:   5    -0.851513695366E+03   -0.21970E-05   -0.18164E-05  4240   0.801E-03    0.568E-03
DAV:   6    -0.851513695645E+03   -0.27897E-06   -0.27777E-06  3260   0.427E-03
  60 F= -.85941625E+03 E0= -.85941625E+03  d E =-.484973E-03  mag=    -0.0000
quench:  g(F)=  0.000E+00 g(S)=  0.000E+00 dE (1.order)= 0.000E+00
 bond charge predicted
       N       E                     dE             d eps       ncg     rms          rms(c)
DAV:   1    -0.851514223292E+03   -0.52793E-03   -0.14676E-01  3880   0.830E-01    0.697E-02
DAV:   2    -0.851514400417E+03   -0.17713E-03   -0.25996E-03  3880   0.106E-01    0.603E-02
DAV:   3    -0.851514367356E+03    0.33061E-04   -0.78549E-05  4560   0.209E-02    0.447E-02
DAV:   4    -0.851514373566E+03   -0.62103E-05   -0.10662E-04  4260   0.248E-02    0.122E-02
DAV:   5    -0.851514376534E+03   -0.29674E-05   -0.25340E-05  4260   0.968E-03    0.685E-03
DAV:   6    -0.851514376970E+03   -0.43661E-06   -0.39804E-06  3480   0.505E-03
  61 F= -.85941684E+03 E0= -.85941684E+03  d E =-.584265E-03  mag=    -0.0000
quench:  g(F)=  0.000E+00 g(S)=  0.000E+00 dE (1.order)= 0.000E+00
 bond charge predicted
       N       E                     dE             d eps       ncg     rms          rms(c)
DAV:   1    -0.851514965131E+03   -0.58860E-03   -0.21412E-01  3920   0.100E+00    0.843E-02
DAV:   2    -0.851515217368E+03   -0.25224E-03   -0.37272E-03  3880   0.127E-01    0.729E-02
DAV:   3    -0.851515168657E+03    0.48711E-04   -0.11241E-04  4520   0.251E-02    0.538E-02
DAV:   4    -0.851515177296E+03   -0.86392E-05   -0.15595E-04  4420   0.300E-02    0.145E-02
DAV:   5    -0.851515181153E+03   -0.38573E-05   -0.36958E-05  4200   0.117E-02    0.821E-03
DAV:   6    -0.851515181902E+03   -0.74903E-06   -0.57427E-06  3640   0.599E-03
  62 F= -.85941753E+03 E0= -.85941753E+03  d E =-.690445E-03  mag=    -0.0000
quench:  g(F)=  0.000E+00 g(S)=  0.000E+00 dE (1.order)= 0.000E+00
 bond charge predicted
       N       E                     dE             d eps       ncg     rms          rms(c)
DAV:   1    -0.851515822987E+03   -0.64183E-03   -0.30876E-01  3920   0.120E+00    0.102E-01
DAV:   2    -0.851516179326E+03   -0.35634E-03   -0.53227E-03  3880   0.151E-01    0.884E-02
DAV:   3    -0.851516108121E+03    0.71205E-04   -0.16455E-04  4540   0.304E-02    0.652E-02
DAV:   4    -0.851516118263E+03   -0.10142E-04   -0.22449E-04  4500   0.361E-02    0.179E-02
DAV:   5    -0.851516124443E+03   -0.61797E-05   -0.53738E-05  4240   0.140E-02    0.100E-02
DAV:   6    -0.851516125434E+03   -0.99102E-06   -0.83718E-06  3620   0.735E-03
  63 F= -.85941834E+03 E0= -.85941834E+03  d E =-.808893E-03  mag=    -0.0000
quench:  g(F)=  0.000E+00 g(S)=  0.000E+00 dE (1.order)= 0.000E+00
 bond charge predicted
       N       E                     dE             d eps       ncg     rms          rms(c)
DAV:   1    -0.851516744759E+03   -0.62032E-03   -0.45044E-01  3920   0.146E+00    0.124E-01
DAV:   2    -0.851517271469E+03   -0.52671E-03   -0.78469E-03  3900   0.184E-01    0.107E-01
DAV:   3    -0.851517169026E+03    0.10244E-03   -0.24060E-04  4560   0.367E-02    0.793E-02
DAV:   4    -0.851517182532E+03   -0.13505E-04   -0.32466E-04  4520   0.439E-02    0.220E-02
DAV:   5    -0.851517192758E+03   -0.10226E-04   -0.76872E-05  4240   0.168E-02    0.123E-02
DAV:   6    -0.851517193984E+03   -0.12258E-05   -0.12924E-05  3740   0.946E-03    0.500E-03
DAV:   7    -0.851517194530E+03   -0.54591E-06   -0.33919E-06  4340   0.391E-03
  64 F= -.85941924E+03 E0= -.85941924E+03  d E =-.901451E-03  mag=     0.0000
quench:  g(F)=  0.000E+00 g(S)=  0.000E+00 dE (1.order)= 0.000E+00
 bond charge predicted
       N       E                     dE             d eps       ncg     rms          rms(c)
DAV:   1    -0.851517785937E+03   -0.59195E-03   -0.63547E-01  3920   0.173E+00    0.148E-01
DAV:   2    -0.851518521314E+03   -0.73538E-03   -0.10979E-02  3920   0.218E-01    0.128E-01
DAV:   3    -0.851518372970E+03    0.14834E-03   -0.34695E-04  4580   0.437E-02    0.944E-02
DAV:   4    -0.851518381232E+03   -0.82626E-05   -0.43130E-04  4540   0.504E-02    0.270E-02
DAV:   5    -0.851518398416E+03   -0.17184E-04   -0.10797E-04  4260   0.196E-02    0.143E-02
DAV:   6    -0.851518399813E+03   -0.13964E-05   -0.17305E-05  3940   0.109E-02    0.595E-03
DAV:   7    -0.851518400692E+03   -0.87939E-06   -0.49428E-06  4440   0.469E-03
  65 F= -.85942026E+03 E0= -.85942026E+03  d E =-.101705E-02  mag=    -0.0000
quench:  g(F)=  0.000E+00 g(S)=  0.000E+00 dE (1.order)= 0.000E+00
 bond charge predicted
       N       E                     dE             d eps       ncg     rms          rms(c)
DAV:   1    -0.851518937698E+03   -0.53788E-03   -0.89114E-01  3920   0.205E+00    0.175E-01
DAV:   2    -0.851519976825E+03   -0.10391E-02   -0.15325E-02  3900   0.257E-01    0.151E-01
DAV:   3    -0.851519767436E+03    0.20939E-03   -0.48404E-04  4600   0.520E-02    0.111E-01
DAV:   4    -0.851519764780E+03    0.26554E-05   -0.60021E-04  4540   0.590E-02    0.323E-02
DAV:   5    -0.851519788360E+03   -0.23580E-04   -0.15184E-04  4240   0.233E-02    0.168E-02
DAV:   6    -0.851519790485E+03   -0.21251E-05   -0.24033E-05  4080   0.125E-02    0.708E-03
DAV:   7    -0.851519791714E+03   -0.12286E-05   -0.62165E-06  4440   0.524E-03    0.438E-03
DAV:   8    -0.851519791675E+03    0.39225E-07   -0.15076E-06  3060   0.446E-03
  66 F= -.85942144E+03 E0= -.85942144E+03  d E =-.118250E-02  mag=    -0.0000
quench:  g(F)=  0.000E+00 g(S)=  0.000E+00 dE (1.order)= 0.000E+00
 bond charge predicted
       N       E                     dE             d eps       ncg     rms          rms(c)
DAV:   1    -0.851520023537E+03   -0.23182E-03   -0.12636E+00  3920   0.244E+00    0.206E-01
DAV:   2    -0.851521543414E+03   -0.15199E-02   -0.21931E-02  3920   0.308E-01    0.180E-01
DAV:   3    -0.851521247013E+03    0.29640E-03   -0.67860E-04  4680   0.618E-02    0.134E-01
DAV:   4    -0.851521219015E+03    0.27998E-04   -0.91843E-04  4580   0.739E-02    0.377E-02
DAV:   5    -0.851521248096E+03   -0.29082E-04   -0.22631E-04  4220   0.286E-02    0.209E-02
DAV:   6    -0.851521251265E+03   -0.31689E-05   -0.34025E-05  4140   0.150E-02    0.869E-03
DAV:   7    -0.851521252432E+03   -0.11672E-05   -0.93449E-06  4540   0.654E-03    0.563E-03
DAV:   8    -0.851521252453E+03   -0.20533E-07   -0.27259E-06  3560   0.574E-03
  67 F= -.85942262E+03 E0= -.85942262E+03  d E =-.118360E-02  mag=    -0.0000
quench:  g(F)=  0.000E+00 g(S)=  0.000E+00 dE (1.order)= 0.000E+00
 bond charge predicted
       N       E                     dE             d eps       ncg     rms          rms(c)
DAV:   1    -0.851520457033E+03    0.79540E-03   -0.17153E+00  3900   0.285E+00    0.245E-01
DAV:   2    -0.851522544402E+03   -0.20874E-02   -0.30385E-02  4020   0.363E-01    0.216E-01
DAV:   3    -0.851522116774E+03    0.42763E-03   -0.10792E-03  4800   0.745E-02    0.163E-01
DAV:   4    -0.851521983307E+03    0.13347E-03   -0.11301E-03  4520   0.833E-02    0.527E-02
DAV:   5    -0.851522044889E+03   -0.61582E-04   -0.33370E-04  4280   0.337E-02    0.261E-02
DAV:   6    -0.851522046816E+03   -0.19266E-05   -0.50707E-05  4080   0.189E-02    0.107E-02
DAV:   7    -0.851522048620E+03   -0.18039E-05   -0.13369E-05  4480   0.760E-03    0.699E-03
DAV:   8    -0.851522048496E+03    0.12364E-06   -0.38311E-06  3920   0.676E-03
  68 F= -.85942311E+03 E0= -.85942311E+03  d E =-.493211E-03  mag=    -0.0000
quench:  g(F)=  0.000E+00 g(S)=  0.000E+00 dE (1.order)= 0.000E+00
 bond charge predicted
       N       E                     dE             d eps       ncg     rms          rms(c)
DAV:   1    -0.851523176294E+03   -0.11277E-02   -0.54866E-02  3860   0.542E-01    0.537E-02
DAV:   2    -0.851523277557E+03   -0.10126E-03   -0.14421E-03  4700   0.786E-02    0.490E-02
DAV:   3    -0.851523250633E+03    0.26924E-04   -0.72583E-05  4940   0.178E-02    0.376E-02
DAV:   4    -0.851523225574E+03    0.25060E-04   -0.50743E-05  4060   0.173E-02    0.162E-02
DAV:   5    -0.851523224543E+03    0.10306E-05   -0.18074E-05  4260   0.878E-03    0.639E-03
DAV:   6    -0.851523224726E+03   -0.18268E-06   -0.16222E-06  2660   0.292E-03
  69 F= -.85942429E+03 E0= -.85942429E+03  d E =-.117268E-02  mag=    -0.0000
quench:  g(F)=  0.000E+00 g(S)=  0.000E+00 dE (1.order)= 0.000E+00
 bond charge predicted
       N       E                     dE             d eps       ncg     rms          rms(c)
DAV:   1    -0.851522415021E+03    0.80952E-03   -0.54102E-02  3840   0.538E-01    0.516E-02
DAV:   2    -0.851522516506E+03   -0.10148E-03   -0.13918E-03  4740   0.771E-02    0.472E-02
DAV:   3    -0.851522493656E+03    0.22850E-04   -0.63869E-05  4940   0.168E-02    0.369E-02
DAV:   4    -0.851522471259E+03    0.22396E-04   -0.52107E-05  4140   0.175E-02    0.153E-02
DAV:   5    -0.851522470959E+03    0.30075E-06   -0.16499E-05  4160   0.827E-03    0.670E-03
DAV:   6    -0.851522471210E+03   -0.25158E-06   -0.15886E-06  2640   0.295E-03
  70 F= -.85942352E+03 E0= -.85942352E+03  d E =0.767522E-03  mag=    -0.0000
quench:  g(F)=  0.000E+00 g(S)=  0.000E+00 dE (1.order)= 0.000E+00
 bond charge predicted
       N       E                     dE             d eps       ncg     rms          rms(c)
DAV:   1    -0.851522852299E+03   -0.38134E-03   -0.26432E-03  3860   0.119E-01    0.118E-02
DAV:   2    -0.851522856839E+03   -0.45401E-05   -0.69958E-05  4720   0.173E-02    0.109E-02
DAV:   3    -0.851522855355E+03    0.14843E-05   -0.31947E-06  3360   0.393E-03    0.843E-03
DAV:   4    -0.851522853844E+03    0.15103E-05   -0.39041E-06  3260   0.460E-03    0.331E-03
DAV:   5    -0.851522853786E+03    0.58761E-07   -0.80846E-07  2160   0.195E-03
  71 F= -.85942390E+03 E0= -.85942390E+03  d E =-.381539E-03  mag=    -0.0000
quench:  g(F)=  0.000E+00 g(S)=  0.000E+00 dE (1.order)= 0.000E+00
 bond charge predicted
       N       E                     dE             d eps       ncg     rms          rms(c)
DAV:   1    -0.851523267681E+03   -0.41384E-03   -0.82413E-03  3860   0.210E-01    0.207E-02
DAV:   2    -0.851523283041E+03   -0.15361E-04   -0.21616E-04  4740   0.303E-02    0.188E-02
DAV:   3    -0.851523279148E+03    0.38938E-05   -0.10538E-05  4860   0.680E-03    0.145E-02
DAV:   4    -0.851523275551E+03    0.35968E-05   -0.71958E-06  3880   0.652E-03    0.636E-03
DAV:   5    -0.851523275349E+03    0.20147E-06   -0.24828E-06  2660   0.335E-03
  72 F= -.85942432E+03 E0= -.85942432E+03  d E =-.419130E-03  mag=     0.0000
quench:  g(F)=  0.000E+00 g(S)=  0.000E+00 dE (1.order)= 0.000E+00
 bond charge predicted
       N       E                     dE             d eps       ncg     rms          rms(c)
DAV:   1    -0.851523359214E+03   -0.83663E-04   -0.11728E-02  3860   0.250E-01    0.245E-02
DAV:   2    -0.851523381274E+03   -0.22061E-04   -0.30566E-04  4680   0.361E-02    0.223E-02
DAV:   3    -0.851523376080E+03    0.51948E-05   -0.15063E-05  4920   0.808E-03    0.173E-02
DAV:   4    -0.851523371103E+03    0.49770E-05   -0.10327E-05  3960   0.783E-03    0.750E-03
DAV:   5    -0.851523370877E+03    0.22523E-06   -0.35167E-06  2880   0.395E-03
  73 F= -.85942441E+03 E0= -.85942441E+03  d E =-.910731E-04  mag=    -0.0000
quench:  g(F)=  0.000E+00 g(S)=  0.000E+00 dE (1.order)= 0.000E+00
 bond charge predicted
       N       E                     dE             d eps       ncg     rms          rms(c)
DAV:   1    -0.851523376770E+03   -0.56674E-05   -0.10606E-05  3680   0.744E-03    0.165E-03
DAV:   2    -0.851523376760E+03    0.99171E-08   -0.37668E-07  2160   0.139E-03
  74 F= -.85942442E+03 E0= -.85942442E+03  d E =-.553801E-05  mag=    -0.0000
quench:  g(F)=  0.000E+00 g(S)=  0.000E+00 dE (1.order)= 0.000E+00
 bond charge predicted
       N       E                     dE             d eps       ncg     rms          rms(c)
DAV:   1    -0.851523387594E+03   -0.10824E-04   -0.35060E-05  3960   0.136E-02    0.163E-03
DAV:   2    -0.851523387625E+03   -0.30872E-07   -0.68965E-07  2160   0.186E-03
  75 F= -.85942443E+03 E0= -.85942443E+03  d E =-.101655E-04  mag=    -0.0000
quench:  g(F)=  0.000E+00 g(S)=  0.000E+00 dE (1.order)= 0.000E+00
 bond charge predicted
       N       E                     dE             d eps       ncg     rms          rms(c)
DAV:   1    -0.851523401899E+03   -0.14305E-04   -0.75445E-05  3840   0.199E-02    0.259E-03
DAV:   2    -0.851523401964E+03   -0.64807E-07   -0.15390E-06  2500   0.273E-03
  76 F= -.85942444E+03 E0= -.85942444E+03  d E =-.132590E-04  mag=     0.0000
quench:  g(F)=  0.000E+00 g(S)=  0.000E+00 dE (1.order)= 0.000E+00
 bond charge predicted
       N       E                     dE             d eps       ncg     rms          rms(c)
DAV:   1    -0.851523417858E+03   -0.15959E-04   -0.12193E-04  3840   0.252E-02    0.341E-03
DAV:   2    -0.851523417964E+03   -0.10600E-06   -0.24449E-06  3320   0.338E-03
  77 F= -.85942446E+03 E0= -.85942446E+03  d E =-.145516E-04  mag=     0.0000
quench:  g(F)=  0.000E+00 g(S)=  0.000E+00 dE (1.order)= 0.000E+00
 bond charge predicted
       N       E                     dE             d eps       ncg     rms          rms(c)
DAV:   1    -0.851523433966E+03   -0.16108E-04   -0.17081E-04  3840   0.296E-02    0.408E-03
DAV:   2    -0.851523434109E+03   -0.14293E-06   -0.32646E-06  3180   0.389E-03
  78 F= -.85942447E+03 E0= -.85942447E+03  d E =-.142890E-04  mag=    -0.0000
quench:  g(F)=  0.000E+00 g(S)=  0.000E+00 dE (1.order)= 0.000E+00
 bond charge predicted
       N       E                     dE             d eps       ncg     rms          rms(c)
DAV:   1    -0.851523449309E+03   -0.15343E-04   -0.21653E-04  3840   0.331E-02    0.455E-03
DAV:   2    -0.851523449475E+03   -0.16583E-06   -0.39077E-06  3720   0.425E-03
  79 F= -.85942448E+03 E0= -.85942448E+03  d E =-.130642E-04  mag=     0.0000
quench:  g(F)=  0.000E+00 g(S)=  0.000E+00 dE (1.order)= 0.000E+00
 bond charge predicted
       N       E                     dE             d eps       ncg     rms          rms(c)
DAV:   1    -0.851523466178E+03   -0.16868E-04   -0.32069E-04  3860   0.398E-02    0.523E-03
DAV:   2    -0.851523466430E+03   -0.25243E-06   -0.56059E-06  3960   0.499E-03
  80 F= -.85942450E+03 E0= -.85942450E+03  d E =-.138720E-04  mag=    -0.0000
quench:  g(F)=  0.000E+00 g(S)=  0.000E+00 dE (1.order)= 0.000E+00
 bond charge predicted
       N       E                     dE             d eps       ncg     rms          rms(c)
DAV:   1    -0.851523486701E+03   -0.20524E-04   -0.46664E-04  3860   0.474E-02    0.630E-03
DAV:   2    -0.851523487000E+03   -0.29874E-06   -0.76409E-06  4080   0.582E-03
  81 F= -.85942451E+03 E0= -.85942451E+03  d E =-.166411E-04  mag=    -0.0000
quench:  g(F)=  0.000E+00 g(S)=  0.000E+00 dE (1.order)= 0.000E+00
 bond charge predicted
       N       E                     dE             d eps       ncg     rms          rms(c)
DAV:   1    -0.851523514201E+03   -0.27499E-04   -0.68276E-04  3860   0.568E-02    0.737E-03
DAV:   2    -0.851523514608E+03   -0.40769E-06   -0.10528E-05  4000   0.683E-03    0.639E-03
DAV:   3    -0.851523514405E+03    0.20377E-06   -0.70681E-07  2480   0.222E-03
  82 F= -.85942454E+03 E0= -.85942454E+03  d E =-.223039E-04  mag=    -0.0000
quench:  g(F)=  0.000E+00 g(S)=  0.000E+00 dE (1.order)= 0.000E+00
 bond charge predicted
       N       E                     dE             d eps       ncg     rms          rms(c)
DAV:   1    -0.851523551421E+03   -0.36813E-04   -0.10367E-03  3840   0.697E-02    0.616E-03
DAV:   2    -0.851523552554E+03   -0.11328E-05   -0.16246E-05  3940   0.835E-03    0.551E-03
DAV:   3    -0.851523552396E+03    0.15824E-06   -0.43568E-07  2180   0.167E-03
  83 F= -.85942457E+03 E0= -.85942457E+03  d E =-.316575E-04  mag=     0.0000
quench:  g(F)=  0.000E+00 g(S)=  0.000E+00 dE (1.order)= 0.000E+00
 bond charge predicted
       N       E                     dE             d eps       ncg     rms          rms(c)
DAV:   1    -0.851523600396E+03   -0.47842E-04   -0.16128E-03  3840   0.872E-02    0.767E-03
DAV:   2    -0.851523602133E+03   -0.17364E-05   -0.25406E-05  3980   0.104E-02    0.688E-03
DAV:   3    -0.851523601834E+03    0.29925E-06   -0.72016E-07  2560   0.213E-03
  84 F= -.85942461E+03 E0= -.85942461E+03  d E =-.414760E-04  mag=    -0.0000
quench:  g(F)=  0.000E+00 g(S)=  0.000E+00 dE (1.order)= 0.000E+00
 bond charge predicted
       N       E                     dE             d eps       ncg     rms          rms(c)
DAV:   1    -0.851523658870E+03   -0.56737E-04   -0.25134E-03  3860   0.109E-01    0.964E-03
DAV:   2    -0.851523661509E+03   -0.26386E-05   -0.38946E-05  4000   0.129E-02    0.870E-03
DAV:   3    -0.851523661013E+03    0.49531E-06   -0.12720E-06  2920   0.271E-03
  85 F= -.85942466E+03 E0= -.85942466E+03  d E =-.496273E-04  mag=    -0.0000
quench:  g(F)=  0.000E+00 g(S)=  0.000E+00 dE (1.order)= 0.000E+00
 bond charge predicted
       N       E                     dE             d eps       ncg     rms          rms(c)
DAV:   1    -0.851523724862E+03   -0.63353E-04   -0.38671E-03  3840   0.134E-01    0.119E-02
DAV:   2    -0.851523728960E+03   -0.40986E-05   -0.59993E-05  3980   0.159E-02    0.108E-02
DAV:   3    -0.851523728203E+03    0.75775E-06   -0.20404E-06  3240   0.337E-03
  86 F= -.85942471E+03 E0= -.85942471E+03  d E =-.556502E-04  mag=     0.0000
quench:  g(F)=  0.000E+00 g(S)=  0.000E+00 dE (1.order)= 0.000E+00
 bond charge predicted
       N       E                     dE             d eps       ncg     rms          rms(c)
DAV:   1    -0.851523803367E+03   -0.74406E-04   -0.58080E-03  3840   0.164E-01    0.145E-02
DAV:   2    -0.851523809390E+03   -0.60231E-05   -0.88246E-05  4030   0.193E-02    0.131E-02
DAV:   3    -0.851523808283E+03    0.11073E-05   -0.30357E-06  3640   0.409E-03    0.950E-03
DAV:   4    -0.851523808673E+03   -0.39000E-06   -0.46490E-06  3480   0.509E-03
  87 F= -.85942478E+03 E0= -.85942478E+03  d E =-.660644E-04  mag=    -0.0000
quench:  g(F)=  0.000E+00 g(S)=  0.000E+00 dE (1.order)= 0.000E+00
 bond charge predicted
       N       E                     dE             d eps       ncg     rms          rms(c)
DAV:   1    -0.851523904507E+03   -0.96224E-04   -0.89034E-03  3900   0.202E-01    0.173E-02
DAV:   2    -0.851523913695E+03   -0.91878E-05   -0.13654E-04  3900   0.242E-02    0.155E-02
DAV:   3    -0.851523911770E+03    0.19251E-05   -0.45062E-06  4000   0.508E-03    0.113E-02
DAV:   4    -0.851523912154E+03   -0.38479E-06   -0.71007E-06  3600   0.632E-03
  88 F= -.85942487E+03 E0= -.85942487E+03  d E =-.853028E-04  mag=     0.0000
quench:  g(F)=  0.000E+00 g(S)=  0.000E+00 dE (1.order)= 0.000E+00
 bond charge predicted
       N       E                     dE             d eps       ncg     rms          rms(c)
DAV:   1    -0.851524028109E+03   -0.11634E-03   -0.13357E-02  3900   0.247E-01    0.214E-02
DAV:   2    -0.851524041886E+03   -0.13777E-04   -0.20663E-04  3880   0.298E-02    0.192E-02
DAV:   3    -0.851524038911E+03    0.29747E-05   -0.70717E-06  4460   0.632E-03    0.138E-02
DAV:   4    -0.851524039457E+03   -0.54618E-06   -0.98630E-06  3640   0.757E-03
  89 F= -.85942497E+03 E0= -.85942497E+03  d E =-.104132E-03  mag=     0.0000
quench:  g(F)=  0.000E+00 g(S)=  0.000E+00 dE (1.order)= 0.000E+00
 bond charge predicted
       N       E                     dE             d eps       ncg     rms          rms(c)
DAV:   1    -0.851524166805E+03   -0.12789E-03   -0.19897E-02  3880   0.302E-01    0.260E-02
DAV:   2    -0.851524187697E+03   -0.20892E-04   -0.31246E-04  3880   0.366E-02    0.234E-02
DAV:   3    -0.851524183350E+03    0.43475E-05   -0.10769E-05  4580   0.777E-03    0.169E-02
DAV:   4    -0.851524184208E+03   -0.85864E-06   -0.14798E-05  3640   0.929E-03    0.420E-03
DAV:   5    -0.851524184232E+03   -0.23327E-07   -0.47719E-06  3700   0.425E-03
  90 F= -.85942508E+03 E0= -.85942508E+03  d E =-.115363E-03  mag=    -0.0000
quench:  g(F)=  0.000E+00 g(S)=  0.000E+00 dE (1.order)= 0.000E+00
 bond charge predicted
       N       E                     dE             d eps       ncg     rms          rms(c)
DAV:   1    -0.851524334942E+03   -0.15073E-03   -0.29025E-02  3860   0.365E-01    0.302E-02
DAV:   2    -0.851524366703E+03   -0.31761E-04   -0.47040E-04  3880   0.447E-02    0.273E-02
DAV:   3    -0.851524360078E+03    0.66245E-05   -0.15797E-05  4620   0.937E-03    0.200E-02
DAV:   4    -0.851524360541E+03   -0.46263E-06   -0.22553E-05  3740   0.114E-02    0.508E-03
DAV:   5    -0.851524360595E+03   -0.54024E-07   -0.64266E-06  4060   0.496E-03
  91 F= -.85942523E+03 E0= -.85942523E+03  d E =-.140309E-03  mag=    -0.0000
quench:  g(F)=  0.000E+00 g(S)=  0.000E+00 dE (1.order)= 0.000E+00
 bond charge predicted
       N       E                     dE             d eps       ncg     rms          rms(c)
DAV:   1    -0.851524534994E+03   -0.17445E-03   -0.42901E-02  3880   0.444E-01    0.369E-02
DAV:   2    -0.851524582527E+03   -0.47534E-04   -0.70300E-04  3880   0.549E-02    0.332E-02
DAV:   3    -0.851524572825E+03    0.97025E-05   -0.23701E-05  4660   0.114E-02    0.246E-02
DAV:   4    -0.851524573204E+03   -0.37877E-06   -0.32607E-05  3880   0.138E-02    0.638E-03
DAV:   5    -0.851524573510E+03   -0.30611E-06   -0.89410E-06  4200   0.574E-03
  92 F= -.85942540E+03 E0= -.85942540E+03  d E =-.170453E-03  mag=    -0.0000
quench:  g(F)=  0.000E+00 g(S)=  0.000E+00 dE (1.order)= 0.000E+00
 bond charge predicted
       N       E                     dE             d eps       ncg     rms          rms(c)
DAV:   1    -0.851524756923E+03   -0.18372E-03   -0.63432E-02  3880   0.541E-01    0.452E-02
DAV:   2    -0.851524827919E+03   -0.70996E-04   -0.10506E-03  3880   0.672E-02    0.404E-02
DAV:   3    -0.851524813920E+03    0.13999E-04   -0.34910E-05  4680   0.137E-02    0.300E-02
DAV:   4    -0.851524814613E+03   -0.69338E-06   -0.47564E-05  4140   0.166E-02    0.788E-03
DAV:   5    -0.851524815263E+03   -0.65003E-06   -0.12214E-05  4240   0.673E-03    0.452E-03
DAV:   6    -0.851524815514E+03   -0.25084E-06   -0.15521E-06  2880   0.313E-03
  93 F= -.85942559E+03 E0= -.85942559E+03  d E =-.192898E-03  mag=     0.0000
quench:  g(F)=  0.000E+00 g(S)=  0.000E+00 dE (1.order)= 0.000E+00
 bond charge predicted
       N       E                     dE             d eps       ncg     rms          rms(c)
DAV:   1    -0.851525030209E+03   -0.21495E-03   -0.92334E-02  3840   0.654E-01    0.544E-02
DAV:   2    -0.851525135792E+03   -0.10558E-03   -0.15643E-03  3880   0.820E-02    0.487E-02
DAV:   3    -0.851525114633E+03    0.21158E-04   -0.52054E-05  4700   0.167E-02    0.363E-02
DAV:   4    -0.851525114592E+03    0.41648E-07   -0.70945E-05  4240   0.201E-02    0.969E-03
DAV:   5    -0.851525115673E+03   -0.10815E-05   -0.17575E-05  4230   0.808E-03    0.546E-03
DAV:   6    -0.851525116048E+03   -0.37446E-06   -0.22911E-06  3120   0.374E-03
  94 F= -.85942583E+03 E0= -.85942583E+03  d E =-.243938E-03  mag=    -0.0000
quench:  g(F)=  0.000E+00 g(S)=  0.000E+00 dE (1.order)= 0.000E+00
 bond charge predicted
       N       E                     dE             d eps       ncg     rms          rms(c)
DAV:   1    -0.851525351282E+03   -0.23561E-03   -0.13626E-01  3840   0.797E-01    0.662E-02
DAV:   2    -0.851525509527E+03   -0.15824E-03   -0.23386E-03  3900   0.101E-01    0.590E-02
DAV:   3    -0.851525478912E+03    0.30615E-04   -0.76140E-05  4560   0.203E-02    0.440E-02
DAV:   4    -0.851525479939E+03   -0.10270E-05   -0.10415E-04  4320   0.244E-02    0.119E-02
DAV:   5    -0.851525481732E+03   -0.17934E-05   -0.25501E-05  4180   0.976E-03    0.663E-03
DAV:   6    -0.851525482282E+03   -0.54984E-06   -0.34976E-06  3500   0.464E-03
  95 F= -.85942613E+03 E0= -.85942613E+03  d E =-.297802E-03  mag=     0.0000
quench:  g(F)=  0.000E+00 g(S)=  0.000E+00 dE (1.order)= 0.000E+00
 bond charge predicted
       N       E                     dE             d eps       ncg     rms          rms(c)
DAV:   1    -0.851525714318E+03   -0.23259E-03   -0.20134E-01  3840   0.974E-01    0.809E-02
DAV:   2    -0.851525956203E+03   -0.24189E-03   -0.35524E-03  3880   0.124E-01    0.713E-02
DAV:   3    -0.851525912597E+03    0.43607E-04   -0.11189E-04  4640   0.246E-02    0.535E-02
DAV:   4    -0.851525916306E+03   -0.37090E-05   -0.15008E-04  4400   0.297E-02    0.147E-02
DAV:   5    -0.851525919879E+03   -0.35727E-05   -0.36442E-05  4200   0.116E-02    0.820E-03
DAV:   6    -0.851525920530E+03   -0.65097E-06   -0.53763E-06  3620   0.595E-03
  96 F= -.85942648E+03 E0= -.85942648E+03  d E =-.352783E-03  mag=    -0.0000
quench:  g(F)=  0.000E+00 g(S)=  0.000E+00 dE (1.order)= 0.000E+00
 bond charge predicted
       N       E                     dE             d eps       ncg     rms          rms(c)
DAV:   1    -0.851526116876E+03   -0.19700E-03   -0.29323E-01  3840   0.118E+00    0.983E-02
DAV:   2    -0.851526478895E+03   -0.36202E-03   -0.52722E-03  3900   0.152E-01    0.859E-02
DAV:   3    -0.851526415956E+03    0.62939E-04   -0.16289E-04  4580   0.297E-02    0.647E-02
DAV:   4    -0.851526420653E+03   -0.46973E-05   -0.20946E-04  4440   0.354E-02    0.184E-02
DAV:   5    -0.851526427753E+03   -0.70996E-05   -0.51842E-05  4220   0.137E-02    0.999E-03
DAV:   6    -0.851526428465E+03   -0.71224E-06   -0.80844E-06  3660   0.754E-03
  97 F= -.85942689E+03 E0= -.85942689E+03  d E =-.407787E-03  mag=    -0.0000
quench:  g(F)=  0.000E+00 g(S)=  0.000E+00 dE (1.order)= 0.000E+00
 bond charge predicted
       N       E                     dE             d eps       ncg     rms          rms(c)
DAV:   1    -0.851526583816E+03   -0.15606E-03   -0.41985E-01  3880   0.141E+00    0.117E-01
DAV:   2    -0.851527103253E+03   -0.51944E-03   -0.74882E-03  3920   0.181E-01    0.102E-01
DAV:   3    -0.851527013550E+03    0.89703E-04   -0.22476E-04  4580   0.352E-02    0.769E-02
DAV:   4    -0.851527018426E+03   -0.48752E-05   -0.30713E-04  4520   0.428E-02    0.212E-02
DAV:   5    -0.851527027072E+03   -0.86460E-05   -0.73348E-05  4220   0.165E-02    0.118E-02
DAV:   6    -0.851527028337E+03   -0.12651E-05   -0.11709E-05  3720   0.895E-03    0.498E-03
DAV:   7    -0.851527028801E+03   -0.46437E-06   -0.32269E-06  4140   0.390E-03
  98 F= -.85942736E+03 E0= -.85942736E+03  d E =-.473071E-03  mag=    -0.0000
quench:  g(F)=  0.000E+00 g(S)=  0.000E+00 dE (1.order)= 0.000E+00
 bond charge predicted
       N       E                     dE             d eps       ncg     rms          rms(c)
DAV:   1    -0.851527082038E+03   -0.53701E-04   -0.59450E-01  3880   0.168E+00    0.141E-01
DAV:   2    -0.851527817238E+03   -0.73520E-03   -0.10582E-02  3960   0.216E-01    0.122E-01
DAV:   3    -0.851527686986E+03    0.13025E-03   -0.32762E-04  4680   0.422E-02    0.911E-02
DAV:   4    -0.851527679484E+03    0.75018E-05   -0.39932E-04  4560   0.484E-02    0.265E-02
DAV:   5    -0.851527695900E+03   -0.16415E-04   -0.10201E-04  4260   0.191E-02    0.138E-02
DAV:   6    -0.851527697228E+03   -0.13284E-05   -0.15929E-05  3940   0.101E-02    0.591E-03
DAV:   7    -0.851527697975E+03   -0.74723E-06   -0.41999E-06  4420   0.432E-03
  99 F= -.85942789E+03 E0= -.85942789E+03  d E =-.524160E-03  mag=     0.0000
quench:  g(F)=  0.000E+00 g(S)=  0.000E+00 dE (1.order)= 0.000E+00
 bond charge predicted
       N       E                     dE             d eps       ncg     rms          rms(c)
DAV:   1    -0.851527494876E+03    0.20235E-03   -0.82150E-01  3860   0.198E+00    0.164E-01
DAV:   2    -0.851528536076E+03   -0.10412E-02   -0.14720E-02  3960   0.254E-01    0.144E-01
DAV:   3    -0.851528356845E+03    0.17923E-03   -0.45129E-04  4700   0.496E-02    0.108E-01
DAV:   4    -0.851528336204E+03    0.20640E-04   -0.59757E-04  4600   0.595E-02    0.305E-02
DAV:   5    -0.851528353569E+03   -0.17365E-04   -0.14867E-04  4180   0.233E-02    0.167E-02
DAV:   6    -0.851528356559E+03   -0.29903E-05   -0.21215E-05  4160   0.116E-02    0.712E-03
DAV:   7    -0.851528357271E+03   -0.71163E-06   -0.54272E-06  4420   0.504E-03
 100 F= -.85942837E+03 E0= -.85942837E+03  d E =-.481475E-03  mag=     0.0000
quench:  g(F)=  0.000E+00 g(S)=  0.000E+00 dE (1.order)= 0.000E+00
 bond charge predicted
       N       E                     dE             d eps       ncg     rms          rms(c)
DAV:   1    -0.851527189925E+03    0.11666E-02   -0.11726E+00  3860   0.238E+00    0.201E-01
DAV:   2    -0.851528746284E+03   -0.15564E-02   -0.21855E-02  3980   0.310E-01    0.176E-01
DAV:   3    -0.851528477280E+03    0.26900E-03   -0.73161E-04  4860   0.611E-02    0.134E-01
DAV:   4    -0.851528386851E+03    0.90429E-04   -0.76291E-04  4540   0.683E-02    0.439E-02
DAV:   5    -0.851528426803E+03   -0.39952E-04   -0.22650E-04  4300   0.281E-02    0.214E-02
DAV:   6    -0.851528428231E+03   -0.14275E-05   -0.33460E-05  4200   0.148E-02    0.922E-03
DAV:   7    -0.851528429488E+03   -0.12568E-05   -0.84449E-06  4320   0.604E-03    0.571E-03
DAV:   8    -0.851528429489E+03   -0.94587E-09   -0.21980E-06  3340   0.521E-03
 101 F= -.85942826E+03 E0= -.85942826E+03  d E =0.111958E-03  mag=    -0.0000
quench:  g(F)=  0.000E+00 g(S)=  0.000E+00 dE (1.order)= 0.000E+00
 bond charge predicted
       N       E                     dE             d eps       ncg     rms          rms(c)
DAV:   1    -0.851529320035E+03   -0.89055E-03   -0.46689E-02  3920   0.498E-01    0.493E-02
DAV:   2    -0.851529406777E+03   -0.86742E-04   -0.12122E-03  4660   0.718E-02    0.455E-02
DAV:   3    -0.851529385704E+03    0.21073E-04   -0.55986E-05  5000   0.156E-02    0.357E-02
DAV:   4    -0.851529363394E+03    0.22310E-04   -0.47459E-05  3960   0.167E-02    0.146E-02
DAV:   5    -0.851529362886E+03    0.50743E-06   -0.15661E-05  4320   0.802E-03    0.604E-03
DAV:   6    -0.851529363020E+03   -0.13373E-06   -0.12311E-06  2480   0.263E-03
 102 F= -.85942919E+03 E0= -.85942919E+03  d E =-.930578E-03  mag=    -0.0000
quench:  g(F)=  0.000E+00 g(S)=  0.000E+00 dE (1.order)= 0.000E+00
 bond charge predicted
       N       E                     dE             d eps       ncg     rms          rms(c)
DAV:   1    -0.851528665202E+03    0.69768E-03   -0.42049E-02  3840   0.474E-01    0.452E-02
DAV:   2    -0.851528746025E+03   -0.80823E-04   -0.10832E-03  4660   0.683E-02    0.418E-02
DAV:   3    -0.851528730373E+03    0.15652E-04   -0.45887E-05  4940   0.142E-02    0.337E-02
DAV:   4    -0.851528712347E+03    0.18026E-04   -0.43219E-05  4000   0.160E-02    0.133E-02
DAV:   5    -0.851528712426E+03   -0.78522E-07   -0.13413E-05  4300   0.738E-03    0.604E-03
DAV:   6    -0.851528712562E+03   -0.13643E-06   -0.11626E-06  2420   0.255E-03
 103 F= -.85942853E+03 E0= -.85942853E+03  d E =0.660622E-03  mag=    -0.0000
quench:  g(F)=  0.000E+00 g(S)=  0.000E+00 dE (1.order)= 0.000E+00
 bond charge predicted
       N       E                     dE             d eps       ncg     rms          rms(c)
DAV:   1    -0.851529039853E+03   -0.32743E-03   -0.23765E-03  3880   0.112E-01    0.112E-02
DAV:   2    -0.851529043998E+03   -0.41451E-05   -0.62567E-05  4680   0.163E-02    0.105E-02
DAV:   3    -0.851529042787E+03    0.12117E-05   -0.26892E-06  3160   0.358E-03    0.829E-03
DAV:   4    -0.851529041369E+03    0.14173E-05   -0.42622E-06  3600   0.472E-03    0.306E-03
DAV:   5    -0.851529041338E+03    0.30712E-07   -0.70186E-07  2160   0.182E-03
 104 F= -.85942886E+03 E0= -.85942886E+03  d E =-.328657E-03  mag=    -0.0000
quench:  g(F)=  0.000E+00 g(S)=  0.000E+00 dE (1.order)= 0.000E+00
 bond charge predicted
       N       E                     dE             d eps       ncg     rms          rms(c)
DAV:   1    -0.851529380923E+03   -0.33955E-03   -0.72778E-03  3880   0.197E-01    0.193E-02
DAV:   2    -0.851529394451E+03   -0.13528E-04   -0.18868E-04  4680   0.283E-02    0.178E-02
DAV:   3    -0.851529391297E+03    0.31545E-05   -0.87616E-06  4880   0.615E-03    0.140E-02
DAV:   4    -0.851529388018E+03    0.32788E-05   -0.66568E-06  3840   0.626E-03    0.607E-03
DAV:   5    -0.851529387859E+03    0.15870E-06   -0.22903E-06  2700   0.321E-03
 105 F= -.85942920E+03 E0= -.85942920E+03  d E =-.346186E-03  mag=    -0.0000
quench:  g(F)=  0.000E+00 g(S)=  0.000E+00 dE (1.order)= 0.000E+00
 bond charge predicted
       N       E                     dE             d eps       ncg     rms          rms(c)
DAV:   1    -0.851529422730E+03   -0.34712E-04   -0.10113E-02  3860   0.232E-01    0.226E-02
DAV:   2    -0.851529441962E+03   -0.19232E-04   -0.26161E-04  4660   0.334E-02    0.208E-02
DAV:   3    -0.851529437933E+03    0.40297E-05   -0.11762E-05  4980   0.709E-03    0.166E-02
DAV:   4    -0.851529433517E+03    0.44157E-05   -0.92537E-06  3920   0.741E-03    0.707E-03
DAV:   5    -0.851529433370E+03    0.14694E-06   -0.32306E-06  2920   0.379E-03
 106 F= -.85942925E+03 E0= -.85942925E+03  d E =-.447199E-04  mag=    -0.0000
quench:  g(F)=  0.000E+00 g(S)=  0.000E+00 dE (1.order)= 0.000E+00
 bond charge predicted
       N       E                     dE             d eps       ncg     rms          rms(c)
DAV:   1    -0.851529439325E+03   -0.58079E-05   -0.11799E-05  3740   0.788E-03    0.160E-03
DAV:   2    -0.851529439316E+03    0.84692E-08   -0.39893E-07  2160   0.143E-03
 107 F= -.85942925E+03 E0= -.85942925E+03  d E =-.582110E-05  mag=     0.0000
quench:  g(F)=  0.000E+00 g(S)=  0.000E+00 dE (1.order)= 0.000E+00
 bond charge predicted
       N       E                     dE             d eps       ncg     rms          rms(c)
DAV:   1    -0.851529449795E+03   -0.10470E-04   -0.39824E-05  3920   0.146E-02    0.175E-03
DAV:   2    -0.851529449835E+03   -0.39880E-07   -0.83935E-07  2180   0.208E-03
 108 F= -.85942926E+03 E0= -.85942926E+03  d E =-.102580E-04  mag=    -0.0000
quench:  g(F)=  0.000E+00 g(S)=  0.000E+00 dE (1.order)= 0.000E+00
 bond charge predicted
       N       E                     dE             d eps       ncg     rms          rms(c)
DAV:   1    -0.851529462943E+03   -0.13148E-04   -0.84371E-05  3860   0.212E-02    0.283E-03
DAV:   2    -0.851529463032E+03   -0.89072E-07   -0.19232E-06  3040   0.305E-03
 109 F= -.85942928E+03 E0= -.85942928E+03  d E =-.127831E-04  mag=    -0.0000
quench:  g(F)=  0.000E+00 g(S)=  0.000E+00 dE (1.order)= 0.000E+00
 bond charge predicted
       N       E                     dE             d eps       ncg     rms          rms(c)
DAV:   1    -0.851529476379E+03   -0.13436E-04   -0.13458E-04  3840   0.267E-02    0.382E-03
DAV:   2    -0.851529476481E+03   -0.10175E-06   -0.28710E-06  3480   0.372E-03
 110 F= -.85942929E+03 E0= -.85942929E+03  d E =-.128588E-04  mag=     0.0000
quench:  g(F)=  0.000E+00 g(S)=  0.000E+00 dE (1.order)= 0.000E+00
 bond charge predicted
       N       E                     dE             d eps       ncg     rms          rms(c)
DAV:   1    -0.851529488188E+03   -0.11810E-04   -0.18266E-04  3840   0.310E-02    0.445E-03
DAV:   2    -0.851529488336E+03   -0.14732E-06   -0.38467E-06  3820   0.424E-03
 111 F= -.85942930E+03 E0= -.85942930E+03  d E =-.110420E-04  mag=     0.0000
quench:  g(F)=  0.000E+00 g(S)=  0.000E+00 dE (1.order)= 0.000E+00
 bond charge predicted
       N       E                     dE             d eps       ncg     rms          rms(c)
DAV:   1    -0.851529497563E+03   -0.93748E-05   -0.22482E-04  3840   0.342E-02    0.498E-03
DAV:   2    -0.851529497739E+03   -0.17603E-06   -0.46862E-06  4420   0.461E-03
 112 F= -.85942931E+03 E0= -.85942931E+03  d E =-.835696E-05  mag=    -0.0000
quench:  g(F)=  0.000E+00 g(S)=  0.000E+00 dE (1.order)= 0.000E+00
 bond charge predicted
       N       E                     dE             d eps       ncg     rms          rms(c)
DAV:   1    -0.851529505817E+03   -0.82537E-05   -0.31607E-04  3840   0.402E-02    0.564E-03
DAV:   2    -0.851529506053E+03   -0.23651E-06   -0.62654E-06  4380   0.532E-03
 113 F= -.85942932E+03 E0= -.85942932E+03  d E =-.690047E-05  mag=    -0.0000
quench:  g(F)=  0.000E+00 g(S)=  0.000E+00 dE (1.order)= 0.000E+00
 bond charge predicted
       N       E                     dE             d eps       ncg     rms          rms(c)
DAV:   1    -0.851529514829E+03   -0.90120E-05   -0.43265E-04  3840   0.465E-02    0.640E-03
DAV:   2    -0.851529515102E+03   -0.27323E-06   -0.80888E-06  4320   0.605E-03
 114 F= -.85942932E+03 E0= -.85942932E+03  d E =-.720595E-05  mag=     0.0000
quench:  g(F)=  0.000E+00 g(S)=  0.000E+00 dE (1.order)= 0.000E+00
 bond charge predicted
       N       E                     dE             d eps       ncg     rms          rms(c)
DAV:   1    -0.851529528090E+03   -0.13262E-04   -0.60275E-04  3860   0.543E-02    0.723E-03
DAV:   2    -0.851529528440E+03   -0.34933E-06   -0.10609E-05  3980   0.694E-03    0.613E-03
DAV:   3    -0.851529528327E+03    0.11253E-06   -0.54499E-07  2410   0.198E-03
 115 F= -.85942933E+03 E0= -.85942933E+03  d E =-.108303E-04  mag=    -0.0000
quench:  g(F)=  0.000E+00 g(S)=  0.000E+00 dE (1.order)= 0.000E+00
 bond charge predicted
       N       E                     dE             d eps       ncg     rms          rms(c)
DAV:   1    -0.851529548937E+03   -0.20497E-04   -0.88521E-04  3860   0.656E-02    0.569E-03
DAV:   2    -0.851529549990E+03   -0.10536E-05   -0.15455E-05  3900   0.825E-03    0.485E-03
DAV:   3    -0.851529549865E+03    0.12474E-06   -0.32262E-07  1980   0.148E-03
 116 F= -.85942935E+03 E0= -.85942935E+03  d E =-.185624E-04  mag=     0.0000
quench:  g(F)=  0.000E+00 g(S)=  0.000E+00 dE (1.order)= 0.000E+00
 bond charge predicted
       N       E                     dE             d eps       ncg     rms          rms(c)
DAV:   1    -0.851529579048E+03   -0.29058E-04   -0.13752E-03  3840   0.821E-02    0.705E-03
DAV:   2    -0.851529580732E+03   -0.16835E-05   -0.24736E-05  3940   0.104E-02    0.607E-03
DAV:   3    -0.851529580498E+03    0.23419E-06   -0.56320E-07  2440   0.192E-03
 117 F= -.85942938E+03 E0= -.85942938E+03  d E =-.269627E-04  mag=    -0.0000
quench:  g(F)=  0.000E+00 g(S)=  0.000E+00 dE (1.order)= 0.000E+00
 bond charge predicted
       N       E                     dE             d eps       ncg     rms          rms(c)
DAV:   1    -0.851529613515E+03   -0.32783E-04   -0.21723E-03  3840   0.103E-01    0.898E-03
DAV:   2    -0.851529616233E+03   -0.27186E-05   -0.39745E-05  4000   0.132E-02    0.778E-03
DAV:   3    -0.851529615829E+03    0.40395E-06   -0.94479E-07  2620   0.246E-03
 118 F= -.85942941E+03 E0= -.85942941E+03  d E =-.305537E-04  mag=    -0.0000
quench:  g(F)=  0.000E+00 g(S)=  0.000E+00 dE (1.order)= 0.000E+00
 bond charge predicted
       N       E                     dE             d eps       ncg     rms          rms(c)
DAV:   1    -0.851529648434E+03   -0.32200E-04   -0.33174E-03  3860   0.128E-01    0.112E-02
DAV:   2    -0.851529652448E+03   -0.40139E-05   -0.59316E-05  3920   0.162E-02    0.964E-03
DAV:   3    -0.851529651864E+03    0.58411E-06   -0.15632E-06  3100   0.303E-03
 119 F= -.85942944E+03 E0= -.85942944E+03  d E =-.298064E-04  mag=    -0.0000
quench:  g(F)=  0.000E+00 g(S)=  0.000E+00 dE (1.order)= 0.000E+00
 bond charge predicted
       N       E                     dE             d eps       ncg     rms          rms(c)
DAV:   1    -0.851529689269E+03   -0.36821E-04   -0.48856E-03  3840   0.154E-01    0.135E-02
DAV:   2    -0.851529695068E+03   -0.57994E-05   -0.86025E-05  3860   0.195E-02    0.116E-02
DAV:   3    -0.851529694268E+03    0.80066E-06   -0.22419E-06  3380   0.362E-03
 120 F= -.85942947E+03 E0= -.85942947E+03  d E =-.342693E-04  mag=    -0.0000
quench:  g(F)=  0.000E+00 g(S)=  0.000E+00 dE (1.order)= 0.000E+00
 bond charge predicted
       N       E                     dE             d eps       ncg     rms          rms(c)
DAV:   1    -0.851529745580E+03   -0.50512E-04   -0.71706E-03  3840   0.186E-01    0.163E-02
DAV:   2    -0.851529753988E+03   -0.84080E-05   -0.12453E-04  3840   0.234E-02    0.140E-02
DAV:   3    -0.851529752856E+03    0.11320E-05   -0.32759E-06  3640   0.436E-03    0.105E-02
DAV:   4    -0.851529754038E+03   -0.11818E-05   -0.52519E-06  3440   0.549E-03    0.250E-03
DAV:   5    -0.851529754099E+03   -0.61045E-07   -0.13248E-06  2560   0.228E-03
 121 F= -.85942952E+03 E0= -.85942952E+03  d E =-.493832E-04  mag=     0.0000
quench:  g(F)=  0.000E+00 g(S)=  0.000E+00 dE (1.order)= 0.000E+00
 reached required accuracy - stopping structural energy minimisation
