<?xml version="1.0" encoding="ISO-8859-1"?>
<modeling>
 <generator>
  <i name="program" type="string">vasp </i>
  <i name="version" type="string">6.4.2  </i>
  <i name="subversion" type="string">20Jul23 (build Aug 26 2025 15:10:52) complex                          parallel </i>
  <i name="platform" type="string">LinuxIFC </i>
  <i name="date" type="string">2025 12 02 </i>
  <i name="time" type="string">12:36:20 </i>
 </generator>
 <incar>
  <i type="int" name="ISTART">     0</i>
  <i type="string" name="ALGO">Normal</i>
  <i type="logical" name="ADDGRID"> T  </i>
  <i type="int" name="ISPIN">     2</i>
  <i type="int" name="IMIX">     4</i>
  <i name="AMIX">      0.20000000</i>
  <i name="BMIX">      0.00010000</i>
  <i name="AMIX_MAG">      0.80000000</i>
  <i name="BMIX_MAG">      0.00010000</i>
  <i type="int" name="ICHARG">     2</i>
  <i type="int" name="NELM">   200</i>
  <i type="int" name="IBRION">     3</i>
  <i name="EDIFF">      0.00000100</i>
  <i name="EDIFFG">     -0.03000000</i>
  <i type="int" name="NSW">   500</i>
  <i type="int" name="ISIF">     2</i>
  <i type="int" name="ISYM">     0</i>
  <i name="ENCUT">    520.00000000</i>
  <i name="POTIM">      0.00000000</i>
  <v name="MAGMOM">      0.00000000      0.00000000      0.00000000      0.00000000      0.00000000      0.00000000      0.00000000      0.00000000      0.00000000      0.00000000      0.00000000      0.00000000      0.00000000      0.00000000      0.00000000      0.00000000      0.00000000      0.00000000      0.00000000      0.00000000
      0.00000000      0.00000000      0.00000000      0.00000000      0.00000000      0.00000000      0.00000000      0.00000000      0.00000000      0.00000000      0.00000000      0.00000000      0.00000000      0.00000000      0.00000000      0.00000000      0.00000000      0.00000000      0.00000000      0.00000000
      0.00000000      0.00000000      0.00000000      0.00000000      0.00000000      0.00000000      0.00000000      0.00000000      0.00000000      0.00000000      0.00000000      0.00000000      0.00000000      0.00000000      0.00000000      0.00000000      0.00000000      0.00000000      0.00000000      0.00000000
      0.00000000      0.00000000      0.00000000      0.00000000      0.00000000      0.00000000      0.00000000      0.00000000      0.00000000      0.00000000      0.00000000      0.00000000      0.00000000      0.00000000      0.00000000      0.00000000      0.00000000      0.00000000      0.00000000      0.00000000
      0.00000000      0.00000000      0.00000000      0.00000000      0.00000000      0.00000000      0.00000000      0.00000000      0.00000000      0.00000000      0.00000000      0.00000000      0.00000000      0.00000000      0.00000000      0.00000000      0.00000000      0.00000000      0.00000000</v>
  <i type="string" name="LREAL">Auto</i>
  <i type="int" name="ISMEAR">     0</i>
  <i name="SIGMA">      0.05000000</i>
  <i type="logical" name="LWAVE"> F  </i>
  <i type="logical" name="LCHARG"> F  </i>
  <i type="logical" name="LASPH"> T  </i>
  <i type="int" name="IVDW">    12</i>
  <i name="SPRING">     -5.00000000</i>
 </incar>
 <primitive_cell>
  <structure name="primitive_cell" >
   <crystal>
    <varray name="basis" >
     <v>      17.27103806       0.00000000       0.00000000 </v>
     <v>      -8.63551903      14.95715771       0.00000000 </v>
     <v>       0.00000000       0.00000000      15.00000000 </v>
    </varray>
    <i name="volume">   3874.88459904 </i>
    <varray name="rec_basis" >
     <v>       0.05790040       0.03342881       0.00000000 </v>
     <v>       0.00000000       0.06685762       0.00000000 </v>
     <v>       0.00000000       0.00000000       0.06666667 </v>
    </varray>
   </crystal>
   <varray name="positions" >
    <v>       0.00048580       0.00061088       0.50243016 </v>
    <v>       0.99984257       0.14313792       0.50355646 </v>
    <v>       0.99956202       0.28596464       0.50344704 </v>
    <v>       0.00005205       0.42909412       0.50351287 </v>
    <v>       0.00080966       0.57221614       0.50209701 </v>
    <v>       0.00179089       0.71549017       0.50190291 </v>
    <v>       0.00167849       0.85852152       0.50224237 </v>
    <v>       0.14360771       0.00099088       0.49418597 </v>
    <v>       0.14273823       0.14332524       0.49317683 </v>
    <v>       0.14129462       0.28521578       0.48991345 </v>
    <v>       0.14170305       0.42852312       0.49117066 </v>
    <v>       0.14311690       0.57174329       0.49411383 </v>
    <v>       0.14380694       0.71497070       0.49511048 </v>
    <v>       0.14397882       0.85815561       0.49562640 </v>
    <v>       0.28627729       0.00074787       0.49215464 </v>
    <v>       0.28564347       0.14321998       0.48369112 </v>
    <v>       0.28317574       0.28488748       0.46601276 </v>
    <v>       0.27931764       0.42647254       0.45691122 </v>
    <v>       0.28471888       0.57010548       0.47391717 </v>
    <v>       0.28600976       0.71477390       0.48805384 </v>
    <v>       0.28636200       0.85798988       0.49317533 </v>
    <v>       0.42916838       0.00094474       0.49477075 </v>
    <v>       0.42888132       0.14382230       0.49118772 </v>
    <v>       0.42680135       0.28350067       0.47996541 </v>
    <v>       0.42693319       0.71595719       0.48601163 </v>
    <v>       0.42897622       0.85780100       0.49297712 </v>
    <v>       0.57167765       0.00100928       0.49971153 </v>
    <v>       0.57165303       0.14374110       0.49917468 </v>
    <v>       0.57238875       0.28762221       0.49931228 </v>
    <v>       0.57255725       0.85825354       0.50013803 </v>
    <v>       0.71447128       0.00058875       0.50686332 </v>
    <v>       0.71450454       0.14363792       0.50459694 </v>
    <v>       0.71441751       0.28661472       0.50579741 </v>
    <v>       0.71429337       0.42885799       0.51301845 </v>
    <v>       0.72099473       0.57459908       0.53789574 </v>
    <v>       0.72480127       0.71980591       0.54277488 </v>
    <v>       0.71401753       0.85798730       0.51552047 </v>
    <v>       0.85756559       0.00074547       0.50966954 </v>
    <v>       0.85703488       0.14334101       0.50743825 </v>
    <v>       0.85705414       0.28621436       0.50706564 </v>
    <v>       0.85770007       0.42929802       0.50839289 </v>
    <v>       0.85895611       0.57283267       0.51150120 </v>
    <v>       0.86074706       0.71639930       0.51572914 </v>
    <v>       0.85871346       0.85807770       0.51225182 </v>
    <v>       0.04780907       0.09583013       0.50048400 </v>
    <v>       0.04672200       0.23798266       0.50030554 </v>
    <v>       0.04692147       0.38108928       0.50080876 </v>
    <v>       0.04816419       0.52438422       0.50040309 </v>
    <v>       0.04870974       0.66753006       0.49933564 </v>
    <v>       0.04895256       0.81062298       0.49947111 </v>
    <v>       0.04851353       0.95335759       0.49941486 </v>
    <v>       0.19059882       0.09569401       0.48958183 </v>
    <v>       0.18913106       0.23803667       0.48547913 </v>
    <v>       0.18729695       0.37973644       0.48199312 </v>
    <v>       0.18984045       0.52362362       0.48747519 </v>
    <v>       0.19090355       0.66725773       0.49179819 </v>
    <v>       0.19140018       0.81041788       0.49433309 </v>
    <v>       0.19131322       0.95326885       0.49356294 </v>
    <v>       0.33371965       0.09619213       0.48887980 </v>
    <v>       0.33359876       0.23817339       0.47393459 </v>
    <v>       0.31872721       0.37346110       0.44006870 </v>
    <v>       0.32589633       0.52074178       0.45245505 </v>
    <v>       0.33391630       0.66742000       0.48170029 </v>
    <v>       0.33385607       0.80999619       0.49136178 </v>
    <v>       0.33381240       0.95314194       0.49341839 </v>
    <v>       0.47656103       0.09611045       0.49535813 </v>
    <v>       0.47562754       0.23911441       0.49033289 </v>
    <v>       0.47588849       0.80944001       0.49265987 </v>
    <v>       0.47660978       0.95326335       0.49601597 </v>
    <v>       0.61913384       0.09609209       0.50137006 </v>
    <v>       0.61927557       0.23915428       0.50174691 </v>
    <v>       0.62129240       0.38109642       0.50606820 </v>
    <v>       0.62126335       0.81376768       0.50684680 </v>
    <v>       0.61938054       0.95336017       0.50260273 </v>
    <v>       0.76203843       0.09601047       0.50641192 </v>
    <v>       0.76200610       0.23871564       0.50599007 </v>
    <v>       0.76239236       0.38171251       0.50936367 </v>
    <v>       0.76372423       0.52604631       0.52098332 </v>
    <v>       0.76718317       0.66866491       0.53359196 </v>
    <v>       0.76333306       0.81032538       0.52372651 </v>
    <v>       0.76235656       0.95331326       0.51130638 </v>
    <v>       0.90470004       0.09553969       0.50743232 </v>
    <v>       0.90447122       0.23846862       0.50667012 </v>
    <v>       0.90484422       0.38164348       0.50677810 </v>
    <v>       0.90581557       0.52482880       0.50681422 </v>
    <v>       0.90689638       0.66794376       0.50918458 </v>
    <v>       0.90680476       0.81106604       0.50980264 </v>
    <v>       0.90542184       0.95302129       0.50751544 </v>
    <v>       0.46257495       0.35595674       0.47879873 </v>
    <v>       0.39613157       0.55536227       0.43375334 </v>
    <v>       0.64970562       0.53965378       0.55035030 </v>
    <v>       0.58589012       0.41836521       0.50481570 </v>
    <v>       0.58518558       0.74155671       0.50493454 </v>
    <v>       0.46265179       0.67903127       0.48604820 </v>
    <v>       0.54865583       0.57438314       0.52112523 </v>
    <v>       0.48519695       0.50382164       0.45080991 </v>
    <v>       0.39781939       0.41391859       0.39301153 </v>
    <v>       0.63787438       0.67428500       0.57343261 </v>
    <v>       0.52552615       0.51359592       0.50000005 </v>
   </varray>
  </structure>
  <varray name="primitive_index" >
   <v type="int" >        1 </v>
   <v type="int" >        2 </v>
   <v type="int" >        3 </v>
   <v type="int" >        4 </v>
   <v type="int" >        5 </v>
   <v type="int" >        6 </v>
   <v type="int" >        7 </v>
   <v type="int" >        8 </v>
   <v type="int" >        9 </v>
   <v type="int" >       10 </v>
   <v type="int" >       11 </v>
   <v type="int" >       12 </v>
   <v type="int" >       13 </v>
   <v type="int" >       14 </v>
   <v type="int" >       15 </v>
   <v type="int" >       16 </v>
   <v type="int" >       17 </v>
   <v type="int" >       18 </v>
   <v type="int" >       19 </v>
   <v type="int" >       20 </v>
   <v type="int" >       21 </v>
   <v type="int" >       22 </v>
   <v type="int" >       23 </v>
   <v type="int" >       24 </v>
   <v type="int" >       25 </v>
   <v type="int" >       26 </v>
   <v type="int" >       27 </v>
   <v type="int" >       28 </v>
   <v type="int" >       29 </v>
   <v type="int" >       30 </v>
   <v type="int" >       31 </v>
   <v type="int" >       32 </v>
   <v type="int" >       33 </v>
   <v type="int" >       34 </v>
   <v type="int" >       35 </v>
   <v type="int" >       36 </v>
   <v type="int" >       37 </v>
   <v type="int" >       38 </v>
   <v type="int" >       39 </v>
   <v type="int" >       40 </v>
   <v type="int" >       41 </v>
   <v type="int" >       42 </v>
   <v type="int" >       43 </v>
   <v type="int" >       44 </v>
   <v type="int" >       45 </v>
   <v type="int" >       46 </v>
   <v type="int" >       47 </v>
   <v type="int" >       48 </v>
   <v type="int" >       49 </v>
   <v type="int" >       50 </v>
   <v type="int" >       51 </v>
   <v type="int" >       52 </v>
   <v type="int" >       53 </v>
   <v type="int" >       54 </v>
   <v type="int" >       55 </v>
   <v type="int" >       56 </v>
   <v type="int" >       57 </v>
   <v type="int" >       58 </v>
   <v type="int" >       59 </v>
   <v type="int" >       60 </v>
   <v type="int" >       61 </v>
   <v type="int" >       62 </v>
   <v type="int" >       63 </v>
   <v type="int" >       64 </v>
   <v type="int" >       65 </v>
   <v type="int" >       66 </v>
   <v type="int" >       67 </v>
   <v type="int" >       68 </v>
   <v type="int" >       69 </v>
   <v type="int" >       70 </v>
   <v type="int" >       71 </v>
   <v type="int" >       72 </v>
   <v type="int" >       73 </v>
   <v type="int" >       74 </v>
   <v type="int" >       75 </v>
   <v type="int" >       76 </v>
   <v type="int" >       77 </v>
   <v type="int" >       78 </v>
   <v type="int" >       79 </v>
   <v type="int" >       80 </v>
   <v type="int" >       81 </v>
   <v type="int" >       82 </v>
   <v type="int" >       83 </v>
   <v type="int" >       84 </v>
   <v type="int" >       85 </v>
   <v type="int" >       86 </v>
   <v type="int" >       87 </v>
   <v type="int" >       88 </v>
   <v type="int" >       89 </v>
   <v type="int" >       90 </v>
   <v type="int" >       91 </v>
   <v type="int" >       92 </v>
   <v type="int" >       93 </v>
   <v type="int" >       94 </v>
   <v type="int" >       95 </v>
   <v type="int" >       96 </v>
   <v type="int" >       97 </v>
   <v type="int" >       98 </v>
   <v type="int" >       99 </v>
  </varray>
 </primitive_cell>
 <kpoints>
  <generation param="Gamma">
   <v type="int" name="divisions">       2        2        1 </v>
   <v name="usershift">      0.00000000       0.00000000       0.00000000 </v>
   <v name="genvec1">      0.50000000       0.00000000       0.00000000 </v>
   <v name="genvec2">      0.00000000       0.50000000       0.00000000 </v>
   <v name="genvec3">      0.00000000       0.00000000       1.00000000 </v>
   <v name="shift">      0.00000000       0.00000000       0.00000000 </v>
  </generation>
  <varray name="kpointlist" >
   <v>       0.00000000       0.00000000       0.00000000 </v>
   <v>       0.50000000       0.00000000       0.00000000 </v>
   <v>       0.00000000       0.50000000       0.00000000 </v>
   <v>       0.50000000       0.50000000       0.00000000 </v>
  </varray>
  <varray name="weights" >
   <v>       0.25000000 </v>
   <v>       0.25000000 </v>
   <v>       0.25000000 </v>
   <v>       0.25000000 </v>
  </varray>
 </kpoints>
 <parameters>
  <separator name="general" >
   <i type="string" name="SYSTEM">unknown system</i>
   <i type="logical" name="LCOMPAT"> F  </i>
  </separator>
  <separator name="electronic" >
   <i type="string" name="PREC">normal</i>
   <i name="ENMAX">    520.00000000</i>
   <i name="ENAUG">    644.87300000</i>
   <i name="EDIFF">      0.00000100</i>
   <i type="int" name="IALGO">    38</i>
   <i type="int" name="IWAVPR">    11</i>
   <i type="int" name="NBANDS">   240</i>
   <i type="int" name="NBANDSLOW">    -1</i>
   <i type="int" name="NBANDSHIGH">    -1</i>
   <i name="NELECT">    380.00000000</i>
   <i type="int" name="TURBO">     0</i>
   <i type="int" name="IRESTART">     0</i>
   <i type="int" name="NREBOOT">     0</i>
   <i type="int" name="NMIN">     0</i>
   <i name="EREF">      0.00000000</i>
   <separator name="electronic smearing" >
    <i type="int" name="ISMEAR">     0</i>
    <i name="SIGMA">      0.05000000</i>
    <i name="KSPACING">      0.50000000</i>
    <i type="logical" name="KGAMMA"> T  </i>
    <i type="logical" name="KBLOWUP"> T  </i>
   </separator>
   <separator name="electronic projectors" >
    <i type="logical" name="LREAL"> T  </i>
    <v name="ROPT">     -0.00050000     -0.00050000     -0.00050000     -0.00050000</v>
    <i type="int" name="LMAXPAW">  -100</i>
    <i type="int" name="LMAXMIX">     2</i>
    <i type="logical" name="NLSPLINE"> F  </i>
   </separator>
   <separator name="electronic startup" >
    <i type="int" name="ISTART">     0</i>
    <i type="int" name="ICHARG">     2</i>
    <i type="int" name="INIWAV">     1</i>
   </separator>
   <separator name="electronic spin" >
    <i type="int" name="ISPIN">     2</i>
    <i type="logical" name="LNONCOLLINEAR"> F  </i>
    <v name="MAGMOM">      0.00000000      0.00000000      0.00000000      0.00000000      0.00000000      0.00000000      0.00000000      0.00000000      0.00000000      0.00000000      0.00000000      0.00000000      0.00000000      0.00000000      0.00000000      0.00000000      0.00000000      0.00000000      0.00000000      0.00000000
      0.00000000      0.00000000      0.00000000      0.00000000      0.00000000      0.00000000      0.00000000      0.00000000      0.00000000      0.00000000      0.00000000      0.00000000      0.00000000      0.00000000      0.00000000      0.00000000      0.00000000      0.00000000      0.00000000      0.00000000
      0.00000000      0.00000000      0.00000000      0.00000000      0.00000000      0.00000000      0.00000000      0.00000000      0.00000000      0.00000000      0.00000000      0.00000000      0.00000000      0.00000000      0.00000000      0.00000000      0.00000000      0.00000000      0.00000000      0.00000000
      0.00000000      0.00000000      0.00000000      0.00000000      0.00000000      0.00000000      0.00000000      0.00000000      0.00000000      0.00000000      0.00000000      0.00000000      0.00000000      0.00000000      0.00000000      0.00000000      0.00000000      0.00000000      0.00000000      0.00000000
      0.00000000      0.00000000      0.00000000      0.00000000      0.00000000      0.00000000      0.00000000      0.00000000      0.00000000      0.00000000      0.00000000      0.00000000      0.00000000      0.00000000      0.00000000      0.00000000      0.00000000      0.00000000      0.00000000</v>
    <i name="NUPDOWN">     -1.00000000</i>
    <i type="logical" name="LSORBIT"> F  </i>
    <v name="SAXIS">      0.00000000      0.00000000      1.00000000</v>
    <i type="logical" name="LSPIRAL"> F  </i>
    <v name="QSPIRAL">      0.00000000      0.00000000      0.00000000</v>
    <i type="logical" name="LZEROZ"> F  </i>
   </separator>
   <separator name="electronic exchange-correlation" >
    <i type="logical" name="LASPH"> T  </i>
    <i type="logical" name="LMETAGGA"> F  </i>
   </separator>
   <separator name="electronic convergence" >
    <i type="int" name="NELM">   200</i>
    <i type="int" name="NELMDL">    -5</i>
    <i type="int" name="NELMIN">     2</i>
    <i name="ENINI">    520.00000000</i>
    <separator name="electronic convergence detail" >
     <i type="logical" name="LDIAG"> T  </i>
     <i type="logical" name="LSUBROT"> F  </i>
     <i name="WEIMIN">      0.00100000</i>
     <i name="EBREAK">      0.00000000</i>
     <i name="DEPER">      0.30000000</i>
     <i type="int" name="NRMM">     4</i>
     <i name="TIME">      0.40000000</i>
    </separator>
   </separator>
   <separator name="electronic mixer" >
    <i name="AMIX">      0.20000000</i>
    <i name="BMIX">      0.00010000</i>
    <i name="AMIN">      0.10000000</i>
    <i name="AMIX_MAG">      0.80000000</i>
    <i name="BMIX_MAG">      0.00010000</i>
    <separator name="electronic mixer details" >
     <i type="int" name="IMIX">     4</i>
     <i type="logical" name="MIXFIRST"> F  </i>
     <i type="int" name="MAXMIX">   -45</i>
     <i name="WC">    100.00000000</i>
     <i type="int" name="INIMIX">     1</i>
     <i type="int" name="MIXPRE">     1</i>
     <i type="int" name="MREMOVE">     5</i>
    </separator>
   </separator>
   <separator name="electronic dipolcorrection" >
    <i type="logical" name="LDIPOL"> F  </i>
    <i type="logical" name="LMONO"> F  </i>
    <i type="int" name="IDIPOL">     0</i>
    <i name="EPSILON">      1.00000000</i>
    <v name="DIPOL">   -100.00000000   -100.00000000   -100.00000000</v>
    <i name="EFIELD">      0.00000000</i>
   </separator>
  </separator>
  <separator name="grids" >
   <i type="int" name="NGX">    96</i>
   <i type="int" name="NGY">    96</i>
   <i type="int" name="NGZ">    84</i>
   <i type="int" name="NGXF">   192</i>
   <i type="int" name="NGYF">   192</i>
   <i type="int" name="NGZF">   168</i>
   <i type="logical" name="ADDGRID"> T  </i>
  </separator>
  <separator name="ionic" >
   <i type="int" name="NSW">   500</i>
   <i type="int" name="IBRION">     3</i>
   <i type="int" name="MDALGO">     0</i>
   <i type="int" name="ISIF">     2</i>
   <i name="PSTRESS">      0.00000000</i>
   <i name="EDIFFG">     -0.03000000</i>
   <i type="int" name="NFREE">     0</i>
   <i name="POTIM">      0.00000000</i>
   <i name="SMASS">     -3.00000000</i>
   <i name="SCALEE">      1.00000000</i>
  </separator>
  <separator name="ionic md" >
   <i name="TEBEG">      0.00010000</i>
   <i name="TEEND">      0.00010000</i>
   <i type="int" name="NBLOCK">     1</i>
   <i type="int" name="KBLOCK">   500</i>
   <i type="int" name="NPACO">   256</i>
   <i name="APACO">     10.00000000</i>
  </separator>
  <separator name="symmetry" >
   <i type="int" name="ISYM">     0</i>
   <i name="SYMPREC">      0.00001000</i>
  </separator>
  <separator name="dos" >
   <i type="int" name="LORBIT">     0</i>
   <v name="RWIGS">     -1.00000000     -1.00000000     -1.00000000     -1.00000000</v>
   <i type="int" name="NEDOS">   301</i>
   <i name="EMIN">     10.00000000</i>
   <i name="EMAX">    -10.00000000</i>
   <i name="EFERMI">      0.00000000</i>
  </separator>
  <separator name="writing" >
   <i type="int" name="NWRITE">     2</i>
   <i type="logical" name="LWAVE"> F  </i>
   <i type="logical" name="LDOWNSAMPLE"> F  </i>
   <i type="logical" name="LCHARG"> F  </i>
   <i type="logical" name="LPARD"> F  </i>
   <i type="logical" name="LVTOT"> F  </i>
   <i type="logical" name="LVHAR"> F  </i>
   <i type="logical" name="LELF"> F  </i>
   <i type="logical" name="LOPTICS"> F  </i>
   <v name="STM">      0.00000000      0.00000000      0.00000000      0.00000000      0.00000000      0.00000000      0.00000000</v>
  </separator>
  <separator name="performance" >
   <i type="int" name="NPAR">     5</i>
   <i type="int" name="NSIM">     4</i>
   <i type="int" name="NBLK">    -1</i>
   <i type="logical" name="LPLANE"> T  </i>
   <i type="logical" name="LSCALAPACK"> T  </i>
   <i type="logical" name="LSCAAWARE"> F  </i>
   <i type="logical" name="LSCALU"> F  </i>
   <i type="logical" name="LASYNC"> F  </i>
   <i type="logical" name="LORBITALREAL"> F  </i>
  </separator>
  <separator name="miscellaneous" >
   <i type="int" name="IDIOT">     3</i>
   <i type="int" name="PHON_NSTRUCT">    -1</i>
   <i type="logical" name="LMUSIC"> F  </i>
   <v name="POMASS">     12.01100000      1.00000000     18.99800000     16.00000000</v>
   <v name="DARWINR">      0.00000000      0.00000000      0.00000000      0.00000000</v>
   <v name="DARWINV">      1.00000000      1.00000000      1.00000000      1.00000000</v>
   <i type="logical" name="LCORR"> T  </i>
  </separator>
  <i type="logical" name="GGA_COMPAT"> T  </i>
  <i type="logical" name="LBERRY"> F  </i>
  <i type="int" name="ICORELEVEL">     0</i>
  <i type="logical" name="LDAU"> F  </i>
  <i type="int" name="I_CONSTRAINED_M">     0</i>
  <separator name="electronic exchange-correlation" >
   <i type="string" name="GGA">--</i>
   <i type="int" name="VOSKOWN">     0</i>
   <i type="logical" name="LHFCALC"> F  </i>
   <i type="string" name="PRECFOCK"></i>
   <i type="logical" name="LSYMGRAD"> F  </i>
   <i type="logical" name="LHFONE"> F  </i>
   <i type="logical" name="LRHFCALC"> F  </i>
   <i type="logical" name="LTHOMAS"> F  </i>
   <i type="logical" name="LMODELHF"> F  </i>
   <i type="logical" name="LFOCKACE"> F  </i>
   <i name="ENCUT4O">     -1.00000000</i>
   <i type="int" name="EXXOEP">     0</i>
   <i type="int" name="FOURORBIT">     0</i>
   <i name="AEXX">      0.00000000</i>
   <i name="HFALPHA">      0.00000000</i>
   <i name="MCALPHA">      0.00000000</i>
   <i name="ALDAX">      1.00000000</i>
   <i name="AGGAX">      1.00000000</i>
   <i name="ALDAC">      1.00000000</i>
   <i name="AGGAC">      1.00000000</i>
   <i type="int" name="NKREDX">     1</i>
   <i type="int" name="NKREDY">     1</i>
   <i type="int" name="NKREDZ">     1</i>
   <i type="logical" name="SHIFTRED"> F  </i>
   <i type="logical" name="ODDONLY"> F  </i>
   <i type="logical" name="EVENONLY"> F  </i>
   <i type="int" name="LMAXFOCK">     0</i>
   <i type="int" name="NMAXFOCKAE">     0</i>
   <i type="logical" name="LFOCKAEDFT"> F  </i>
   <i name="HFSCREEN">      0.00000000</i>
   <i name="HFSCREENC">      0.00000000</i>
   <i type="int" name="NBANDSGWLOW">     0</i>
  </separator>
  <separator name="vdW DFT" >
   <i type="logical" name="LUSE_VDW"> F  </i>
   <i type="int" name="IVDW_NL">     1</i>
   <i type="logical" name="LSPIN_VDW"> F  </i>
   <i name="Zab_VDW">     -0.84910000</i>
   <i name="PARAM1">      0.12340000</i>
   <i name="PARAM2">      1.00000000</i>
   <i name="PARAM3">      0.00000000</i>
  </separator>
  <separator name="model GW" >
   <i type="int" name="MODEL_GW">     0</i>
   <i name="MODEL_EPS0">     23.48414909</i>
   <i name="MODEL_ALPHA">      1.00000000</i>
  </separator>
  <separator name="linear response parameters" >
   <i type="logical" name="LEPSILON"> F  </i>
   <i type="logical" name="LRPA"> F  </i>
   <i type="logical" name="LNABLA"> F  </i>
   <i type="logical" name="LVEL"> F  </i>
   <i name="CSHIFT">      0.10000000</i>
   <i name="OMEGAMAX">     -1.00000000</i>
   <i name="DEG_THRESHOLD">      0.00200000</i>
   <i name="RTIME">     -0.10000000</i>
   <i name="WPLASMAI">      0.00000000</i>
   <v name="DFIELD">      0.00000000      0.00000000      0.00000000</v>
   <v name="WPLASMA">      0.00000000      0.00000000      0.00000000      0.00000000      0.00000000      0.00000000      0.00000000      0.00000000      0.00000000</v>
  </separator>
  <separator name="orbital magnetization" >
   <i type="logical" name="NUCIND"> F  </i>
   <v name="MAGPOS">      0.00000000      0.00000000      0.00000000</v>
   <i type="logical" name="LNICSALL"> T  </i>
   <i type="logical" name="ORBITALMAG"> F  </i>
   <i type="logical" name="LMAGBLOCH"> F  </i>
   <i type="logical" name="LCHIMAG"> F  </i>
   <i type="logical" name="LGAUGE"> T  </i>
   <i type="int" name="MAGATOM">     0</i>
   <v name="MAGDIPOL">      0.00000000      0.00000000      0.00000000</v>
   <v name="AVECCONST">      0.00000000      0.00000000      0.00000000</v>
  </separator>
  <separator name="response functions" >
   <i type="logical" name="LALL_IN_ONE"> F  </i>
   <i type="int" name="IALL_IN_ONE">    -1</i>
   <i type="int" name="NBANDS_WAVE">    -1</i>
   <i type="logical" name="LFINITE_TEMPERATURE"> F  </i>
   <i type="logical" name="LADDER"> F  </i>
   <i type="logical" name="LRPAFORCE"> F  </i>
   <i type="logical" name="LFXC"> F  </i>
   <i type="logical" name="LHARTREE"> T  </i>
   <i type="int" name="IBSE">     0</i>
   <v type="int" name="KPOINT">    -1     0     0     0</v>
   <i type="logical" name="LTCTC"> F  </i>
   <i type="logical" name="LTCTE"> F  </i>
   <i type="logical" name="LTETE"> F  </i>
   <i type="logical" name="LTRIPLET"> F  </i>
   <i type="logical" name="LFXCEPS"> F  </i>
   <i type="logical" name="LFXHEG"> F  </i>
   <i type="int" name="NATURALO">     2</i>
   <i type="logical" name="LHOLEGF"> F  </i>
   <i type="logical" name="L2ORDER"> F  </i>
   <i type="logical" name="LDMP1"> F  </i>
   <i type="logical" name="LMP2LT"> F  </i>
   <i type="logical" name="LSMP2LT"> F  </i>
   <i type="logical" name="LGWLF"> F  </i>
   <i name="ENCUTGW">     -1.60000002</i>
   <i name="ENCUTGWSOFT">     -1.60000002</i>
   <i name="ENCUTLF">     -1.00000000</i>
   <i type="logical" name="LESF_SPLINES"> F  </i>
   <i type="int" name="LMAXMP2">    -1</i>
   <i name="SCISSOR">      0.00000000</i>
   <i type="int" name="NOMEGA">     0</i>
   <i type="int" name="NOMEGAR">     0</i>
   <i type="int" name="NBANDSGW">    -1</i>
   <i type="int" name="NBANDSO">    -1</i>
   <i type="int" name="NBANDSV">    -1</i>
   <i type="int" name="NELMGW">     1</i>
   <i type="int" name="NELMHF">     1</i>
   <i type="int" name="DIM">     3</i>
   <i type="int" name="IESPILON">     4</i>
   <i type="int" name="ANTIRES">     0</i>
   <i name="OMEGAMAX">    -30.00000000</i>
   <i name="OMEGAMIN">    -30.00000000</i>
   <i name="OMEGATL">   -200.00000000</i>
   <i type="int" name="OMEGAGRID">     0</i>
   <i name="CSHIFT">     -0.10000000</i>
   <i type="logical" name="LSELFENERGY"> F  </i>
   <i type="logical" name="LSPECTRAL"> F  </i>
   <i type="logical" name="LSPECTRALGW"> F  </i>
   <i type="logical" name="LSINGLES"> F  </i>
   <i type="logical" name="LFERMIGW"> F  </i>
   <i type="logical" name="ODDONLYGW"> F  </i>
   <i type="logical" name="EVENONLYGW"> F  </i>
   <i type="int" name="NKREDLFX">     1</i>
   <i type="int" name="NKREDLFY">     1</i>
   <i type="int" name="NKREDLFZ">     1</i>
   <i type="int" name="MAXMEM">  2800</i>
   <i type="int" name="TELESCOPE">     0</i>
   <i type="int" name="NTAUPAR">    -1</i>
   <i type="int" name="NOMEGAPAR">    -1</i>
   <i name="DAMP_NEWTON">      0.80000001</i>
   <i name="LAMBDA">      1.00000000</i>
  </separator>
  <separator name="External order field" >
   <i name="OFIELD_KAPPA">      0.00000000</i>
   <v name="OFIELD_K">      0.00000000      0.00000000      0.00000000</v>
   <i name="OFIELD_Q6_NEAR">      0.00000000</i>
   <i name="OFIELD_Q6_FAR">      0.00000000</i>
   <i name="OFIELD_A">      0.00000000</i>
  </separator>
  <separator name="optional k-points parameters" >
   <i type="int" name="KPOINTS_OPT_MODE">     1</i>
   <i type="logical" name="LKPOINTS_OPT"> F  </i>
  </separator>
 </parameters>
 <atominfo>
  <atoms>      99 </atoms>
  <types>       4 </types>
  <array name="atoms" >
   <dimension dim="1">ion</dimension>
   <field type="string">element</field>
   <field type="int">atomtype</field>
   <set>
    <rc><c>C </c><c>   1</c></rc>
    <rc><c>C </c><c>   1</c></rc>
    <rc><c>C </c><c>   1</c></rc>
    <rc><c>C </c><c>   1</c></rc>
    <rc><c>C </c><c>   1</c></rc>
    <rc><c>C </c><c>   1</c></rc>
    <rc><c>C </c><c>   1</c></rc>
    <rc><c>C </c><c>   1</c></rc>
    <rc><c>C </c><c>   1</c></rc>
    <rc><c>C </c><c>   1</c></rc>
    <rc><c>C </c><c>   1</c></rc>
    <rc><c>C </c><c>   1</c></rc>
    <rc><c>C </c><c>   1</c></rc>
    <rc><c>C </c><c>   1</c></rc>
    <rc><c>C </c><c>   1</c></rc>
    <rc><c>C </c><c>   1</c></rc>
    <rc><c>C </c><c>   1</c></rc>
    <rc><c>C </c><c>   1</c></rc>
    <rc><c>C </c><c>   1</c></rc>
    <rc><c>C </c><c>   1</c></rc>
    <rc><c>C </c><c>   1</c></rc>
    <rc><c>C </c><c>   1</c></rc>
    <rc><c>C </c><c>   1</c></rc>
    <rc><c>C </c><c>   1</c></rc>
    <rc><c>C </c><c>   1</c></rc>
    <rc><c>C </c><c>   1</c></rc>
    <rc><c>C </c><c>   1</c></rc>
    <rc><c>C </c><c>   1</c></rc>
    <rc><c>C </c><c>   1</c></rc>
    <rc><c>C </c><c>   1</c></rc>
    <rc><c>C </c><c>   1</c></rc>
    <rc><c>C </c><c>   1</c></rc>
    <rc><c>C </c><c>   1</c></rc>
    <rc><c>C </c><c>   1</c></rc>
    <rc><c>C </c><c>   1</c></rc>
    <rc><c>C </c><c>   1</c></rc>
    <rc><c>C </c><c>   1</c></rc>
    <rc><c>C </c><c>   1</c></rc>
    <rc><c>C </c><c>   1</c></rc>
    <rc><c>C </c><c>   1</c></rc>
    <rc><c>C </c><c>   1</c></rc>
    <rc><c>C </c><c>   1</c></rc>
    <rc><c>C </c><c>   1</c></rc>
    <rc><c>C </c><c>   1</c></rc>
    <rc><c>C </c><c>   1</c></rc>
    <rc><c>C </c><c>   1</c></rc>
    <rc><c>C </c><c>   1</c></rc>
    <rc><c>C </c><c>   1</c></rc>
    <rc><c>C </c><c>   1</c></rc>
    <rc><c>C </c><c>   1</c></rc>
    <rc><c>C </c><c>   1</c></rc>
    <rc><c>C </c><c>   1</c></rc>
    <rc><c>C </c><c>   1</c></rc>
    <rc><c>C </c><c>   1</c></rc>
    <rc><c>C </c><c>   1</c></rc>
    <rc><c>C </c><c>   1</c></rc>
    <rc><c>C </c><c>   1</c></rc>
    <rc><c>C </c><c>   1</c></rc>
    <rc><c>C </c><c>   1</c></rc>
    <rc><c>C </c><c>   1</c></rc>
    <rc><c>C </c><c>   1</c></rc>
    <rc><c>C </c><c>   1</c></rc>
    <rc><c>C </c><c>   1</c></rc>
    <rc><c>C </c><c>   1</c></rc>
    <rc><c>C </c><c>   1</c></rc>
    <rc><c>C </c><c>   1</c></rc>
    <rc><c>C </c><c>   1</c></rc>
    <rc><c>C </c><c>   1</c></rc>
    <rc><c>C </c><c>   1</c></rc>
    <rc><c>C </c><c>   1</c></rc>
    <rc><c>C </c><c>   1</c></rc>
    <rc><c>C </c><c>   1</c></rc>
    <rc><c>C </c><c>   1</c></rc>
    <rc><c>C </c><c>   1</c></rc>
    <rc><c>C </c><c>   1</c></rc>
    <rc><c>C </c><c>   1</c></rc>
    <rc><c>C </c><c>   1</c></rc>
    <rc><c>C </c><c>   1</c></rc>
    <rc><c>C </c><c>   1</c></rc>
    <rc><c>C </c><c>   1</c></rc>
    <rc><c>C </c><c>   1</c></rc>
    <rc><c>C </c><c>   1</c></rc>
    <rc><c>C </c><c>   1</c></rc>
    <rc><c>C </c><c>   1</c></rc>
    <rc><c>C </c><c>   1</c></rc>
    <rc><c>C </c><c>   1</c></rc>
    <rc><c>C </c><c>   1</c></rc>
    <rc><c>C </c><c>   1</c></rc>
    <rc><c>H </c><c>   2</c></rc>
    <rc><c>H </c><c>   2</c></rc>
    <rc><c>H </c><c>   2</c></rc>
    <rc><c>H </c><c>   2</c></rc>
    <rc><c>H </c><c>   2</c></rc>
    <rc><c>H </c><c>   2</c></rc>
    <rc><c>H </c><c>   2</c></rc>
    <rc><c>H </c><c>   2</c></rc>
    <rc><c>F </c><c>   3</c></rc>
    <rc><c>F </c><c>   3</c></rc>
    <rc><c>O </c><c>   4</c></rc>
   </set>
  </array>
  <array name="atomtypes" >
   <dimension dim="1">type</dimension>
   <field type="int">atomspertype</field>
   <field type="string">element</field>
   <field>mass</field>
   <field>valence</field>
   <field type="string">pseudopotential</field>
   <set>
    <rc><c>  88</c><c>C </c><c>     12.01100000</c><c>      4.00000000</c><c>  PAW_PBE C 08Apr2002                   </c></rc>
    <rc><c>   8</c><c>H </c><c>      1.00000000</c><c>      1.00000000</c><c>  PAW_PBE H 15Jun2001                   </c></rc>
    <rc><c>   2</c><c>F </c><c>     18.99800000</c><c>      7.00000000</c><c>  PAW_PBE F 08Apr2002                   </c></rc>
    <rc><c>   1</c><c>O </c><c>     16.00000000</c><c>      6.00000000</c><c>  PAW_PBE O 08Apr2002                   </c></rc>
   </set>
  </array>
 </atominfo>
 <structure name="initialpos" >
  <crystal>
   <varray name="basis" >
    <v>      17.27103806       0.00000000       0.00000000 </v>
    <v>      -8.63551903      14.95715771       0.00000000 </v>
    <v>       0.00000000       0.00000000      15.00000000 </v>
   </varray>
   <i name="volume">   3874.88459904 </i>
   <varray name="rec_basis" >
    <v>       0.05790040       0.03342881       0.00000000 </v>
    <v>       0.00000000       0.06685762       0.00000000 </v>
    <v>       0.00000000       0.00000000       0.06666667 </v>
   </varray>
  </crystal>
  <varray name="positions" >
   <v>       0.00048580       0.00061088       0.50243016 </v>
   <v>       0.99984257       0.14313792       0.50355646 </v>
   <v>       0.99956202       0.28596464       0.50344704 </v>
   <v>       0.00005205       0.42909412       0.50351287 </v>
   <v>       0.00080966       0.57221614       0.50209701 </v>
   <v>       0.00179089       0.71549017       0.50190291 </v>
   <v>       0.00167849       0.85852152       0.50224237 </v>
   <v>       0.14360771       0.00099088       0.49418597 </v>
   <v>       0.14273823       0.14332524       0.49317683 </v>
   <v>       0.14129462       0.28521578       0.48991345 </v>
   <v>       0.14170305       0.42852312       0.49117066 </v>
   <v>       0.14311690       0.57174329       0.49411383 </v>
   <v>       0.14380694       0.71497070       0.49511048 </v>
   <v>       0.14397882       0.85815561       0.49562640 </v>
   <v>       0.28627729       0.00074787       0.49215464 </v>
   <v>       0.28564347       0.14321998       0.48369112 </v>
   <v>       0.28317574       0.28488748       0.46601276 </v>
   <v>       0.27931764       0.42647254       0.45691122 </v>
   <v>       0.28471888       0.57010548       0.47391717 </v>
   <v>       0.28600976       0.71477390       0.48805384 </v>
   <v>       0.28636200       0.85798988       0.49317533 </v>
   <v>       0.42916838       0.00094474       0.49477075 </v>
   <v>       0.42888132       0.14382230       0.49118772 </v>
   <v>       0.42680135       0.28350067       0.47996541 </v>
   <v>       0.42693319       0.71595719       0.48601163 </v>
   <v>       0.42897622       0.85780100       0.49297712 </v>
   <v>       0.57167765       0.00100928       0.49971153 </v>
   <v>       0.57165303       0.14374110       0.49917468 </v>
   <v>       0.57238875       0.28762221       0.49931228 </v>
   <v>       0.57255725       0.85825354       0.50013803 </v>
   <v>       0.71447128       0.00058875       0.50686332 </v>
   <v>       0.71450454       0.14363792       0.50459694 </v>
   <v>       0.71441751       0.28661472       0.50579741 </v>
   <v>       0.71429337       0.42885799       0.51301845 </v>
   <v>       0.72099473       0.57459908       0.53789574 </v>
   <v>       0.72480127       0.71980591       0.54277488 </v>
   <v>       0.71401753       0.85798730       0.51552047 </v>
   <v>       0.85756559       0.00074547       0.50966954 </v>
   <v>       0.85703488       0.14334101       0.50743825 </v>
   <v>       0.85705414       0.28621436       0.50706564 </v>
   <v>       0.85770007       0.42929802       0.50839289 </v>
   <v>       0.85895611       0.57283267       0.51150120 </v>
   <v>       0.86074706       0.71639930       0.51572914 </v>
   <v>       0.85871346       0.85807770       0.51225182 </v>
   <v>       0.04780907       0.09583013       0.50048400 </v>
   <v>       0.04672200       0.23798266       0.50030554 </v>
   <v>       0.04692147       0.38108928       0.50080876 </v>
   <v>       0.04816419       0.52438422       0.50040309 </v>
   <v>       0.04870974       0.66753006       0.49933564 </v>
   <v>       0.04895256       0.81062298       0.49947111 </v>
   <v>       0.04851353       0.95335759       0.49941486 </v>
   <v>       0.19059882       0.09569401       0.48958183 </v>
   <v>       0.18913106       0.23803667       0.48547913 </v>
   <v>       0.18729695       0.37973644       0.48199312 </v>
   <v>       0.18984045       0.52362362       0.48747519 </v>
   <v>       0.19090355       0.66725773       0.49179819 </v>
   <v>       0.19140018       0.81041788       0.49433309 </v>
   <v>       0.19131322       0.95326885       0.49356294 </v>
   <v>       0.33371965       0.09619213       0.48887980 </v>
   <v>       0.33359876       0.23817339       0.47393459 </v>
   <v>       0.31872721       0.37346110       0.44006870 </v>
   <v>       0.32589633       0.52074178       0.45245505 </v>
   <v>       0.33391630       0.66742000       0.48170029 </v>
   <v>       0.33385607       0.80999619       0.49136178 </v>
   <v>       0.33381240       0.95314194       0.49341839 </v>
   <v>       0.47656103       0.09611045       0.49535813 </v>
   <v>       0.47562754       0.23911441       0.49033289 </v>
   <v>       0.47588849       0.80944001       0.49265987 </v>
   <v>       0.47660978       0.95326335       0.49601597 </v>
   <v>       0.61913384       0.09609209       0.50137006 </v>
   <v>       0.61927557       0.23915428       0.50174691 </v>
   <v>       0.62129240       0.38109642       0.50606820 </v>
   <v>       0.62126335       0.81376768       0.50684680 </v>
   <v>       0.61938054       0.95336017       0.50260273 </v>
   <v>       0.76203843       0.09601047       0.50641192 </v>
   <v>       0.76200610       0.23871564       0.50599007 </v>
   <v>       0.76239236       0.38171251       0.50936367 </v>
   <v>       0.76372423       0.52604631       0.52098332 </v>
   <v>       0.76718317       0.66866491       0.53359196 </v>
   <v>       0.76333306       0.81032538       0.52372651 </v>
   <v>       0.76235656       0.95331326       0.51130638 </v>
   <v>       0.90470004       0.09553969       0.50743232 </v>
   <v>       0.90447122       0.23846862       0.50667012 </v>
   <v>       0.90484422       0.38164348       0.50677810 </v>
   <v>       0.90581557       0.52482880       0.50681422 </v>
   <v>       0.90689638       0.66794376       0.50918458 </v>
   <v>       0.90680476       0.81106604       0.50980264 </v>
   <v>       0.90542184       0.95302129       0.50751544 </v>
   <v>       0.46257495       0.35595674       0.47879873 </v>
   <v>       0.39613157       0.55536227       0.43375334 </v>
   <v>       0.64970562       0.53965378       0.55035030 </v>
   <v>       0.58589012       0.41836521       0.50481570 </v>
   <v>       0.58518558       0.74155671       0.50493454 </v>
   <v>       0.46265179       0.67903127       0.48604820 </v>
   <v>       0.54865583       0.57438314       0.52112523 </v>
   <v>       0.48519695       0.50382164       0.45080991 </v>
   <v>       0.39781939       0.41391859       0.39301153 </v>
   <v>       0.63787438       0.67428500       0.57343261 </v>
   <v>       0.52552615       0.51359592       0.50000005 </v>
  </varray>
  <varray name="selective"  type="logical" >
   <v type="logical" >  T  T  T </v>
   <v type="logical" >  T  T  T </v>
   <v type="logical" >  T  T  T </v>
   <v type="logical" >  T  T  T </v>
   <v type="logical" >  T  T  T </v>
   <v type="logical" >  T  T  T </v>
   <v type="logical" >  T  T  T </v>
   <v type="logical" >  T  T  T </v>
   <v type="logical" >  T  T  T </v>
   <v type="logical" >  T  T  T </v>
   <v type="logical" >  T  T  T </v>
   <v type="logical" >  T  T  T </v>
   <v type="logical" >  T  T  T </v>
   <v type="logical" >  T  T  T </v>
   <v type="logical" >  T  T  T </v>
   <v type="logical" >  T  T  T </v>
   <v type="logical" >  T  T  T </v>
   <v type="logical" >  T  T  T </v>
   <v type="logical" >  T  T  T </v>
   <v type="logical" >  T  T  T </v>
   <v type="logical" >  T  T  T </v>
   <v type="logical" >  T  T  T </v>
   <v type="logical" >  T  T  T </v>
   <v type="logical" >  T  T  T </v>
   <v type="logical" >  T  T  T </v>
   <v type="logical" >  T  T  T </v>
   <v type="logical" >  T  T  T </v>
   <v type="logical" >  T  T  T </v>
   <v type="logical" >  T  T  T </v>
   <v type="logical" >  T  T  T </v>
   <v type="logical" >  T  T  T </v>
   <v type="logical" >  T  T  T </v>
   <v type="logical" >  T  T  T </v>
   <v type="logical" >  T  T  T </v>
   <v type="logical" >  T  T  T </v>
   <v type="logical" >  T  T  T </v>
   <v type="logical" >  T  T  T </v>
   <v type="logical" >  T  T  T </v>
   <v type="logical" >  T  T  T </v>
   <v type="logical" >  T  T  T </v>
   <v type="logical" >  T  T  T </v>
   <v type="logical" >  T  T  T </v>
   <v type="logical" >  T  T  T </v>
   <v type="logical" >  T  T  T </v>
   <v type="logical" >  T  T  T </v>
   <v type="logical" >  T  T  T </v>
   <v type="logical" >  T  T  T </v>
   <v type="logical" >  T  T  T </v>
   <v type="logical" >  T  T  T </v>
   <v type="logical" >  T  T  T </v>
   <v type="logical" >  T  T  T </v>
   <v type="logical" >  T  T  T </v>
   <v type="logical" >  T  T  T </v>
   <v type="logical" >  T  T  T </v>
   <v type="logical" >  T  T  T </v>
   <v type="logical" >  T  T  T </v>
   <v type="logical" >  T  T  T </v>
   <v type="logical" >  T  T  T </v>
   <v type="logical" >  T  T  T </v>
   <v type="logical" >  T  T  T </v>
   <v type="logical" >  T  T  T </v>
   <v type="logical" >  T  T  T </v>
   <v type="logical" >  T  T  T </v>
   <v type="logical" >  T  T  T </v>
   <v type="logical" >  T  T  T </v>
   <v type="logical" >  T  T  T </v>
   <v type="logical" >  T  T  T </v>
   <v type="logical" >  T  T  T </v>
   <v type="logical" >  T  T  T </v>
   <v type="logical" >  T  T  T </v>
   <v type="logical" >  T  T  T </v>
   <v type="logical" >  T  T  T </v>
   <v type="logical" >  T  T  T </v>
   <v type="logical" >  T  T  T </v>
   <v type="logical" >  T  T  T </v>
   <v type="logical" >  T  T  T </v>
   <v type="logical" >  T  T  T </v>
   <v type="logical" >  T  T  T </v>
   <v type="logical" >  T  T  T </v>
   <v type="logical" >  T  T  T </v>
   <v type="logical" >  T  T  T </v>
   <v type="logical" >  T  T  T </v>
   <v type="logical" >  T  T  T </v>
   <v type="logical" >  T  T  T </v>
   <v type="logical" >  T  T  T </v>
   <v type="logical" >  T  T  T </v>
   <v type="logical" >  T  T  T </v>
   <v type="logical" >  T  T  T </v>
   <v type="logical" >  T  T  T </v>
   <v type="logical" >  T  T  T </v>
   <v type="logical" >  T  T  T </v>
   <v type="logical" >  T  T  T </v>
   <v type="logical" >  T  T  T </v>
   <v type="logical" >  T  T  T </v>
   <v type="logical" >  T  T  T </v>
   <v type="logical" >  T  T  T </v>
   <v type="logical" >  T  T  T </v>
   <v type="logical" >  T  T  T </v>
   <v type="logical" >  T  T  F </v>
  </varray>
  <nose>
   <v>      -3.00000000       0.00000000       0.00010000       0.00010000 </v>
  </nose>
 </structure>
 <calculation>
  <scstep>
   <time name="dav">   70.24   70.64</time>
   <time name="total">   75.04   75.51</time>
   <energy>
    <i name="alphaZ">    186.33367753 </i>
    <i name="ewald">  37681.39597615 </i>
    <i name="hartreedc"> -48841.67628495 </i>
    <i name="XCdc">   1280.10414043 </i>
    <i name="pawpsdc">  10991.97733137 </i>
    <i name="pawaedc"> -11054.15789429 </i>
    <i name="eentropy">     -0.04312393 </i>
    <i name="bandstr">  -1496.45312063 </i>
    <i name="atom">  14800.58670786 </i>
    <i name="e_fr_energy">   3548.06740953 </i>
    <i name="e_wo_entrp">   3548.11053347 </i>
    <i name="e_0_energy">   3548.08897150 </i>
   </energy>
  </scstep>
  <scstep>
   <time name="dav">   89.58   90.12</time>
   <time name="total">   89.59   90.15</time>
   <energy>
    <i name="e_fr_energy">   -201.75207038 </i>
    <i name="e_wo_entrp">   -201.75198036 </i>
    <i name="e_0_energy">   -201.75202537 </i>
   </energy>
  </scstep>
  <scstep>
   <time name="dav">   76.67   77.16</time>
   <time name="total">   76.67   77.18</time>
   <energy>
    <i name="e_fr_energy">   -886.55669908 </i>
    <i name="e_wo_entrp">   -886.55669875 </i>
    <i name="e_0_energy">   -886.55669891 </i>
   </energy>
  </scstep>
  <scstep>
   <time name="dav">   77.16   77.65</time>
   <time name="total">   77.16   77.67</time>
   <energy>
    <i name="e_fr_energy">   -911.99957202 </i>
    <i name="e_wo_entrp">   -911.99957201 </i>
    <i name="e_0_energy">   -911.99957202 </i>
   </energy>
  </scstep>
  <scstep>
   <time name="dav">   85.29   85.80</time>
   <time name="total">   91.43   91.99</time>
   <energy>
    <i name="e_fr_energy">   -912.78390410 </i>
    <i name="e_wo_entrp">   -912.78390409 </i>
    <i name="e_0_energy">   -912.78390410 </i>
   </energy>
  </scstep>
  <scstep>
   <time name="dav">   75.55   75.98</time>
   <time name="total">   87.48   88.01</time>
   <energy>
    <i name="e_fr_energy">   -879.81142174 </i>
    <i name="e_wo_entrp">   -879.81142173 </i>
    <i name="e_0_energy">   -879.81142173 </i>
   </energy>
  </scstep>
  <scstep>
   <time name="dav">   72.79   73.23</time>
   <time name="total">   84.77   85.31</time>
   <energy>
    <i name="e_fr_energy">   -851.85201534 </i>
    <i name="e_wo_entrp">   -851.85201533 </i>
    <i name="e_0_energy">   -851.85201534 </i>
   </energy>
  </scstep>
  <scstep>
   <time name="dav">   75.78   76.22</time>
   <time name="total">   87.66   88.22</time>
   <energy>
    <i name="e_fr_energy">   -851.54607154 </i>
    <i name="e_wo_entrp">   -851.54607152 </i>
    <i name="e_0_energy">   -851.54607153 </i>
   </energy>
  </scstep>
  <scstep>
   <time name="dav">   73.25   73.66</time>
   <time name="total">   85.21   85.74</time>
   <energy>
    <i name="e_fr_energy">   -851.61651265 </i>
    <i name="e_wo_entrp">   -851.61651264 </i>
    <i name="e_0_energy">   -851.61651265 </i>
   </energy>
  </scstep>
  <scstep>
   <time name="dav">   75.45   75.86</time>
   <time name="total">   87.33   87.84</time>
   <energy>
    <i name="e_fr_energy">   -851.48910598 </i>
    <i name="e_wo_entrp">   -851.48910597 </i>
    <i name="e_0_energy">   -851.48910597 </i>
   </energy>
  </scstep>
  <scstep>
   <time name="dav">   74.48   74.89</time>
   <time name="total">   86.36   86.87</time>
   <energy>
    <i name="e_fr_energy">   -851.47386724 </i>
    <i name="e_wo_entrp">   -851.47386723 </i>
    <i name="e_0_energy">   -851.47386723 </i>
   </energy>
  </scstep>
  <scstep>
   <time name="dav">   75.69   76.13</time>
   <time name="total">   87.65   88.18</time>
   <energy>
    <i name="e_fr_energy">   -851.47184632 </i>
    <i name="e_wo_entrp">   -851.47184631 </i>
    <i name="e_0_energy">   -851.47184632 </i>
   </energy>
  </scstep>
  <scstep>
   <time name="dav">   75.90   76.36</time>
   <time name="total">   87.76   88.33</time>
   <energy>
    <i name="e_fr_energy">   -851.47201538 </i>
    <i name="e_wo_entrp">   -851.47201537 </i>
    <i name="e_0_energy">   -851.47201538 </i>
   </energy>
  </scstep>
  <scstep>
   <time name="dav">   75.71   76.13</time>
   <time name="total">   87.68   88.20</time>
   <energy>
    <i name="e_fr_energy">   -851.47198647 </i>
    <i name="e_wo_entrp">   -851.47198645 </i>
    <i name="e_0_energy">   -851.47198646 </i>
   </energy>
  </scstep>
  <scstep>
   <time name="dav">   77.83   78.27</time>
   <time name="total">   89.68   90.23</time>
   <energy>
    <i name="e_fr_energy">   -851.47200662 </i>
    <i name="e_wo_entrp">   -851.47200661 </i>
    <i name="e_0_energy">   -851.47200661 </i>
   </energy>
  </scstep>
  <scstep>
   <time name="dav">   81.73   82.18</time>
   <time name="total">   93.60   94.16</time>
   <energy>
    <i name="e_fr_energy">   -851.47203708 </i>
    <i name="e_wo_entrp">   -851.47203707 </i>
    <i name="e_0_energy">   -851.47203708 </i>
   </energy>
  </scstep>
  <scstep>
   <time name="dav">   77.94   78.39</time>
   <time name="total">   89.75   90.27</time>
   <energy>
    <i name="e_fr_energy">   -851.47202959 </i>
    <i name="e_wo_entrp">   -851.47202957 </i>
    <i name="e_0_energy">   -851.47202958 </i>
   </energy>
  </scstep>
  <scstep>
   <time name="dav">   53.25   53.47</time>
   <time name="total">   61.90   62.18</time>
   <energy>
    <i name="e_fr_energy">   -851.47203150 </i>
    <i name="e_wo_entrp">   -851.47203149 </i>
    <i name="e_0_energy">   -851.47203149 </i>
   </energy>
  </scstep>
  <scstep>
   <time name="dav">   31.64   31.78</time>
   <time name="total">   35.30   35.48</time>
   <energy>
    <i name="alphaZ">    186.33367753 </i>
    <i name="ewald">  37681.39597615 </i>
    <i name="hartreedc"> -50364.21326495 </i>
    <i name="XCdc">   1337.20957937 </i>
    <i name="pawpsdc">  38463.68680163 </i>
    <i name="pawaedc"> -38536.66018345 </i>
    <i name="eentropy">     -0.00000001 </i>
    <i name="bandstr">  -4419.81132508 </i>
    <i name="atom">  14800.58670786 </i>
    <i name="e_fr_energy">   -851.47203095 </i>
    <i name="e_wo_entrp">   -851.47203093 </i>
    <i name="e_0_energy">   -851.47203094 </i>
   </energy>
  </scstep>
  <structure>
   <crystal>
    <varray name="basis" >
     <v>      17.27103806       0.00000000       0.00000000 </v>
     <v>      -8.63551903      14.95715771       0.00000000 </v>
     <v>       0.00000000       0.00000000      15.00000000 </v>
    </varray>
    <i name="volume">   3874.88459904 </i>
    <varray name="rec_basis" >
     <v>       0.05790040       0.03342881       0.00000000 </v>
     <v>       0.00000000       0.06685762       0.00000000 </v>
     <v>       0.00000000       0.00000000       0.06666667 </v>
    </varray>
   </crystal>
   <varray name="positions" >
    <v>       0.00048580       0.00061088       0.50243016 </v>
    <v>       0.99984257       0.14313792       0.50355646 </v>
    <v>       0.99956202       0.28596464       0.50344704 </v>
    <v>       0.00005205       0.42909412       0.50351287 </v>
    <v>       0.00080966       0.57221614       0.50209701 </v>
    <v>       0.00179089       0.71549017       0.50190291 </v>
    <v>       0.00167849       0.85852152       0.50224237 </v>
    <v>       0.14360771       0.00099088       0.49418597 </v>
    <v>       0.14273823       0.14332524       0.49317683 </v>
    <v>       0.14129462       0.28521578       0.48991345 </v>
    <v>       0.14170305       0.42852312       0.49117066 </v>
    <v>       0.14311690       0.57174329       0.49411383 </v>
    <v>       0.14380694       0.71497070       0.49511048 </v>
    <v>       0.14397882       0.85815561       0.49562640 </v>
    <v>       0.28627729       0.00074787       0.49215464 </v>
    <v>       0.28564347       0.14321998       0.48369112 </v>
    <v>       0.28317574       0.28488748       0.46601276 </v>
    <v>       0.27931764       0.42647254       0.45691122 </v>
    <v>       0.28471888       0.57010548       0.47391717 </v>
    <v>       0.28600976       0.71477390       0.48805384 </v>
    <v>       0.28636200       0.85798988       0.49317533 </v>
    <v>       0.42916838       0.00094474       0.49477075 </v>
    <v>       0.42888132       0.14382230       0.49118772 </v>
    <v>       0.42680135       0.28350067       0.47996541 </v>
    <v>       0.42693319       0.71595719       0.48601163 </v>
    <v>       0.42897622       0.85780100       0.49297712 </v>
    <v>       0.57167765       0.00100928       0.49971153 </v>
    <v>       0.57165303       0.14374110       0.49917468 </v>
    <v>       0.57238875       0.28762221       0.49931228 </v>
    <v>       0.57255725       0.85825354       0.50013803 </v>
    <v>       0.71447128       0.00058875       0.50686332 </v>
    <v>       0.71450454       0.14363792       0.50459694 </v>
    <v>       0.71441751       0.28661472       0.50579741 </v>
    <v>       0.71429337       0.42885799       0.51301845 </v>
    <v>       0.72099473       0.57459908       0.53789574 </v>
    <v>       0.72480127       0.71980591       0.54277488 </v>
    <v>       0.71401753       0.85798730       0.51552047 </v>
    <v>       0.85756559       0.00074547       0.50966954 </v>
    <v>       0.85703488       0.14334101       0.50743825 </v>
    <v>       0.85705414       0.28621436       0.50706564 </v>
    <v>       0.85770007       0.42929802       0.50839289 </v>
    <v>       0.85895611       0.57283267       0.51150120 </v>
    <v>       0.86074706       0.71639930       0.51572914 </v>
    <v>       0.85871346       0.85807770       0.51225182 </v>
    <v>       0.04780907       0.09583013       0.50048400 </v>
    <v>       0.04672200       0.23798266       0.50030554 </v>
    <v>       0.04692147       0.38108928       0.50080876 </v>
    <v>       0.04816419       0.52438422       0.50040309 </v>
    <v>       0.04870974       0.66753006       0.49933564 </v>
    <v>       0.04895256       0.81062298       0.49947111 </v>
    <v>       0.04851353       0.95335759       0.49941486 </v>
    <v>       0.19059882       0.09569401       0.48958183 </v>
    <v>       0.18913106       0.23803667       0.48547913 </v>
    <v>       0.18729695       0.37973644       0.48199312 </v>
    <v>       0.18984045       0.52362362       0.48747519 </v>
    <v>       0.19090355       0.66725773       0.49179819 </v>
    <v>       0.19140018       0.81041788       0.49433309 </v>
    <v>       0.19131322       0.95326885       0.49356294 </v>
    <v>       0.33371965       0.09619213       0.48887980 </v>
    <v>       0.33359876       0.23817339       0.47393459 </v>
    <v>       0.31872721       0.37346110       0.44006870 </v>
    <v>       0.32589633       0.52074178       0.45245505 </v>
    <v>       0.33391630       0.66742000       0.48170029 </v>
    <v>       0.33385607       0.80999619       0.49136178 </v>
    <v>       0.33381240       0.95314194       0.49341839 </v>
    <v>       0.47656103       0.09611045       0.49535813 </v>
    <v>       0.47562754       0.23911441       0.49033289 </v>
    <v>       0.47588849       0.80944001       0.49265987 </v>
    <v>       0.47660978       0.95326335       0.49601597 </v>
    <v>       0.61913384       0.09609209       0.50137006 </v>
    <v>       0.61927557       0.23915428       0.50174691 </v>
    <v>       0.62129240       0.38109642       0.50606820 </v>
    <v>       0.62126335       0.81376768       0.50684680 </v>
    <v>       0.61938054       0.95336017       0.50260273 </v>
    <v>       0.76203843       0.09601047       0.50641192 </v>
    <v>       0.76200610       0.23871564       0.50599007 </v>
    <v>       0.76239236       0.38171251       0.50936367 </v>
    <v>       0.76372423       0.52604631       0.52098332 </v>
    <v>       0.76718317       0.66866491       0.53359196 </v>
    <v>       0.76333306       0.81032538       0.52372651 </v>
    <v>       0.76235656       0.95331326       0.51130638 </v>
    <v>       0.90470004       0.09553969       0.50743232 </v>
    <v>       0.90447122       0.23846862       0.50667012 </v>
    <v>       0.90484422       0.38164348       0.50677810 </v>
    <v>       0.90581557       0.52482880       0.50681422 </v>
    <v>       0.90689638       0.66794376       0.50918458 </v>
    <v>       0.90680476       0.81106604       0.50980264 </v>
    <v>       0.90542184       0.95302129       0.50751544 </v>
    <v>       0.46257495       0.35595674       0.47879873 </v>
    <v>       0.39613157       0.55536227       0.43375334 </v>
    <v>       0.64970562       0.53965378       0.55035030 </v>
    <v>       0.58589012       0.41836521       0.50481570 </v>
    <v>       0.58518558       0.74155671       0.50493454 </v>
    <v>       0.46265179       0.67903127       0.48604820 </v>
    <v>       0.54865583       0.57438314       0.52112523 </v>
    <v>       0.48519695       0.50382164       0.45080991 </v>
    <v>       0.39781939       0.41391859       0.39301153 </v>
    <v>       0.63787438       0.67428500       0.57343261 </v>
    <v>       0.52552615       0.51359592       0.50000005 </v>
   </varray>
  </structure>
  <varray name="forces" >
   <v>      -0.00712040      -0.00048668       0.00281352 </v>
   <v>      -0.00400897      -0.01377965      -0.00327715 </v>
   <v>       0.00071273      -0.00671760      -0.00565952 </v>
   <v>      -0.00079659       0.00106512      -0.00337375 </v>
   <v>       0.00092715       0.00299743       0.00343786 </v>
   <v>       0.00348127       0.00408677       0.00657031 </v>
   <v>      -0.00221251       0.00456839       0.00781786 </v>
   <v>      -0.00722957      -0.00367458      -0.00494924 </v>
   <v>      -0.00449416      -0.01112371      -0.01217615 </v>
   <v>      -0.00588651      -0.00984949      -0.01174159 </v>
   <v>       0.00114074       0.00035584      -0.01056218 </v>
   <v>      -0.00045336       0.00276101      -0.00698210 </v>
   <v>      -0.00091052       0.00012363      -0.00407167 </v>
   <v>      -0.00031795      -0.00109729      -0.00352631 </v>
   <v>      -0.00286528      -0.00203428      -0.01150207 </v>
   <v>      -0.00209345      -0.00440875      -0.01481715 </v>
   <v>      -0.00161602      -0.00357938      -0.01985690 </v>
   <v>      -0.00238040       0.00013841      -0.02047141 </v>
   <v>      -0.00408927       0.00483261      -0.01509396 </v>
   <v>      -0.00351695      -0.00142428      -0.00911490 </v>
   <v>      -0.00722022      -0.00508719      -0.01160314 </v>
   <v>       0.00006313       0.00196229      -0.00696798 </v>
   <v>       0.00005616      -0.00129709      -0.00941628 </v>
   <v>      -0.00151595      -0.00484094      -0.01202144 </v>
   <v>      -0.00555146      -0.00704867      -0.01266137 </v>
   <v>      -0.00336909      -0.00031240      -0.00650630 </v>
   <v>       0.00256503       0.00250156      -0.00038408 </v>
   <v>       0.00165759       0.00083330       0.00000205 </v>
   <v>       0.00063071      -0.00432327       0.00126552 </v>
   <v>       0.00345311       0.00379706       0.00603209 </v>
   <v>       0.00827545       0.00090990       0.00701675 </v>
   <v>       0.00283165      -0.00362294       0.00371092 </v>
   <v>       0.00259432      -0.00202208       0.00537848 </v>
   <v>       0.00413260      -0.00165280       0.01177860 </v>
   <v>       0.00846110       0.00320448       0.01638669 </v>
   <v>      -0.00171852       0.01142221       0.01616119 </v>
   <v>       0.00922247       0.01009208       0.01286582 </v>
   <v>       0.00183879      -0.00142003       0.00816327 </v>
   <v>       0.00278090      -0.01219074       0.00147353 </v>
   <v>       0.00037654      -0.00741564       0.00189685 </v>
   <v>      -0.00019281      -0.00026168       0.00713029 </v>
   <v>       0.00524803       0.00064879       0.01430776 </v>
   <v>       0.00349712       0.00791588       0.01831775 </v>
   <v>      -0.00288319       0.00856662       0.01452546 </v>
   <v>       0.00457874       0.00796417      -0.00617432 </v>
   <v>       0.00041758       0.01091709      -0.00947200 </v>
   <v>      -0.00110629       0.00197511      -0.00934456 </v>
   <v>       0.00016821      -0.00197424      -0.00241387 </v>
   <v>      -0.00105950      -0.00135705       0.00211326 </v>
   <v>       0.00104115      -0.00202382       0.00445230 </v>
   <v>       0.01007077      -0.00206200       0.00144623 </v>
   <v>       0.00652638       0.00314304      -0.01255354 </v>
   <v>       0.00095947       0.00746719      -0.01854386 </v>
   <v>      -0.00162315       0.00110984      -0.01881415 </v>
   <v>      -0.00012820      -0.00243696      -0.01311046 </v>
   <v>       0.00179579      -0.00122552      -0.00739537 </v>
   <v>       0.00346933       0.00256038      -0.00838778 </v>
   <v>       0.00242478       0.00234836      -0.00747794 </v>
   <v>      -0.00106488       0.00346090      -0.01264558 </v>
   <v>       0.00152382       0.00315698      -0.01615505 </v>
   <v>      -0.00155600       0.00124802      -0.02156544 </v>
   <v>      -0.00064318       0.00012236      -0.01888074 </v>
   <v>       0.00843384       0.00419051      -0.00745473 </v>
   <v>       0.00518941       0.00340658      -0.00966957 </v>
   <v>       0.00274959       0.00346697      -0.01172528 </v>
   <v>      -0.00140033       0.00029476      -0.00660965 </v>
   <v>      -0.00276709       0.00425434      -0.00727781 </v>
   <v>       0.00166111       0.00189317      -0.00380688 </v>
   <v>       0.00025016      -0.00151732      -0.00490553 </v>
   <v>      -0.00293600      -0.00124673       0.00060729 </v>
   <v>      -0.00230266       0.00300401       0.00088597 </v>
   <v>      -0.00351243       0.00322117       0.00782881 </v>
   <v>      -0.01052131      -0.01274095       0.01415824 </v>
   <v>      -0.00724626      -0.00710718       0.00184148 </v>
   <v>      -0.00459161       0.00312819       0.00465838 </v>
   <v>       0.00032174       0.00399097       0.00508345 </v>
   <v>      -0.00132544       0.00169077       0.00936095 </v>
   <v>      -0.00514232       0.00209101       0.01624821 </v>
   <v>       0.00275119      -0.00635535       0.01981555 </v>
   <v>       0.00129890      -0.01355406       0.01793225 </v>
   <v>      -0.00670192      -0.00488361       0.00933756 </v>
   <v>      -0.00026031       0.00830819       0.00256328 </v>
   <v>      -0.00598540       0.01300983       0.00091511 </v>
   <v>       0.00144687       0.00176758       0.00243526 </v>
   <v>      -0.00077740      -0.00008729       0.00988260 </v>
   <v>      -0.00151177      -0.00213564       0.01648693 </v>
   <v>       0.00403248      -0.00865360       0.01443078 </v>
   <v>       0.00314813      -0.00231955       0.00920718 </v>
   <v>      -0.00098550       0.00164216      -0.01220137 </v>
   <v>      -0.00383609      -0.00103189      -0.02327018 </v>
   <v>      -0.00022731       0.00004001       0.02030407 </v>
   <v>       0.00159946      -0.00097108       0.01084327 </v>
   <v>      -0.00139282       0.00389453       0.02152595 </v>
   <v>       0.00028005       0.00032762      -0.01504083 </v>
   <v>       0.00520869      -0.00057666      -0.01318810 </v>
   <v>       0.01734010       0.00797219      -0.02515882 </v>
   <v>       0.00105240       0.00220972      -0.01877735 </v>
   <v>      -0.00046469      -0.00503063       0.01025839 </v>
   <v>      -0.01017368      -0.00309879       0.15708210 </v>
  </varray>
  <varray name="stress" >
   <v>       3.04495619       1.86273163      -0.02562532 </v>
   <v>       1.86273011       1.22957988      -0.01960052 </v>
   <v>      -0.02562479      -0.01960031      -0.19330318 </v>
  </varray>
  <energy>
   <i name="e_fr_energy">   -859.37906642 </i>
   <i name="e_wo_entrp">   -859.37906641 </i>
   <i name="e_0_energy">   -859.37906641 </i>
  </energy>
  <time name="totalsc"> 1688.40 1698.91</time>
 </calculation>
 <calculation>
  <scstep>
   <time name="dav">   69.06   69.47</time>
   <time name="total">   80.09   80.58</time>
   <energy>
    <i name="alphaZ">    186.33367753 </i>
    <i name="ewald">  37681.09686634 </i>
    <i name="hartreedc"> -50363.91049224 </i>
    <i name="XCdc">   1337.20857504 </i>
    <i name="pawpsdc">  38463.58198140 </i>
    <i name="pawaedc"> -38536.55511547 </i>
    <i name="eentropy">     -0.00000001 </i>
    <i name="bandstr">  -4419.81439316 </i>
    <i name="atom">  14800.58670786 </i>
    <i name="e_fr_energy">   -851.47219271 </i>
    <i name="e_wo_entrp">   -851.47219270 </i>
    <i name="e_0_energy">   -851.47219270 </i>
   </energy>
  </scstep>
  <scstep>
   <time name="dav">   72.98   73.41</time>
   <time name="total">   84.38   84.92</time>
   <energy>
    <i name="e_fr_energy">   -851.47219904 </i>
    <i name="e_wo_entrp">   -851.47219903 </i>
    <i name="e_0_energy">   -851.47219904 </i>
   </energy>
  </scstep>
  <scstep>
   <time name="dav">   56.34   56.61</time>
   <time name="total">   66.35   66.71</time>
   <energy>
    <i name="e_fr_energy">   -851.47219782 </i>
    <i name="e_wo_entrp">   -851.47219781 </i>
    <i name="e_0_energy">   -851.47219782 </i>
   </energy>
  </scstep>
  <scstep>
   <time name="dav">   45.55   45.74</time>
   <time name="total">   50.09   50.33</time>
   <energy>
    <i name="alphaZ">    186.33367753 </i>
    <i name="ewald">  37681.09686634 </i>
    <i name="hartreedc"> -50363.89467586 </i>
    <i name="XCdc">   1337.20839960 </i>
    <i name="pawpsdc">  38463.15734870 </i>
    <i name="pawaedc"> -38536.13052086 </i>
    <i name="eentropy">     -0.00000001 </i>
    <i name="bandstr">  -4419.83000043 </i>
    <i name="atom">  14800.58670786 </i>
    <i name="e_fr_energy">   -851.47219712 </i>
    <i name="e_wo_entrp">   -851.47219711 </i>
    <i name="e_0_energy">   -851.47219712 </i>
   </energy>
  </scstep>
  <structure>
   <crystal>
    <varray name="basis" >
     <v>      17.27103806       0.00000000       0.00000000 </v>
     <v>      -8.63551903      14.95715771       0.00000000 </v>
     <v>       0.00000000       0.00000000      15.00000000 </v>
    </varray>
    <i name="volume">   3874.88459904 </i>
    <varray name="rec_basis" >
     <v>       0.05790040       0.03342881       0.00000000 </v>
     <v>       0.00000000       0.06685762       0.00000000 </v>
     <v>       0.00000000       0.00000000       0.06666667 </v>
    </varray>
   </crystal>
   <varray name="positions" >
    <v>       0.00048158       0.00061062       0.50243219 </v>
    <v>       0.99983570       0.14312878       0.50355442 </v>
    <v>       0.99956026       0.28596022       0.50344340 </v>
    <v>       0.00005203       0.42909490       0.50351076 </v>
    <v>       0.00081128       0.57221821       0.50209944 </v>
    <v>       0.00179436       0.71549297       0.50190742 </v>
    <v>       0.00167881       0.85852465       0.50224771 </v>
    <v>       0.14360236       0.00098850       0.49418279 </v>
    <v>       0.14273196       0.14331787       0.49316871 </v>
    <v>       0.14128797       0.28520926       0.48990549 </v>
    <v>       0.14170390       0.42852342       0.49116353 </v>
    <v>       0.14311764       0.57174521       0.49410921 </v>
    <v>       0.14380653       0.71497085       0.49510791 </v>
    <v>       0.14397834       0.85815495       0.49562424 </v>
    <v>       0.28627501       0.00074659       0.49214703 </v>
    <v>       0.28564083       0.14321711       0.48368100 </v>
    <v>       0.28317358       0.28488510       0.46599881 </v>
    <v>       0.27931626       0.42647263       0.45689670 </v>
    <v>       0.28471818       0.57010877       0.47390666 </v>
    <v>       0.28600731       0.71477302       0.48804768 </v>
    <v>       0.28635617       0.85798655       0.49316770 </v>
    <v>       0.42916913       0.00094614       0.49476611 </v>
    <v>       0.42888097       0.14382153       0.49118128 </v>
    <v>       0.42679889       0.28349753       0.47995680 </v>
    <v>       0.42692767       0.71595256       0.48600292 </v>
    <v>       0.42897421       0.85780087       0.49297273 </v>
    <v>       0.57168002       0.00101105       0.49971125 </v>
    <v>       0.57165432       0.14374174       0.49917462 </v>
    <v>       0.57238772       0.28761940       0.49931285 </v>
    <v>       0.57256056       0.85825619       0.50014181 </v>
    <v>       0.71447642       0.00058944       0.50686791 </v>
    <v>       0.71450503       0.14363557       0.50459945 </v>
    <v>       0.71441839       0.28661344       0.50580093 </v>
    <v>       0.71429527       0.42885694       0.51302594 </v>
    <v>       0.72100068       0.57460124       0.53790557 </v>
    <v>       0.72480398       0.71981346       0.54278427 </v>
    <v>       0.71402627       0.85799411       0.51552853 </v>
    <v>       0.85756623       0.00074459       0.50967496 </v>
    <v>       0.85703247       0.14333293       0.50743933 </v>
    <v>       0.85705194       0.28620947       0.50706702 </v>
    <v>       0.85769994       0.42929791       0.50839764 </v>
    <v>       0.85895944       0.57283316       0.51151057 </v>
    <v>       0.86075179       0.71640465       0.51574103 </v>
    <v>       0.85871469       0.85808348       0.51226131 </v>
    <v>       0.04781445       0.09583552       0.50048002 </v>
    <v>       0.04672595       0.23799003       0.50029932 </v>
    <v>       0.04692156       0.38109067       0.50080264 </v>
    <v>       0.04816371       0.52438296       0.50040162 </v>
    <v>       0.04870875       0.66752922       0.49933722 </v>
    <v>       0.04895256       0.81062170       0.49947425 </v>
    <v>       0.04851873       0.95335628       0.49941599 </v>
    <v>       0.19060370       0.09569618       0.48957342 </v>
    <v>       0.18913415       0.23804172       0.48546654 </v>
    <v>       0.18729643       0.37973724       0.48198028 </v>
    <v>       0.18983963       0.52362206       0.48746631 </v>
    <v>       0.19090425       0.66725698       0.49179330 </v>
    <v>       0.19140311       0.81041967       0.49432766 </v>
    <v>       0.19131547       0.95327050       0.49355808 </v>
    <v>       0.33372024       0.09619453       0.48887126 </v>
    <v>       0.33360072       0.23817555       0.47392325 </v>
    <v>       0.31872656       0.37346184       0.44005305 </v>
    <v>       0.32589594       0.52074188       0.45244151 </v>
    <v>       0.33392264       0.66742286       0.48169504 </v>
    <v>       0.33386027       0.80999854       0.49135534 </v>
    <v>       0.33381521       0.95314434       0.49341064 </v>
    <v>       0.47656037       0.09611074       0.49535366 </v>
    <v>       0.47562740       0.23911737       0.49032770 </v>
    <v>       0.47589013       0.80944136       0.49265715 </v>
    <v>       0.47660947       0.95326242       0.49601269 </v>
    <v>       0.61913177       0.09609135       0.50137046 </v>
    <v>       0.61927529       0.23915637       0.50174736 </v>
    <v>       0.62129149       0.38109865       0.50607307 </v>
    <v>       0.62125303       0.81375927       0.50685578 </v>
    <v>       0.61937401       0.95335551       0.50260385 </v>
    <v>       0.76203687       0.09601264       0.50641507 </v>
    <v>       0.76200768       0.23871838       0.50599351 </v>
    <v>       0.76239222       0.38171370       0.50936976 </v>
    <v>       0.76372201       0.52604776       0.52099361 </v>
    <v>       0.76718263       0.66866066       0.53360420 </v>
    <v>       0.76332927       0.81031634       0.52373777 </v>
    <v>       0.76235110       0.95331006       0.51131240 </v>
    <v>       0.90470273       0.09554532       0.50743413 </v>
    <v>       0.90447217       0.23847739       0.50667088 </v>
    <v>       0.90484573       0.38164473       0.50677983 </v>
    <v>       0.90581517       0.52482881       0.50682083 </v>
    <v>       0.90689487       0.66794240       0.50919549 </v>
    <v>       0.90680426       0.81106032       0.50981216 </v>
    <v>       0.90542294       0.95301980       0.50752160 </v>
    <v>       0.46257493       0.35595796       0.47878985 </v>
    <v>       0.39612888       0.55536160       0.43373642 </v>
    <v>       0.64970542       0.53965383       0.55036223 </v>
    <v>       0.58589076       0.41836462       0.50482259 </v>
    <v>       0.58518605       0.74155944       0.50494838 </v>
    <v>       0.46265210       0.67903155       0.48603790 </v>
    <v>       0.54865841       0.57438189       0.52111713 </v>
    <v>       0.48520829       0.50382562       0.45079449 </v>
    <v>       0.39782024       0.41391971       0.39299670 </v>
    <v>       0.63787198       0.67428124       0.57343688 </v>
    <v>       0.52551777       0.51359059       0.50000005 </v>
   </varray>
  </structure>
  <varray name="forces" >
   <v>       0.00075195       0.00039425       0.00236791 </v>
   <v>      -0.00072072       0.00002110      -0.00378172 </v>
   <v>      -0.00116725       0.00087377      -0.00577095 </v>
   <v>      -0.00034156      -0.00001709      -0.00333341 </v>
   <v>       0.00019030       0.00010027       0.00359222 </v>
   <v>       0.00033033       0.00040079       0.00704682 </v>
   <v>      -0.00066582      -0.00049853       0.00644541 </v>
   <v>       0.00018717      -0.00032741      -0.00545011 </v>
   <v>       0.00201821       0.00242802      -0.01222736 </v>
   <v>       0.00186225       0.00100126      -0.01401230 </v>
   <v>       0.00014562      -0.00052665      -0.01101817 </v>
   <v>      -0.00018186      -0.00063865      -0.00701667 </v>
   <v>      -0.00013033      -0.00030232      -0.00420435 </v>
   <v>       0.00025850       0.00024968      -0.00362552 </v>
   <v>      -0.00018396       0.00068863      -0.01153688 </v>
   <v>       0.00135342      -0.00050795      -0.01350705 </v>
   <v>      -0.00077586      -0.00001009      -0.02075592 </v>
   <v>      -0.00294511      -0.00265324      -0.01772349 </v>
   <v>      -0.00132705       0.00213595      -0.01538696 </v>
   <v>       0.00046651       0.00084827      -0.00893539 </v>
   <v>       0.00245832       0.00256677      -0.01126522 </v>
   <v>       0.00073243       0.00075711      -0.00710898 </v>
   <v>      -0.00080247       0.00075108      -0.00944439 </v>
   <v>      -0.00133528       0.00039580      -0.01213932 </v>
   <v>       0.00249689       0.00349421      -0.01146572 </v>
   <v>       0.00059109       0.00020809      -0.00635934 </v>
   <v>      -0.00069528      -0.00078349      -0.00065346 </v>
   <v>      -0.00054772       0.00091825      -0.00029689 </v>
   <v>      -0.00033069       0.00172586       0.00050045 </v>
   <v>      -0.00095529      -0.00184336       0.00533973 </v>
   <v>      -0.00171975      -0.00123402       0.00645883 </v>
   <v>      -0.00133715      -0.00003304       0.00368363 </v>
   <v>       0.00042428       0.00031677       0.00542837 </v>
   <v>      -0.00037326       0.00005200       0.01192771 </v>
   <v>       0.00087859       0.00042396       0.01792792 </v>
   <v>       0.00133611      -0.00221087       0.01822560 </v>
   <v>      -0.00139756      -0.00284021       0.01262316 </v>
   <v>      -0.00053698      -0.00013203       0.00807874 </v>
   <v>      -0.00079619       0.00240601       0.00308886 </v>
   <v>      -0.00114766       0.00015414       0.00213679 </v>
   <v>       0.00028476      -0.00024829       0.00725270 </v>
   <v>       0.00086381      -0.00009496       0.01470193 </v>
   <v>       0.00159751      -0.00038476       0.01907328 </v>
   <v>       0.00104487      -0.00121291       0.01479284 </v>
   <v>      -0.00094513      -0.00102387      -0.00547250 </v>
   <v>      -0.00202797      -0.00300188      -0.00847807 </v>
   <v>      -0.00230582      -0.00129932      -0.00859379 </v>
   <v>      -0.00004932       0.00075402      -0.00246136 </v>
   <v>       0.00028287       0.00061470       0.00202060 </v>
   <v>       0.00019956       0.00070114       0.00437657 </v>
   <v>      -0.00066027       0.00154518       0.00087577 </v>
   <v>       0.00027898      -0.00181618      -0.01194791 </v>
   <v>      -0.00110263      -0.00187689      -0.01724681 </v>
   <v>      -0.00185898      -0.00217125      -0.01803450 </v>
   <v>      -0.00086475       0.00054610      -0.01278891 </v>
   <v>      -0.00025594       0.00000790      -0.00725314 </v>
   <v>      -0.00057734      -0.00067096      -0.00812797 </v>
   <v>      -0.00117998      -0.00046911      -0.00728894 </v>
   <v>      -0.00053859      -0.00047357      -0.01098740 </v>
   <v>      -0.00117203      -0.00103805      -0.01600194 </v>
   <v>      -0.00077801       0.00025803      -0.02168566 </v>
   <v>      -0.00307571       0.00130730      -0.01841652 </v>
   <v>      -0.00040971       0.00034140      -0.00820815 </v>
   <v>      -0.00068595      -0.00030493      -0.00818712 </v>
   <v>      -0.00032237       0.00020374      -0.01160537 </v>
   <v>      -0.00027140       0.00092415      -0.00633167 </v>
   <v>      -0.00065801       0.00011472      -0.00694296 </v>
   <v>      -0.00007231      -0.00038169      -0.00398606 </v>
   <v>       0.00008904       0.00042769      -0.00473748 </v>
   <v>      -0.00018269       0.00004623       0.00086003 </v>
   <v>       0.00007703       0.00037759       0.00113673 </v>
   <v>       0.00022154      -0.00047932       0.00787274 </v>
   <v>       0.00048431      -0.00048143       0.01527308 </v>
   <v>       0.00157551       0.00055567       0.00109869 </v>
   <v>       0.00005370      -0.00125561       0.00470127 </v>
   <v>      -0.00066739      -0.00144658       0.00335692 </v>
   <v>       0.00050291      -0.00052379       0.00917145 </v>
   <v>       0.00203437      -0.00037161       0.01509860 </v>
   <v>       0.00090720       0.00160493       0.01793719 </v>
   <v>       0.00057868       0.00050674       0.01562308 </v>
   <v>      -0.00048152       0.00095001       0.00770024 </v>
   <v>      -0.00032019      -0.00170724       0.00271270 </v>
   <v>       0.00078874      -0.00181072      -0.00060581 </v>
   <v>      -0.00013504      -0.00056447       0.00238537 </v>
   <v>       0.00182472       0.00105526       0.00824818 </v>
   <v>       0.00182437       0.00071872       0.01592760 </v>
   <v>       0.00020459       0.00147518       0.01414849 </v>
   <v>      -0.00040001       0.00043202       0.00926459 </v>
   <v>      -0.00117492      -0.00038188      -0.01211036 </v>
   <v>      -0.00327481      -0.00087425      -0.02322583 </v>
   <v>       0.00196180       0.00124317       0.01974508 </v>
   <v>      -0.00035686       0.00005818       0.01077767 </v>
   <v>      -0.00191503      -0.00172452       0.02139587 </v>
   <v>      -0.00021892      -0.00008669      -0.01507579 </v>
   <v>       0.00494590      -0.00004605      -0.01297540 </v>
   <v>       0.01652377       0.00783495      -0.02585943 </v>
   <v>      -0.00064162       0.00121983      -0.01794618 </v>
   <v>       0.00029195      -0.00365684       0.00944349 </v>
   <v>      -0.00592843      -0.00269800       0.15775768 </v>
  </varray>
  <varray name="stress" >
   <v>       3.04713582       1.86124362      -0.02675796 </v>
   <v>       1.86124213       1.22242445      -0.01991058 </v>
   <v>      -0.02675742      -0.01991038      -0.19154720 </v>
  </varray>
  <energy>
[...]
       <r>   -17.7705     4.3479    31.0042 </r>
       <r>   -17.6510     4.1318    31.4979 </r>
       <r>   -17.5315     6.7904    32.3094 </r>
       <r>   -17.4120    15.7011    34.1856 </r>
       <r>   -17.2925    10.5487    35.4461 </r>
       <r>   -17.1730    12.6445    36.9571 </r>
       <r>   -17.0535     3.0037    37.3161 </r>
       <r>   -16.9340     7.4661    38.2082 </r>
       <r>   -16.8145     9.7794    39.3769 </r>
       <r>   -16.6950     5.3263    40.0133 </r>
       <r>   -16.5755     7.1604    40.8690 </r>
       <r>   -16.4560     2.4318    41.1596 </r>
       <r>   -16.3365    16.3905    43.1182 </r>
       <r>   -16.2170    11.6881    44.5149 </r>
       <r>   -16.0975     3.8312    44.9727 </r>
       <r>   -15.9780     3.5911    45.4018 </r>
       <r>   -15.8585     2.9016    45.7486 </r>
       <r>   -15.7390     0.9436    45.8613 </r>
       <r>   -15.6195     3.1904    46.2426 </r>
       <r>   -15.5000     2.0577    46.4884 </r>
       <r>   -15.3805     7.7853    47.4188 </r>
       <r>   -15.2610    10.0451    48.6191 </r>
       <r>   -15.1415     6.0079    49.3370 </r>
       <r>   -15.0220     7.0030    50.1739 </r>
       <r>   -14.9025    14.4866    51.9050 </r>
       <r>   -14.7830     9.0547    52.9870 </r>
       <r>   -14.6635     2.4649    53.2815 </r>
       <r>   -14.5440    10.5734    54.5450 </r>
       <r>   -14.4245    12.2226    56.0056 </r>
       <r>   -14.3050     8.1646    56.9813 </r>
       <r>   -14.1855    10.2276    58.2034 </r>
       <r>   -14.0661    11.8584    59.6205 </r>
       <r>   -13.9466     4.6197    60.1725 </r>
       <r>   -13.8271     5.1532    60.7883 </r>
       <r>   -13.7076     5.8484    61.4872 </r>
       <r>   -13.5881     6.5669    62.2719 </r>
       <r>   -13.4686     9.6901    63.4298 </r>
       <r>   -13.3491     8.2892    64.4204 </r>
       <r>   -13.2296     8.4697    65.4325 </r>
       <r>   -13.1101     4.8523    66.0123 </r>
       <r>   -12.9906     4.1443    66.5075 </r>
       <r>   -12.8711     8.2226    67.4901 </r>
       <r>   -12.7516     8.3494    68.4878 </r>
       <r>   -12.6321     8.0502    69.4498 </r>
       <r>   -12.5126    10.0398    70.6495 </r>
       <r>   -12.3931    11.9920    72.0825 </r>
       <r>   -12.2736    12.9597    73.6312 </r>
       <r>   -12.1541     9.0929    74.7178 </r>
       <r>   -12.0346     5.2513    75.3453 </r>
       <r>   -11.9151     6.7497    76.1518 </r>
       <r>   -11.7956     8.1950    77.1311 </r>
       <r>   -11.6761    11.0231    78.4484 </r>
       <r>   -11.5566     7.6201    79.3589 </r>
       <r>   -11.4371    11.3947    80.7206 </r>
       <r>   -11.3176    10.3177    81.9535 </r>
       <r>   -11.1981    12.7753    83.4801 </r>
       <r>   -11.0786    10.8917    84.7817 </r>
       <r>   -10.9591    11.5229    86.1586 </r>
       <r>   -10.8396    15.5191    88.0131 </r>
       <r>   -10.7201     8.2267    88.9962 </r>
       <r>   -10.6006     2.9820    89.3525 </r>
       <r>   -10.4811     6.7332    90.1571 </r>
       <r>   -10.3616     8.1372    91.1295 </r>
       <r>   -10.2421    13.7740    92.7754 </r>
       <r>   -10.1226    15.2533    94.5982 </r>
       <r>   -10.0031    17.8170    96.7272 </r>
       <r>    -9.8837    19.9391    99.1099 </r>
       <r>    -9.7642    17.5001   101.2011 </r>
       <r>    -9.6447    17.2875   103.2669 </r>
       <r>    -9.5252    11.1525   104.5996 </r>
       <r>    -9.4057    20.5521   107.0555 </r>
       <r>    -9.2862    15.7765   108.9408 </r>
       <r>    -9.1667    17.0775   110.9815 </r>
       <r>    -9.0472    23.0057   113.7306 </r>
       <r>    -8.9277    22.3570   116.4022 </r>
       <r>    -8.8082    28.9507   119.8617 </r>
       <r>    -8.6887    25.2492   122.8789 </r>
       <r>    -8.5692    19.1356   125.1656 </r>
       <r>    -8.4497    18.3129   127.3539 </r>
       <r>    -8.3302    19.8797   129.7295 </r>
       <r>    -8.2107    16.7518   131.7313 </r>
       <r>    -8.0912    20.0087   134.1223 </r>
       <r>    -7.9717    22.2364   136.7795 </r>
       <r>    -7.8522    19.2056   139.0745 </r>
       <r>    -7.7327    19.6999   141.4286 </r>
       <r>    -7.6132    11.3585   142.7859 </r>
       <r>    -7.4937    11.6253   144.1751 </r>
       <r>    -7.3742    13.6803   145.8098 </r>
       <r>    -7.2547    15.0728   147.6110 </r>
       <r>    -7.1352    24.0568   150.4857 </r>
       <r>    -7.0157    18.8918   152.7432 </r>
       <r>    -6.8962    17.7283   154.8617 </r>
       <r>    -6.7767     9.8963   156.0443 </r>
       <r>    -6.6572     8.0765   157.0094 </r>
       <r>    -6.5377    16.0724   158.9300 </r>
       <r>    -6.4182    10.4982   160.1845 </r>
       <r>    -6.2987    11.8502   161.6006 </r>
       <r>    -6.1792    12.3810   163.0801 </r>
       <r>    -6.0597    20.3049   165.5065 </r>
       <r>    -5.9402    11.2517   166.8510 </r>
       <r>    -5.8207    15.8073   168.7399 </r>
       <r>    -5.7013    14.1639   170.4325 </r>
       <r>    -5.5818    11.7982   171.8423 </r>
       <r>    -5.4623    14.4889   173.5737 </r>
       <r>    -5.3428     6.5969   174.3620 </r>
       <r>    -5.2233     3.6648   174.8000 </r>
       <r>    -5.1038     2.2788   175.0723 </r>
       <r>    -4.9843    17.5111   177.1648 </r>
       <r>    -4.8648    19.7269   179.5221 </r>
       <r>    -4.7453    14.7545   181.2852 </r>
       <r>    -4.6258     4.5104   181.8242 </r>
       <r>    -4.5063     9.4298   182.9510 </r>
       <r>    -4.3868     2.5137   183.2514 </r>
       <r>    -4.2673     2.8523   183.5923 </r>
       <r>    -4.1478     8.1659   184.5681 </r>
       <r>    -4.0283     6.6248   185.3597 </r>
       <r>    -3.9088     7.4586   186.2510 </r>
       <r>    -3.7893     7.4938   187.1465 </r>
       <r>    -3.6698     6.6572   187.9420 </r>
       <r>    -3.5503     0.4853   188.0000 </r>
       <r>    -3.4308     0.0358   188.0043 </r>
       <r>    -3.3113     2.0576   188.2502 </r>
       <r>    -3.1918     6.5473   189.0325 </r>
       <r>    -3.0723     1.8370   189.2521 </r>
       <r>    -2.9528     1.7487   189.4610 </r>
       <r>    -2.8333     0.3261   189.5000 </r>
       <r>    -2.7138     0.0156   189.5019 </r>
       <r>    -2.5943     2.8749   189.8454 </r>
       <r>    -2.4748     1.2933   189.9999 </r>
       <r>    -2.3553     0.0007   190.0000 </r>
       <r>    -2.2358     1.0395   190.1242 </r>
       <r>    -2.1163     3.1163   190.4966 </r>
       <r>    -1.9968     0.0282   190.5000 </r>
       <r>    -1.8773     0.0270   190.5032 </r>
       <r>    -1.7578     1.9952   190.7416 </r>
       <r>    -1.6383     2.4315   191.0322 </r>
       <r>    -1.5189     7.2566   191.8993 </r>
       <r>    -1.3994     0.8423   192.0000 </r>
       <r>    -1.2799     0.2562   192.0306 </r>
       <r>    -1.1604     5.5383   192.6924 </r>
       <r>    -1.0409     6.2661   193.4412 </r>
       <r>    -0.9214     4.5257   193.9820 </r>
       <r>    -0.8019    15.0963   195.7860 </r>
       <r>    -0.6824     9.5102   196.9224 </r>
       <r>    -0.5629     5.5562   197.5864 </r>
       <r>    -0.4434    13.0250   199.1428 </r>
       <r>    -0.3239     7.5081   200.0400 </r>
       <r>    -0.2044     4.7195   200.6040 </r>
       <r>    -0.0849     6.5452   201.3861 </r>
       <r>     0.0346     8.0111   202.3434 </r>
       <r>     0.1541    10.7994   203.6339 </r>
       <r>     0.2736    13.5512   205.2533 </r>
       <r>     0.3931     5.7870   205.9448 </r>
       <r>     0.5126     0.5074   206.0054 </r>
       <r>     0.6321     5.3996   206.6506 </r>
       <r>     0.7516    10.0506   207.8517 </r>
       <r>     0.8711    10.9260   209.1573 </r>
       <r>     0.9906     8.0423   210.1183 </r>
       <r>     1.1101     9.1614   211.2131 </r>
       <r>     1.2296     6.8021   212.0259 </r>
       <r>     1.3491     7.0982   212.8741 </r>
       <r>     1.4686    12.5150   214.3696 </r>
       <r>     1.5881    19.4567   216.6947 </r>
       <r>     1.7076    14.3458   218.4089 </r>
       <r>     1.8271    14.1629   220.1014 </r>
       <r>     1.9466     7.4284   220.9890 </r>
       <r>     2.0661    17.9141   223.1297 </r>
       <r>     2.1856    20.6133   225.5930 </r>
       <r>     2.3051    19.5336   227.9272 </r>
       <r>     2.4246    16.7529   229.9291 </r>
       <r>     2.5441    18.4608   232.1351 </r>
       <r>     2.6635    11.0691   233.4578 </r>
       <r>     2.7830    16.5540   235.4360 </r>
       <r>     2.9025    26.7315   238.6303 </r>
       <r>     3.0220    11.4133   239.9942 </r>
       <r>     3.1415     0.0487   240.0000 </r>
       <r>     3.2610     0.0000   240.0000 </r>
       <r>     3.3805     0.0000   240.0000 </r>
       <r>     3.5000     0.0000   240.0000 </r>
       <r>     3.6195     0.0000   240.0000 </r>
       <r>     3.7390     0.0000   240.0000 </r>
       <r>     3.8585     0.0000   240.0000 </r>
       <r>     3.9780     0.0000   240.0000 </r>
       <r>     4.0975     0.0000   240.0000 </r>
       <r>     4.2170     0.0000   240.0000 </r>
       <r>     4.3365     0.0000   240.0000 </r>
       <r>     4.4560     0.0000   240.0000 </r>
       <r>     4.5755     0.0000   240.0000 </r>
      </set>
     </set>
    </array>
   </total>
  </dos>
 </calculation>
 <structure name="finalpos" >
  <crystal>
   <varray name="basis" >
    <v>      17.27103806       0.00000000       0.00000000 </v>
    <v>      -8.63551903      14.95715771       0.00000000 </v>
    <v>       0.00000000       0.00000000      15.00000000 </v>
   </varray>
   <i name="volume">   3874.88459904 </i>
   <varray name="rec_basis" >
    <v>       0.05790040       0.03342881       0.00000000 </v>
    <v>       0.00000000       0.06685762       0.00000000 </v>
    <v>       0.00000000       0.00000000       0.06666667 </v>
   </varray>
  </crystal>
  <varray name="positions" >
   <v>       0.00061765       0.00077613       0.50307195 </v>
   <v>       0.99995959       0.14328523       0.50177000 </v>
   <v>       0.99965356       0.28606872       0.50074781 </v>
   <v>       0.00012724       0.42918011       0.50210135 </v>
   <v>       0.00093217       0.57233956       0.50342293 </v>
   <v>       0.00199452       0.71563670       0.50502732 </v>
   <v>       0.00183101       0.85868423       0.50503538 </v>
   <v>       0.14362806       0.00113929       0.49223278 </v>
   <v>       0.14271881       0.14343339       0.48851121 </v>
   <v>       0.14114731       0.28522530       0.48341593 </v>
   <v>       0.14150612       0.42855440       0.48500649 </v>
   <v>       0.14302823       0.57178778       0.49060788 </v>
   <v>       0.14386147       0.71507442       0.49390976 </v>
   <v>       0.14403530       0.85829252       0.49508319 </v>
   <v>       0.28633016       0.00093505       0.48881745 </v>
   <v>       0.28567135       0.14334011       0.47827084 </v>
   <v>       0.28299785       0.28483785       0.45815128 </v>
   <v>       0.27865170       0.42634048       0.44794230 </v>
   <v>       0.28442633       0.57024173       0.46650529 </v>
   <v>       0.28599960       0.71486930       0.48371743 </v>
   <v>       0.28640285       0.85812239       0.49033334 </v>
   <v>       0.42925229       0.00109208       0.49238427 </v>
   <v>       0.42902187       0.14401462       0.48744147 </v>
   <v>       0.42694837       0.28355740       0.47354190 </v>
   <v>       0.42702568       0.71611131       0.48120112 </v>
   <v>       0.42904012       0.85789077       0.49054316 </v>
   <v>       0.57173489       0.00110049       0.49898421 </v>
   <v>       0.57172898       0.14388638       0.49790355 </v>
   <v>       0.57237044       0.28780197       0.49818562 </v>
   <v>       0.57248877       0.85826605       0.50050308 </v>
   <v>       0.71446566       0.00059512       0.50825143 </v>
   <v>       0.71453066       0.14369600       0.50511322 </v>
   <v>       0.71441022       0.28669534       0.50683571 </v>
   <v>       0.71422853       0.42883278       0.51577021 </v>
   <v>       0.72098058       0.57454805       0.54163150 </v>
   <v>       0.72458758       0.71961874       0.54576552 </v>
   <v>       0.71388763       0.85797514       0.51863900 </v>
   <v>       0.85767588       0.00086624       0.51168563 </v>
   <v>       0.85714057       0.14344362       0.50793077 </v>
   <v>       0.85714802       0.28630332       0.50748090 </v>
   <v>       0.85781080       0.42939087       0.51054613 </v>
   <v>       0.85910781       0.57290297       0.51580628 </v>
   <v>       0.86106397       0.71657357       0.52087254 </v>
   <v>       0.85883272       0.85824952       0.51646484 </v>
   <v>       0.04793630       0.09598664       0.49846180 </v>
   <v>       0.04679824       0.23809716       0.49642706 </v>
   <v>       0.04694613       0.38118276       0.49714031 </v>
   <v>       0.04821964       0.52448917       0.49917641 </v>
   <v>       0.04885075       0.66766214       0.50056900 </v>
   <v>       0.04908672       0.81076936       0.50150507 </v>
   <v>       0.04862897       0.95350100       0.50000439 </v>
   <v>       0.19059359       0.09577901       0.48528611 </v>
   <v>       0.18903090       0.23805114       0.47866050 </v>
   <v>       0.18693245       0.37971323       0.47423647 </v>
   <v>       0.18963992       0.52370032       0.48150107 </v>
   <v>       0.19089321       0.66734447       0.48859682 </v>
   <v>       0.19144244       0.81053530       0.49263536 </v>
   <v>       0.19135324       0.95341057       0.49149053 </v>
   <v>       0.33381327       0.09638329       0.48443706 </v>
   <v>       0.33364898       0.23824876       0.46715279 </v>
   <v>       0.31836128       0.37337534       0.43158539 </v>
   <v>       0.32514465       0.52074172       0.44342200 </v>
   <v>       0.33397634       0.66763183       0.47580548 </v>
   <v>       0.33389670       0.81010418       0.48797396 </v>
   <v>       0.33386835       0.95330839       0.49050579 </v>
   <v>       0.47665507       0.09628242       0.49296178 </v>
   <v>       0.47574972       0.23935203       0.48641514 </v>
   <v>       0.47593312       0.80946096       0.49051100 </v>
   <v>       0.47667428       0.95336964       0.49431004 </v>
   <v>       0.61917678       0.09619054       0.50092995 </v>
   <v>       0.61928501       0.23930412       0.50128204 </v>
   <v>       0.62120565       0.38112468       0.50739177 </v>
   <v>       0.62102026       0.81377448       0.50965787 </v>
   <v>       0.61936190       0.95339318       0.50291900 </v>
   <v>       0.76208557       0.09606176       0.50744428 </v>
   <v>       0.76204157       0.23880039       0.50680463 </v>
   <v>       0.76242737       0.38178247       0.51157368 </v>
   <v>       0.76376995       0.52599695       0.52496529 </v>
   <v>       0.76731529       0.66869503       0.53784485 </v>
   <v>       0.76327034       0.81036105       0.52761239 </v>
   <v>       0.76236542       0.95332692       0.51359133 </v>
   <v>       0.90485125       0.09567629       0.50784632 </v>
   <v>       0.90461049       0.23859681       0.50618259 </v>
   <v>       0.90496283       0.38175537       0.50730327 </v>
   <v>       0.90597537       0.52496382       0.50971604 </v>
   <v>       0.90718017       0.66809310       0.51396709 </v>
   <v>       0.90702358       0.81125428       0.51438154 </v>
   <v>       0.90558381       0.95315815       0.51011618 </v>
   <v>       0.46286524       0.35599663       0.47128748 </v>
   <v>       0.39515068       0.55526968       0.42382651 </v>
   <v>       0.64956229       0.53951898       0.55354546 </v>
   <v>       0.58563762       0.41826929       0.50679177 </v>
   <v>       0.58455187       0.74157199       0.50962864 </v>
   <v>       0.46279027       0.67920462       0.47992637 </v>
   <v>       0.54992313       0.57186044       0.51803277 </v>
   <v>       0.48968711       0.50379606       0.44466529 </v>
   <v>       0.39789323       0.41410807       0.38529209 </v>
   <v>       0.63644976       0.67290982       0.57306488 </v>
   <v>       0.52121657       0.50952447       0.50000005 </v>
  </varray>
  <varray name="selective"  type="logical" >
   <v type="logical" >  T  T  T </v>
   <v type="logical" >  T  T  T </v>
   <v type="logical" >  T  T  T </v>
   <v type="logical" >  T  T  T </v>
   <v type="logical" >  T  T  T </v>
   <v type="logical" >  T  T  T </v>
   <v type="logical" >  T  T  T </v>
   <v type="logical" >  T  T  T </v>
   <v type="logical" >  T  T  T </v>
   <v type="logical" >  T  T  T </v>
   <v type="logical" >  T  T  T </v>
   <v type="logical" >  T  T  T </v>
   <v type="logical" >  T  T  T </v>
   <v type="logical" >  T  T  T </v>
   <v type="logical" >  T  T  T </v>
   <v type="logical" >  T  T  T </v>
   <v type="logical" >  T  T  T </v>
   <v type="logical" >  T  T  T </v>
   <v type="logical" >  T  T  T </v>
   <v type="logical" >  T  T  T </v>
   <v type="logical" >  T  T  T </v>
   <v type="logical" >  T  T  T </v>
   <v type="logical" >  T  T  T </v>
   <v type="logical" >  T  T  T </v>
   <v type="logical" >  T  T  T </v>
   <v type="logical" >  T  T  T </v>
   <v type="logical" >  T  T  T </v>
   <v type="logical" >  T  T  T </v>
   <v type="logical" >  T  T  T </v>
   <v type="logical" >  T  T  T </v>
   <v type="logical" >  T  T  T </v>
   <v type="logical" >  T  T  T </v>
   <v type="logical" >  T  T  T </v>
   <v type="logical" >  T  T  T </v>
   <v type="logical" >  T  T  T </v>
   <v type="logical" >  T  T  T </v>
   <v type="logical" >  T  T  T </v>
   <v type="logical" >  T  T  T </v>
   <v type="logical" >  T  T  T </v>
   <v type="logical" >  T  T  T </v>
   <v type="logical" >  T  T  T </v>
   <v type="logical" >  T  T  T </v>
   <v type="logical" >  T  T  T </v>
   <v type="logical" >  T  T  T </v>
   <v type="logical" >  T  T  T </v>
   <v type="logical" >  T  T  T </v>
   <v type="logical" >  T  T  T </v>
   <v type="logical" >  T  T  T </v>
   <v type="logical" >  T  T  T </v>
   <v type="logical" >  T  T  T </v>
   <v type="logical" >  T  T  T </v>
   <v type="logical" >  T  T  T </v>
   <v type="logical" >  T  T  T </v>
   <v type="logical" >  T  T  T </v>
   <v type="logical" >  T  T  T </v>
   <v type="logical" >  T  T  T </v>
   <v type="logical" >  T  T  T </v>
   <v type="logical" >  T  T  T </v>
   <v type="logical" >  T  T  T </v>
   <v type="logical" >  T  T  T </v>
   <v type="logical" >  T  T  T </v>
   <v type="logical" >  T  T  T </v>
   <v type="logical" >  T  T  T </v>
   <v type="logical" >  T  T  T </v>
   <v type="logical" >  T  T  T </v>
   <v type="logical" >  T  T  T </v>
   <v type="logical" >  T  T  T </v>
   <v type="logical" >  T  T  T </v>
   <v type="logical" >  T  T  T </v>
   <v type="logical" >  T  T  T </v>
   <v type="logical" >  T  T  T </v>
   <v type="logical" >  T  T  T </v>
   <v type="logical" >  T  T  T </v>
   <v type="logical" >  T  T  T </v>
   <v type="logical" >  T  T  T </v>
   <v type="logical" >  T  T  T </v>
   <v type="logical" >  T  T  T </v>
   <v type="logical" >  T  T  T </v>
   <v type="logical" >  T  T  T </v>
   <v type="logical" >  T  T  T </v>
   <v type="logical" >  T  T  T </v>
   <v type="logical" >  T  T  T </v>
   <v type="logical" >  T  T  T </v>
   <v type="logical" >  T  T  T </v>
   <v type="logical" >  T  T  T </v>
   <v type="logical" >  T  T  T </v>
   <v type="logical" >  T  T  T </v>
   <v type="logical" >  T  T  T </v>
   <v type="logical" >  T  T  T </v>
   <v type="logical" >  T  T  T </v>
   <v type="logical" >  T  T  T </v>
   <v type="logical" >  T  T  T </v>
   <v type="logical" >  T  T  T </v>
   <v type="logical" >  T  T  T </v>
   <v type="logical" >  T  T  T </v>
   <v type="logical" >  T  T  T </v>
   <v type="logical" >  T  T  T </v>
   <v type="logical" >  T  T  T </v>
   <v type="logical" >  T  T  F </v>
  </varray>
  <nose>
   <v>      -3.00000000       0.00000000       0.00010000       0.00010000 </v>
  </nose>
 </structure>
</modeling>
