unknown system                          
           1
    17.271038    0.000000    0.000000
    -8.635519   14.957158    0.000000
     0.000000    0.000000   15.000000
   C    H    F    O 
    88     8     2     1
Direct configuration=     1
   0.00048158  0.00061062  0.50243219
   0.99983570  0.14312878  0.50355442
   0.99956026  0.28596022  0.50344340
   0.00005203  0.42909490  0.50351076
   0.00081128  0.57221821  0.50209944
   0.00179436  0.71549297  0.50190742
   0.00167881  0.85852465  0.50224771
   0.14360236  0.00098850  0.49418279
   0.14273196  0.14331787  0.49316871
   0.14128797  0.28520926  0.48990549
   0.14170390  0.42852342  0.49116353
   0.14311764  0.57174521  0.49410921
   0.14380653  0.71497085  0.49510791
   0.14397834  0.85815495  0.49562424
   0.28627501  0.00074659  0.49214703
   0.28564083  0.14321711  0.48368100
   0.28317358  0.28488510  0.46599881
   0.27931626  0.42647263  0.45689670
   0.28471818  0.57010877  0.47390666
   0.28600731  0.71477302  0.48804768
   0.28635617  0.85798655  0.49316770
   0.42916913  0.00094614  0.49476611
   0.42888097  0.14382153  0.49118128
   0.42679889  0.28349753  0.47995680
   0.42692767  0.71595256  0.48600292
   0.42897421  0.85780087  0.49297273
   0.57168002  0.00101105  0.49971125
   0.57165432  0.14374174  0.49917462
   0.57238772  0.28761940  0.49931285
   0.57256056  0.85825619  0.50014181
   0.71447642  0.00058944  0.50686791
   0.71450503  0.14363557  0.50459945
   0.71441839  0.28661344  0.50580093
   0.71429527  0.42885694  0.51302594
   0.72100068  0.57460124  0.53790557
   0.72480398  0.71981346  0.54278427
   0.71402627  0.85799411  0.51552853
   0.85756623  0.00074459  0.50967496
   0.85703247  0.14333293  0.50743933
   0.85705194  0.28620947  0.50706702
   0.85769994  0.42929791  0.50839764
   0.85895944  0.57283316  0.51151057
   0.86075179  0.71640465  0.51574103
   0.85871469  0.85808348  0.51226131
   0.04781445  0.09583552  0.50048002
   0.04672595  0.23799003  0.50029932
   0.04692156  0.38109067  0.50080264
   0.04816371  0.52438296  0.50040162
   0.04870875  0.66752922  0.49933722
   0.04895256  0.81062170  0.49947425
   0.04851873  0.95335628  0.49941599
   0.19060370  0.09569618  0.48957342
   0.18913415  0.23804172  0.48546654
   0.18729643  0.37973724  0.48198028
   0.18983963  0.52362206  0.48746631
   0.19090425  0.66725698  0.49179330
   0.19140311  0.81041967  0.49432766
   0.19131547  0.95327050  0.49355808
   0.33372024  0.09619453  0.48887126
   0.33360072  0.23817555  0.47392325
   0.31872656  0.37346184  0.44005305
   0.32589594  0.52074188  0.45244151
   0.33392264  0.66742286  0.48169504
   0.33386027  0.80999854  0.49135534
   0.33381521  0.95314434  0.49341064
   0.47656037  0.09611074  0.49535366
   0.47562740  0.23911737  0.49032770
   0.47589013  0.80944136  0.49265715
   0.47660947  0.95326242  0.49601269
   0.61913177  0.09609135  0.50137046
   0.61927529  0.23915637  0.50174736
   0.62129149  0.38109865  0.50607307
   0.62125303  0.81375927  0.50685578
   0.61937401  0.95335551  0.50260385
   0.76203687  0.09601264  0.50641507
   0.76200768  0.23871838  0.50599351
   0.76239222  0.38171370  0.50936976
   0.76372201  0.52604776  0.52099361
   0.76718263  0.66866066  0.53360420
   0.76332927  0.81031634  0.52373777
   0.76235110  0.95331006  0.51131240
   0.90470273  0.09554532  0.50743413
   0.90447217  0.23847739  0.50667088
   0.90484573  0.38164473  0.50677983
   0.90581517  0.52482881  0.50682083
   0.90689487  0.66794240  0.50919549
   0.90680426  0.81106032  0.50981216
   0.90542294  0.95301980  0.50752160
   0.46257493  0.35595796  0.47878985
   0.39612888  0.55536160  0.43373642
   0.64970542  0.53965383  0.55036223
   0.58589076  0.41836462  0.50482259
   0.58518605  0.74155944  0.50494838
   0.46265210  0.67903155  0.48603790
   0.54865841  0.57438189  0.52111713
   0.48520829  0.50382562  0.45079449
   0.39782024  0.41391971  0.39299670
   0.63787198  0.67428124  0.57343688
   0.52551777  0.51359059  0.50000005
Direct configuration=     2
   0.00047849  0.00061078  0.50243596
   0.99982914  0.14312066  0.50354995
   0.99955832  0.28595697  0.50343600
   0.00005187  0.42909567  0.50350656
   0.00081301  0.57222024  0.50210446
   0.00179794  0.71549588  0.50191687
   0.00167856  0.85852718  0.50225746
   0.14359762  0.00098620  0.49417602
   0.14272859  0.14331312  0.49315231
   0.14128361  0.28520421  0.48988778
   0.14170464  0.42852338  0.49114884
   0.14311804  0.57174653  0.49409989
   0.14380606  0.71497085  0.49510264
   0.14397825  0.85815464  0.49561983
   0.28627316  0.00074606  0.49213166
   0.28563919  0.14321423  0.48366158
   0.28317110  0.28488296  0.46596999
   0.27931209  0.42647074  0.45686943
   0.28471753  0.57011337  0.47388522
   0.28600579  0.71477293  0.48803541
   0.28635355  0.85798556  0.49315257
   0.42917062  0.00094808  0.49475667
   0.42888047  0.14382152  0.49116827
   0.42679599  0.28349513  0.47993933
   0.42692568  0.71595108  0.48598625
   0.42897292  0.85780101  0.49296397
   0.57168147  0.00101217  0.49971046
   0.57165553  0.14374311  0.49917427
   0.57238727  0.28761826  0.49931341
   0.57256228  0.85825733  0.50014891
   0.71447954  0.00058924  0.50687674
   0.71450465  0.14363353  0.50460450
   0.71441963  0.28661260  0.50580805
   0.71429682  0.42885609  0.51304111
   0.72100673  0.57460353  0.53792642
   0.72480632  0.71981852  0.54280462
   0.71403221  0.85799819  0.51554456
   0.85756648  0.00074378  0.50968580
   0.85703076  0.14332754  0.50744273
   0.85704935  0.28620527  0.50706998
   0.85770000  0.42929771  0.50840729
   0.85896305  0.57283361  0.51152972
   0.86075701  0.71640925  0.51576553
   0.85871608  0.85808786  0.51228060
   0.04781836  0.09583970  0.50047254
   0.04672716  0.23799451  0.50028754
   0.04691977  0.38109104  0.50079087
   0.04816363  0.52438248  0.50039862
   0.04870837  0.66752901  0.49934033
   0.04895303  0.81062116  0.49948053
   0.04852365  0.95335635  0.49941786
   0.19060766  0.09569687  0.48955693
   0.18913556  0.23804492  0.48544211
   0.18729400  0.37973639  0.48195495
   0.18983862  0.52362113  0.48744864
   0.19090481  0.66725639  0.49178354
   0.19140520  0.81042086  0.49431691
   0.19131663  0.95327172  0.49354845
   0.33372031  0.09619643  0.48885527
   0.33360136  0.23817680  0.47390047
   0.31872538  0.37346260  0.44002132
   0.32589404  0.52074297  0.45241450
   0.33392826  0.66742575  0.48168388
   0.33386355  0.81000051  0.49134345
   0.33381767  0.95314675  0.49339513
   0.47656000  0.09611181  0.49534486
   0.47562694  0.23912024  0.49031748
   0.47589146  0.80944238  0.49265154
   0.47660946  0.95326201  0.49600619
   0.61912988  0.09609082  0.50137145
   0.61927528  0.23915863  0.50174845
   0.62129071  0.38110038  0.50608288
   0.62124392  0.81375147  0.50687466
   0.61936943  0.95335186  0.50260553
   0.76203511  0.09601375  0.50642143
   0.76200820  0.23871985  0.50599916
   0.76239230  0.38171446  0.50938189
   0.76372125  0.52604884  0.52101346
   0.76718332  0.66865805  0.53362739
   0.76332641  0.81030861  0.52375867
   0.76234627  0.95330798  0.51132329
   0.90470437  0.09554919  0.50743790
   0.90447294  0.23848402  0.50667128
   0.90484687  0.38164552  0.50678329
   0.90581648  0.52482968  0.50683293
   0.90689504  0.66794179  0.50921703
   0.90680456  0.81105635  0.50983111
   0.90542390  0.95301887  0.50753406
   0.46257401  0.35595890  0.47877198
   0.39612387  0.55536039  0.43370225
   0.64970689  0.53965483  0.55038573
   0.58589117  0.41836420  0.50483639
   0.58518458  0.74156076  0.50497613
   0.46265224  0.67903181  0.48601709
   0.54866361  0.57437969  0.52110104
   0.48523044  0.50383344  0.45076301
   0.39782047  0.41392121  0.39296726
   0.63786811  0.67427466  0.57344466
   0.52550366  0.51357989  0.50000005
Direct configuration=     3
   0.00048099  0.00061205  0.50244107
   0.99983148  0.14312504  0.50354244
   0.99955767  0.28595918  0.50342459
   0.00005152  0.42909595  0.50350023
   0.00081397  0.57222076  0.50211204
   0.00179893  0.71549664  0.50193166
   0.00167844  0.85852574  0.50227058
   0.14359885  0.00098638  0.49416511
   0.14273357  0.14331569  0.49312815
   0.14128407  0.28520525  0.48986039
   0.14170382  0.42852256  0.49112581
   0.14311744  0.57174556  0.49408564
   0.14380646  0.71497120  0.49509560
   0.14397932  0.85815548  0.49561294
   0.28627384  0.00074770  0.49210850
   0.28564015  0.14321427  0.48363370
   0.28317144  0.28488327  0.46592672
   0.27930616  0.42646712  0.45683100
   0.28471740  0.57011419  0.47385326
   0.28600795  0.71477476  0.48801723
   0.28635645  0.85799026  0.49313159
   0.42917418  0.00094996  0.49474294
   0.42888065  0.14382306  0.49115111
   0.42679468  0.28349665  0.47991284
   0.42693133  0.71595559  0.48596239
   0.42897456  0.85780181  0.49295093
   0.57167986  0.00101100  0.49970881
   0.57165552  0.14374518  0.49917313
   0.57238729  0.28762124  0.49931379
   0.57255934  0.85825417  0.50015866
   0.71447550  0.00058744  0.50688919
   0.71450265  0.14363376  0.50461192
   0.71442039  0.28661392  0.50581745
   0.71429628  0.42885644  0.51306390
   0.72100685  0.57460468  0.53795840
   0.72480621  0.71981352  0.54283668
   0.71402641  0.85799254  0.51556840
   0.85756543  0.00074386  0.50970182
   0.85703107  0.14333152  0.50744842
   0.85704983  0.28620759  0.50707529
   0.85770254  0.42929949  0.50842105
   0.85896526  0.57283626  0.51155783
   0.86075973  0.71640829  0.51580159
   0.85871665  0.85808527  0.51230975
   0.04781609  0.09583773  0.50046194
   0.04672168  0.23798874  0.50027065
   0.04691723  0.38108974  0.50077373
   0.04816467  0.52438426  0.50039401
   0.04870995  0.66753068  0.49934488
   0.04895426  0.81062317  0.49948974
   0.04851991  0.95335754  0.49942073
   0.19060612  0.09569377  0.48953270
   0.18913218  0.23803948  0.48540885
   0.18728916  0.37973240  0.48191792
   0.18983812  0.52362245  0.48742253
   0.19090470  0.66725684  0.49176892
   0.19140429  0.81042020  0.49430105
   0.19131456  0.95327102  0.49353406
   0.33371949  0.09619506  0.48883279
   0.33359834  0.23817476  0.47386619
   0.31872331  0.37346238  0.43997392
   0.32588893  0.52074593  0.45237576
   0.33392816  0.66742724  0.48166566
   0.33386228  0.81000038  0.49132577
   0.33381771  0.95314773  0.49337191
   0.47656094  0.09611413  0.49533192
   0.47562620  0.23912084  0.49030228
   0.47589134  0.80944236  0.49264282
   0.47661017  0.95326277  0.49599773
   0.61912987  0.09609128  0.50137316
   0.61927621  0.23915971  0.50175036
   0.62128953  0.38109776  0.50609657
   0.62124545  0.81375227  0.50690389
   0.61937194  0.95335279  0.50260846
   0.76203454  0.09601174  0.50643103
   0.76200626  0.23871724  0.50600695
   0.76239308  0.38171382  0.50939980
   0.76372492  0.52604837  0.52104223
   0.76718774  0.66866189  0.53366133
   0.76332930  0.81031266  0.52378627
   0.76234871  0.95331008  0.51133831
   0.90470052  0.09554508  0.50744297
   0.90447154  0.23847879  0.50667056
   0.90484604  0.38164450  0.50678832
   0.90581989  0.52483101  0.50685044
   0.90689945  0.66794374  0.50924869
   0.90680668  0.81106004  0.50985933
   0.90542374  0.95301997  0.50755282
   0.46257158  0.35595842  0.47874529
   0.39611707  0.55535885  0.43365137
   0.64971170  0.53965759  0.55041985
   0.58589076  0.41836470  0.50485670
   0.58517919  0.74155716  0.50501721
   0.46265210  0.67903200  0.48598597
   0.54867141  0.57437644  0.52107720
   0.48526347  0.50384497  0.45071663
   0.39781702  0.41392104  0.39292393
   0.63786276  0.67426566  0.57345592
   0.52548319  0.51356381  0.50000005
Direct configuration=     4
   0.00048529  0.00061375  0.50244774
   0.99983764  0.14313484  0.50353184
   0.99955699  0.28596288  0.50340866
   0.00005094  0.42909590  0.50349166
   0.00081511  0.57222085  0.50212225
   0.00179873  0.71549563  0.50195116
   0.00167884  0.85852305  0.50228783
   0.14360243  0.00098741  0.49414959
   0.14274076  0.14332045  0.49309588
   0.14128535  0.28520746  0.48982226
   0.14170151  0.42852227  0.49109387
   0.14311783  0.57174451  0.49406666
   0.14380791  0.71497182  0.49508605
   0.14398053  0.85815663  0.49560318
   0.28627544  0.00074975  0.49207707
   0.28564179  0.14321562  0.48359640
   0.28317262  0.28488605  0.46586933
   0.27930179  0.42646585  0.45677982
   0.28471655  0.57011542  0.47381277
   0.28601262  0.71477692  0.48799512
   0.28636205  0.85799728  0.49310399
   0.42917766  0.00095161  0.49472398
   0.42888112  0.14382522  0.49113039
   0.42679391  0.28350124  0.47987886
   0.42693984  0.71596263  0.48593105
   0.42897710  0.85780265  0.49293334
   0.57167741  0.00100883  0.49970614
   0.57165482  0.14374747  0.49917066
   0.57238681  0.28762530  0.49931371
   0.57255469  0.85824924  0.50017106
   0.71446872  0.00058527  0.50690530
   0.71449994  0.14363443  0.50462181
   0.71442007  0.28661601  0.50582948
   0.71429444  0.42885679  0.51309462
   0.72100503  0.57460489  0.53800163
   0.72480605  0.71980498  0.54287814
   0.71401721  0.85798283  0.51559998
   0.85756351  0.00074407  0.50972302
   0.85703027  0.14333679  0.50745525
   0.85705033  0.28621114  0.50708218
   0.85770620  0.42930235  0.50843952
   0.85896610  0.57283979  0.51159438
   0.86076060  0.71640404  0.51584878
   0.85871550  0.85807978  0.51234807
   0.04781205  0.09583353  0.50044791
   0.04671466  0.23797973  0.50024789
   0.04691558  0.38108834  0.50075108
   0.04816592  0.52438653  0.50038765
   0.04871265  0.66753336  0.49935116
   0.04895593  0.81062643  0.49950180
   0.04851450  0.95335922  0.49942450
   0.19059956  0.09568976  0.48950112
   0.18912826  0.23803115  0.48536623
   0.18728404  0.37973010  0.48186941
   0.18983747  0.52362393  0.48738777
   0.19090438  0.66725795  0.49174909
   0.19140225  0.81041939  0.49428008
   0.19131107  0.95326936  0.49351567
   0.33371894  0.09619219  0.48880281
   0.33359354  0.23817083  0.47381919
   0.31871925  0.37346041  0.43991599
   0.32588095  0.52074676  0.45232326
   0.33392584  0.66743009  0.48164078
   0.33385903  0.81000027  0.49130152
   0.33381990  0.95314924  0.49334095
   0.47656615  0.09611807  0.49531566
   0.47562515  0.23912058  0.49028168
   0.47589106  0.80944227  0.49263081
   0.47661096  0.95326338  0.49598819
   0.61913015  0.09609196  0.50137567
   0.61927752  0.23916037  0.50175333
   0.62128871  0.38109404  0.50611494
   0.62125140  0.81375630  0.50694221
   0.61937676  0.95335523  0.50261318
   0.76203402  0.09600835  0.50644415
   0.76200358  0.23871324  0.50601725
   0.76239492  0.38171498  0.50942221
   0.76372973  0.52604659  0.52108028
   0.76719464  0.66866839  0.53370738
   0.76333398  0.81032140  0.52382316
   0.76235350  0.95331230  0.51135848
   0.90469455  0.09553789  0.50744940
   0.90446899  0.23847035  0.50666943
   0.90484445  0.38164293  0.50679488
   0.90582498  0.52483329  0.50687253
   0.90690658  0.66794762  0.50929097
   0.90680979  0.81106665  0.50989772
   0.90542300  0.95302158  0.50757841
   0.46256800  0.35595731  0.47870951
   0.39610789  0.55535675  0.43358393
   0.64971788  0.53966104  0.55046481
   0.58588967  0.41836546  0.50488340
   0.58517072  0.74155018  0.50507185
   0.46265225  0.67903204  0.48594433
   0.54868166  0.57437143  0.52104547
   0.48530808  0.50386006  0.45065626
   0.39781156  0.41392026  0.39286316
   0.63785484  0.67425290  0.57347166
   0.52545465  0.51354185  0.50000005
Direct configuration=     5
   0.00048304  0.00061252  0.50245597
   0.99983489  0.14313252  0.50351865
   0.99955451  0.28596150  0.50338789
   0.00005038  0.42909607  0.50348087
   0.00081841  0.57222305  0.50213503
   0.00180063  0.71549694  0.50197502
   0.00167975  0.85852408  0.50231023
   0.14360098  0.00098658  0.49412941
   0.14273981  0.14331904  0.49305574
   0.14127825  0.28520139  0.48977463
   0.14169931  0.42852207  0.49105145
   0.14311936  0.57174576  0.49404221
   0.14381008  0.71497315  0.49507322
   0.14398026  0.85815683  0.49559043
   0.28627532  0.00074923  0.49203731
   0.28563888  0.14321417  0.48355004
   0.28317187  0.28488443  0.46580037
   0.27929727  0.42646683  0.45671478
   0.28471390  0.57011872  0.47376335
   0.28601452  0.71477851  0.48796865
   0.28636251  0.85799929  0.49306967
   0.42918066  0.00095414  0.49469909
   0.42888220  0.14382644  0.49110489
   0.42679159  0.28350279  0.47983610
   0.42694052  0.71596308  0.48589178
   0.42897705  0.85780297  0.49291115
   0.57167789  0.00100847  0.49970266
   0.57165618  0.14374996  0.49916653
   0.57238342  0.28762454  0.49931345
   0.57255432  0.85824766  0.50018604
   0.71446769  0.00058412  0.50692518
   0.71449804  0.14363264  0.50463426
   0.71441944  0.28661732  0.50584449
   0.71429377  0.42885581  0.51313296
   0.72100907  0.57460584  0.53805485
   0.72481033  0.71980882  0.54292489
   0.71401745  0.85798112  0.51563984
   0.85756214  0.00074301  0.50974918
   0.85702678  0.14333365  0.50746347
   0.85704896  0.28620969  0.50709062
   0.85770764  0.42930389  0.50846227
   0.85896804  0.57284221  0.51163857
   0.86076545  0.71640536  0.51590716
   0.85871761  0.85808264  0.51239468
   0.04781387  0.09583503  0.50043013
   0.04671443  0.23798055  0.50021824
   0.04691537  0.38108893  0.50072297
   0.04816678  0.52438699  0.50037953
   0.04871505  0.66753524  0.49935955
   0.04895740  0.81062774  0.49951652
   0.04851607  0.95336141  0.49942802
   0.19059612  0.09568865  0.48946119
   0.18913217  0.23803057  0.48531328
   0.18728024  0.37973060  0.48180928
   0.18983629  0.52362380  0.48734447
   0.19090709  0.66725976  0.49172672
   0.19140335  0.81042156  0.49425433
   0.19131191  0.95327005  0.49349367
   0.33371949  0.09619179  0.48876573
   0.33359138  0.23816927  0.47375829
   0.31871364  0.37345880  0.43984531
   0.32587268  0.52074354  0.45225596
   0.33392828  0.66743525  0.48160822
   0.33385931  0.81000370  0.49127167
   0.33382471  0.95315347  0.49330340
   0.47657186  0.09612202  0.49529601
   0.47562364  0.23912308  0.49025539
   0.47589284  0.80944355  0.49261537
   0.47661147  0.95326275  0.49597662
   0.61912832  0.09609167  0.50137883
   0.61927800  0.23916270  0.50175730
   0.62128793  0.38109404  0.50613855
   0.62124846  0.81375327  0.50698852
   0.61937536  0.95335357  0.50261995
   0.76203126  0.09600688  0.50646086
   0.76200367  0.23871431  0.50602915
   0.76239743  0.38171898  0.50944938
   0.76373085  0.52604656  0.52112933
   0.76720029  0.66866944  0.53376647
   0.76333323  0.81032044  0.52387260
   0.76235166  0.95330921  0.51138468
   0.90469281  0.09553739  0.50745717
   0.90446802  0.23846966  0.50666789
   0.90484445  0.38164321  0.50680290
   0.90582889  0.52483683  0.50689998
   0.90691244  0.66795252  0.50934338
   0.90681179  0.81106680  0.50994689
   0.90542301  0.95302120  0.50761102
   0.46256456  0.35595829  0.47866438
   0.39609531  0.55535377  0.43350031
   0.64972179  0.53966344  0.55051985
   0.58588869  0.41836543  0.50491587
   0.58516198  0.74154486  0.50513949
   0.46265343  0.67903216  0.48589232
   0.54869412  0.57436383  0.52100642
   0.48536328  0.50387770  0.45058335
   0.39780769  0.41392126  0.39278551
   0.63784668  0.67423865  0.57349300
   0.52541658  0.51351226  0.50000005
Direct configuration=     6
   0.00047729  0.00061056  0.50246576
   0.99982521  0.14311928  0.50350403
   0.99955236  0.28595789  0.50336303
   0.00005038  0.42909646  0.50346788
   0.00082343  0.57222714  0.50215047
   0.00180576  0.71550112  0.50200464
   0.00168147  0.85852881  0.50233902
   0.14359601  0.00098489  0.49410407
   0.14273197  0.14331294  0.49300827
   0.14126948  0.28519213  0.48971509
   0.14169770  0.42852177  0.49099655
   0.14312111  0.57174858  0.49401464
   0.14381302  0.71497556  0.49505653
   0.14397912  0.85815725  0.49557597
   0.28627433  0.00074831  0.49199193
   0.28563317  0.14321187  0.48349414
   0.28316892  0.28488279  0.46572068
   0.27929060  0.42646695  0.45663503
   0.28471132  0.57012117  0.47370428
   0.28601376  0.71478120  0.48793710
   0.28635744  0.85799769  0.49302864
   0.42918477  0.00095893  0.49466916
   0.42888405  0.14382707  0.49107307
   0.42678794  0.28350044  0.47978276
   0.42693596  0.71595907  0.48584477
   0.42897528  0.85780312  0.49288446
   0.57168047  0.00100952  0.49969864
   0.57166054  0.14375281  0.49916053
   0.57238072  0.28762254  0.49931238
   0.57255797  0.85824895  0.50020328
   0.71447134  0.00058270  0.50694890
   0.71449707  0.14362991  0.50464937
   0.71441991  0.28661914  0.50586299
   0.71429286  0.42885347  0.51317762
   0.72101823  0.57460851  0.53811818
   0.72481685  0.71981955  0.54297910
   0.71402433  0.85798550  0.51568628
   0.85756144  0.00074085  0.50978041
   0.85702215  0.14332448  0.50747338
   0.85704684  0.28620482  0.50710060
   0.85770792  0.42930514  0.50848984
   0.85897218  0.57284358  0.51169184
   0.86077519  0.71641237  0.51597705
   0.85872212  0.85809082  0.51245113
   0.04781848  0.09584006  0.50040871
   0.04671632  0.23798905  0.50018431
   0.04691523  0.38109020  0.50068916
   0.04816862  0.52438586  0.50037091
   0.04871771  0.66753642  0.49937019
   0.04895838  0.81062708  0.49953368
   0.04852224  0.95336209  0.49943157
   0.19059690  0.09568933  0.48941227
   0.18913926  0.23803675  0.48524853
   0.18727608  0.37973017  0.48173759
   0.18983362  0.52362317  0.48729393
   0.19091206  0.66726168  0.49170138
   0.19140715  0.81042578  0.49422394
   0.19131596  0.95327226  0.49346662
   0.33372062  0.09619443  0.48872031
   0.33359290  0.23816939  0.47368462
   0.31870869  0.37345801  0.43976163
   0.32586233  0.52073832  0.45217392
   0.33393364  0.66743934  0.48156531
   0.33386304  0.81000883  0.49123549
   0.33382736  0.95316018  0.49325901
   0.47657519  0.09612490  0.49527270
   0.47562231  0.23913053  0.49022472
   0.47589560  0.80944453  0.49259619
   0.47661207  0.95326174  0.49596171
   0.61912573  0.09609058  0.50138255
   0.61927712  0.23916628  0.50176231
   0.62128682  0.38109668  0.50616812
   0.62123586  0.81374173  0.50704205
   0.61936925  0.95334858  0.50262957
   0.76202697  0.09600724  0.50647990
   0.76200563  0.23872079  0.50604055
   0.76239917  0.38172323  0.50948185
   0.76372950  0.52604843  0.52118573
   0.76720483  0.66866644  0.53383939
   0.76332958  0.81031283  0.52393506
   0.76234425  0.95330218  0.51141799
   0.90469487  0.09554200  0.50746652
   0.90446767  0.23847495  0.50666596
   0.90484588  0.38164481  0.50681243
   0.90583064  0.52484084  0.50693367
   0.90691570  0.66795572  0.50940600
   0.90681330  0.81106341  0.51000577
   0.90542413  0.95301962  0.50764875
   0.46256147  0.35596163  0.47860981
   0.39607962  0.55534976  0.43340081
   0.64972345  0.53966463  0.55058462
   0.58588783  0.41836466  0.50495389
   0.58515357  0.74154203  0.50522012
   0.46265549  0.67903237  0.48582988
   0.54870873  0.57435249  0.52096013
   0.48542768  0.50389701  0.45049692
   0.39780339  0.41392065  0.39269147
   0.63783845  0.67422266  0.57352022
   0.52536923  0.51347532  0.50000005
Direct configuration=     7
   0.00048041  0.00061258  0.50247708
   0.99982646  0.14312193  0.50348608
   0.99955213  0.28595920  0.50333018
   0.00005124  0.42909647  0.50345112
   0.00082744  0.57222925  0.50216942
   0.00181107  0.71550470  0.50204632
   0.00168419  0.85853221  0.50237962
   0.14359354  0.00098230  0.49407227
   0.14273085  0.14331353  0.49294499
   0.14126703  0.28518888  0.48963590
   0.14169776  0.42852112  0.49091989
   0.14312214  0.57175037  0.49397943
   0.14381792  0.71497903  0.49503509
   0.14397968  0.85815988  0.49555742
   0.28627588  0.00075182  0.49193441
   0.28563034  0.14321233  0.48341789
   0.28316559  0.28488232  0.46561840
   0.27927802  0.42646144  0.45652800
   0.28470773  0.57011971  0.47362631
   0.28601449  0.71478481  0.48789556
   0.28635530  0.85800000  0.49297412
   0.42918868  0.00096390  0.49462933
   0.42888630  0.14383093  0.49102845
   0.42678751  0.28350288  0.47971002
   0.42694198  0.71596462  0.48578751
   0.42897640  0.85780392  0.49284953
   0.57168051  0.00100873  0.49969390
   0.57166558  0.14375627  0.49915152
   0.57237924  0.28762579  0.49931080
   0.57255849  0.85824647  0.50022419
   0.71446971  0.00057839  0.50697970
   0.71449602  0.14363188  0.50466891
   0.71442152  0.28662456  0.50588789
   0.71429145  0.42885318  0.51323352
   0.72102325  0.57461203  0.53820208
   0.72482042  0.71981923  0.54305297
   0.71401938  0.85797989  0.51574437
   0.85756092  0.00073943  0.50981952
   0.85701968  0.14332173  0.50748662
   0.85704670  0.28620465  0.50711312
   0.85770468  0.42930552  0.50852540
   0.85897626  0.57284366  0.51176229
   0.86078391  0.71641575  0.51606933
   0.85872617  0.85809225  0.51252479
   0.04781529  0.09583843  0.50038136
   0.04671096  0.23798702  0.50014101
   0.04691399  0.38108966  0.50064419
   0.04817230  0.52438664  0.50036029
   0.04872337  0.66754037  0.49938279
   0.04895932  0.81062824  0.49955577
   0.04852174  0.95335915  0.49943756
   0.19059474  0.09568904  0.48934898
   0.18913858  0.23803890  0.48516209
   0.18727022  0.37972489  0.48164466
   0.18983107  0.52362458  0.48722856
   0.19091617  0.66726451  0.49166911
   0.19140826  0.81042827  0.49418502
   0.19131689  0.95327332  0.49342918
   0.33371976  0.09619947  0.48866058
   0.33359168  0.23816722  0.47359201
   0.31870697  0.37346105  0.43965052
   0.32585198  0.52073860  0.45207321
   0.33393386  0.66743885  0.48150656
   0.33386442  0.81001203  0.49118699
   0.33382476  0.95316363  0.49320268
   0.47657720  0.09612804  0.49524209
   0.47562578  0.23913492  0.49018970
   0.47589624  0.80944257  0.49257005
   0.47661359  0.95326304  0.49593957
   0.61912641  0.09609033  0.50138731
   0.61927592  0.23916912  0.50176895
   0.62128518  0.38109711  0.50620813
   0.62122820  0.81373378  0.50711158
   0.61936961  0.95334876  0.50264413
   0.76202351  0.09600505  0.50650448
   0.76200497  0.23872461  0.50605431
   0.76239887  0.38172455  0.50952473
   0.76373086  0.52604880  0.52125748
   0.76721423  0.66866929  0.53393090
   0.76333256  0.81031573  0.52401446
   0.76234077  0.95329737  0.51146405
   0.90469372  0.09553963  0.50747945
   0.90446437  0.23847393  0.50666360
   0.90484666  0.38164559  0.50682495
   0.90583270  0.52484435  0.50697926
   0.90692264  0.66796026  0.50948439
   0.90681794  0.81106778  0.51008286
   0.90542390  0.95301997  0.50769206
   0.46255665  0.35596478  0.47853790
   0.39605899  0.55534395  0.43327184
   0.64972649  0.53966625  0.55066602
   0.58588571  0.41836419  0.50500213
   0.58514142  0.74153628  0.50532418
   0.46265753  0.67903266  0.48574844
   0.54872710  0.57433424  0.52090086
   0.48550689  0.50391870  0.45038414
   0.39779650  0.41392082  0.39256743
   0.63782867  0.67420292  0.57355673
   0.52530553  0.51342451  0.50000005
Direct configuration=     8
   0.00048669  0.00061250  0.50248968
   0.99983572  0.14313880  0.50346336
   0.99955088  0.28596399  0.50328926
   0.00005307  0.42909666  0.50343006
   0.00082994  0.57222932  0.50219395
   0.00181563  0.71550608  0.50210485
   0.00168605  0.85852957  0.50243639
   0.14359560  0.00098084  0.49403512
   0.14273489  0.14332098  0.49286171
   0.14126640  0.28519493  0.48953763
   0.14169571  0.42851932  0.49081538
   0.14312117  0.57174980  0.49393482
   0.14382353  0.71498262  0.49500729
   0.14398208  0.85816371  0.49553265
   0.28627849  0.00076248  0.49186266
   0.28562595  0.14321152  0.48331950
   0.28316539  0.28488477  0.46548492
   0.27925929  0.42644901  0.45638685
   0.28470342  0.57011729  0.47352242
   0.28602052  0.71478695  0.48783841
   0.28636029  0.85800853  0.49290481
   0.42918768  0.00096542  0.49457594
   0.42888787  0.14384013  0.49096883
   0.42679334  0.28351268  0.47961325
   0.42694870  0.71596921  0.48571675
   0.42898152  0.85780586  0.49280347
   0.57167865  0.00100679  0.49968898
   0.57166729  0.14375944  0.49913886
   0.57238077  0.28763535  0.49931057
   0.57255339  0.85823916  0.50024982
   0.71445823  0.00057241  0.50701903
   0.71449599  0.14363864  0.50469352
   0.71442069  0.28663039  0.50592105
   0.71428758  0.42885702  0.51330326
   0.72102292  0.57461579  0.53831163
   0.72482493  0.71981109  0.54314497
   0.71400154  0.85796293  0.51582198
   0.85755905  0.00073794  0.50986924
   0.85702019  0.14332788  0.50750474
   0.85704995  0.28621047  0.50712596
   0.85770399  0.42930640  0.50856839
   0.85897952  0.57284621  0.51185687
   0.86079303  0.71642056  0.51618646
   0.85872816  0.85808695  0.51262284
   0.04780750  0.09583255  0.50035313
   0.04670399  0.23797594  0.50008316
   0.04691506  0.38108856  0.50058317
   0.04817616  0.52439039  0.50034643
   0.04873192  0.66754605  0.49939886
   0.04896240  0.81063421  0.49958534
   0.04851888  0.95336073  0.49944594
   0.19058716  0.09568475  0.48926858
   0.18912764  0.23803245  0.48504510
   0.18726194  0.37971471  0.48152205
   0.18982961  0.52362589  0.48714257
   0.19091645  0.66726787  0.49162700
   0.19140201  0.81042674  0.49413617
   0.19131271  0.95327380  0.49337941
   0.33371932  0.09620605  0.48858025
   0.33358772  0.23816470  0.47347784
   0.31870873  0.37346429  0.43950448
   0.32583944  0.52073615  0.45195152
   0.33393696  0.66743973  0.48143018
   0.33386719  0.81001456  0.49112457
   0.33382211  0.95316402  0.49312990
   0.47657976  0.09613304  0.49520117
   0.47563102  0.23913686  0.49014560
   0.47589706  0.80944368  0.49253830
   0.47661551  0.95326709  0.49590627
   0.61913108  0.09609225  0.50139318
   0.61927747  0.23917211  0.50177759
   0.62128395  0.38109578  0.50626174
   0.62122711  0.81373456  0.50719518
   0.61937631  0.95335140  0.50266543
   0.76202281  0.09600045  0.50653714
   0.76200013  0.23872167  0.50607218
   0.76239539  0.38172239  0.50957950
   0.76373515  0.52604325  0.52134805
   0.76722885  0.66868035  0.53404299
   0.76333499  0.81032863  0.52411120
   0.76234349  0.95329570  0.51152669
   0.90469174  0.09553101  0.50749543
   0.90446083  0.23846503  0.50666091
   0.90484566  0.38164634  0.50684148