  99  99   0   0
  0.3914025E+02  0.1727104E-08  0.1727104E-08  0.1500000E-08  0.0000000E+00
  1.000000000000000E-004
  CAR 
 unknown system                          
      6.14558611    -31.38149687  301     -2.36244616      1.00000000
    -31.381  0.0000E+00  0.0000E+00  0.0000E+00  0.0000E+00
    -31.256  0.0000E+00  0.0000E+00  0.0000E+00  0.0000E+00
    -31.131  0.0000E+00  0.0000E+00  0.0000E+00  0.0000E+00
    -31.006  0.0000E+00  0.0000E+00  0.0000E+00  0.0000E+00
    -30.881  0.0000E+00  0.0000E+00  0.0000E+00  0.0000E+00
    -30.756  0.0000E+00  0.0000E+00  0.0000E+00  0.0000E+00
    -30.631  0.0000E+00  0.0000E+00  0.0000E+00  0.0000E+00
    -30.506  0.0000E+00  0.0000E+00  0.0000E+00  0.0000E+00
    -30.381  0.0000E+00  0.0000E+00  0.0000E+00  0.0000E+00
    -30.256  0.0000E+00  0.0000E+00  0.0000E+00  0.0000E+00
    -30.131  0.0000E+00  0.0000E+00  0.0000E+00  0.0000E+00
    -30.006  0.0000E+00  0.0000E+00  0.0000E+00  0.0000E+00
    -29.880  0.2811E-10  0.2811E-10  0.3516E-11  0.3516E-11
    -29.755  0.9720E-04  0.9720E-04  0.1216E-04  0.1216E-04
    -29.630  0.7104E-02  0.7104E-02  0.9008E-03  0.9008E-03
    -29.505  0.2600E-02  0.2600E-02  0.1226E-02  0.1226E-02
    -29.380  0.7733E-02  0.7733E-02  0.2193E-02  0.2193E-02
    -29.255  0.6781E-02  0.6781E-02  0.3041E-02  0.3041E-02
    -29.130  0.7402E-02  0.7402E-02  0.3967E-02  0.3967E-02
    -29.005  0.2605E-03  0.2605E-03  0.4000E-02  0.4000E-02
    -28.880  0.2943E-09  0.2943E-09  0.4000E-02  0.4000E-02
    -28.755  0.0000E+00  0.0000E+00  0.4000E-02  0.4000E-02
    -28.630  0.0000E+00  0.0000E+00  0.4000E-02  0.4000E-02
    -28.504  0.0000E+00  0.0000E+00  0.4000E-02  0.4000E-02
    -28.379  0.0000E+00  0.0000E+00  0.4000E-02  0.4000E-02
    -28.254  0.0000E+00  0.0000E+00  0.4000E-02  0.4000E-02
    -28.129  0.0000E+00  0.0000E+00  0.4000E-02  0.4000E-02
    -28.004  0.0000E+00  0.0000E+00  0.4000E-02  0.4000E-02
    -27.879  0.0000E+00  0.0000E+00  0.4000E-02  0.4000E-02
    -27.754  0.0000E+00  0.0000E+00  0.4000E-02  0.4000E-02
    -27.629  0.0000E+00  0.0000E+00  0.4000E-02  0.4000E-02
    -27.504  0.0000E+00  0.0000E+00  0.4000E-02  0.4000E-02
    -27.379  0.0000E+00  0.0000E+00  0.4000E-02  0.4000E-02
    -27.254  0.0000E+00  0.0000E+00  0.4000E-02  0.4000E-02
    -27.128  0.0000E+00  0.0000E+00  0.4000E-02  0.4000E-02
    -27.003  0.0000E+00  0.0000E+00  0.4000E-02  0.4000E-02
    -26.878  0.0000E+00  0.0000E+00  0.4000E-02  0.4000E-02
    -26.753  0.0000E+00  0.0000E+00  0.4000E-02  0.4000E-02
    -26.628  0.0000E+00  0.0000E+00  0.4000E-02  0.4000E-02
    -26.503  0.0000E+00  0.0000E+00  0.4000E-02  0.4000E-02
    -26.378  0.0000E+00  0.0000E+00  0.4000E-02  0.4000E-02
    -26.253  0.0000E+00  0.0000E+00  0.4000E-02  0.4000E-02
    -26.128  0.0000E+00  0.0000E+00  0.4000E-02  0.4000E-02
    -26.003  0.0000E+00  0.0000E+00  0.4000E-02  0.4000E-02
    -25.878  0.0000E+00  0.0000E+00  0.4000E-02  0.4000E-02
    -25.752  0.0000E+00  0.0000E+00  0.4000E-02  0.4000E-02
    -25.627  0.0000E+00  0.0000E+00  0.4000E-02  0.4000E-02
    -25.502  0.0000E+00  0.0000E+00  0.4000E-02  0.4000E-02
    -25.377  0.0000E+00  0.0000E+00  0.4000E-02  0.4000E-02
    -25.252  0.0000E+00  0.0000E+00  0.4000E-02  0.4000E-02
    -25.127  0.0000E+00  0.0000E+00  0.4000E-02  0.4000E-02
    -25.002  0.0000E+00  0.0000E+00  0.4000E-02  0.4000E-02
    -24.877  0.0000E+00  0.0000E+00  0.4000E-02  0.4000E-02
    -24.752  0.0000E+00  0.0000E+00  0.4000E-02  0.4000E-02
    -24.627  0.0000E+00  0.0000E+00  0.4000E-02  0.4000E-02
    -24.502  0.0000E+00  0.0000E+00  0.4000E-02  0.4000E-02
    -24.376  0.0000E+00  0.0000E+00  0.4000E-02  0.4000E-02
    -24.251  0.0000E+00  0.0000E+00  0.4000E-02  0.4000E-02
    -24.126  0.0000E+00  0.0000E+00  0.4000E-02  0.4000E-02
    -24.001  0.0000E+00  0.0000E+00  0.4000E-02  0.4000E-02
    -23.876  0.0000E+00  0.0000E+00  0.4000E-02  0.4000E-02
    -23.751  0.0000E+00  0.0000E+00  0.4000E-02  0.4000E-02
    -23.626  0.1331E-17  0.1331E-17  0.4000E-02  0.4000E-02
    -23.501  0.1446E-07  0.1446E-07  0.4000E-02  0.4000E-02
    -23.376  0.1095E-02  0.1095E-02  0.4137E-02  0.4137E-02
    -23.251  0.6841E-02  0.6841E-02  0.4993E-02  0.4993E-02
    -23.126  0.5808E-04  0.5808E-04  0.5000E-02  0.5000E-02
    -23.000  0.8811E-11  0.8811E-11  0.5000E-02  0.5000E-02
    -22.875  0.0000E+00  0.0000E+00  0.5000E-02  0.5000E-02
    -22.750  0.0000E+00  0.0000E+00  0.5000E-02  0.5000E-02
    -22.625  0.0000E+00  0.0000E+00  0.5000E-02  0.5000E-02
    -22.500  0.0000E+00  0.0000E+00  0.5000E-02  0.5000E-02
    -22.375  0.0000E+00  0.0000E+00  0.5000E-02  0.5000E-02
    -22.250  0.0000E+00  0.0000E+00  0.5000E-02  0.5000E-02
    -22.125  0.0000E+00  0.0000E+00  0.5000E-02  0.5000E-02
    -22.000  0.4601E-10  0.4601E-10  0.5000E-02  0.5000E-02
    -21.875  0.5584E-04  0.5584E-04  0.5007E-02  0.5007E-02
    -21.750  0.4274E-02  0.4274E-02  0.5542E-02  0.5542E-02
    -21.624  0.7926E-02  0.7926E-02  0.6533E-02  0.6533E-02
    -21.499  0.2465E-02  0.2465E-02  0.6842E-02  0.6842E-02
    -21.374  0.1132E-01  0.1132E-01  0.8257E-02  0.8257E-02
    -21.249  0.6857E-02  0.6857E-02  0.9115E-02  0.9115E-02
    -21.124  0.2357E-02  0.2357E-02  0.9410E-02  0.9410E-02
    -20.999  0.7277E-02  0.7277E-02  0.1032E-01  0.1032E-01
    -20.874  0.9885E-02  0.9885E-02  0.1156E-01  0.1156E-01
    -20.749  0.8946E-02  0.8946E-02  0.1268E-01  0.1268E-01
    -20.624  0.8602E-03  0.8602E-03  0.1278E-01  0.1278E-01
    -20.499  0.6023E-02  0.6023E-02  0.1354E-01  0.1354E-01
    -20.374  0.8406E-02  0.8406E-02  0.1459E-01  0.1459E-01
    -20.248  0.9882E-02  0.9882E-02  0.1582E-01  0.1582E-01
    -20.123  0.9527E-02  0.9527E-02  0.1702E-01  0.1702E-01
    -19.998  0.2494E-02  0.2494E-02  0.1733E-01  0.1733E-01
    -19.873  0.6775E-02  0.6775E-02  0.1818E-01  0.1818E-01
    -19.748  0.5210E-02  0.5210E-02  0.1883E-01  0.1883E-01
    -19.623  0.4378E-02  0.4378E-02  0.1937E-01  0.1937E-01
    -19.498  0.1114E-01  0.1114E-01  0.2077E-01  0.2077E-01
    -19.373  0.1321E-01  0.1321E-01  0.2242E-01  0.2242E-01
    -19.248  0.3448E-02  0.3448E-02  0.2285E-01  0.2285E-01
    -19.123  0.7913E-02  0.7913E-02  0.2384E-01  0.2384E-01
    -18.998  0.4337E-02  0.4337E-02  0.2438E-01  0.2438E-01
    -18.872  0.4585E-02  0.4585E-02  0.2496E-01  0.2496E-01
    -18.747  0.4251E-02  0.4251E-02  0.2549E-01  0.2549E-01
    -18.622  0.9472E-02  0.9472E-02  0.2667E-01  0.2667E-01
    -18.497  0.1506E-01  0.1506E-01  0.2856E-01  0.2856E-01
    -18.372  0.5532E-02  0.5532E-02  0.2925E-01  0.2925E-01
    -18.247  0.8495E-02  0.8495E-02  0.3031E-01  0.3031E-01
    -18.122  0.5948E-02  0.5948E-02  0.3105E-01  0.3105E-01
    -17.997  0.6990E-02  0.6990E-02  0.3193E-01  0.3193E-01
    -17.872  0.4774E-02  0.4774E-02  0.3253E-01  0.3253E-01
    -17.747  0.5786E-02  0.5786E-02  0.3325E-01  0.3325E-01
    -17.622  0.2952E-02  0.2952E-02  0.3362E-01  0.3362E-01
    -17.496  0.1193E-01  0.1193E-01  0.3511E-01  0.3511E-01
    -17.371  0.1459E-01  0.1459E-01  0.3694E-01  0.3694E-01
    -17.246  0.1092E-01  0.1092E-01  0.3830E-01  0.3830E-01
    -17.121  0.7531E-02  0.7531E-02  0.3924E-01  0.3924E-01
    -16.996  0.3823E-02  0.3823E-02  0.3972E-01  0.3972E-01
    -16.871  0.9300E-02  0.9300E-02  0.4089E-01  0.4089E-01
    -16.746  0.7350E-02  0.7350E-02  0.4181E-01  0.4181E-01
    -16.621  0.8097E-02  0.8097E-02  0.4282E-01  0.4282E-01
    -16.496  0.2062E-02  0.2062E-02  0.4308E-01  0.4308E-01
    -16.371  0.1213E-01  0.1213E-01  0.4459E-01  0.4459E-01
    -16.246  0.1359E-01  0.1359E-01  0.4629E-01  0.4629E-01
    -16.120  0.5258E-02  0.5258E-02  0.4695E-01  0.4695E-01
    -15.995  0.4165E-02  0.4165E-02  0.4747E-01  0.4747E-01
    -15.870  0.2185E-02  0.2185E-02  0.4774E-01  0.4774E-01
    -15.745  0.6196E-03  0.6196E-03  0.4782E-01  0.4782E-01
    -15.620  0.3395E-02  0.3395E-02  0.4825E-01  0.4825E-01
    -15.495  0.4088E-02  0.4088E-02  0.4876E-01  0.4876E-01
    -15.370  0.6773E-02  0.6773E-02  0.4961E-01  0.4961E-01
    -15.245  0.9831E-02  0.9831E-02  0.5084E-01  0.5084E-01
    -15.120  0.5890E-02  0.5890E-02  0.5157E-01  0.5157E-01
    -14.995  0.1236E-01  0.1236E-01  0.5312E-01  0.5312E-01
    -14.870  0.9790E-02  0.9790E-02  0.5434E-01  0.5434E-01
    -14.744  0.5717E-02  0.5717E-02  0.5506E-01  0.5506E-01
    -14.619  0.6734E-02  0.6734E-02  0.5590E-01  0.5590E-01
    -14.494  0.1102E-01  0.1102E-01  0.5728E-01  0.5728E-01
    -14.369  0.9941E-02  0.9941E-02  0.5852E-01  0.5852E-01
    -14.244  0.1285E-01  0.1285E-01  0.6013E-01  0.6013E-01
    -14.119  0.9667E-02  0.9667E-02  0.6134E-01  0.6134E-01
    -13.994  0.4108E-02  0.4108E-02  0.6185E-01  0.6185E-01
    -13.869  0.7049E-02  0.7049E-02  0.6273E-01  0.6273E-01
    -13.744  0.5622E-02  0.5622E-02  0.6344E-01  0.6344E-01
    -13.619  0.8764E-02  0.8764E-02  0.6453E-01  0.6453E-01
    -13.494  0.7402E-02  0.7402E-02  0.6546E-01  0.6546E-01
    -13.368  0.7112E-02  0.7112E-02  0.6635E-01  0.6635E-01
    -13.243  0.9269E-02  0.9269E-02  0.6751E-01  0.6751E-01
    -13.118  0.5164E-02  0.5164E-02  0.6815E-01  0.6815E-01
    -12.993  0.5315E-02  0.5315E-02  0.6882E-01  0.6882E-01
    -12.868  0.1029E-01  0.1029E-01  0.7011E-01  0.7011E-01
    -12.743  0.5185E-02  0.5185E-02  0.7076E-01  0.7076E-01
    -12.618  0.1122E-01  0.1122E-01  0.7216E-01  0.7216E-01
    -12.493  0.1002E-01  0.1002E-01  0.7341E-01  0.7341E-01
    -12.368  0.1106E-01  0.1106E-01  0.7479E-01  0.7479E-01
    -12.243  0.1141E-01  0.1141E-01  0.7622E-01  0.7622E-01
    -12.118  0.8175E-02  0.8175E-02  0.7724E-01  0.7724E-01
    -11.993  0.9500E-02  0.9500E-02  0.7843E-01  0.7843E-01
    -11.867  0.4972E-02  0.4972E-02  0.7906E-01  0.7906E-01
    -11.742  0.1013E-01  0.1013E-01  0.8032E-01  0.8032E-01
    -11.617  0.6534E-02  0.6534E-02  0.8114E-01  0.8114E-01
    -11.492  0.1258E-01  0.1258E-01  0.8271E-01  0.8271E-01
    -11.367  0.1198E-01  0.1198E-01  0.8421E-01  0.8421E-01
    -11.242  0.9171E-02  0.9171E-02  0.8536E-01  0.8536E-01
    -11.117  0.1919E-01  0.1919E-01  0.8776E-01  0.8776E-01
    -10.992  0.1293E-01  0.1293E-01  0.8938E-01  0.8938E-01
    -10.867  0.1074E-01  0.1074E-01  0.9072E-01  0.9072E-01
    -10.742  0.7757E-02  0.7757E-02  0.9169E-01  0.9169E-01
    -10.617  0.1063E-01  0.1063E-01  0.9302E-01  0.9302E-01
    -10.491  0.8767E-02  0.8767E-02  0.9412E-01  0.9412E-01
    -10.366  0.1110E-01  0.1110E-01  0.9551E-01  0.9551E-01
    -10.241  0.1543E-01  0.1543E-01  0.9744E-01  0.9744E-01
    -10.116  0.1239E-01  0.1239E-01  0.9899E-01  0.9899E-01
     -9.991  0.1763E-01  0.1763E-01  0.1012E+00  0.1012E+00
     -9.866  0.2035E-01  0.2035E-01  0.1037E+00  0.1037E+00
     -9.741  0.1511E-01  0.1511E-01  0.1056E+00  0.1056E+00
     -9.616  0.2117E-01  0.2117E-01  0.1083E+00  0.1083E+00
     -9.491  0.1791E-01  0.1791E-01  0.1105E+00  0.1105E+00
     -9.366  0.2004E-01  0.2004E-01  0.1130E+00  0.1130E+00
     -9.241  0.1722E-01  0.1722E-01  0.1152E+00  0.1152E+00
     -9.115  0.1890E-01  0.1890E-01  0.1175E+00  0.1175E+00
     -8.990  0.2025E-01  0.2025E-01  0.1201E+00  0.1201E+00
     -8.865  0.2127E-01  0.2127E-01  0.1227E+00  0.1227E+00
     -8.740  0.3019E-01  0.3019E-01  0.1265E+00  0.1265E+00
     -8.615  0.2359E-01  0.2359E-01  0.1295E+00  0.1295E+00
     -8.490  0.1755E-01  0.1755E-01  0.1317E+00  0.1317E+00
     -8.365  0.2097E-01  0.2097E-01  0.1343E+00  0.1343E+00
     -8.240  0.1295E-01  0.1295E-01  0.1359E+00  0.1359E+00
     -8.115  0.2121E-01  0.2121E-01  0.1386E+00  0.1386E+00
     -7.990  0.2445E-01  0.2445E-01  0.1416E+00  0.1416E+00
     -7.865  0.1707E-01  0.1707E-01  0.1437E+00  0.1437E+00
     -7.739  0.1457E-01  0.1457E-01  0.1456E+00  0.1456E+00
     -7.614  0.1936E-01  0.1936E-01  0.1480E+00  0.1480E+00
     -7.489  0.1294E-01  0.1294E-01  0.1496E+00  0.1496E+00
     -7.364  0.1334E-01  0.1334E-01  0.1513E+00  0.1513E+00
     -7.239  0.1660E-01  0.1660E-01  0.1534E+00  0.1534E+00
     -7.114  0.1799E-01  0.1799E-01  0.1556E+00  0.1556E+00
     -6.989  0.2179E-01  0.2179E-01  0.1583E+00  0.1583E+00
     -6.864  0.1694E-01  0.1694E-01  0.1605E+00  0.1605E+00
     -6.739  0.1186E-01  0.1186E-01  0.1619E+00  0.1619E+00
     -6.614  0.1610E-01  0.1610E-01  0.1640E+00  0.1640E+00
     -6.489  0.7824E-02  0.7824E-02  0.1649E+00  0.1649E+00
     -6.363  0.6549E-02  0.6549E-02  0.1657E+00  0.1657E+00
     -6.238  0.1575E-01  0.1575E-01  0.1677E+00  0.1677E+00
     -6.113  0.1696E-01  0.1696E-01  0.1698E+00  0.1698E+00
     -5.988  0.1994E-01  0.1994E-01  0.1723E+00  0.1723E+00
     -5.863  0.7943E-02  0.7943E-02  0.1733E+00  0.1733E+00
     -5.738  0.1518E-01  0.1518E-01  0.1752E+00  0.1752E+00
     -5.613  0.1339E-01  0.1339E-01  0.1769E+00  0.1769E+00
     -5.488  0.1084E-01  0.1084E-01  0.1783E+00  0.1783E+00
     -5.363  0.8158E-02  0.8158E-02  0.1793E+00  0.1793E+00
     -5.238  0.1101E-01  0.1101E-01  0.1807E+00  0.1807E+00
     -5.113  0.3040E-02  0.3040E-02  0.1810E+00  0.1810E+00
     -4.987  0.1409E-01  0.1409E-01  0.1828E+00  0.1828E+00
     -4.862  0.1934E-01  0.1934E-01  0.1852E+00  0.1852E+00
     -4.737  0.1593E-01  0.1593E-01  0.1872E+00  0.1872E+00
     -4.612  0.3071E-02  0.3071E-02  0.1876E+00  0.1876E+00
     -4.487  0.9127E-02  0.9127E-02  0.1887E+00  0.1887E+00
     -4.362  0.4219E-02  0.4219E-02  0.1893E+00  0.1893E+00
     -4.237  0.3413E-02  0.3413E-02  0.1897E+00  0.1897E+00
     -4.112  0.7674E-02  0.7674E-02  0.1906E+00  0.1906E+00
     -3.987  0.8312E-02  0.8312E-02  0.1917E+00  0.1917E+00
     -3.862  0.4666E-02  0.4666E-02  0.1923E+00  0.1923E+00
     -3.737  0.8007E-02  0.8007E-02  0.1933E+00  0.1933E+00
     -3.611  0.5626E-02  0.5626E-02  0.1940E+00  0.1940E+00
     -3.486  0.1700E-03  0.1700E-03  0.1940E+00  0.1940E+00
     -3.361  0.3611E-04  0.3611E-04  0.1940E+00  0.1940E+00
     -3.236  0.2626E-02  0.2626E-02  0.1943E+00  0.1943E+00
     -3.111  0.6078E-02  0.6078E-02  0.1951E+00  0.1951E+00
     -2.986  0.1715E-02  0.1715E-02  0.1953E+00  0.1953E+00
     -2.861  0.1532E-02  0.1532E-02  0.1955E+00  0.1955E+00
     -2.736  0.5038E-05  0.5038E-05  0.1955E+00  0.1955E+00
     -2.611  0.4277E-03  0.4277E-03  0.1956E+00  0.1956E+00
     -2.486  0.3526E-02  0.3526E-02  0.1960E+00  0.1960E+00
     -2.361  0.4339E-04  0.4339E-04  0.1960E+00  0.1960E+00
     -2.235  0.5649E-04  0.5649E-04  0.1960E+00  0.1960E+00
     -2.110  0.3582E-02  0.3582E-02  0.1965E+00  0.1965E+00
     -1.985  0.3582E-03  0.3582E-03  0.1965E+00  0.1965E+00
     -1.860  0.3904E-05  0.3904E-05  0.1965E+00  0.1965E+00
     -1.735  0.1485E-02  0.1485E-02  0.1967E+00  0.1967E+00
     -1.610  0.2225E-02  0.2225E-02  0.1970E+00  0.1970E+00
     -1.485  0.6385E-02  0.6385E-02  0.1978E+00  0.1978E+00
     -1.360  0.1886E-02  0.1886E-02  0.1980E+00  0.1980E+00
     -1.235  0.2712E-03  0.2712E-03  0.1980E+00  0.1980E+00
     -1.110  0.4807E-02  0.4807E-02  0.1986E+00  0.1986E+00
     -0.985  0.6119E-02  0.6119E-02  0.1994E+00  0.1994E+00
     -0.859  0.8531E-02  0.8531E-02  0.2005E+00  0.2005E+00
     -0.734  0.1630E-01  0.1630E-01  0.2025E+00  0.2025E+00
     -0.609  0.3957E-02  0.3957E-02  0.2030E+00  0.2030E+00
     -0.484  0.8645E-02  0.8645E-02  0.2041E+00  0.2041E+00
     -0.359  0.1175E-01  0.1175E-01  0.2056E+00  0.2056E+00
     -0.234  0.6089E-02  0.6089E-02  0.2063E+00  0.2063E+00
     -0.109  0.5477E-02  0.5477E-02  0.2070E+00  0.2070E+00
      0.016  0.8796E-02  0.8796E-02  0.2081E+00  0.2081E+00
      0.141  0.7512E-02  0.7512E-02  0.2090E+00  0.2090E+00
      0.266  0.1352E-01  0.1352E-01  0.2107E+00  0.2107E+00
      0.391  0.8424E-02  0.8424E-02  0.2118E+00  0.2118E+00
      0.517  0.1726E-02  0.1726E-02  0.2120E+00  0.2120E+00
      0.642  0.2881E-02  0.2881E-02  0.2124E+00  0.2124E+00
      0.767  0.9109E-02  0.9109E-02  0.2135E+00  0.2135E+00
      0.892  0.1171E-01  0.1171E-01  0.2150E+00  0.2150E+00
      1.017  0.8199E-02  0.8199E-02  0.2160E+00  0.2160E+00
      1.142  0.9012E-02  0.9012E-02  0.2171E+00  0.2171E+00
      1.267  0.6195E-02  0.6194E-02  0.2179E+00  0.2179E+00
      1.392  0.8780E-02  0.8780E-02  0.2190E+00  0.2190E+00
      1.517  0.1230E-01  0.1230E-01  0.2205E+00  0.2205E+00
      1.642  0.1996E-01  0.1996E-01  0.2230E+00  0.2230E+00
      1.767  0.1290E-01  0.1290E-01  0.2246E+00  0.2246E+00
      1.893  0.1045E-01  0.1045E-01  0.2259E+00  0.2259E+00
      2.018  0.1565E-01  0.1565E-01  0.2279E+00  0.2279E+00
      2.143  0.1936E-01  0.1936E-01  0.2303E+00  0.2303E+00
      2.268  0.1809E-01  0.1809E-01  0.2326E+00  0.2326E+00
      2.393  0.1837E-01  0.1837E-01  0.2349E+00  0.2349E+00
      2.518  0.2380E-01  0.2380E-01  0.2379E+00  0.2379E+00
      2.643  0.6803E-02  0.6803E-02  0.2387E+00  0.2387E+00
      2.768  0.1858E-01  0.1858E-01  0.2410E+00  0.2410E+00
      2.893  0.2483E-01  0.2483E-01  0.2441E+00  0.2441E+00
      3.018  0.3927E-01  0.3927E-01  0.2491E+00  0.2491E+00
      3.143  0.2183E-01  0.2183E-01  0.2518E+00  0.2518E+00
      3.269  0.2331E-01  0.2331E-01  0.2547E+00  0.2547E+00
      3.394  0.1817E-01  0.1817E-01  0.2570E+00  0.2570E+00
      3.519  0.1893E-01  0.1893E-01  0.2593E+00  0.2593E+00
      3.644  0.2247E-01  0.2247E-01  0.2622E+00  0.2622E+00
      3.769  0.1423E-01  0.1423E-01  0.2639E+00  0.2639E+00
      3.894  0.2980E-01  0.2980E-01  0.2677E+00  0.2677E+00
      4.019  0.2141E-01  0.2141E-01  0.2703E+00  0.2703E+00
      4.144  0.1869E-01  0.1869E-01  0.2727E+00  0.2727E+00
      4.269  0.1848E-01  0.1848E-01  0.2750E+00  0.2750E+00
      4.394  0.3065E-01  0.3065E-01  0.2788E+00  0.2788E+00
      4.519  0.9344E-02  0.9345E-02  0.2800E+00  0.2800E+00
      4.645  0.3046E-04  0.3046E-04  0.2800E+00  0.2800E+00
      4.770  0.7180E-11  0.7182E-11  0.2800E+00  0.2800E+00
      4.895  0.0000E+00  0.0000E+00  0.2800E+00  0.2800E+00
      5.020  0.0000E+00  0.0000E+00  0.2800E+00  0.2800E+00
      5.145  0.0000E+00  0.0000E+00  0.2800E+00  0.2800E+00
      5.270  0.0000E+00  0.0000E+00  0.2800E+00  0.2800E+00
      5.395  0.0000E+00  0.0000E+00  0.2800E+00  0.2800E+00
      5.520  0.0000E+00  0.0000E+00  0.2800E+00  0.2800E+00
      5.645  0.0000E+00  0.0000E+00  0.2800E+00  0.2800E+00
      5.770  0.0000E+00  0.0000E+00  0.2800E+00  0.2800E+00
      5.895  0.0000E+00  0.0000E+00  0.2800E+00  0.2800E+00
      6.020  0.0000E+00  0.0000E+00  0.2800E+00  0.2800E+00
      6.146  0.0000E+00  0.0000E+00  0.2800E+00  0.2800E+00
