 vasp.6.4.2 20Jul23 (build Aug 26 2025 15:10:52) complex                        
  
 POSCAR found type information on POSCAR C H F O 
 05/POSCAR found :  4 types and      99 ions
 Reading from existing POTCAR
 scaLAPACK will be used
 -----------------------------------------------------------------------------
|                                                                             |
|           W    W    AA    RRRRR   N    N  II  N    N   GGGG   !!!           |
|           W    W   A  A   R    R  NN   N  II  NN   N  G    G  !!!           |
|           W    W  A    A  R    R  N N  N  II  N N  N  G       !!!           |
|           W WW W  AAAAAA  RRRRR   N  N N  II  N  N N  G  GGG   !            |
|           WW  WW  A    A  R   R   N   NN  II  N   NN  G    G                |
|           W    W  A    A  R    R  N    N  II  N    N   GGGG   !!!           |
|                                                                             |
|     For optimal performance we recommend to set                             |
|       NCORE = 2 up to number-of-cores-per-socket                            |
|     NCORE specifies how many cores store one orbital (NPAR=cpu/NCORE).      |
|     This setting can greatly improve the performance of VASP for DFT.       |
|     The default, NCORE=1 might be grossly inefficient on modern             |
|     multi-core architectures or massively parallel machines. Do your        |
|     own testing! More info at https://www.vasp.at/wiki/index.php/NCORE      |
|     Unfortunately you need to use the default for GW and RPA                |
|     calculations (for HF NCORE is supported but not extensively tested      |
|     yet).                                                                   |
|                                                                             |
 -----------------------------------------------------------------------------

 Reading from existing POTCAR
 LDA part: xc-table for Pade appr. of Perdew
 POSCAR found type information on POSCAR C H F O 
 00/POSCAR found :  4 types and      99 ions
 POSCAR found type information on POSCAR C H F O 
 06/POSCAR found :  4 types and      99 ions
 Jacobian:    33.7825262909836     
 POSCAR found type information on POSCAR C H F O 
 00/POSCAR found :  4 types and      99 ions
 POSCAR found type information on POSCAR C H F O 
 06/POSCAR found :  4 types and      99 ions
 POSCAR, INCAR and KPOINTS ok, starting setup
 FFT: planning ... GRIDC
 FFT: planning ... GRID_SOFT
 FFT: planning ... GRID
 WAVECAR not read
 entering main loop
       N       E                     dE             d eps       ncg     rms          rms(c)
DAV:   1     0.356824419431E+04    0.35682E+04   -0.14927E+05  4810   0.107E+03
DAV:   2    -0.221728279657E+03   -0.37900E+04   -0.35777E+04  6740   0.266E+02
DAV:   3    -0.874540737720E+03   -0.65281E+03   -0.64984E+03  5540   0.114E+02
DAV:   4    -0.896572490418E+03   -0.22032E+02   -0.21943E+02  5600   0.262E+01
DAV:   5    -0.897228335510E+03   -0.65585E+00   -0.65500E+00  6400   0.392E+00    0.526E+01
DAV:   6    -0.878525644099E+03    0.18703E+02   -0.23441E+01  5530   0.977E+00    0.341E+01
DAV:   7    -0.856595866277E+03    0.21930E+02   -0.36798E+01  5360   0.100E+01    0.208E+01
DAV:   8    -0.851567423582E+03    0.50284E+01   -0.22126E+01  5440   0.715E+00    0.871E+00
DAV:   9    -0.851705273229E+03   -0.13785E+00   -0.10675E+00  5410   0.195E+00    0.397E+00
DAV:  10    -0.851520073810E+03    0.18520E+00   -0.58455E-01  5210   0.139E+00    0.111E+00
DAV:  11    -0.851505566619E+03    0.14507E-01   -0.10669E-01  5230   0.631E-01    0.293E-01
DAV:  12    -0.851505396563E+03    0.17006E-03   -0.15167E-02  5400   0.289E-01    0.142E-01
DAV:  13    -0.851505538465E+03   -0.14190E-03   -0.21125E-03  5540   0.909E-02    0.112E-01
DAV:  14    -0.851505536445E+03    0.20197E-05   -0.56100E-04  5350   0.528E-02    0.575E-02
DAV:  15    -0.851505605369E+03   -0.68924E-04   -0.15317E-04  5230   0.265E-02    0.343E-02
DAV:  16    -0.851505609905E+03   -0.45358E-05   -0.93389E-05  5210   0.282E-02    0.130E-02
DAV:  17    -0.851505609725E+03    0.17988E-06   -0.17180E-05  5180   0.971E-03    0.101E-02
DAV:  18    -0.851505608763E+03    0.96169E-06   -0.10809E-05  5130   0.978E-03    0.352E-03
DAV:  19    -0.851505608810E+03   -0.47396E-07   -0.18813E-06  3770   0.347E-03
   1 F= -.85942222E+03 E0= -.85942222E+03  d E =-.859422E+03  mag=    -0.0001
quench:  g(F)=  0.000E+00 g(S)=  0.000E+00 dE (1.order)= 0.000E+00
 bond charge predicted
       N       E                     dE             d eps       ncg     rms          rms(c)
DAV:   1    -0.851505913734E+03   -0.30497E-03   -0.21916E-02  4680   0.148E-01    0.280E-02
DAV:   2    -0.851505932434E+03   -0.18699E-04   -0.44139E-04  4780   0.193E-02    0.256E-02
DAV:   3    -0.851505923360E+03    0.90740E-05   -0.30828E-06  4020   0.245E-03    0.216E-02
DAV:   4    -0.851505938581E+03   -0.15221E-04   -0.43430E-05  4220   0.682E-03    0.409E-03
DAV:   5    -0.851505938734E+03   -0.15341E-06   -0.59354E-06  3930   0.231E-03
   2 F= -.85942250E+03 E0= -.85942250E+03  d E =-.279285E-03  mag=     0.0000
quench:  g(F)=  0.000E+00 g(S)=  0.000E+00 dE (1.order)= 0.000E+00
 bond charge predicted
       N       E                     dE             d eps       ncg     rms          rms(c)
DAV:   1    -0.851506259753E+03   -0.32117E-03   -0.36933E-02  4720   0.187E-01    0.386E-02
DAV:   2    -0.851506282276E+03   -0.22523E-04   -0.62324E-04  4820   0.227E-02    0.342E-02
DAV:   3    -0.851506272111E+03    0.10165E-04   -0.46729E-06  4150   0.320E-03    0.278E-02
DAV:   4    -0.851506299912E+03   -0.27801E-04   -0.62767E-05  4280   0.807E-03    0.510E-03
DAV:   5    -0.851506299394E+03    0.51854E-06   -0.76594E-06  3850   0.276E-03
   3 F= -.85942278E+03 E0= -.85942278E+03  d E =-.280085E-03  mag=    -0.0000
quench:  g(F)=  0.000E+00 g(S)=  0.000E+00 dE (1.order)= 0.000E+00
 bond charge predicted
       N       E                     dE             d eps       ncg     rms          rms(c)
DAV:   1    -0.851506950258E+03   -0.65035E-03   -0.24499E-02  4720   0.173E-01    0.414E-02
DAV:   2    -0.851506950318E+03   -0.60012E-07   -0.30185E-04  4700   0.199E-02    0.357E-02
DAV:   3    -0.851506951238E+03   -0.92044E-06   -0.52487E-06  3850   0.387E-03
   4 F= -.85942334E+03 E0= -.85942334E+03  d E =-.562263E-03  mag=     0.0000
quench:  g(F)=  0.000E+00 g(S)=  0.000E+00 dE (1.order)= 0.000E+00
 bond charge predicted
       N       E                     dE             d eps       ncg     rms          rms(c)
DAV:   1    -0.851507723471E+03   -0.77315E-03   -0.30625E-02  4720   0.208E-01    0.530E-02
DAV:   2    -0.851507719785E+03    0.36862E-05   -0.33534E-04  4720   0.233E-02    0.459E-02
DAV:   3    -0.851507728921E+03   -0.91365E-05   -0.84813E-06  4280   0.493E-03    0.241E-02
DAV:   4    -0.851507748729E+03   -0.19808E-04   -0.10929E-05  4000   0.436E-03    0.361E-03
DAV:   5    -0.851507748292E+03    0.43720E-06   -0.15806E-06  3900   0.202E-03
   5 F= -.85942402E+03 E0= -.85942402E+03  d E =-.686166E-03  mag=    -0.0000
quench:  g(F)=  0.000E+00 g(S)=  0.000E+00 dE (1.order)= 0.000E+00
 bond charge predicted
       N       E                     dE             d eps       ncg     rms          rms(c)
DAV:   1    -0.851508624198E+03   -0.87547E-03   -0.85552E-02  4660   0.307E-01    0.706E-02
DAV:   2    -0.851508662600E+03   -0.38402E-04   -0.11131E-03  4750   0.352E-02    0.606E-02
DAV:   3    -0.851508647791E+03    0.14809E-04   -0.17762E-05  4720   0.646E-03    0.422E-02
DAV:   4    -0.851508694125E+03   -0.46334E-04   -0.86314E-05  4500   0.990E-03    0.735E-03
DAV:   5    -0.851508692941E+03    0.11847E-05   -0.11429E-05  4140   0.423E-03    0.519E-03
DAV:   6    -0.851508694883E+03   -0.19425E-05   -0.14094E-06  3380   0.203E-03    0.258E-03
DAV:   7    -0.851508694807E+03    0.76594E-07   -0.60168E-07  3780   0.982E-04
   6 F= -.85942482E+03 E0= -.85942482E+03  d E =-.793562E-03  mag=     0.0000
quench:  g(F)=  0.000E+00 g(S)=  0.000E+00 dE (1.order)= 0.000E+00
 bond charge predicted
       N       E                     dE             d eps       ncg     rms          rms(c)
DAV:   1    -0.851509689942E+03   -0.99506E-03   -0.17850E-01  4600   0.423E-01    0.923E-02
DAV:   2    -0.851509832462E+03   -0.14252E-03   -0.26663E-03  4760   0.497E-02    0.799E-02
DAV:   3    -0.851509789517E+03    0.42945E-04   -0.28665E-05  5070   0.783E-03    0.610E-02
DAV:   4    -0.851509849585E+03   -0.60069E-04   -0.25433E-04  4610   0.159E-02    0.108E-02
DAV:   5    -0.851509847156E+03    0.24298E-05   -0.30225E-05  4480   0.576E-03    0.841E-03
DAV:   6    -0.851509853863E+03   -0.67073E-05   -0.31206E-06  3420   0.295E-03    0.379E-03
DAV:   7    -0.851509853677E+03    0.18565E-06   -0.25693E-06  3740   0.184E-03
   7 F= -.85942578E+03 E0= -.85942578E+03  d E =-.964461E-03  mag=     0.0000
quench:  g(F)=  0.000E+00 g(S)=  0.000E+00 dE (1.order)= 0.000E+00
 bond charge predicted
       N       E                     dE             d eps       ncg     rms          rms(c)
DAV:   1    -0.851511016937E+03   -0.11631E-02   -0.23878E-01  4580   0.510E-01    0.112E-01
DAV:   2    -0.851511198910E+03   -0.18197E-03   -0.33398E-03  4650   0.595E-02    0.964E-02
DAV:   3    -0.851511146927E+03    0.51983E-04   -0.41075E-05  5340   0.960E-03    0.711E-02
DAV:   4    -0.851511225337E+03   -0.78409E-04   -0.30716E-04  4640   0.180E-02    0.126E-02
DAV:   5    -0.851511220870E+03    0.44666E-05   -0.36504E-05  4940   0.656E-03    0.101E-02
DAV:   6    -0.851511227146E+03   -0.62757E-05   -0.39914E-06  3430   0.331E-03    0.530E-03
DAV:   7    -0.851511226482E+03    0.66379E-06   -0.45219E-06  4000   0.254E-03
   8 F= -.85942692E+03 E0= -.85942692E+03  d E =-.113476E-02  mag=    -0.0000
quench:  g(F)=  0.000E+00 g(S)=  0.000E+00 dE (1.order)= 0.000E+00
 bond charge predicted
       N       E                     dE             d eps       ncg     rms          rms(c)
DAV:   1    -0.851512736464E+03   -0.15093E-02   -0.25085E-01  4560   0.578E-01    0.128E-01
DAV:   2    -0.851512898125E+03   -0.16166E-03   -0.31813E-03  4650   0.678E-02    0.111E-01
DAV:   3    -0.851512858106E+03    0.40019E-04   -0.55304E-05  5000   0.119E-02    0.738E-02
DAV:   4    -0.851512946123E+03   -0.88017E-04   -0.21735E-04  4710   0.166E-02    0.124E-02
DAV:   5    -0.851512940660E+03    0.54621E-05   -0.28925E-05  4940   0.698E-03    0.890E-03
DAV:   6    -0.851512944394E+03   -0.37334E-05   -0.38398E-06  3460   0.310E-03    0.473E-03
DAV:   7    -0.851512943963E+03    0.43057E-06   -0.25089E-06  3960   0.192E-03
   9 F= -.85942836E+03 E0= -.85942836E+03  d E =-.144739E-02  mag=     0.0000
quench:  g(F)=  0.000E+00 g(S)=  0.000E+00 dE (1.order)= 0.000E+00
 bond charge predicted
       N       E                     dE             d eps       ncg     rms          rms(c)
DAV:   1    -0.851514531587E+03   -0.15872E-02   -0.55827E-01  4560   0.836E-01    0.173E-01
DAV:   2    -0.851515035700E+03   -0.50411E-03   -0.79215E-03  4680   0.999E-02    0.148E-01
DAV:   3    -0.851514917655E+03    0.11804E-03   -0.10177E-04  5400   0.156E-02    0.109E-01
DAV:   4    -0.851515039494E+03   -0.12184E-03   -0.66039E-04  4880   0.271E-02    0.187E-02
DAV:   5    -0.851515029787E+03    0.97077E-05   -0.81291E-05  4920   0.104E-02    0.143E-02
DAV:   6    -0.851515042595E+03   -0.12808E-04   -0.95445E-06  4140   0.521E-03    0.686E-03
DAV:   7    -0.851515042272E+03    0.32344E-06   -0.72845E-06  4160   0.309E-03
  10 F= -.85943011E+03 E0= -.85943011E+03  d E =-.174239E-02  mag=    -0.0000
quench:  g(F)=  0.000E+00 g(S)=  0.000E+00 dE (1.order)= 0.000E+00
 bond charge predicted
       N       E                     dE             d eps       ncg     rms          rms(c)
DAV:   1    -0.851516488460E+03   -0.14459E-02   -0.96858E-01  4540   0.113E+00    0.221E-01
DAV:   2    -0.851517489555E+03   -0.10011E-02   -0.14519E-02  4680   0.138E-01    0.189E-01
DAV:   3    -0.851517282561E+03    0.20699E-03   -0.16570E-04  5500   0.198E-02    0.143E-01
DAV:   4    -0.851517442564E+03   -0.16000E-03   -0.12303E-03  5100   0.368E-02    0.246E-02
DAV:   5    -0.851517427642E+03    0.14922E-04   -0.14852E-04  4920   0.136E-02    0.195E-02
DAV:   6    -0.851517446293E+03   -0.18652E-04   -0.17374E-05  4270   0.667E-03    0.925E-03
DAV:   7    -0.851517446200E+03    0.93256E-07   -0.16110E-05  4360   0.457E-03    0.267E-03
DAV:   8    -0.851517446352E+03   -0.15198E-06   -0.23838E-06  3880   0.288E-03
  11 F= -.85943207E+03 E0= -.85943207E+03  d E =-.195904E-02  mag=     0.0000
quench:  g(F)=  0.000E+00 g(S)=  0.000E+00 dE (1.order)= 0.000E+00
 bond charge predicted
       N       E                     dE             d eps       ncg     rms          rms(c)
DAV:   1    -0.851519139746E+03   -0.16935E-02   -0.92640E-01  4540   0.128E+00    0.240E-01
DAV:   2    -0.851520037509E+03   -0.89776E-03   -0.13091E-02  4760   0.156E-01    0.205E-01
DAV:   3    -0.851519885691E+03    0.15182E-03   -0.18578E-04  5200   0.237E-02    0.145E-01
DAV:   4    -0.851520079968E+03   -0.19428E-03   -0.82081E-04  5060   0.349E-02    0.240E-02
DAV:   5    -0.851520060854E+03    0.19114E-04   -0.10627E-04  4920   0.140E-02    0.181E-02
DAV:   6    -0.851520067497E+03   -0.66425E-05   -0.21231E-05  4440   0.732E-03    0.830E-03
DAV:   7    -0.851520067662E+03   -0.16529E-06   -0.67875E-06  4120   0.335E-03
  12 F= -.85943421E+03 E0= -.85943421E+03  d E =-.214941E-02  mag=     0.0000
quench:  g(F)=  0.000E+00 g(S)=  0.000E+00 dE (1.order)= 0.000E+00
 bond charge predicted
       N       E                     dE             d eps       ncg     rms          rms(c)
DAV:   1    -0.851519206800E+03    0.86070E-03   -0.27567E+00  4560   0.193E+00    0.346E-01
DAV:   2    -0.851522750065E+03   -0.35433E-02   -0.47425E-02  4840   0.244E-01    0.297E-01
DAV:   3    -0.851522138637E+03    0.61143E-03   -0.44612E-04  5560   0.323E-02    0.236E-01
DAV:   4    -0.851522355954E+03   -0.21732E-03   -0.40920E-03  5300   0.669E-02    0.414E-02
DAV:   5    -0.851522348357E+03    0.75974E-05   -0.50407E-04  4900   0.235E-02    0.344E-02
DAV:   6    -0.851522365339E+03   -0.16983E-04   -0.64269E-05  4600   0.122E-02    0.151E-02
DAV:   7    -0.851522375646E+03   -0.10307E-04   -0.45803E-05  4910   0.791E-03    0.648E-03
DAV:   8    -0.851522376454E+03   -0.80803E-06   -0.11884E-05  4390   0.605E-03    0.276E-03
DAV:   9    -0.851522376566E+03   -0.11165E-06   -0.11165E-06  3800   0.197E-03
  13 F= -.85943587E+03 E0= -.85943587E+03  d E =-.165530E-02  mag=    -0.0000
quench:  g(F)=  0.000E+00 g(S)=  0.000E+00 dE (1.order)= 0.000E+00
 bond charge predicted
       N       E                     dE             d eps       ncg     rms          rms(c)
DAV:   1    -0.851523450752E+03   -0.10743E-02   -0.46790E-02  4820   0.270E-01    0.460E-02
DAV:   2    -0.851523557569E+03   -0.10682E-03   -0.14694E-03  4820   0.409E-02    0.438E-02
DAV:   3    -0.851523539911E+03    0.17658E-04   -0.15141E-05  5080   0.577E-03    0.380E-02
DAV:   4    -0.851523531329E+03    0.85823E-05   -0.65901E-05  4500   0.107E-02    0.125E-02
DAV:   5    -0.851523537841E+03   -0.65117E-05   -0.20159E-05  4340   0.456E-03    0.591E-03
DAV:   6    -0.851523540557E+03   -0.27167E-05   -0.24011E-06  3440   0.309E-03    0.236E-03
DAV:   7    -0.851523541037E+03   -0.47951E-06   -0.24436E-07  3140   0.106E-03
  14 F= -.85943707E+03 E0= -.85943707E+03  d E =-.119632E-02  mag=     0.0000
quench:  g(F)=  0.000E+00 g(S)=  0.000E+00 dE (1.order)= 0.000E+00
 bond charge predicted
       N       E                     dE             d eps       ncg     rms          rms(c)
DAV:   1    -0.851522895312E+03    0.64525E-03   -0.50339E-02  4940   0.319E-01    0.504E-02
DAV:   2    -0.851523023820E+03   -0.12851E-03   -0.17086E-03  4780   0.486E-02    0.483E-02
DAV:   3    -0.851523004866E+03    0.18954E-04   -0.19321E-05  5440   0.673E-03    0.420E-02
DAV:   4    -0.851522992802E+03    0.12064E-04   -0.64311E-05  4560   0.112E-02    0.150E-02
DAV:   5    -0.851522999849E+03   -0.70469E-05   -0.23657E-05  4600   0.528E-03    0.644E-03
DAV:   6    -0.851523001428E+03   -0.15791E-05   -0.33569E-06  3760   0.361E-03    0.271E-03
DAV:   7    -0.851523001892E+03   -0.46370E-06   -0.33502E-07  3400   0.124E-03
  15 F= -.85943655E+03 E0= -.85943655E+03  d E =0.516765E-03  mag=    -0.0000
quench:  g(F)=  0.000E+00 g(S)=  0.000E+00 dE (1.order)= 0.000E+00
 bond charge predicted
       N       E                     dE             d eps       ncg     rms          rms(c)
DAV:   1    -0.851523301441E+03   -0.30001E-03   -0.28953E-03  4660   0.604E-02    0.106E-02
DAV:   2    -0.851523304355E+03   -0.29134E-05   -0.74223E-05  4520   0.864E-03    0.997E-03
DAV:   3    -0.851523302521E+03    0.18335E-05   -0.64851E-07  3740   0.118E-03    0.859E-03
DAV:   4    -0.851523304921E+03   -0.24004E-05   -0.48041E-06  3360   0.269E-03    0.243E-03
DAV:   5    -0.851523305353E+03   -0.43182E-06   -0.10070E-06  3580   0.104E-03
  16 F= -.85943684E+03 E0= -.85943684E+03  d E =-.292395E-03  mag=     0.0000
quench:  g(F)=  0.000E+00 g(S)=  0.000E+00 dE (1.order)= 0.000E+00
 bond charge predicted
       N       E                     dE             d eps       ncg     rms          rms(c)
DAV:   1    -0.851523673099E+03   -0.36818E-03   -0.96324E-03  4640   0.110E-01    0.194E-02
DAV:   2    -0.851523685229E+03   -0.12131E-04   -0.25126E-04  4700   0.158E-02    0.179E-02
DAV:   3    -0.851523680257E+03    0.49723E-05   -0.21773E-06  3920   0.221E-03    0.153E-02
DAV:   4    -0.851523686352E+03   -0.60948E-05   -0.15498E-05  3880   0.473E-03    0.405E-03
DAV:   5    -0.851523687686E+03   -0.13337E-05   -0.30893E-06  3640   0.172E-03    0.246E-03
DAV:   6    -0.851523688607E+03   -0.92148E-06   -0.19363E-07  3040   0.850E-04
  17 F= -.85943721E+03 E0= -.85943721E+03  d E =-.363053E-03  mag=     0.0000
quench:  g(F)=  0.000E+00 g(S)=  0.000E+00 dE (1.order)= 0.000E+00
 bond charge predicted
       N       E                     dE             d eps       ncg     rms          rms(c)
DAV:   1    -0.851523862911E+03   -0.17523E-03   -0.15645E-02  4640   0.142E-01    0.243E-02
DAV:   2    -0.851523883402E+03   -0.20491E-04   -0.39730E-04  4700   0.203E-02    0.223E-02
DAV:   3    -0.851523876995E+03    0.64063E-05   -0.34183E-06  3980   0.280E-03    0.191E-02
DAV:   4    -0.851523884066E+03   -0.70704E-05   -0.25224E-05  4140   0.598E-03    0.482E-03
DAV:   5    -0.851523885948E+03   -0.18821E-05   -0.47917E-06  3800   0.213E-03    0.298E-03
DAV:   6    -0.851523887462E+03   -0.15140E-05   -0.27068E-07  3080   0.988E-04    0.136E-03
DAV:   7    -0.851523887612E+03   -0.14955E-06   -0.84133E-08  3220   0.509E-04
  18 F= -.85943738E+03 E0= -.85943738E+03  d E =-.172563E-03  mag=    -0.0000
quench:  g(F)=  0.000E+00 g(S)=  0.000E+00 dE (1.order)= 0.000E+00
 bond charge predicted
       N       E                     dE             d eps       ncg     rms          rms(c)
DAV:   1    -0.851523831001E+03    0.56461E-04   -0.15161E-02  4600   0.147E-01    0.232E-02
DAV:   2    -0.851523848365E+03   -0.17364E-04   -0.35772E-04  4640   0.206E-02    0.211E-02
DAV:   3    -0.851523842647E+03    0.57171E-05   -0.28980E-06  3980   0.268E-03    0.179E-02
DAV:   4    -0.851523851171E+03   -0.85232E-05   -0.24903E-05  4160   0.585E-03    0.400E-03
DAV:   5    -0.851523852403E+03   -0.12326E-05   -0.41519E-06  3740   0.206E-03    0.278E-03
DAV:   6    -0.851523853836E+03   -0.14331E-05   -0.20377E-07  2960   0.873E-04    0.139E-03
DAV:   7    -0.851523853995E+03   -0.15836E-06   -0.12212E-07  3280   0.545E-04
  19 F= -.85943732E+03 E0= -.85943732E+03  d E =0.609810E-04  mag=     0.0000
quench:  g(F)=  0.000E+00 g(S)=  0.000E+00 dE (1.order)= 0.000E+00
 bond charge predicted
       N       E                     dE             d eps       ncg     rms          rms(c)
DAV:   1    -0.851523873456E+03   -0.19620E-04   -0.19837E-05  4630   0.693E-03    0.139E-03
DAV:   2    -0.851523873498E+03   -0.42543E-07   -0.68305E-07  2860   0.112E-03
  20 F= -.85943734E+03 E0= -.85943734E+03  d E =-.198555E-04  mag=     0.0000
quench:  g(F)=  0.000E+00 g(S)=  0.000E+00 dE (1.order)= 0.000E+00
 bond charge predicted
       N       E                     dE             d eps       ncg     rms          rms(c)
DAV:   1    -0.851523909090E+03   -0.35635E-04   -0.74506E-05  4980   0.135E-02    0.284E-03
DAV:   2    -0.851523909196E+03   -0.10602E-06   -0.25141E-06  3520   0.211E-03
  21 F= -.85943737E+03 E0= -.85943737E+03  d E =-.363528E-04  mag=    -0.0000
quench:  g(F)=  0.000E+00 g(S)=  0.000E+00 dE (1.order)= 0.000E+00
 bond charge predicted
       N       E                     dE             d eps       ncg     rms          rms(c)
DAV:   1    -0.851523955200E+03   -0.46110E-04   -0.14955E-04  5100   0.193E-02    0.472E-03
DAV:   2    -0.851523955308E+03   -0.10736E-06   -0.49281E-06  3860   0.293E-03
  22 F= -.85943742E+03 E0= -.85943742E+03  d E =-.469353E-04  mag=     0.0000
quench:  g(F)=  0.000E+00 g(S)=  0.000E+00 dE (1.order)= 0.000E+00
 bond charge predicted
       N       E                     dE             d eps       ncg     rms          rms(c)
DAV:   1    -0.851524004804E+03   -0.49604E-04   -0.22702E-04  5100   0.244E-02    0.654E-03
DAV:   2    -0.851524004905E+03   -0.10114E-06   -0.73790E-06  4120   0.366E-03
  23 F= -.85943747E+03 E0= -.85943747E+03  d E =-.504045E-04  mag=     0.0000
quench:  g(F)=  0.000E+00 g(S)=  0.000E+00 dE (1.order)= 0.000E+00
 bond charge predicted
       N       E                     dE             d eps       ncg     rms          rms(c)
DAV:   1    -0.851524051547E+03   -0.46743E-04   -0.28974E-04  5080   0.285E-02    0.798E-03
DAV:   2    -0.851524051703E+03   -0.15638E-06   -0.93156E-06  4340   0.424E-03
  24 F= -.85943752E+03 E0= -.85943752E+03  d E =-.473449E-04  mag=     0.0000
quench:  g(F)=  0.000E+00 g(S)=  0.000E+00 dE (1.order)= 0.000E+00
 bond charge predicted
       N       E                     dE             d eps       ncg     rms          rms(c)
DAV:   1    -0.851524091363E+03   -0.39816E-04   -0.32681E-04  5100   0.317E-02    0.892E-03
DAV:   2    -0.851524091699E+03   -0.33569E-06   -0.10301E-05  4600   0.464E-03    0.804E-03
DAV:   3    -0.851524091561E+03    0.13780E-06   -0.54161E-07  3420   0.120E-03
  25 F= -.85943756E+03 E0= -.85943756E+03  d E =-.398273E-04  mag=     0.0000
quench:  g(F)=  0.000E+00 g(S)=  0.000E+00 dE (1.order)= 0.000E+00
 bond charge predicted
       N       E                     dE             d eps       ncg     rms          rms(c)
DAV:   1    -0.851524127057E+03   -0.35358E-04   -0.41107E-04  5040   0.373E-02    0.566E-03
DAV:   2    -0.851524128047E+03   -0.98919E-06   -0.11863E-05  4720   0.526E-03    0.508E-03
DAV:   3    -0.851524127970E+03    0.77045E-07   -0.13596E-07  3020   0.711E-04
  26 F= -.85943759E+03 E0= -.85943759E+03  d E =-.351582E-04  mag=    -0.0000
quench:  g(F)=  0.000E+00 g(S)=  0.000E+00 dE (1.order)= 0.000E+00
 bond charge predicted
       N       E                     dE             d eps       ncg     rms          rms(c)
DAV:   1    -0.851524163164E+03   -0.35117E-04   -0.55923E-04  4820   0.443E-02    0.608E-03
DAV:   2    -0.851524164341E+03   -0.11779E-05   -0.14565E-05  4680   0.610E-03    0.511E-03
DAV:   3    -0.851524164318E+03    0.23429E-07   -0.14632E-07  3240   0.783E-04
  27 F= -.85943763E+03 E0= -.85943763E+03  d E =-.330807E-04  mag=    -0.0000
quench:  g(F)=  0.000E+00 g(S)=  0.000E+00 dE (1.order)= 0.000E+00
 bond charge predicted
       N       E                     dE             d eps       ncg     rms          rms(c)
DAV:   1    -0.851524210505E+03   -0.46164E-04   -0.90626E-04  4560   0.546E-02    0.702E-03
DAV:   2    -0.851524211711E+03   -0.12057E-05   -0.18731E-05  4580   0.709E-03    0.562E-03
DAV:   3    -0.851524211662E+03    0.48785E-07   -0.14903E-07  3200   0.845E-04
  28 F= -.85943767E+03 E0= -.85943767E+03  d E =-.412308E-04  mag=    -0.0000
quench:  g(F)=  0.000E+00 g(S)=  0.000E+00 dE (1.order)= 0.000E+00
 bond charge predicted
       N       E                     dE             d eps       ncg     rms          rms(c)
DAV:   1    -0.851524283960E+03   -0.72249E-04   -0.17017E-03  4560   0.699E-02    0.861E-03
DAV:   2    -0.851524285159E+03   -0.11998E-05   -0.31672E-05  4480   0.892E-03    0.677E-03
DAV:   3    -0.851524284969E+03    0.19064E-06   -0.23305E-07  3320   0.101E-03
  29 F= -.85943773E+03 E0= -.85943773E+03  d E =-.635883E-04  mag=     0.0000
quench:  g(F)=  0.000E+00 g(S)=  0.000E+00 dE (1.order)= 0.000E+00
 bond charge predicted
       N       E                     dE             d eps       ncg     rms          rms(c)
DAV:   1    -0.851524395194E+03   -0.11003E-03   -0.33001E-03  4560   0.906E-02    0.112E-02
DAV:   2    -0.851524396654E+03   -0.14599E-05   -0.60252E-05  4480   0.116E-02    0.894E-03
DAV:   3    -0.851524396104E+03    0.54949E-06   -0.45194E-07  3820   0.129E-03
  30 F= -.85943783E+03 E0= -.85943783E+03  d E =-.969793E-04  mag=     0.0000
quench:  g(F)=  0.000E+00 g(S)=  0.000E+00 dE (1.order)= 0.000E+00
 bond charge predicted
       N       E                     dE             d eps       ncg     rms          rms(c)
DAV:   1    -0.851524543750E+03   -0.14710E-03   -0.60848E-03  4560   0.117E-01    0.149E-02
DAV:   2    -0.851524546263E+03   -0.25128E-05   -0.11164E-04  4480   0.150E-02    0.122E-02
DAV:   3    -0.851524545235E+03    0.10272E-05   -0.83209E-07  3920   0.168E-03    0.976E-03
DAV:   4    -0.851524553151E+03   -0.79153E-05   -0.60164E-06  3560   0.311E-03    0.194E-03
DAV:   5    -0.851524553044E+03    0.10640E-06   -0.81609E-07  3680   0.117E-03
  31 F= -.85943797E+03 E0= -.85943797E+03  d E =-.137656E-03  mag=    -0.0000
quench:  g(F)=  0.000E+00 g(S)=  0.000E+00 dE (1.order)= 0.000E+00
 bond charge predicted
       N       E                     dE             d eps       ncg     rms          rms(c)
DAV:   1    -0.851524711039E+03   -0.15789E-03   -0.10484E-02  4560   0.149E-01    0.193E-02
DAV:   2    -0.851524719184E+03   -0.81449E-05   -0.20880E-04  4520   0.198E-02    0.160E-02
DAV:   3    -0.851524716825E+03    0.23587E-05   -0.15458E-06  4120   0.225E-03    0.131E-02
DAV:   4    -0.851524727468E+03   -0.10643E-04   -0.12750E-05  4060   0.441E-03    0.253E-03
DAV:   5    -0.851524727229E+03    0.23843E-06   -0.17150E-06  3700   0.162E-03
  32 F= -.85943811E+03 E0= -.85943811E+03  d E =-.149365E-03  mag=    -0.0000
quench:  g(F)=  0.000E+00 g(S)=  0.000E+00 dE (1.order)= 0.000E+00
 bond charge predicted
       N       E                     dE             d eps       ncg     rms          rms(c)
DAV:   1    -0.851524888998E+03   -0.16153E-03   -0.15028E-02  4560   0.180E-01    0.235E-02
DAV:   2    -0.851524901878E+03   -0.12880E-04   -0.29482E-04  4520   0.238E-02    0.194E-02
DAV:   3    -0.851524898892E+03    0.29857E-05   -0.22248E-06  4300   0.271E-03    0.157E-02
DAV:   4    -0.851524912492E+03   -0.13599E-04   -0.17501E-05  4160   0.519E-03    0.295E-03
DAV:   5    -0.851524912169E+03    0.32229E-06   -0.23316E-06  3720   0.190E-03
  33 F= -.85943827E+03 E0= -.85943827E+03  d E =-.154349E-03  mag=     0.0000
quench:  g(F)=  0.000E+00 g(S)=  0.000E+00 dE (1.order)= 0.000E+00
 bond charge predicted
       N       E                     dE             d eps       ncg     rms          rms(c)
DAV:   1    -0.851525100979E+03   -0.18849E-03   -0.18269E-02  4560   0.207E-01    0.267E-02
DAV:   2    -0.851525117724E+03   -0.16745E-04   -0.34927E-04  4500   0.271E-02    0.216E-02
DAV:   3    -0.851525114993E+03    0.27310E-05   -0.27437E-06  4420   0.309E-03    0.172E-02
DAV:   4    -0.851525130312E+03   -0.15320E-04   -0.17838E-05  4180   0.555E-03    0.310E-03
DAV:   5    -0.851525129940E+03    0.37244E-06   -0.23597E-06  3740   0.204E-03
  34 F= -.85943845E+03 E0= -.85943845E+03  d E =-.183123E-03  mag=     0.0000
quench:  g(F)=  0.000E+00 g(S)=  0.000E+00 dE (1.order)= 0.000E+00
 bond charge predicted
       N       E                     dE             d eps       ncg     rms          rms(c)
DAV:   1    -0.851525381127E+03   -0.25081E-03   -0.21459E-02  4560   0.238E-01    0.301E-02
DAV:   2    -0.851525402970E+03   -0.21843E-04   -0.40659E-04  4500   0.311E-02    0.240E-02
DAV:   3    -0.851525400786E+03    0.21840E-05   -0.34415E-06  4600   0.358E-03    0.188E-02
DAV:   4    -0.851525417051E+03   -0.16265E-04   -0.15407E-05  4180   0.586E-03    0.310E-03
DAV:   5    -0.851525416722E+03    0.32857E-06   -0.21441E-06  3820   0.220E-03
  35 F= -.85943870E+03 E0= -.85943870E+03  d E =-.249226E-03  mag=     0.0000
quench:  g(F)=  0.000E+00 g(S)=  0.000E+00 dE (1.order)= 0.000E+00
 bond charge predicted
       N       E                     dE             d eps       ncg     rms          rms(c)
DAV:   1    -0.851525713530E+03   -0.29648E-03   -0.27564E-02  4560   0.280E-01    0.354E-02
DAV:   2    -0.851525745666E+03   -0.32136E-04   -0.53014E-04  4520   0.367E-02    0.282E-02
DAV:   3    -0.851525743537E+03    0.21293E-05   -0.48286E-06  4860   0.430E-03    0.219E-02
DAV:   4    -0.851525761189E+03   -0.17652E-04   -0.15468E-05  4300   0.653E-03    0.331E-03
DAV:   5    -0.851525760884E+03    0.30507E-06   -0.22648E-06  3880   0.248E-03
  36 F= -.85943900E+03 E0= -.85943900E+03  d E =-.301471E-03  mag=     0.0000
quench:  g(F)=  0.000E+00 g(S)=  0.000E+00 dE (1.order)= 0.000E+00
 bond charge predicted
       N       E                     dE             d eps       ncg     rms          rms(c)
DAV:   1    -0.851526074510E+03   -0.31332E-03   -0.41594E-02  4560   0.344E-01    0.436E-02
DAV:   2    -0.851526126577E+03   -0.52067E-04   -0.79576E-04  4560   0.451E-02    0.347E-02
DAV:   3    -0.851526122934E+03    0.36426E-05   -0.74381E-06  5020   0.535E-03    0.269E-02
DAV:   4    -0.851526145057E+03   -0.22123E-04   -0.24544E-05  4400   0.817E-03    0.406E-03
DAV:   5    -0.851526144645E+03    0.41224E-06   -0.36351E-06  4160   0.310E-03
  37 F= -.85943933E+03 E0= -.85943933E+03  d E =-.330369E-03  mag=     0.0000
quench:  g(F)=  0.000E+00 g(S)=  0.000E+00 dE (1.order)= 0.000E+00
 bond charge predicted
       N       E                     dE             d eps       ncg     rms          rms(c)
DAV:   1    -0.851526508849E+03   -0.36379E-03   -0.73690E-02  4560   0.437E-01    0.557E-02
DAV:   2    -0.851526604479E+03   -0.95630E-04   -0.13878E-03  4580   0.573E-02    0.445E-02
DAV:   3    -0.851526595267E+03    0.92121E-05   -0.12394E-05  5320   0.674E-03    0.348E-02
DAV:   4    -0.851526626894E+03   -0.31627E-04   -0.57574E-05  4420   0.111E-02    0.566E-03
DAV:   5    -0.851526625742E+03    0.11518E-05   -0.81277E-06  4780   0.412E-03    0.481E-03
DAV:   6    -0.851526627579E+03   -0.18372E-05   -0.10502E-06  3320   0.241E-03    0.262E-03
DAV:   7    -0.851526627717E+03   -0.13750E-06   -0.10587E-06  3580   0.172E-03
  38 F= -.85943974E+03 E0= -.85943974E+03  d E =-.410752E-03  mag=     0.0000
quench:  g(F)=  0.000E+00 g(S)=  0.000E+00 dE (1.order)= 0.000E+00
 bond charge predicted
       N       E                     dE             d eps       ncg     rms          rms(c)
DAV:   1    -0.851527017138E+03   -0.38956E-03   -0.12885E-01  4560   0.556E-01    0.712E-02
DAV:   2    -0.851527189738E+03   -0.17260E-03   -0.24309E-03  4580   0.731E-02    0.579E-02
DAV:   3    -0.851527168075E+03    0.21662E-04   -0.21253E-05  5400   0.858E-03    0.457E-02
DAV:   4    -0.851527209370E+03   -0.41295E-04   -0.12722E-04  4540   0.150E-02    0.779E-03
DAV:   5    -0.851527208275E+03    0.10945E-05   -0.17411E-05  4920   0.552E-03    0.647E-03
DAV:   6    -0.851527211862E+03   -0.35864E-05   -0.16087E-06  3400   0.282E-03    0.344E-03
DAV:   7    -0.851527212808E+03   -0.94613E-06   -0.19403E-06  3600   0.213E-03
  39 F= -.85944023E+03 E0= -.85944023E+03  d E =-.491206E-03  mag=     0.0000
quench:  g(F)=  0.000E+00 g(S)=  0.000E+00 dE (1.order)= 0.000E+00
 bond charge predicted
       N       E                     dE             d eps       ncg     rms          rms(c)
DAV:   1    -0.851527570126E+03   -0.35826E-03   -0.18758E-01  4560   0.689E-01    0.861E-02
DAV:   2    -0.851527832059E+03   -0.26193E-03   -0.35595E-03  4600   0.907E-02    0.694E-02
DAV:   3    -0.851527804029E+03    0.28030E-04   -0.31590E-05  5380   0.106E-02    0.547E-02
DAV:   4    -0.851527857938E+03   -0.53909E-04   -0.17099E-04  4600   0.181E-02    0.916E-03
DAV:   5    -0.851527856710E+03    0.12288E-05   -0.23802E-05  4960   0.672E-03    0.758E-03
DAV:   6    -0.851527860202E+03   -0.34924E-05   -0.23343E-06  3460   0.334E-03    0.398E-03
DAV:   7    -0.851527861355E+03   -0.11527E-05   -0.25185E-06  3680   0.243E-03    0.168E-03
DAV:   8    -0.851527861414E+03   -0.59386E-07   -0.44843E-07  3550   0.193E-03
  40 F= -.85944077E+03 E0= -.85944077E+03  d E =-.540026E-03  mag=    -0.0000
quench:  g(F)=  0.000E+00 g(S)=  0.000E+00 dE (1.order)= 0.000E+00
 bond charge predicted
       N       E                     dE             d eps       ncg     rms          rms(c)
DAV:   1    -0.851528302457E+03   -0.44110E-03   -0.23979E-01  4560   0.830E-01    0.995E-02
DAV:   2    -0.851528659704E+03   -0.35725E-03   -0.46445E-03  4700   0.110E-01    0.786E-02
DAV:   3    -0.851528632738E+03    0.26966E-04   -0.43395E-05  5280   0.130E-02    0.614E-02
DAV:   4    -0.851528697879E+03   -0.65141E-04   -0.16179E-04  4740   0.204E-02    0.951E-03
DAV:   5    -0.851528696594E+03    0.12846E-05   -0.24302E-05  5000   0.773E-03    0.778E-03
DAV:   6    -0.851528699069E+03   -0.24752E-05   -0.31940E-06  3860   0.400E-03    0.394E-03
DAV:   7    -0.851528699923E+03   -0.85359E-06   -0.20547E-06  3680   0.235E-03
  41 F= -.85944150E+03 E0= -.85944150E+03  d E =-.728106E-03  mag=    -0.0000
quench:  g(F)=  0.000E+00 g(S)=  0.000E+00 dE (1.order)= 0.000E+00
 bond charge predicted
       N       E                     dE             d eps       ncg     rms          rms(c)
DAV:   1    -0.851529033425E+03   -0.33436E-03   -0.37443E-01  4580   0.105E+00    0.123E-01
DAV:   2    -0.851529618191E+03   -0.58477E-03   -0.73594E-03  4720   0.139E-01    0.968E-02
DAV:   3    -0.851529578632E+03    0.39560E-04   -0.67406E-05  5280   0.163E-02    0.757E-02
DAV:   4    -0.851529665983E+03   -0.87351E-04   -0.24302E-04  4960   0.251E-02    0.117E-02
DAV:   5    -0.851529663843E+03    0.21397E-05   -0.36752E-05  5000   0.956E-03    0.940E-03
DAV:   6    -0.851529667142E+03   -0.32988E-05   -0.46166E-06  4200   0.451E-03    0.470E-03
DAV:   7    -0.851529668348E+03   -0.12064E-05   -0.26638E-06  3660   0.260E-03    0.195E-03
DAV:   8    -0.851529668414E+03   -0.65993E-07   -0.42961E-07  3580   0.172E-03
  42 F= -.85944235E+03 E0= -.85944235E+03  d E =-.842557E-03  mag=     0.0000
quench:  g(F)=  0.000E+00 g(S)=  0.000E+00 dE (1.order)= 0.000E+00
 bond charge predicted
       N       E                     dE             d eps       ncg     rms          rms(c)
DAV:   1    -0.851529963877E+03   -0.29553E-03   -0.59306E-01  4560   0.125E+00    0.153E-01
DAV:   2    -0.851530868154E+03   -0.90428E-03   -0.11397E-02  4720   0.164E-01    0.122E-01
DAV:   3    -0.851530787242E+03    0.80913E-04   -0.10208E-04  5420   0.192E-02    0.959E-02
DAV:   4    -0.851530898554E+03   -0.11131E-03   -0.49875E-04  5040   0.313E-02    0.159E-02
DAV:   5    -0.851530895820E+03    0.27338E-05   -0.70217E-05  4960   0.117E-02    0.128E-02
DAV:   6    -0.851530902313E+03   -0.64928E-05   -0.70787E-06  4360   0.508E-03    0.629E-03
DAV:   7    -0.851530904953E+03   -0.26400E-05   -0.47738E-06  3580   0.313E-03    0.211E-03
DAV:   8    -0.851530905002E+03   -0.49025E-07   -0.68764E-07  4020   0.189E-03
  43 F= -.85944341E+03 E0= -.85944341E+03  d E =-.106628E-02  mag=     0.0000
quench:  g(F)=  0.000E+00 g(S)=  0.000E+00 dE (1.order)= 0.000E+00
 bond charge predicted
       N       E                     dE             d eps       ncg     rms          rms(c)
DAV:   1    -0.851531302608E+03   -0.39766E-03   -0.73547E-01  4560   0.139E+00    0.175E-01
DAV:   2    -0.851532412090E+03   -0.11095E-02   -0.13875E-02  4760   0.182E-01    0.140E-01
DAV:   3    -0.851532316603E+03    0.95487E-04   -0.12640E-04  5360   0.215E-02    0.109E-01
DAV:   4    -0.851532456829E+03   -0.14023E-03   -0.59016E-04  5100   0.347E-02    0.176E-02
DAV:   5    -0.851532450887E+03    0.59418E-05   -0.83090E-05  4940   0.131E-02    0.143E-02
DAV:   6    -0.851532457245E+03   -0.63583E-05   -0.91012E-06  4420   0.550E-03    0.720E-03
DAV:   7    -0.851532459348E+03   -0.21022E-05   -0.68868E-06  3840   0.374E-03    0.234E-03
DAV:   8    -0.851532459426E+03   -0.78289E-07   -0.10151E-06  4100   0.207E-03
  44 F= -.85944476E+03 E0= -.85944476E+03  d E =-.134831E-02  mag=     0.0000
quench:  g(F)=  0.000E+00 g(S)=  0.000E+00 dE (1.order)= 0.000E+00
 bond charge predicted
       N       E                     dE             d eps       ncg     rms          rms(c)
DAV:   1    -0.851532796322E+03   -0.33697E-03   -0.98070E-01  4560   0.162E+00    0.205E-01
DAV:   2    -0.851534278297E+03   -0.14820E-02   -0.18419E-02  4740   0.213E-01    0.165E-01
DAV:   3    -0.851534157960E+03    0.12034E-03   -0.17150E-04  5320   0.254E-02    0.129E-01
DAV:   4    -0.851534340046E+03   -0.18209E-03   -0.80141E-04  5260   0.410E-02    0.210E-02
DAV:   5    -0.851534330549E+03    0.94973E-05   -0.11217E-04  4940   0.154E-02    0.174E-02
DAV:   6    -0.851534335843E+03   -0.52942E-05   -0.14931E-05  4440   0.691E-03    0.875E-03
DAV:   7    -0.851534338148E+03   -0.23051E-05   -0.97858E-06  4260   0.461E-03    0.371E-03
DAV:   8    -0.851534338349E+03   -0.20105E-06   -0.23392E-06  4010   0.318E-03
  45 F= -.85944637E+03 E0= -.85944637E+03  d E =-.161418E-02  mag=     0.0000
quench:  g(F)=  0.000E+00 g(S)=  0.000E+00 dE (1.order)= 0.000E+00
 bond charge predicted
       N       E                     dE             d eps       ncg     rms          rms(c)
DAV:   1    -0.851534043100E+03    0.29505E-03   -0.16303E+00  4560   0.204E+00    0.258E-01
DAV:   2    -0.851536533542E+03   -0.24904E-02   -0.31108E-02  4780   0.270E-01    0.209E-01
DAV:   3    -0.851536294088E+03    0.23945E-03   -0.29876E-04  5460   0.329E-02    0.166E-01
DAV:   4    -0.851536540786E+03   -0.24670E-03   -0.16539E-03  5340   0.561E-02    0.287E-02
DAV:   5    -0.851536528693E+03    0.12093E-04   -0.23083E-04  4920   0.209E-02    0.239E-02
DAV:   6    -0.851536537610E+03   -0.89168E-05   -0.27493E-05  4540   0.955E-03    0.121E-02
DAV:   7    -0.851536542533E+03   -0.49236E-05   -0.19706E-05  4740   0.650E-03    0.518E-03
DAV:   8    -0.851536543210E+03   -0.67635E-06   -0.49091E-06  3880   0.484E-03
  46 F= -.85944819E+03 E0= -.85944819E+03  d E =-.181547E-02  mag=    -0.0000
quench:  g(F)=  0.000E+00 g(S)=  0.000E+00 dE (1.order)= 0.000E+00
 bond charge predicted
       N       E                     dE             d eps       ncg     rms          rms(c)
DAV:   1    -0.851535671430E+03    0.87110E-03   -0.17404E+00  4560   0.230E+00    0.283E-01
DAV:   2    -0.851538433399E+03   -0.27620E-02   -0.33897E-02  4820   0.307E-01    0.226E-01
DAV:   3    -0.851538251531E+03    0.18187E-03   -0.38176E-04  5300   0.392E-02    0.176E-01
DAV:   4    -0.851538533382E+03   -0.28185E-03   -0.12559E-03  5300   0.600E-02    0.288E-02
DAV:   5    -0.851538516863E+03    0.16519E-04   -0.19760E-04  4940   0.233E-02    0.227E-02
DAV:   6    -0.851538522314E+03   -0.54511E-05   -0.41944E-05  4720   0.119E-02    0.985E-03
DAV:   7    -0.851538524466E+03   -0.21521E-05   -0.98111E-06  5200   0.496E-03    0.595E-03
DAV:   8    -0.851538524846E+03   -0.37943E-06   -0.31066E-06  3640   0.386E-03
  47 F= -.85944973E+03 E0= -.85944973E+03  d E =-.153927E-02  mag=    -0.0000
quench:  g(F)=  0.000E+00 g(S)=  0.000E+00 dE (1.order)= 0.000E+00
 bond charge predicted
       N       E                     dE             d eps       ncg     rms          rms(c)
DAV:   1    -0.851531735184E+03    0.67893E-02   -0.45831E+00  4560   0.325E+00    0.419E-01
DAV:   2    -0.851539432230E+03   -0.76970E-02   -0.94829E-02  4920   0.438E-01    0.342E-01
DAV:   3    -0.851538619372E+03    0.81286E-03   -0.98877E-04  5580   0.566E-02    0.277E-01
DAV:   4    -0.851538780936E+03   -0.16156E-03   -0.56470E-03  5240   0.101E-01    0.535E-02
DAV:   5    -0.851538822502E+03   -0.41565E-04   -0.84492E-04  4960   0.363E-02    0.452E-02
DAV:   6    -0.851538825193E+03   -0.26914E-05   -0.11794E-04  4880   0.184E-02    0.219E-02
DAV:   7    -0.851538845512E+03   -0.20319E-04   -0.55602E-05  5140   0.109E-02    0.124E-02
DAV:   8    -0.851538851667E+03   -0.61555E-05   -0.22939E-05  4680   0.894E-03    0.484E-03
DAV:   9    -0.851538851544E+03    0.12395E-06   -0.29725E-06  4180   0.311E-03
  48 F= -.85944937E+03 E0= -.85944937E+03  d E =0.354375E-03  mag=    -0.0000
quench:  g(F)=  0.000E+00 g(S)=  0.000E+00 dE (1.order)= 0.000E+00
 bond charge predicted
       N       E                     dE             d eps       ncg     rms          rms(c)
DAV:   1    -0.851541405633E+03   -0.25540E-02   -0.20046E-01  4760   0.600E-01    0.937E-02
DAV:   2    -0.851541845361E+03   -0.43973E-03   -0.60093E-03  4960   0.898E-02    0.893E-02
DAV:   3    -0.851541772998E+03    0.72363E-04   -0.69866E-05  5700   0.134E-02    0.775E-02
DAV:   4    -0.851541727813E+03    0.45185E-04   -0.29372E-04  4900   0.245E-02    0.251E-02
DAV:   5    -0.851541748172E+03   -0.20359E-04   -0.85246E-05  5000   0.104E-02    0.120E-02
DAV:   6    -0.851541754502E+03   -0.63301E-05   -0.78967E-06  4600   0.506E-03    0.479E-03
DAV:   7    -0.851541755935E+03   -0.14324E-05   -0.68684E-07  3460   0.161E-03    0.312E-03
DAV:   8    -0.851541755888E+03    0.46806E-07   -0.76366E-07  3500   0.175E-03
  49 F= -.85945235E+03 E0= -.85945235E+03  d E =-.297245E-02  mag=    -0.0000
quench:  g(F)=  0.000E+00 g(S)=  0.000E+00 dE (1.order)= 0.000E+00
 bond charge predicted
       N       E                     dE             d eps       ncg     rms          rms(c)
DAV:   1    -0.851541781868E+03   -0.25933E-04   -0.21685E-04  4640   0.237E-02    0.296E-03
DAV:   2    -0.851541782159E+03   -0.29157E-06   -0.46602E-06  3740   0.328E-03
  50 F= -.85945237E+03 E0= -.85945237E+03  d E =-.218343E-04  mag=     0.0000
quench:  g(F)=  0.000E+00 g(S)=  0.000E+00 dE (1.order)= 0.000E+00
 bond charge predicted
       N       E                     dE             d eps       ncg     rms          rms(c)
DAV:   1    -0.851541826811E+03   -0.44944E-04   -0.78066E-04  4480   0.453E-02    0.712E-03
DAV:   2    -0.851541827119E+03   -0.30731E-06   -0.16160E-05  4620   0.621E-03    0.627E-03
DAV:   3    -0.851541826866E+03    0.25261E-06   -0.29666E-07  3760   0.114E-03
  51 F= -.85945241E+03 E0= -.85945241E+03  d E =-.361652E-04  mag=     0.0000
quench:  g(F)=  0.000E+00 g(S)=  0.000E+00 dE (1.order)= 0.000E+00
 bond charge predicted
       N       E                     dE             d eps       ncg     rms          rms(c)
DAV:   1    -0.851541882036E+03   -0.54918E-04   -0.13956E-03  4480   0.612E-02    0.789E-03
DAV:   2    -0.851541883087E+03   -0.10509E-05   -0.26028E-05  4620   0.801E-03    0.665E-03
DAV:   3    -0.851541882842E+03    0.24563E-06   -0.34760E-07  3860   0.127E-03
  52 F= -.85945245E+03 E0= -.85945245E+03  d E =-.439226E-04  mag=    -0.0000
quench:  g(F)=  0.000E+00 g(S)=  0.000E+00 dE (1.order)= 0.000E+00
 bond charge predicted
       N       E                     dE             d eps       ncg     rms          rms(c)
DAV:   1    -0.851541946968E+03   -0.63881E-04   -0.19885E-03  4500   0.751E-02    0.948E-03
DAV:   2    -0.851541948645E+03   -0.16768E-05   -0.36916E-05  4600   0.983E-03    0.783E-03
DAV:   3    -0.851541948346E+03    0.29924E-06   -0.48109E-07  4000   0.150E-03
  53 F= -.85945250E+03 E0= -.85945250E+03  d E =-.510091E-04  mag=     0.0000
quench:  g(F)=  0.000E+00 g(S)=  0.000E+00 dE (1.order)= 0.000E+00
 bond charge predicted
       N       E                     dE             d eps       ncg     rms          rms(c)
DAV:   1    -0.851542023317E+03   -0.74672E-04   -0.25075E-03  4500   0.880E-02    0.109E-02
DAV:   2    -0.851542025656E+03   -0.23391E-05   -0.46303E-05  4560   0.115E-02    0.879E-03
DAV:   3    -0.851542025428E+03    0.22801E-06   -0.60979E-07  4000   0.173E-03
  54 F= -.85945256E+03 E0= -.85945256E+03  d E =-.611615E-04  mag=    -0.0000
quench:  g(F)=  0.000E+00 g(S)=  0.000E+00 dE (1.order)= 0.000E+00
 bond charge predicted
       N       E                     dE             d eps       ncg     rms          rms(c)
DAV:   1    -0.851542110825E+03   -0.85170E-04   -0.31263E-03  4500   0.102E-01    0.123E-02
DAV:   2    -0.851542114215E+03   -0.33891E-05   -0.59106E-05  4500   0.134E-02    0.979E-03
DAV:   3    -0.851542114049E+03    0.16573E-06   -0.76708E-07  3980   0.196E-03
  55 F= -.85945263E+03 E0= -.85945263E+03  d E =-.719109E-04  mag=     0.0000
quench:  g(F)=  0.000E+00 g(S)=  0.000E+00 dE (1.order)= 0.000E+00
 bond charge predicted
       N       E                     dE             d eps       ncg     rms          rms(c)
DAV:   1    -0.851542212430E+03   -0.98215E-04   -0.49387E-03  4520   0.130E-01    0.153E-02
DAV:   2    -0.851542218410E+03   -0.59800E-05   -0.95956E-05  4500   0.172E-02    0.122E-02
DAV:   3    -0.851542218124E+03    0.28579E-06   -0.12479E-06  4180   0.248E-03
  56 F= -.85945272E+03 E0= -.85945272E+03  d E =-.842423E-04  mag=     0.0000
quench:  g(F)=  0.000E+00 g(S)=  0.000E+00 dE (1.order)= 0.000E+00
 bond charge predicted
       N       E                     dE             d eps       ncg     rms          rms(c)
DAV:   1    -0.851542323724E+03   -0.10531E-03   -0.82920E-03  4540   0.169E-01    0.196E-02
DAV:   2    -0.851542334043E+03   -0.10318E-04   -0.16326E-04  4480   0.223E-02    0.154E-02
DAV:   3    -0.851542333564E+03    0.47870E-06   -0.20309E-06  4460   0.311E-03
  57 F= -.85945281E+03 E0= -.85945281E+03  d E =-.913711E-04  mag=    -0.0000
quench:  g(F)=  0.000E+00 g(S)=  0.000E+00 dE (1.order)= 0.000E+00
 bond charge predicted
       N       E                     dE             d eps       ncg     rms          rms(c)
DAV:   1    -0.851542450682E+03   -0.11664E-03   -0.14274E-02  4540   0.218E-01    0.251E-02
DAV:   2    -0.851542467722E+03   -0.17040E-04   -0.28031E-04  4480   0.287E-02    0.196E-02
DAV:   3    -0.851542466777E+03    0.94470E-06   -0.33773E-06  5020   0.389E-03
  58 F= -.85945291E+03 E0= -.85945291E+03  d E =-.101916E-03  mag=     0.0000
quench:  g(F)=  0.000E+00 g(S)=  0.000E+00 dE (1.order)= 0.000E+00
 bond charge predicted
       N       E                     dE             d eps       ncg     rms          rms(c)
DAV:   1    -0.851542604715E+03   -0.13699E-03   -0.24980E-02  4540   0.282E-01    0.324E-02
DAV:   2    -0.851542633910E+03   -0.29196E-04   -0.48903E-04  4480   0.371E-02    0.253E-02
DAV:   3    -0.851542632014E+03    0.18961E-05   -0.56764E-06  5440   0.491E-03    0.198E-02
DAV:   4    -0.851542647417E+03   -0.15402E-04   -0.12950E-05  4220   0.650E-03    0.377E-03
DAV:   5    -0.851542648229E+03   -0.81238E-06   -0.24366E-06  3840   0.257E-03
  59 F= -.85945305E+03 E0= -.85945305E+03  d E =-.139590E-03  mag=    -0.0000
quench:  g(F)=  0.000E+00 g(S)=  0.000E+00 dE (1.order)= 0.000E+00
 bond charge predicted
       N       E                     dE             d eps       ncg     rms          rms(c)
DAV:   1    -0.851542774815E+03   -0.12740E-03   -0.41819E-02  4560   0.363E-01    0.393E-02
DAV:   2    -0.851542834536E+03   -0.59720E-04   -0.86966E-04  4500   0.489E-02    0.303E-02
DAV:   3    -0.851542829462E+03    0.50732E-05   -0.87882E-06  5450   0.610E-03    0.241E-02
DAV:   4    -0.851542849384E+03   -0.19922E-04   -0.25194E-05  4340   0.897E-03    0.450E-03
DAV:   5    -0.851542850334E+03   -0.94998E-06   -0.44778E-06  4550   0.341E-03
  60 F= -.85945320E+03 E0= -.85945320E+03  d E =-.149511E-03  mag=    -0.0000
quench:  g(F)=  0.000E+00 g(S)=  0.000E+00 dE (1.order)= 0.000E+00
 bond charge predicted
       N       E                     dE             d eps       ncg     rms          rms(c)
DAV:   1    -0.851542976581E+03   -0.12720E-03   -0.62595E-02  4560   0.450E-01    0.480E-02
DAV:   2    -0.851543070074E+03   -0.93493E-04   -0.13062E-03  4500   0.604E-02    0.366E-02
DAV:   3    -0.851543064151E+03    0.59222E-05   -0.12517E-05  5460   0.731E-03    0.290E-02
DAV:   4    -0.851543091545E+03   -0.27393E-04   -0.34815E-05  4440   0.109E-02    0.505E-03
DAV:   5    -0.851543092318E+03   -0.77334E-06   -0.61330E-06  5140   0.415E-03
  61 F= -.85945338E+03 E0= -.85945338E+03  d E =-.181352E-03  mag=    -0.0000
quench:  g(F)=  0.000E+00 g(S)=  0.000E+00 dE (1.order)= 0.000E+00
 bond charge predicted
       N       E                     dE             d eps       ncg     rms          rms(c)
DAV:   1    -0.851543211327E+03   -0.11978E-03   -0.92409E-02  4560   0.555E-01    0.586E-02
DAV:   2    -0.851543356503E+03   -0.14518E-03   -0.19521E-03  4500   0.749E-02    0.442E-02
DAV:   3    -0.851543349172E+03    0.73310E-05   -0.18537E-05  5500   0.896E-03    0.350E-02
DAV:   4    -0.851543385645E+03   -0.36472E-04   -0.46587E-05  4500   0.133E-02    0.580E-03
DAV:   5    -0.851543386198E+03   -0.55369E-06   -0.85298E-06  5200   0.511E-03
  62 F= -.85945361E+03 E0= -.85945361E+03  d E =-.225053E-03  mag=     0.0000
quench:  g(F)=  0.000E+00 g(S)=  0.000E+00 dE (1.order)= 0.000E+00
 bond charge predicted
       N       E                     dE             d eps       ncg     rms          rms(c)
DAV:   1    -0.851543513116E+03   -0.12747E-03   -0.13129E-01  4560   0.654E-01    0.705E-02
DAV:   2    -0.851543717414E+03   -0.20430E-03   -0.27293E-03  4500   0.883E-02    0.537E-02
DAV:   3    -0.851543706492E+03    0.10922E-04   -0.25777E-05  5480   0.106E-02    0.423E-02
DAV:   4    -0.851543755406E+03   -0.48914E-04   -0.71491E-05  4560   0.158E-02    0.707E-03
DAV:   5    -0.851543755800E+03   -0.39426E-06   -0.12520E-05  5140   0.615E-03    0.553E-03
DAV:   6    -0.851543756252E+03   -0.45242E-06   -0.19480E-06  3600   0.338E-03
  63 F= -.85945389E+03 E0= -.85945389E+03  d E =-.285724E-03  mag=    -0.0000
quench:  g(F)=  0.000E+00 g(S)=  0.000E+00 dE (1.order)= 0.000E+00
 bond charge predicted
       N       E                     dE             d eps       ncg     rms          rms(c)
DAV:   1    -0.851543933753E+03   -0.17795E-03   -0.16972E-01  4580   0.707E-01    0.819E-02
DAV:   2    -0.851544180553E+03   -0.24680E-03   -0.33598E-03  4580   0.952E-02    0.645E-02
DAV:   3    -0.851544161021E+03    0.19532E-04   -0.33655E-05  5460   0.118E-02    0.506E-02
DAV:   4    -0.851544215990E+03   -0.54969E-04   -0.12197E-04  4680   0.181E-02    0.899E-03
DAV:   5    -0.851544216849E+03   -0.85933E-06   -0.19445E-05  5040   0.712E-03    0.692E-03
DAV:   6    -0.851544218633E+03   -0.17834E-05   -0.27809E-06  3680   0.365E-03    0.332E-03
DAV:   7    -0.851544218859E+03   -0.22607E-06   -0.85183E-07  3560   0.157E-03
  64 F= -.85945424E+03 E0= -.85945424E+03  d E =-.351879E-03  mag=     0.0000
quench:  g(F)=  0.000E+00 g(S)=  0.000E+00 dE (1.order)= 0.000E+00
 bond charge predicted
       N       E                     dE             d eps       ncg     rms          rms(c)
DAV:   1    -0.851544523282E+03   -0.30465E-03   -0.18881E-01  4560   0.701E-01    0.912E-02
DAV:   2    -0.851544769969E+03   -0.24669E-03   -0.34803E-03  4600   0.937E-02    0.743E-02
DAV:   3    -0.851544744259E+03    0.25710E-04   -0.38183E-05  5460   0.124E-02    0.577E-02
DAV:   4    -0.851544802559E+03   -0.58300E-04   -0.16420E-04  4740   0.197E-02    0.967E-03
DAV:   5    -0.851544802255E+03    0.30430E-06   -0.25165E-05  5040   0.776E-03    0.772E-03
DAV:   6    -0.851544804419E+03   -0.21643E-05   -0.26606E-06  3660   0.356E-03    0.399E-03
DAV:   7    -0.851544804647E+03   -0.22806E-06   -0.19077E-06  3580   0.225E-03
  65 F= -.85945468E+03 E0= -.85945468E+03  d E =-.440957E-03  mag=     0.0000
quench:  g(F)=  0.000E+00 g(S)=  0.000E+00 dE (1.order)= 0.000E+00
 bond charge predicted
       N       E                     dE             d eps       ncg     rms          rms(c)
DAV:   1    -0.851545206719E+03   -0.40230E-03   -0.22979E-01  4560   0.762E-01    0.104E-01
DAV:   2    -0.851545489795E+03   -0.28308E-03   -0.40476E-03  4640   0.101E-01    0.859E-02
DAV:   3    -0.851545458866E+03    0.30929E-04   -0.48566E-05  5400   0.141E-02    0.660E-02
DAV:   4    -0.851545527290E+03   -0.68424E-04   -0.19970E-04  4840   0.220E-02    0.109E-02
DAV:   5    -0.851545526392E+03    0.89818E-06   -0.31062E-05  5000   0.866E-03    0.869E-03
DAV:   6    -0.851545528775E+03   -0.23834E-05   -0.37079E-06  3740   0.393E-03    0.433E-03
DAV:   7    -0.851545529103E+03   -0.32783E-06   -0.22632E-06  3640   0.244E-03
  66 F= -.85945524E+03 E0= -.85945524E+03  d E =-.556729E-03  mag=    -0.0000
quench:  g(F)=  0.000E+00 g(S)=  0.000E+00 dE (1.order)= 0.000E+00
 bond charge predicted
       N       E                     dE             d eps       ncg     rms          rms(c)
DAV:   1    -0.851545808688E+03   -0.27991E-03   -0.42450E-01  4540   0.106E+00    0.134E-01
DAV:   2    -0.851546407575E+03   -0.59889E-03   -0.80000E-03  4700   0.142E-01    0.109E-01
DAV:   3    -0.851546348828E+03    0.58748E-04   -0.89853E-05  5540   0.188E-02    0.858E-02
DAV:   4    -0.851546442390E+03   -0.93562E-04   -0.39715E-04  5040   0.304E-02    0.148E-02
DAV:   5    -0.851546442299E+03    0.91080E-07   -0.60216E-05  5010   0.116E-02    0.120E-02
DAV:   6    -0.851546447544E+03   -0.52451E-05   -0.75183E-06  4320   0.545E-03    0.585E-03
DAV:   7    -0.851546448604E+03   -0.10597E-05   -0.39940E-06  3760   0.315E-03    0.267E-03
DAV:   8    -0.851546448708E+03   -0.10419E-06   -0.83155E-07  3550   0.220E-03
  67 F= -.85945595E+03 E0= -.85945595E+03  d E =-.712601E-03  mag=    -0.0000
quench:  g(F)=  0.000E+00 g(S)=  0.000E+00 dE (1.order)= 0.000E+00
 bond charge predicted
       N       E                     dE             d eps       ncg     rms          rms(c)
DAV:   1    -0.851546518391E+03   -0.69787E-04   -0.65336E-01  4560   0.140E+00    0.165E-01
DAV:   2    -0.851547532953E+03   -0.10146E-02   -0.12885E-02  4720   0.187E-01    0.131E-01
DAV:   3    -0.851547459981E+03    0.72972E-04   -0.14928E-04  5440   0.243E-02    0.103E-01
DAV:   4    -0.851547581385E+03   -0.12140E-03   -0.49478E-04  5160   0.377E-02    0.178E-02
DAV:   5    -0.851547582366E+03   -0.98121E-06   -0.80581E-05  5140   0.144E-02    0.142E-02
DAV:   6    -0.851547587296E+03   -0.49292E-05   -0.13881E-05  4420   0.735E-03    0.639E-03
DAV:   7    -0.851547588471E+03   -0.11756E-05   -0.43047E-06  4040   0.335E-03    0.363E-03
DAV:   8    -0.851547588657E+03   -0.18596E-06   -0.12675E-06  3360   0.277E-03
  68 F= -.85945682E+03 E0= -.85945682E+03  d E =-.863259E-03  mag=     0.0000
quench:  g(F)=  0.000E+00 g(S)=  0.000E+00 dE (1.order)= 0.000E+00
 bond charge predicted
       N       E                     dE             d eps       ncg     rms          rms(c)
DAV:   1    -0.851546797362E+03    0.79111E-03   -0.11930E+00  4560   0.186E+00    0.216E-01
DAV:   2    -0.851548751678E+03   -0.19543E-02   -0.24179E-02  4720   0.251E-01    0.172E-01
DAV:   3    -0.851548588319E+03    0.16336E-03   -0.28909E-04  5620   0.334E-02    0.136E-01
DAV:   4    -0.851548728699E+03   -0.14038E-03   -0.10459E-03  5100   0.530E-02    0.265E-02
DAV:   5    -0.851548734640E+03   -0.59414E-05   -0.17097E-04  5060   0.202E-02    0.209E-02
DAV:   6    -0.851548747266E+03   -0.12626E-04   -0.31908E-05  4580   0.103E-02    0.890E-03
DAV:   7    -0.851548750065E+03   -0.27993E-05   -0.63049E-06  4560   0.407E-03    0.551E-03
DAV:   8    -0.851548750711E+03   -0.64594E-06   -0.26178E-06  3380   0.307E-03
  69 F= -.85945764E+03 E0= -.85945764E+03  d E =-.818732E-03  mag=    -0.0000
quench:  g(F)=  0.000E+00 g(S)=  0.000E+00 dE (1.order)= 0.000E+00
 bond charge predicted
       N       E                     dE             d eps       ncg     rms          rms(c)
DAV:   1    -0.851549099592E+03   -0.34953E-03   -0.16020E-02  4600   0.259E-01    0.289E-02
DAV:   2    -0.851549130029E+03   -0.30437E-04   -0.43223E-04  5320   0.385E-02    0.259E-02
DAV:   3    -0.851549122743E+03    0.72853E-05   -0.17160E-05  6160   0.770E-03    0.202E-02
DAV:   4    -0.851549116842E+03    0.59008E-05   -0.15837E-05  4640   0.842E-03    0.891E-03
DAV:   5    -0.851549116921E+03   -0.78493E-07   -0.48263E-06  3960   0.405E-03
  70 F= -.85945801E+03 E0= -.85945801E+03  d E =-.373763E-03  mag=     0.0000
quench:  g(F)=  0.000E+00 g(S)=  0.000E+00 dE (1.order)= 0.000E+00
 bond charge predicted
       N       E                     dE             d eps       ncg     rms          rms(c)
DAV:   1    -0.851548941121E+03    0.17572E-03   -0.18037E-02  4540   0.280E-01    0.299E-02
DAV:   2    -0.851548979232E+03   -0.38111E-04   -0.48923E-04  5260   0.418E-02    0.257E-02
DAV:   3    -0.851548973686E+03    0.55460E-05   -0.16594E-05  6140   0.771E-03    0.202E-02
DAV:   4    -0.851548969238E+03    0.44487E-05   -0.14974E-05  4620   0.842E-03    0.861E-03
DAV:   5    -0.851548969477E+03   -0.23923E-06   -0.42156E-06  3870   0.392E-03
  71 F= -.85945786E+03 E0= -.85945786E+03  d E =0.147102E-03  mag=    -0.0000
quench:  g(F)=  0.000E+00 g(S)=  0.000E+00 dE (1.order)= 0.000E+00
 bond charge predicted
       N       E                     dE             d eps       ncg     rms          rms(c)
DAV:   1    -0.851549084587E+03   -0.11535E-03   -0.88775E-04  4500   0.578E-02    0.684E-03
DAV:   2    -0.851549085798E+03   -0.12107E-05   -0.23089E-05  4950   0.855E-03    0.629E-03
DAV:   3    -0.851549085269E+03    0.52955E-06   -0.75908E-07  3540   0.180E-03
  72 F= -.85945797E+03 E0= -.85945797E+03  d E =-.111969E-03  mag=    -0.0000
quench:  g(F)=  0.000E+00 g(S)=  0.000E+00 dE (1.order)= 0.000E+00
 bond charge predicted
       N       E                     dE             d eps       ncg     rms          rms(c)
DAV:   1    -0.851549219814E+03   -0.13402E-03   -0.27693E-03  4500   0.102E-01    0.126E-02
DAV:   2    -0.851549223436E+03   -0.36222E-05   -0.65536E-05  4890   0.145E-02    0.112E-02
DAV:   3    -0.851549222151E+03    0.12850E-05   -0.22834E-06  4360   0.300E-03    0.871E-03
DAV:   4    -0.851549222149E+03    0.25539E-08   -0.48539E-06  4280   0.433E-03
  73 F= -.85945810E+03 E0= -.85945810E+03  d E =-.129701E-03  mag=    -0.0000
quench:  g(F)=  0.000E+00 g(S)=  0.000E+00 dE (1.order)= 0.000E+00
 bond charge predicted
       N       E                     dE             d eps       ncg     rms          rms(c)
DAV:   1    -0.851549275924E+03   -0.53773E-04   -0.43383E-03  4520   0.127E-01    0.150E-02
DAV:   2    -0.851549282496E+03   -0.65718E-05   -0.10784E-04  4860   0.185E-02    0.133E-02
DAV:   3    -0.851549280695E+03    0.18011E-05   -0.33672E-06  4740   0.358E-03    0.105E-02
DAV:   4    -0.851549280779E+03   -0.83972E-07   -0.63560E-06  4260   0.496E-03
  74 F= -.85945815E+03 E0= -.85945815E+03  d E =-.485933E-04  mag=    -0.0000
quench:  g(F)=  0.000E+00 g(S)=  0.000E+00 dE (1.order)= 0.000E+00
 bond charge predicted
       N       E                     dE             d eps       ncg     rms          rms(c)
DAV:   1    -0.851549284317E+03   -0.36216E-05   -0.59053E-06  4780   0.498E-03    0.234E-03
DAV:   2    -0.851549284361E+03   -0.44056E-07   -0.18849E-07  2720   0.872E-04
  75 F= -.85945816E+03 E0= -.85945816E+03  d E =-.331052E-05  mag=     0.0000
quench:  g(F)=  0.000E+00 g(S)=  0.000E+00 dE (1.order)= 0.000E+00
 bond charge predicted
       N       E                     dE             d eps       ncg     rms          rms(c)
DAV:   1    -0.851549290686E+03   -0.63699E-05   -0.19125E-05  4360   0.883E-03    0.157E-03
DAV:   2    -0.851549290717E+03   -0.30319E-07   -0.46051E-07  2500   0.130E-03
  76 F= -.85945816E+03 E0= -.85945816E+03  d E =-.582367E-05  mag=     0.0000
quench:  g(F)=  0.000E+00 g(S)=  0.000E+00 dE (1.order)= 0.000E+00
 bond charge predicted
       N       E                     dE             d eps       ncg     rms          rms(c)
DAV:   1    -0.851549299556E+03   -0.88693E-05   -0.43071E-05  4430   0.132E-02    0.207E-03
DAV:   2    -0.851549299610E+03   -0.54140E-07   -0.10252E-06  2780   0.191E-03
  77 F= -.85945817E+03 E0= -.85945817E+03  d E =-.810450E-05  mag=    -0.0000
quench:  g(F)=  0.000E+00 g(S)=  0.000E+00 dE (1.order)= 0.000E+00
 bond charge predicted
       N       E                     dE             d eps       ncg     rms          rms(c)
DAV:   1    -0.851549310461E+03   -0.10906E-04   -0.76364E-05  4490   0.175E-02    0.277E-03
DAV:   2    -0.851549310545E+03   -0.83499E-07   -0.17664E-06  3520   0.246E-03
  78 F= -.85945818E+03 E0= -.85945818E+03  d E =-.989349E-05  mag=    -0.0000
quench:  g(F)=  0.000E+00 g(S)=  0.000E+00 dE (1.order)= 0.000E+00
 bond charge predicted
       N       E                     dE             d eps       ncg     rms          rms(c)
DAV:   1    -0.851549323350E+03   -0.12889E-04   -0.11917E-04  4480   0.216E-02    0.346E-03
DAV:   2    -0.851549323473E+03   -0.12299E-06   -0.27363E-06  4000   0.302E-03
  79 F= -.85945819E+03 E0= -.85945819E+03  d E =-.116418E-04  mag=     0.0000
quench:  g(F)=  0.000E+00 g(S)=  0.000E+00 dE (1.order)= 0.000E+00
 bond charge predicted
       N       E                     dE             d eps       ncg     rms          rms(c)
DAV:   1    -0.851549337662E+03   -0.14312E-04   -0.17346E-04  4480   0.258E-02    0.414E-03
DAV:   2    -0.851549337845E+03   -0.18283E-06   -0.39456E-06  4080   0.358E-03
  80 F= -.85945820E+03 E0= -.85945820E+03  d E =-.128513E-04  mag=    -0.0000
quench:  g(F)=  0.000E+00 g(S)=  0.000E+00 dE (1.order)= 0.000E+00
 bond charge predicted
       N       E                     dE             d eps       ncg     rms          rms(c)
DAV:   1    -0.851549355127E+03   -0.17465E-04   -0.30113E-04  4540   0.337E-02    0.512E-03
DAV:   2    -0.851549355453E+03   -0.32619E-06   -0.68567E-06  4580   0.461E-03
  81 F= -.85945822E+03 E0= -.85945822E+03  d E =-.156871E-04  mag=    -0.0000
quench:  g(F)=  0.000E+00 g(S)=  0.000E+00 dE (1.order)= 0.000E+00
 bond charge predicted
       N       E                     dE             d eps       ncg     rms          rms(c)
DAV:   1    -0.851549376481E+03   -0.21354E-04   -0.51927E-04  4560   0.437E-02    0.649E-03
DAV:   2    -0.851549377024E+03   -0.54255E-06   -0.11711E-05  4560   0.595E-03    0.527E-03
DAV:   3    -0.851549377159E+03   -0.13465E-06   -0.14350E-07  2980   0.908E-04
  82 F= -.85945824E+03 E0= -.85945824E+03  d E =-.193545E-04  mag=    -0.0000
quench:  g(F)=  0.000E+00 g(S)=  0.000E+00 dE (1.order)= 0.000E+00
 bond charge predicted
       N       E                     dE             d eps       ncg     rms          rms(c)
DAV:   1    -0.851549402270E+03   -0.25246E-04   -0.87337E-04  4560   0.562E-02    0.559E-03
DAV:   2    -0.851549403646E+03   -0.13762E-05   -0.19242E-05  4480   0.751E-03    0.400E-03
DAV:   3    -0.851549403625E+03    0.21595E-07   -0.14257E-07  2760   0.866E-04
  83 F= -.85945826E+03 E0= -.85945826E+03  d E =-.236727E-04  mag=    -0.0000
quench:  g(F)=  0.000E+00 g(S)=  0.000E+00 dE (1.order)= 0.000E+00
 bond charge predicted
       N       E                     dE             d eps       ncg     rms          rms(c)
DAV:   1    -0.851549432228E+03   -0.28582E-04   -0.14978E-03  4560   0.734E-02    0.709E-03
DAV:   2    -0.851549434732E+03   -0.25034E-05   -0.33909E-05  4480   0.994E-03    0.507E-03
DAV:   3    -0.851549434637E+03    0.94304E-07   -0.25219E-07  3400   0.115E-03
  84 F= -.85945829E+03 E0= -.85945829E+03  d E =-.278768E-04  mag=    -0.0000
quench:  g(F)=  0.000E+00 g(S)=  0.000E+00 dE (1.order)= 0.000E+00
 bond charge predicted
       N       E                     dE             d eps       ncg     rms          rms(c)
DAV:   1    -0.851549466393E+03   -0.31661E-04   -0.25430E-03  4560   0.957E-02    0.916E-03
DAV:   2    -0.851549470678E+03   -0.42851E-05   -0.57528E-05  4480   0.130E-02    0.651E-03
DAV:   3    -0.851549470536E+03    0.14165E-06   -0.42894E-07  3560   0.150E-03
  85 F= -.85945832E+03 E0= -.85945832E+03  d E =-.323977E-04  mag=    -0.0000
quench:  g(F)=  0.000E+00 g(S)=  0.000E+00 dE (1.order)= 0.000E+00
 bond charge predicted
       N       E                     dE             d eps       ncg     rms          rms(c)
DAV:   1    -0.851549504832E+03   -0.34155E-04   -0.42972E-03  4560   0.125E-01    0.118E-02
DAV:   2    -0.851549512269E+03   -0.74363E-05   -0.97306E-05  4480   0.169E-02    0.829E-03
DAV:   3    -0.851549512028E+03    0.24070E-06   -0.76593E-07  3920   0.195E-03
  86 F= -.85945836E+03 E0= -.85945836E+03  d E =-.380679E-04  mag=    -0.0000
quench:  g(F)=  0.000E+00 g(S)=  0.000E+00 dE (1.order)= 0.000E+00
 bond charge predicted
       N       E                     dE             d eps       ncg     rms          rms(c)
DAV:   1    -0.851549547186E+03   -0.34918E-04   -0.72644E-03  4560   0.163E-01    0.153E-02
DAV:   2    -0.851549559977E+03   -0.12791E-04   -0.16470E-04  4480   0.221E-02    0.106E-02
DAV:   3    -0.851549559657E+03    0.31988E-06   -0.13507E-06  4300   0.253E-03
  87 F= -.85945841E+03 E0= -.85945841E+03  d E =-.449299E-04  mag=     0.0000
quench:  g(F)=  0.000E+00 g(S)=  0.000E+00 dE (1.order)= 0.000E+00
 bond charge predicted
       N       E                     dE             d eps       ncg     rms          rms(c)
DAV:   1    -0.851549591965E+03   -0.31988E-04   -0.12190E-02  4560   0.212E-01    0.197E-02
DAV:   2    -0.851549613857E+03   -0.21892E-04   -0.27644E-04  4480   0.287E-02    0.135E-02
DAV:   3    -0.851549613424E+03    0.43357E-06   -0.23168E-06  4800   0.326E-03
  88 F= -.85945846E+03 E0= -.85945846E+03  d E =-.526884E-04  mag=    -0.0000
quench:  g(F)=  0.000E+00 g(S)=  0.000E+00 dE (1.order)= 0.000E+00
 bond charge predicted
       N       E                     dE             d eps       ncg     rms          rms(c)
DAV:   1    -0.851549639013E+03   -0.25156E-04   -0.19939E-02  4560   0.272E-01    0.251E-02
DAV:   2    -0.851549675419E+03   -0.36406E-04   -0.45180E-04  4480   0.368E-02    0.171E-02
DAV:   3    -0.851549674852E+03    0.56612E-06   -0.38987E-06  5260   0.417E-03
  89 F= -.85945852E+03 E0= -.85945852E+03  d E =-.628441E-04  mag=     0.0000
quench:  g(F)=  0.000E+00 g(S)=  0.000E+00 dE (1.order)= 0.000E+00
 bond charge predicted
       N       E                     dE             d eps       ncg     rms          rms(c)
DAV:   1    -0.851549681349E+03   -0.59299E-05   -0.31317E-02  4560   0.342E-01    0.316E-02
DAV:   2    -0.851549738899E+03   -0.57550E-04   -0.70886E-04  4480   0.462E-02    0.216E-02
DAV:   3    -0.851549738293E+03    0.60556E-06   -0.62897E-06  5480   0.528E-03
  90 F= -.85945859E+03 E0= -.85945859E+03  d E =-.683387E-04  mag=    -0.0000
quench:  g(F)=  0.000E+00 g(S)=  0.000E+00 dE (1.order)= 0.000E+00
 bond charge predicted
       N       E                     dE             d eps       ncg     rms          rms(c)
DAV:   1    -0.851549718974E+03    0.19925E-04   -0.47556E-02  4560   0.422E-01    0.393E-02
DAV:   2    -0.851549806120E+03   -0.87147E-04   -0.10739E-03  4480   0.570E-02    0.269E-02
DAV:   3    -0.851549805209E+03    0.91134E-06   -0.96512E-06  5520   0.652E-03
  91 F= -.85945866E+03 E0= -.85945866E+03  d E =-.739491E-04  mag=     0.0000
quench:  g(F)=  0.000E+00 g(S)=  0.000E+00 dE (1.order)= 0.000E+00
 bond charge predicted
       N       E                     dE             d eps       ncg     rms          rms(c)
DAV:   1    -0.851549759523E+03    0.46598E-04   -0.69337E-02  4560   0.507E-01    0.478E-02
DAV:   2    -0.851549884077E+03   -0.12455E-03   -0.15571E-03  4480   0.686E-02    0.330E-02
DAV:   3    -0.851549882529E+03    0.15477E-05   -0.13801E-05  5480   0.780E-03    0.260E-02
DAV:   4    -0.851549906005E+03   -0.23475E-04   -0.17193E-05  4560   0.978E-03    0.531E-03
DAV:   5    -0.851549907371E+03   -0.13666E-05   -0.47614E-06  4980   0.398E-03    0.350E-03
DAV:   6    -0.851549907323E+03    0.48873E-07   -0.76678E-07  3340   0.206E-03
  92 F= -.85945877E+03 E0= -.85945877E+03  d E =-.107535E-03  mag=    -0.0000
quench:  g(F)=  0.000E+00 g(S)=  0.000E+00 dE (1.order)= 0.000E+00
 bond charge predicted
       N       E                     dE             d eps       ncg     rms          rms(c)
DAV:   1    -0.851549802169E+03    0.10520E-03   -0.96358E-02  4580   0.595E-01    0.539E-02
DAV:   2    -0.851549989171E+03   -0.18700E-03   -0.22469E-03  4520   0.822E-02    0.365E-02
DAV:   3    -0.851549982658E+03    0.65132E-05   -0.19289E-05  5420   0.927E-03    0.290E-02
DAV:   4    -0.851550007673E+03   -0.25016E-04   -0.30621E-05  4580   0.124E-02    0.613E-03
DAV:   5    -0.851550009145E+03   -0.14715E-05   -0.72072E-06  5020   0.483E-03    0.424E-03
DAV:   6    -0.851550009299E+03   -0.15369E-06   -0.11751E-06  3400   0.266E-03
  93 F= -.85945887E+03 E0= -.85945887E+03  d E =-.101604E-03  mag=    -0.0000
quench:  g(F)=  0.000E+00 g(S)=  0.000E+00 dE (1.order)= 0.000E+00
 bond charge predicted
       N       E                     dE             d eps       ncg     rms          rms(c)
DAV:   1    -0.851549878622E+03    0.13052E-03   -0.12243E-01  4580   0.663E-01    0.622E-02
DAV:   2    -0.851550109541E+03   -0.23092E-03   -0.28171E-03  4560   0.913E-02    0.425E-02
DAV:   3    -0.851550101382E+03    0.81581E-05   -0.24510E-05  5420   0.104E-02    0.337E-02
DAV:   4    -0.851550134884E+03   -0.33502E-04   -0.43015E-05  4580   0.143E-02    0.653E-03
DAV:   5    -0.851550136482E+03   -0.15982E-05   -0.96196E-06  5120   0.546E-03    0.479E-03
DAV:   6    -0.851550136648E+03   -0.16602E-06   -0.13122E-06  3440   0.296E-03
  94 F= -.85945899E+03 E0= -.85945899E+03  d E =-.117170E-03  mag=    -0.0000
quench:  g(F)=  0.000E+00 g(S)=  0.000E+00 dE (1.order)= 0.000E+00
 bond charge predicted
       N       E                     dE             d eps       ncg     rms          rms(c)
DAV:   1    -0.851549999542E+03    0.13694E-03   -0.14974E-01  4580   0.723E-01    0.708E-02
DAV:   2    -0.851550273607E+03   -0.27407E-03   -0.33831E-03  4560   0.993E-02    0.493E-02
DAV:   3    -0.851550263346E+03    0.10260E-04   -0.31202E-05  5420   0.116E-02    0.389E-02
DAV:   4    -0.851550302807E+03   -0.39461E-04   -0.58462E-05  4660   0.160E-02    0.737E-03
DAV:   5    -0.851550304728E+03   -0.19206E-05   -0.12571E-05  5120   0.617E-03    0.537E-03
DAV:   6    -0.851550304980E+03   -0.25170E-06   -0.16332E-06  3580   0.324E-03
  95 F= -.85945914E+03 E0= -.85945914E+03  d E =-.145999E-03  mag=     0.0000
quench:  g(F)=  0.000E+00 g(S)=  0.000E+00 dE (1.order)= 0.000E+00
 bond charge predicted
       N       E                     dE             d eps       ncg     rms          rms(c)
DAV:   1    -0.851550200702E+03    0.10403E-03   -0.16392E-01  4580   0.753E-01    0.752E-02
DAV:   2    -0.851550495752E+03   -0.29505E-03   -0.36358E-03  4660   0.103E-01    0.538E-02
DAV:   3    -0.851550485208E+03    0.10544E-04   -0.34358E-05  5320   0.122E-02    0.424E-02
DAV:   4    -0.851550527781E+03   -0.42573E-04   -0.67297E-05  4760   0.167E-02    0.791E-03
DAV:   5    -0.851550529060E+03   -0.12793E-05   -0.13787E-05  5120   0.670E-03    0.554E-03
DAV:   6    -0.851550529612E+03   -0.55201E-06   -0.20297E-06  3680   0.306E-03
  96 F= -.85945933E+03 E0= -.85945933E+03  d E =-.196906E-03  mag=    -0.0000
quench:  g(F)=  0.000E+00 g(S)=  0.000E+00 dE (1.order)= 0.000E+00
 bond charge predicted
       N       E                     dE             d eps       ncg     rms          rms(c)
DAV:   1    -0.851550506262E+03    0.22799E-04   -0.17584E-01  4560   0.759E-01    0.795E-02
DAV:   2    -0.851550807285E+03   -0.30102E-03   -0.37721E-03  4680   0.103E-01    0.592E-02
DAV:   3    -0.851550793517E+03    0.13768E-04   -0.37396E-05  5360   0.126E-02    0.465E-02
DAV:   4    -0.851550839259E+03   -0.45743E-04   -0.79327E-05  4700   0.167E-02    0.925E-03
DAV:   5    -0.851550842216E+03   -0.29569E-05   -0.15416E-05  5080   0.672E-03    0.616E-03
DAV:   6    -0.851550843283E+03   -0.10674E-05   -0.24495E-06  3640   0.299E-03    0.306E-03
DAV:   7    -0.851550843611E+03   -0.32739E-06   -0.43956E-07  3670   0.124E-03
  97 F= -.85945960E+03 E0= -.85945960E+03  d E =-.269412E-03  mag=    -0.0000
quench:  g(F)=  0.000E+00 g(S)=  0.000E+00 dE (1.order)= 0.000E+00
 bond charge predicted
       N       E                     dE             d eps       ncg     rms          rms(c)
DAV:   1    -0.851550852951E+03   -0.96679E-05   -0.21963E-01  4560   0.839E-01    0.889E-02
DAV:   2    -0.851551229049E+03   -0.37610E-03   -0.46994E-03  4680   0.114E-01    0.672E-02
DAV:   3    -0.851551210235E+03    0.18814E-04   -0.44348E-05  5380   0.137E-02    0.532E-02
DAV:   4    -0.851551263470E+03   -0.53236E-04   -0.11917E-04  4740   0.196E-02    0.943E-03
DAV:   5    -0.851551266532E+03   -0.30614E-05   -0.21863E-05  5140   0.761E-03    0.733E-03
DAV:   6    -0.851551267812E+03   -0.12806E-05   -0.24363E-06  3680   0.340E-03    0.384E-03
DAV:   7    -0.851551268493E+03   -0.68079E-06   -0.14397E-06  3600   0.207E-03
  98 F= -.85945996E+03 E0= -.85945996E+03  d E =-.353085E-03  mag=    -0.0000
quench:  g(F)=  0.000E+00 g(S)=  0.000E+00 dE (1.order)= 0.000E+00
 bond charge predicted
       N       E                     dE             d eps       ncg     rms          rms(c)
DAV:   1    -0.851551307588E+03   -0.39776E-04   -0.31683E-01  4560   0.102E+00    0.107E-01
DAV:   2    -0.851551856080E+03   -0.54849E-03   -0.67967E-03  4720   0.139E-01    0.812E-02
DAV:   3    -0.851551830475E+03    0.25605E-04   -0.66618E-05  5460   0.170E-02    0.645E-02
DAV:   4    -0.851551899136E+03   -0.68661E-04   -0.18362E-04  4800   0.246E-02    0.121E-02
DAV:   5    -0.851551903362E+03   -0.42263E-05   -0.33515E-05  5160   0.949E-03    0.956E-03
DAV:   6    -0.851551905743E+03   -0.23809E-05   -0.54875E-06  4180   0.490E-03    0.444E-03
DAV:   7    -0.851551906598E+03   -0.85494E-06   -0.16258E-06  3780   0.220E-03
  99 F= -.85946048E+03 E0= -.85946048E+03  d E =-.523756E-03  mag=    -0.0000
quench:  g(F)=  0.000E+00 g(S)=  0.000E+00 dE (1.order)= 0.000E+00
 bond charge predicted
       N       E                     dE             d eps       ncg     rms          rms(c)
DAV:   1    -0.851551763440E+03    0.14230E-03   -0.51507E-01  4560   0.132E+00    0.135E-01
DAV:   2    -0.851552688706E+03   -0.92527E-03   -0.11174E-02  4720   0.180E-01    0.101E-01
DAV:   3    -0.851552650837E+03    0.37869E-04   -0.11252E-04  5460   0.219E-02    0.804E-02
DAV:   4    -0.851552742657E+03   -0.91819E-04   -0.29784E-04  5120   0.322E-02    0.149E-02
DAV:   5    -0.851552745606E+03   -0.29490E-05   -0.53461E-05  5200   0.123E-02    0.118E-02
DAV:   6    -0.851552749364E+03   -0.37586E-05   -0.98848E-06  4300   0.628E-03    0.530E-03
DAV:   7    -0.851552750376E+03   -0.10117E-05   -0.23366E-06  3860   0.261E-03    0.334E-03
DAV:   8    -0.851552750524E+03   -0.14839E-06   -0.82555E-07  3280   0.213E-03
 100 F= -.85946116E+03 E0= -.85946116E+03  d E =-.682130E-03  mag=    -0.0000
quench:  g(F)=  0.000E+00 g(S)=  0.000E+00 dE (1.order)= 0.000E+00
 bond charge predicted
       N       E                     dE             d eps       ncg     rms          rms(c)
DAV:   1    -0.851552172672E+03    0.57770E-03   -0.85593E-01  4560   0.166E+00    0.176E-01
DAV:   2    -0.851553719974E+03   -0.15473E-02   -0.18565E-02  4740   0.226E-01    0.130E-01
DAV:   3    -0.851553648598E+03    0.71376E-04   -0.20147E-04  5500   0.282E-02    0.103E-01
DAV:   4    -0.851553755612E+03   -0.10701E-03   -0.49207E-04  5260   0.396E-02    0.193E-02
DAV:   5    -0.851553765901E+03   -0.10289E-04   -0.89338E-05  5180   0.150E-02    0.145E-02
DAV:   6    -0.851553769870E+03   -0.39684E-05   -0.13059E-05  4410   0.696E-03    0.708E-03
DAV:   7    -0.851553772856E+03   -0.29864E-05   -0.46493E-06  4280   0.352E-03    0.352E-03
DAV:   8    -0.851553772997E+03   -0.14055E-06   -0.11465E-06  3530   0.234E-03
 101 F= -.85946196E+03 E0= -.85946196E+03  d E =-.802451E-03  mag=    -0.0000
quench:  g(F)=  0.000E+00 g(S)=  0.000E+00 dE (1.order)= 0.000E+00
 bond charge predicted
       N       E                     dE             d eps       ncg     rms          rms(c)
DAV:   1    -0.851552973763E+03    0.79909E-03   -0.92896E-01  4560   0.178E+00    0.188E-01
DAV:   2    -0.851554615510E+03   -0.16417E-02   -0.19688E-02  4760   0.241E-01    0.144E-01
DAV:   3    -0.851554541023E+03    0.74487E-04   -0.24581E-04  5500   0.319E-02    0.114E-01
DAV:   4    -0.851554667066E+03   -0.12604E-03   -0.57416E-04  5100   0.455E-02    0.247E-02
DAV:   5    -0.851554667249E+03   -0.18299E-06   -0.10501E-04  5060   0.180E-02    0.168E-02
DAV:   6    -0.851554673803E+03   -0.65542E-05   -0.30692E-05  4660   0.928E-03    0.692E-03
DAV:   7    -0.851554675283E+03   -0.14800E-05   -0.37580E-06  4160   0.342E-03    0.501E-03
DAV:   8    -0.851554675518E+03   -0.23505E-06   -0.18707E-06  3380   0.253E-03
 102 F= -.85946264E+03 E0= -.85946264E+03  d E =-.674156E-03  mag=    -0.0000
quench:  g(F)=  0.000E+00 g(S)=  0.000E+00 dE (1.order)= 0.000E+00
 bond charge predicted
       N       E                     dE             d eps       ncg     rms          rms(c)
DAV:   1    -0.851554961292E+03   -0.28601E-03   -0.18243E-02  4680   0.246E-01    0.299E-02
DAV:   2    -0.851554990485E+03   -0.29193E-04   -0.49059E-04  4720   0.369E-02    0.263E-02
DAV:   3    -0.851554982502E+03    0.79826E-05   -0.14597E-05  5780   0.711E-03    0.207E-02
DAV:   4    -0.851554980662E+03    0.18395E-05   -0.15211E-05  4480   0.753E-03    0.917E-03
DAV:   5    -0.851554984333E+03   -0.36710E-05   -0.59063E-06  4080   0.410E-03    0.372E-03
DAV:   6    -0.851554984993E+03   -0.65962E-06   -0.58259E-07  3040   0.157E-03
 103 F= -.85946293E+03 E0= -.85946293E+03  d E =-.294389E-03  mag=    -0.0000
quench:  g(F)=  0.000E+00 g(S)=  0.000E+00 dE (1.order)= 0.000E+00
 bond charge predicted
       N       E                     dE             d eps       ncg     rms          rms(c)
DAV:   1    -0.851554806690E+03    0.17764E-03   -0.25399E-02  4540   0.302E-01    0.322E-02
DAV:   2    -0.851554851577E+03   -0.44886E-04   -0.65566E-04  4720   0.446E-02    0.268E-02
DAV:   3    -0.851554844350E+03    0.72269E-05   -0.15304E-05  5760   0.754E-03    0.211E-02
DAV:   4    -0.851554844917E+03   -0.56736E-06   -0.17417E-05  4500   0.824E-03    0.878E-03
DAV:   5    -0.851554848833E+03   -0.39165E-05   -0.54830E-06  4260   0.409E-03    0.405E-03
DAV:   6    -0.851554849701E+03   -0.86720E-06   -0.63829E-07  3160   0.160E-03
 104 F= -.85946278E+03 E0= -.85946278E+03  d E =0.150735E-03  mag=    -0.0000
quench:  g(F)=  0.000E+00 g(S)=  0.000E+00 dE (1.order)= 0.000E+00
 bond charge predicted
       N       E                     dE             d eps       ncg     rms          rms(c)
DAV:   1    -0.851554939699E+03   -0.90865E-04   -0.78468E-04  4660   0.537E-02    0.654E-03
DAV:   2    -0.851554941151E+03   -0.14518E-05   -0.21615E-05  4740   0.807E-03    0.594E-03
DAV:   3    -0.851554940727E+03    0.42312E-06   -0.62148E-07  3760   0.160E-03
 105 F= -.85946288E+03 E0= -.85946288E+03  d E =-.935309E-04  mag=    -0.0000
quench:  g(F)=  0.000E+00 g(S)=  0.000E+00 dE (1.order)= 0.000E+00
 bond charge predicted
       N       E                     dE             d eps       ncg     rms          rms(c)
DAV:   1    -0.851555036901E+03   -0.95751E-04   -0.25389E-03  4680   0.974E-02    0.124E-02
DAV:   2    -0.851555040705E+03   -0.38032E-05   -0.65636E-05  4740   0.142E-02    0.108E-02
DAV:   3    -0.851555039491E+03    0.12138E-05   -0.20129E-06  4280   0.280E-03    0.843E-03
DAV:   4    -0.851555039613E+03   -0.12221E-06   -0.34067E-06  3920   0.366E-03
 106 F= -.85946298E+03 E0= -.85946298E+03  d E =-.103541E-03  mag=     0.0000
quench:  g(F)=  0.000E+00 g(S)=  0.000E+00 dE (1.order)= 0.000E+00
 bond charge predicted
       N       E                     dE             d eps       ncg     rms          rms(c)
DAV:   1    -0.851555056144E+03   -0.16653E-04   -0.41614E-03  4640   0.126E-01    0.146E-02
DAV:   2    -0.851555063865E+03   -0.77208E-05   -0.11036E-04  4920   0.186E-02    0.123E-02
[...]
DAV:   2    -0.851562681584E+03   -0.43581E-03   -0.55698E-03  4580   0.123E-01    0.825E-02
DAV:   3    -0.851562641627E+03    0.39957E-04   -0.79117E-05  5660   0.176E-02    0.650E-02
DAV:   4    -0.851562685723E+03   -0.44096E-04   -0.21936E-04  4920   0.268E-02    0.139E-02
DAV:   5    -0.851562691436E+03   -0.57130E-05   -0.40169E-05  5160   0.103E-02    0.966E-03
DAV:   6    -0.851562694372E+03   -0.29367E-05   -0.63462E-06  4320   0.481E-03    0.424E-03
DAV:   7    -0.851562694892E+03   -0.51991E-06   -0.11330E-06  3540   0.194E-03
 170 F= -.85946836E+03 E0= -.85946836E+03  d E =-.265086E-03  mag=    -0.0000
quench:  g(F)=  0.000E+00 g(S)=  0.000E+00 dE (1.order)= 0.000E+00
 bond charge predicted
       N       E                     dE             d eps       ncg     rms          rms(c)
DAV:   1    -0.851562829677E+03   -0.13531E-03   -0.66303E-03  4540   0.163E-01    0.179E-02
DAV:   2    -0.851562841861E+03   -0.12184E-04   -0.17388E-04  5160   0.242E-02    0.159E-02
DAV:   3    -0.851562839110E+03    0.27510E-05   -0.62314E-06  5620   0.473E-03    0.126E-02
DAV:   4    -0.851562837215E+03    0.18954E-05   -0.65460E-06  4320   0.536E-03    0.530E-03
DAV:   5    -0.851562837401E+03   -0.18627E-06   -0.19829E-06  3600   0.252E-03
 171 F= -.85946851E+03 E0= -.85946851E+03  d E =-.146841E-03  mag=     0.0000
quench:  g(F)=  0.000E+00 g(S)=  0.000E+00 dE (1.order)= 0.000E+00
 bond charge predicted
       N       E                     dE             d eps       ncg     rms          rms(c)
DAV:   1    -0.851562751993E+03    0.85221E-04   -0.10934E-02  4480   0.210E-01    0.219E-02
DAV:   2    -0.851562773418E+03   -0.21425E-04   -0.27978E-04  5200   0.308E-02    0.182E-02
DAV:   3    -0.851562770322E+03    0.30964E-05   -0.83531E-06  5780   0.556E-03    0.143E-02
DAV:   4    -0.851562768908E+03    0.14136E-05   -0.75823E-06  4480   0.595E-03    0.598E-03
DAV:   5    -0.851562769336E+03   -0.42722E-06   -0.24739E-06  3660   0.286E-03
 172 F= -.85946845E+03 E0= -.85946845E+03  d E =0.627674E-04  mag=     0.0000
quench:  g(F)=  0.000E+00 g(S)=  0.000E+00 dE (1.order)= 0.000E+00
 bond charge predicted
       N       E                     dE             d eps       ncg     rms          rms(c)
DAV:   1    -0.851562804197E+03   -0.35289E-04   -0.27550E-04  4480   0.330E-02    0.397E-03
DAV:   2    -0.851562804655E+03   -0.45733E-06   -0.74015E-06  5080   0.492E-03
 173 F= -.85946848E+03 E0= -.85946848E+03  d E =-.349247E-04  mag=     0.0000
quench:  g(F)=  0.000E+00 g(S)=  0.000E+00 dE (1.order)= 0.000E+00
 bond charge predicted
       N       E                     dE             d eps       ncg     rms          rms(c)
DAV:   1    -0.851562843804E+03   -0.39607E-04   -0.94387E-04  4540   0.612E-02    0.879E-03
DAV:   2    -0.851562844891E+03   -0.10868E-05   -0.24277E-05  5380   0.901E-03    0.776E-03
DAV:   3    -0.851562844160E+03    0.73100E-06   -0.11406E-06  3320   0.227E-03
 174 F= -.85946852E+03 E0= -.85946852E+03  d E =-.392142E-04  mag=     0.0000
quench:  g(F)=  0.000E+00 g(S)=  0.000E+00 dE (1.order)= 0.000E+00
 bond charge predicted
       N       E                     dE             d eps       ncg     rms          rms(c)
DAV:   1    -0.851562850080E+03   -0.51889E-05   -0.16197E-03  4480   0.802E-02    0.953E-03
DAV:   2    -0.851562852827E+03   -0.27468E-05   -0.38871E-05  5340   0.113E-02    0.821E-03
DAV:   3    -0.851562852294E+03    0.53310E-06   -0.91640E-07  3480   0.207E-03
 175 F= -.85946853E+03 E0= -.85946853E+03  d E =-.847248E-05  mag=    -0.0000
quench:  g(F)=  0.000E+00 g(S)=  0.000E+00 dE (1.order)= 0.000E+00
 bond charge predicted
       N       E                     dE             d eps       ncg     rms          rms(c)
DAV:   1    -0.851562819653E+03    0.33174E-04   -0.21032E-03  4520   0.904E-02    0.970E-03
DAV:   2    -0.851562823534E+03   -0.38807E-05   -0.48826E-05  5180   0.125E-02    0.777E-03
DAV:   3    -0.851562823195E+03    0.33824E-06   -0.86481E-07  3500   0.202E-03
 176 F= -.85946850E+03 E0= -.85946850E+03  d E =0.268206E-04  mag=    -0.0000
quench:  g(F)=  0.000E+00 g(S)=  0.000E+00 dE (1.order)= 0.000E+00
 bond charge predicted
       N       E                     dE             d eps       ncg     rms          rms(c)
DAV:   1    -0.851562782283E+03    0.41251E-04   -0.26014E-03  4540   0.983E-02    0.100E-02
DAV:   2    -0.851562787084E+03   -0.48012E-05   -0.57730E-05  4760   0.133E-02    0.721E-03
DAV:   3    -0.851562786957E+03    0.12716E-06   -0.65074E-07  3820   0.181E-03
 177 F= -.85946847E+03 E0= -.85946847E+03  d E =0.313297E-04  mag=     0.0000
quench:  g(F)=  0.000E+00 g(S)=  0.000E+00 dE (1.order)= 0.000E+00
 bond charge predicted
       N       E                     dE             d eps       ncg     rms          rms(c)
DAV:   1    -0.851562764522E+03    0.22562E-04   -0.36185E-03  4560   0.115E-01    0.113E-02
DAV:   2    -0.851562771153E+03   -0.66316E-05   -0.78664E-05  4600   0.154E-02    0.772E-03
DAV:   3    -0.851562771079E+03    0.74469E-07   -0.74343E-07  3680   0.194E-03
 178 F= -.85946846E+03 E0= -.85946846E+03  d E =0.818971E-05  mag=     0.0000
quench:  g(F)=  0.000E+00 g(S)=  0.000E+00 dE (1.order)= 0.000E+00
 bond charge predicted
       N       E                     dE             d eps       ncg     rms          rms(c)
DAV:   1    -0.851562757980E+03    0.13173E-04   -0.66396E-03  4560   0.157E-01    0.153E-02
DAV:   2    -0.851562770355E+03   -0.12375E-04   -0.14719E-04  4660   0.212E-02    0.107E-02
DAV:   3    -0.851562770016E+03    0.33923E-06   -0.17285E-06  4520   0.279E-03
 179 F= -.85946847E+03 E0= -.85946847E+03  d E =-.106438E-04  mag=    -0.0000
quench:  g(F)=  0.000E+00 g(S)=  0.000E+00 dE (1.order)= 0.000E+00
 bond charge predicted
       N       E                     dE             d eps       ncg     rms          rms(c)
DAV:   1    -0.851562731149E+03    0.39206E-04   -0.11801E-02  4540   0.211E-01    0.207E-02
DAV:   2    -0.851562752916E+03   -0.21767E-04   -0.26407E-04  4700   0.287E-02    0.150E-02
DAV:   3    -0.851562752171E+03    0.74524E-06   -0.36237E-06  5260   0.390E-03
 180 F= -.85946847E+03 E0= -.85946847E+03  d E =0.130188E-05  mag=    -0.0000
quench:  g(F)=  0.000E+00 g(S)=  0.000E+00 dE (1.order)= 0.000E+00
 bond charge predicted
       N       E                     dE             d eps       ncg     rms          rms(c)
DAV:   1    -0.851562653451E+03    0.99465E-04   -0.19110E-02  4540   0.267E-01    0.263E-02
DAV:   2    -0.851562688163E+03   -0.34712E-04   -0.42296E-04  4680   0.362E-02    0.189E-02
DAV:   3    -0.851562687277E+03    0.88575E-06   -0.53564E-06  5560   0.477E-03
 181 F= -.85946843E+03 E0= -.85946843E+03  d E =0.431069E-04  mag=    -0.0000
quench:  g(F)=  0.000E+00 g(S)=  0.000E+00 dE (1.order)= 0.000E+00
 bond charge predicted
       N       E                     dE             d eps       ncg     rms          rms(c)
DAV:   1    -0.851562568598E+03    0.11956E-03   -0.28027E-02  4560   0.323E-01    0.312E-02
DAV:   2    -0.851562618784E+03   -0.50186E-04   -0.60787E-04  4600   0.432E-02    0.218E-02
DAV:   3    -0.851562618209E+03    0.57487E-06   -0.65839E-06  5540   0.539E-03
 182 F= -.85946839E+03 E0= -.85946839E+03  d E =0.432438E-04  mag=     0.0000
quench:  g(F)=  0.000E+00 g(S)=  0.000E+00 dE (1.order)= 0.000E+00
 bond charge predicted
       N       E                     dE             d eps       ncg     rms          rms(c)
DAV:   1    -0.851562482105E+03    0.13668E-03   -0.41588E-02  4560   0.394E-01    0.377E-02
DAV:   2    -0.851562556749E+03   -0.74643E-04   -0.90447E-04  4520   0.529E-02    0.264E-02
DAV:   3    -0.851562555779E+03    0.96954E-06   -0.10406E-05  5600   0.673E-03    0.205E-02
DAV:   4    -0.851562564397E+03   -0.86180E-05   -0.12708E-05  4460   0.834E-03    0.493E-03
DAV:   5    -0.851562565074E+03   -0.67665E-06   -0.35875E-06  4660   0.333E-03
 183 F= -.85946836E+03 E0= -.85946836E+03  d E =0.250490E-04  mag=     0.0000
quench:  g(F)=  0.000E+00 g(S)=  0.000E+00 dE (1.order)= 0.000E+00
 bond charge predicted
       N       E                     dE             d eps       ncg     rms          rms(c)
DAV:   1    -0.851562336434E+03    0.22796E-03   -0.60986E-02  4580   0.478E-01    0.438E-02
DAV:   2    -0.851562453774E+03   -0.11734E-03   -0.13921E-03  4500   0.660E-02    0.304E-02
DAV:   3    -0.851562449919E+03    0.38547E-05   -0.16654E-05  5660   0.855E-03    0.237E-02
DAV:   4    -0.851562458473E+03   -0.85534E-05   -0.22957E-05  4420   0.109E-02    0.642E-03
DAV:   5    -0.851562459396E+03   -0.92365E-06   -0.58177E-06  4920   0.427E-03
 184 F= -.85946829E+03 E0= -.85946829E+03  d E =0.748109E-04  mag=    -0.0000
quench:  g(F)=  0.000E+00 g(S)=  0.000E+00 dE (1.order)= 0.000E+00
 bond charge predicted
       N       E                     dE             d eps       ncg     rms          rms(c)
DAV:   1    -0.851562208842E+03    0.24963E-03   -0.77932E-02  4580   0.538E-01    0.497E-02
DAV:   2    -0.851562355474E+03   -0.14663E-03   -0.17523E-03  4500   0.738E-02    0.339E-02
DAV:   3    -0.851562351278E+03    0.41963E-05   -0.19458E-05  5580   0.934E-03    0.263E-02
DAV:   4    -0.851562364049E+03   -0.12771E-04   -0.28569E-05  4500   0.121E-02    0.641E-03
DAV:   5    -0.851562364850E+03   -0.80097E-06   -0.68246E-06  5000   0.468E-03
 185 F= -.85946823E+03 E0= -.85946823E+03  d E =0.581498E-04  mag=     0.0000
quench:  g(F)=  0.000E+00 g(S)=  0.000E+00 dE (1.order)= 0.000E+00
 bond charge predicted
       N       E                     dE             d eps       ncg     rms          rms(c)
DAV:   1    -0.851562107965E+03    0.25608E-03   -0.90197E-02  4580   0.580E-01    0.546E-02
DAV:   2    -0.851562278417E+03   -0.17045E-03   -0.20495E-03  4580   0.804E-02    0.379E-02
DAV:   3    -0.851562272700E+03    0.57167E-05   -0.25043E-05  5720   0.105E-02    0.294E-02
DAV:   4    -0.851562285595E+03   -0.12895E-04   -0.35887E-05  4620   0.135E-02    0.750E-03
DAV:   5    -0.851562286947E+03   -0.13512E-05   -0.89718E-06  5040   0.527E-03    0.458E-03
DAV:   6    -0.851562286780E+03    0.16647E-06   -0.17459E-06  3540   0.279E-03
 186 F= -.85946819E+03 E0= -.85946819E+03  d E =0.365041E-04  mag=    -0.0000
quench:  g(F)=  0.000E+00 g(S)=  0.000E+00 dE (1.order)= 0.000E+00
 bond charge predicted
       N       E                     dE             d eps       ncg     rms          rms(c)
DAV:   1    -0.851562300788E+03   -0.13842E-04   -0.10631E-04  4600   0.203E-02    0.266E-03
DAV:   2    -0.851562300930E+03   -0.14120E-06   -0.25612E-06  3940   0.301E-03
 187 F= -.85946820E+03 E0= -.85946820E+03  d E =-.132019E-04  mag=    -0.0000
quench:  g(F)=  0.000E+00 g(S)=  0.000E+00 dE (1.order)= 0.000E+00
 bond charge predicted
       N       E                     dE             d eps       ncg     rms          rms(c)
DAV:   1    -0.851562322907E+03   -0.22118E-04   -0.37018E-04  4540   0.377E-02    0.513E-03
DAV:   2    -0.851562323374E+03   -0.46776E-06   -0.92002E-06  5020   0.551E-03
 188 F= -.85946822E+03 E0= -.85946822E+03  d E =-.203991E-04  mag=    -0.0000
quench:  g(F)=  0.000E+00 g(S)=  0.000E+00 dE (1.order)= 0.000E+00
 bond charge predicted
       N       E                     dE             d eps       ncg     rms          rms(c)
DAV:   1    -0.851562347429E+03   -0.24522E-04   -0.69245E-04  4540   0.512E-02    0.788E-03
DAV:   2    -0.851562348070E+03   -0.64090E-06   -0.16476E-05  5060   0.735E-03    0.659E-03
DAV:   3    -0.851562347893E+03    0.17659E-06   -0.48399E-07  3120   0.158E-03
 189 F= -.85946825E+03 E0= -.85946825E+03  d E =-.215138E-04  mag=    -0.0000
quench:  g(F)=  0.000E+00 g(S)=  0.000E+00 dE (1.order)= 0.000E+00
 bond charge predicted
       N       E                     dE             d eps       ncg     rms          rms(c)
DAV:   1    -0.851562373592E+03   -0.25522E-04   -0.95698E-04  4540   0.596E-02    0.673E-03
DAV:   2    -0.851562375079E+03   -0.14875E-05   -0.21419E-05  4900   0.821E-03    0.520E-03
DAV:   3    -0.851562375062E+03    0.16924E-07   -0.25024E-07  3300   0.116E-03
 190 F= -.85946827E+03 E0= -.85946827E+03  d E =-.232980E-04  mag=    -0.0000
quench:  g(F)=  0.000E+00 g(S)=  0.000E+00 dE (1.order)= 0.000E+00
 bond charge predicted
       N       E                     dE             d eps       ncg     rms          rms(c)
DAV:   1    -0.851562406835E+03   -0.31756E-04   -0.12017E-03  4560   0.668E-02    0.708E-03
DAV:   2    -0.851562408859E+03   -0.20235E-05   -0.26981E-05  4740   0.918E-03    0.523E-03
DAV:   3    -0.851562408860E+03   -0.11059E-08   -0.27011E-07  3440   0.122E-03
 191 F= -.85946830E+03 E0= -.85946830E+03  d E =-.296785E-04  mag=    -0.0000
quench:  g(F)=  0.000E+00 g(S)=  0.000E+00 dE (1.order)= 0.000E+00
 bond charge predicted
       N       E                     dE             d eps       ncg     rms          rms(c)
DAV:   1    -0.851562447143E+03   -0.38284E-04   -0.14929E-03  4560   0.751E-02    0.784E-03
DAV:   2    -0.851562449718E+03   -0.25753E-05   -0.33264E-05  4660   0.102E-02    0.578E-03
DAV:   3    -0.851562449720E+03   -0.18263E-08   -0.34456E-07  3440   0.138E-03
 192 F= -.85946834E+03 E0= -.85946834E+03  d E =-.365806E-04  mag=    -0.0000
quench:  g(F)=  0.000E+00 g(S)=  0.000E+00 dE (1.order)= 0.000E+00
 bond charge predicted
       N       E                     dE             d eps       ncg     rms          rms(c)
DAV:   1    -0.851562495267E+03   -0.45549E-04   -0.22383E-03  4540   0.929E-02    0.953E-03
DAV:   2    -0.851562499237E+03   -0.39708E-05   -0.49857E-05  4640   0.126E-02    0.708E-03
DAV:   3    -0.851562499198E+03    0.38970E-07   -0.57334E-07  3560   0.175E-03
 193 F= -.85946838E+03 E0= -.85946838E+03  d E =-.446060E-04  mag=    -0.0000
quench:  g(F)=  0.000E+00 g(S)=  0.000E+00 dE (1.order)= 0.000E+00
 bond charge predicted
       N       E                     dE             d eps       ncg     rms          rms(c)
DAV:   1    -0.851562545429E+03   -0.46192E-04   -0.34008E-03  4540   0.114E-01    0.117E-02
DAV:   2    -0.851562551501E+03   -0.60724E-05   -0.75150E-05  4640   0.154E-02    0.862E-03
DAV:   3    -0.851562551426E+03    0.75052E-07   -0.87655E-07  3980   0.211E-03
 194 F= -.85946843E+03 E0= -.85946843E+03  d E =-.464126E-04  mag=    -0.0000
quench:  g(F)=  0.000E+00 g(S)=  0.000E+00 dE (1.order)= 0.000E+00
 bond charge predicted
       N       E                     dE             d eps       ncg     rms          rms(c)
DAV:   1    -0.851562605403E+03   -0.53901E-04   -0.48285E-03  4540   0.134E-01    0.137E-02
DAV:   2    -0.851562613854E+03   -0.84509E-05   -0.10477E-04  4600   0.180E-02    0.991E-03
DAV:   3    -0.851562613749E+03    0.10430E-06   -0.10777E-06  4140   0.233E-03
 195 F= -.85946848E+03 E0= -.85946848E+03  d E =-.547359E-04  mag=    -0.0000
quench:  g(F)=  0.000E+00 g(S)=  0.000E+00 dE (1.order)= 0.000E+00
 bond charge predicted
       N       E                     dE             d eps       ncg     rms          rms(c)
DAV:   1    -0.851562681236E+03   -0.67383E-04   -0.69352E-03  4560   0.160E-01    0.160E-02
DAV:   2    -0.851562693206E+03   -0.11970E-04   -0.14926E-04  4520   0.214E-02    0.116E-02
DAV:   3    -0.851562692865E+03    0.34121E-06   -0.15109E-06  4440   0.268E-03
 196 F= -.85946855E+03 E0= -.85946855E+03  d E =-.684881E-04  mag=     0.0000
quench:  g(F)=  0.000E+00 g(S)=  0.000E+00 dE (1.order)= 0.000E+00
 bond charge predicted
       N       E                     dE             d eps       ncg     rms          rms(c)
DAV:   1    -0.851562770835E+03   -0.77628E-04   -0.10260E-02  4560   0.193E-01    0.192E-02
DAV:   2    -0.851562788320E+03   -0.17485E-04   -0.22009E-04  4480   0.259E-02    0.140E-02
DAV:   3    -0.851562787629E+03    0.69066E-06   -0.22743E-06  4620   0.324E-03
 197 F= -.85946863E+03 E0= -.85946863E+03  d E =-.801313E-04  mag=    -0.0000
quench:  g(F)=  0.000E+00 g(S)=  0.000E+00 dE (1.order)= 0.000E+00
 bond charge predicted
       N       E                     dE             d eps       ncg     rms          rms(c)
DAV:   1    -0.851562875960E+03   -0.87640E-04   -0.14095E-02  4560   0.227E-01    0.224E-02
DAV:   2    -0.851562900065E+03   -0.24106E-04   -0.29947E-04  4480   0.303E-02    0.162E-02
DAV:   3    -0.851562899396E+03    0.66937E-06   -0.30624E-06  4840   0.374E-03
 198 F= -.85946872E+03 E0= -.85946872E+03  d E =-.949772E-04  mag=     0.0000
quench:  g(F)=  0.000E+00 g(S)=  0.000E+00 dE (1.order)= 0.000E+00
 bond charge predicted
       N       E                     dE             d eps       ncg     rms          rms(c)
DAV:   1    -0.851562993910E+03   -0.93845E-04   -0.19970E-02  4560   0.274E-01    0.265E-02
DAV:   2    -0.851563029500E+03   -0.35590E-04   -0.42884E-04  4480   0.367E-02    0.191E-02
DAV:   3    -0.851563028733E+03    0.76700E-06   -0.46570E-06  5140   0.455E-03
 199 F= -.85946884E+03 E0= -.85946884E+03  d E =-.114947E-03  mag=     0.0000
quench:  g(F)=  0.000E+00 g(S)=  0.000E+00 dE (1.order)= 0.000E+00
 bond charge predicted
       N       E                     dE             d eps       ncg     rms          rms(c)
DAV:   1    -0.851563112413E+03   -0.82913E-04   -0.29376E-02  4560   0.333E-01    0.321E-02
DAV:   2    -0.851563165357E+03   -0.52943E-04   -0.63367E-04  4520   0.446E-02    0.232E-02
DAV:   3    -0.851563164223E+03    0.11334E-05   -0.67039E-06  5480   0.547E-03    0.182E-02
DAV:   4    -0.851563172083E+03   -0.78601E-05   -0.96789E-06  4320   0.716E-03    0.349E-03
DAV:   5    -0.851563172336E+03   -0.25270E-06   -0.24073E-06  4300   0.290E-03
 200 F= -.85946897E+03 E0= -.85946897E+03  d E =-.133186E-03  mag=     0.0000
quench:  g(F)=  0.000E+00 g(S)=  0.000E+00 dE (1.order)= 0.000E+00
 bond charge predicted
       N       E                     dE             d eps       ncg     rms          rms(c)
DAV:   1    -0.851563216454E+03   -0.44370E-04   -0.48608E-02  4560   0.426E-01    0.388E-02
DAV:   2    -0.851563311984E+03   -0.95531E-04   -0.11157E-03  4480   0.590E-02    0.274E-02
DAV:   3    -0.851563308344E+03    0.36404E-05   -0.11206E-05  5560   0.708E-03    0.217E-02
DAV:   4    -0.851563318384E+03   -0.10040E-04   -0.18292E-05  4480   0.960E-03    0.464E-03
DAV:   5    -0.851563318926E+03   -0.54181E-06   -0.43944E-06  5140   0.384E-03
 201 F= -.85946911E+03 E0= -.85946911E+03  d E =-.138945E-03  mag=    -0.0000
quench:  g(F)=  0.000E+00 g(S)=  0.000E+00 dE (1.order)= 0.000E+00
 bond charge predicted
       N       E                     dE             d eps       ncg     rms          rms(c)
DAV:   1    -0.851563317476E+03    0.90821E-06   -0.72046E-02  4560   0.517E-01    0.472E-02
DAV:   2    -0.851563457655E+03   -0.14018E-03   -0.16456E-03  4480   0.714E-02    0.332E-02
DAV:   3    -0.851563452372E+03    0.52825E-05   -0.16432E-05  5500   0.857E-03    0.263E-02
DAV:   4    -0.851563467438E+03   -0.15066E-04   -0.26156E-05  4480   0.114E-02    0.562E-03
DAV:   5    -0.851563468466E+03   -0.10271E-05   -0.61918E-06  5120   0.449E-03    0.369E-03
DAV:   6    -0.851563468427E+03    0.38410E-07   -0.88280E-07  3040   0.220E-03
 202 F= -.85946925E+03 E0= -.85946925E+03  d E =-.139953E-03  mag=     0.0000
quench:  g(F)=  0.000E+00 g(S)=  0.000E+00 dE (1.order)= 0.000E+00
 bond charge predicted
       N       E                     dE             d eps       ncg     rms          rms(c)
DAV:   1    -0.851563408884E+03    0.59582E-04   -0.10488E-01  4560   0.629E-01    0.572E-02
DAV:   2    -0.851563616190E+03   -0.20731E-03   -0.24060E-03  4600   0.868E-02    0.400E-02
DAV:   3    -0.851563609440E+03    0.67494E-05   -0.25186E-05  5580   0.106E-02    0.315E-02
DAV:   4    -0.851563626143E+03   -0.16702E-04   -0.34924E-05  4480   0.137E-02    0.718E-03
DAV:   5    -0.851563627798E+03   -0.16550E-05   -0.90054E-06  5060   0.546E-03    0.448E-03
DAV:   6    -0.851563627653E+03    0.14487E-06   -0.13847E-06  3280   0.282E-03
 203 F= -.85946940E+03 E0= -.85946940E+03  d E =-.150599E-03  mag=    -0.0000
quench:  g(F)=  0.000E+00 g(S)=  0.000E+00 dE (1.order)= 0.000E+00
 reached required accuracy - stopping structural energy minimisation
