<?xml version="1.0" encoding="ISO-8859-1"?>
<modeling>
 <generator>
  <i name="program" type="string">vasp </i>
  <i name="version" type="string">6.4.2  </i>
  <i name="subversion" type="string">20Jul23 (build Aug 26 2025 15:10:52) complex                          parallel </i>
  <i name="platform" type="string">LinuxIFC </i>
  <i name="date" type="string">2025 12 07 </i>
  <i name="time" type="string">12:31:29 </i>
 </generator>
 <incar>
  <i type="int" name="ISTART">     0</i>
  <i type="string" name="ALGO">Normal</i>
  <i type="logical" name="ADDGRID"> T  </i>
  <i type="int" name="ISPIN">     2</i>
  <i type="int" name="IMIX">     4</i>
  <i name="AMIX">      0.20000000</i>
  <i name="BMIX">      0.00010000</i>
  <i name="AMIX_MAG">      0.80000000</i>
  <i name="BMIX_MAG">      0.00010000</i>
  <i type="int" name="ICHARG">     2</i>
  <i type="int" name="NELM">   200</i>
  <i type="int" name="IBRION">     3</i>
  <i name="EDIFF">      0.00000100</i>
  <i name="EDIFFG">     -0.03000000</i>
  <i type="int" name="NSW">  1000</i>
  <i type="int" name="ISIF">     2</i>
  <i type="int" name="ISYM">     0</i>
  <i name="ENCUT">    520.00000000</i>
  <i name="POTIM">      0.00000000</i>
  <v name="MAGMOM">      0.60000000      0.60000000      0.60000000      0.60000000      0.60000000      0.60000000      0.60000000      0.60000000      0.60000000      0.60000000      0.60000000      0.60000000      0.60000000      0.60000000      0.60000000      0.60000000      0.60000000      0.60000000      0.60000000      0.60000000
      0.60000000      0.60000000      0.60000000      0.60000000      0.60000000      0.60000000      0.60000000      0.60000000      0.60000000      0.60000000      0.60000000      0.60000000      0.60000000      0.60000000      0.60000000      0.60000000      0.60000000      0.60000000      0.60000000      0.60000000
      0.60000000      0.60000000      0.60000000      0.60000000      0.60000000      0.60000000      0.60000000      0.60000000      0.60000000      0.60000000      0.60000000      0.60000000      0.60000000      0.60000000      0.60000000      0.60000000      0.60000000      0.60000000      0.60000000      0.60000000
      0.60000000      0.60000000      0.60000000      0.60000000      0.60000000      0.60000000      0.60000000      0.60000000      0.60000000      0.60000000      0.60000000      0.60000000      0.60000000      0.60000000      0.60000000      0.60000000      0.60000000      0.60000000      0.60000000      0.60000000
      0.60000000      0.60000000      0.60000000      0.60000000      0.60000000      0.60000000      0.60000000      0.60000000      0.60000000      0.60000000      0.60000000      0.60000000      0.60000000      0.60000000      0.60000000      0.60000000      0.60000000      0.60000000      0.60000000</v>
  <i type="string" name="LREAL">Auto</i>
  <i type="int" name="ISMEAR">     0</i>
  <i name="SIGMA">      0.05000000</i>
  <i type="logical" name="LWAVE"> F  </i>
  <i type="logical" name="LCHARG"> F  </i>
  <i type="logical" name="LASPH"> T  </i>
  <i type="int" name="IVDW">    12</i>
  <i name="SPRING">     -5.00000000</i>
 </incar>
 <primitive_cell>
  <structure name="primitive_cell" >
   <crystal>
    <varray name="basis" >
     <v>      17.27103806       0.00000000       0.00000000 </v>
     <v>      -8.63551903      14.95715771       0.00000000 </v>
     <v>       0.00000000       0.00000000      15.00000000 </v>
    </varray>
    <i name="volume">   3874.88459904 </i>
    <varray name="rec_basis" >
     <v>       0.05790040       0.03342881       0.00000000 </v>
     <v>       0.00000000       0.06685762       0.00000000 </v>
     <v>       0.00000000       0.00000000       0.06666667 </v>
    </varray>
   </crystal>
   <varray name="positions" >
    <v>       0.99861448       0.99869198       0.50139835 </v>
    <v>       0.99808363       0.14122494       0.49876594 </v>
    <v>       0.99777876       0.28417986       0.49774985 </v>
    <v>       0.99786544       0.42733633       0.49896987 </v>
    <v>       0.99831128       0.57037638       0.50163096 </v>
    <v>       0.99930971       0.71349031       0.50492846 </v>
    <v>       0.99951268       0.85650174       0.50494912 </v>
    <v>       0.14166449       0.99895374       0.49483859 </v>
    <v>       0.14130549       0.14159996       0.49407783 </v>
    <v>       0.14006474       0.28354559       0.49301113 </v>
    <v>       0.13991611       0.42704387       0.49497513 </v>
    <v>       0.14106180       0.57017594       0.49507678 </v>
    <v>       0.14152588       0.71312164       0.49658427 </v>
    <v>       0.14172192       0.85606077       0.49632731 </v>
    <v>       0.28428235       0.99848403       0.49348960 </v>
    <v>       0.28430810       0.14116255       0.49134277 </v>
    <v>       0.28447697       0.28483164       0.48885537 </v>
    <v>       0.28100884       0.42588797       0.49475874 </v>
    <v>       0.28416107       0.57012375       0.49862971 </v>
    <v>       0.28425609       0.71352350       0.49660766 </v>
    <v>       0.28428176       0.85610639       0.49473323 </v>
    <v>       0.42737012       0.99877384       0.49705467 </v>
    <v>       0.42719547       0.14080104       0.49670609 </v>
    <v>       0.42608887       0.28021770       0.49613816 </v>
    <v>       0.42621759       0.71604309       0.49509194 </v>
    <v>       0.42728437       0.85660972       0.49809969 </v>
    <v>       0.57020104       0.99907658       0.50229565 </v>
    <v>       0.57011970       0.14129174       0.50230257 </v>
    <v>       0.57098164       0.28444810       0.50671935 </v>
    <v>       0.57131541       0.85677328       0.50546761 </v>
    <v>       0.71312156       0.99895226       0.50847895 </v>
    <v>       0.71307597       0.14176363       0.50442115 </v>
    <v>       0.71299932       0.28462907       0.50827385 </v>
    <v>       0.71214263       0.42649290       0.52181971 </v>
    <v>       0.72248691       0.57447471       0.55493460 </v>
    <v>       0.72356379       0.71992204       0.55835588 </v>
    <v>       0.71256156       0.85657331       0.52279018 </v>
    <v>       0.85594979       0.99899886       0.50962909 </v>
    <v>       0.85550859       0.14157664       0.50371935 </v>
    <v>       0.85542343       0.28444287       0.50350773 </v>
    <v>       0.85564738       0.42743071       0.50908165 </v>
    <v>       0.85656515       0.57099292       0.51785544 </v>
    <v>       0.85878717       0.71479422       0.52526749 </v>
    <v>       0.85695814       0.85647233       0.51804852 </v>
    <v>       0.04611787       0.09394025       0.49763362 </v>
    <v>       0.04495911       0.23611537       0.49577677 </v>
    <v>       0.04484757       0.37939119       0.49670786 </v>
    <v>       0.04583640       0.52263706       0.49781085 </v>
    <v>       0.04630740       0.66564303       0.50026161 </v>
    <v>       0.04669857       0.80859328       0.50168358 </v>
    <v>       0.04653954       0.95134298       0.49976921 </v>
    <v>       0.18907573       0.09381116       0.49268757 </v>
    <v>       0.18844018       0.23669116       0.49254659 </v>
    <v>       0.18600520       0.37834118       0.49360727 </v>
    <v>       0.18819996       0.52221775       0.49444892 </v>
    <v>       0.18897346       0.66570285       0.49584512 </v>
    <v>       0.18923898       0.80848509       0.49545584 </v>
    <v>       0.18925779       0.95114245       0.49420858 </v>
    <v>       0.33205237       0.09378385       0.49337883 </v>
    <v>       0.33311923       0.23648023       0.49057600 </v>
    <v>       0.32569943       0.37734253       0.48557604 </v>
    <v>       0.32530429       0.51895307       0.50578420 </v>
    <v>       0.33303012       0.66700685       0.49744183 </v>
    <v>       0.33206795       0.80858777       0.49597995 </v>
    <v>       0.33192300       0.95110496       0.49467263 </v>
    <v>       0.47498840       0.09356880       0.49863671 </v>
    <v>       0.47437997       0.23555308       0.49974813 </v>
    <v>       0.47462458       0.80904793       0.49878348 </v>
    <v>       0.47505063       0.95165268       0.49927501 </v>
    <v>       0.61771647       0.09398926       0.50314613 </v>
    <v>       0.61793737       0.23654186       0.50605284 </v>
    <v>       0.61910922       0.37759312       0.51543950 </v>
    <v>       0.61955867       0.81187904       0.51524827 </v>
    <v>       0.61809711       0.95170674       0.50566946 </v>
    <v>       0.76062241       0.09423130       0.50549865 </v>
    <v>       0.76055422       0.23685742       0.50521700 </v>
    <v>       0.76056614       0.37973655       0.51353570 </v>
    <v>       0.76154314       0.52346267       0.53174600 </v>
    <v>       0.76614697       0.66862182       0.54860085 </v>
    <v>       0.76224131       0.80939315       0.53332707 </v>
    <v>       0.76085990       0.95164480       0.51415672 </v>
    <v>       0.90304019       0.09369013       0.50378722 </v>
    <v>       0.90278340       0.23666597       0.50131372 </v>
    <v>       0.90280723       0.37984128       0.50341665 </v>
    <v>       0.90331935       0.52296236       0.50862484 </v>
    <v>       0.90458891       0.66610629       0.51579740 </v>
    <v>       0.90487708       0.80930305       0.51598578 </v>
    <v>       0.90368021       0.95121287       0.50866483 </v>
    <v>       0.46300455       0.35208439       0.49867851 </v>
    <v>       0.58290669       0.41359591       0.51677371 </v>
    <v>       0.58390894       0.73957206       0.51595338 </v>
    <v>       0.46325993       0.68119422       0.49058229 </v>
    <v>       0.54571257       0.57041427       0.37773282 </v>
    <v>       0.54259065       0.56647316       0.47971286 </v>
    <v>       0.41554427       0.42742476       0.46883947 </v>
    <v>       0.41344835       0.55830589       0.52924504 </v>
    <v>       0.63986502       0.67871823       0.59377259 </v>
    <v>       0.63616531       0.53185937       0.58394031 </v>
    <v>       0.58104710       0.60020433       0.43022414 </v>
   </varray>
  </structure>
  <varray name="primitive_index" >
   <v type="int" >        1 </v>
   <v type="int" >        2 </v>
   <v type="int" >        3 </v>
   <v type="int" >        4 </v>
   <v type="int" >        5 </v>
   <v type="int" >        6 </v>
   <v type="int" >        7 </v>
   <v type="int" >        8 </v>
   <v type="int" >        9 </v>
   <v type="int" >       10 </v>
   <v type="int" >       11 </v>
   <v type="int" >       12 </v>
   <v type="int" >       13 </v>
   <v type="int" >       14 </v>
   <v type="int" >       15 </v>
   <v type="int" >       16 </v>
   <v type="int" >       17 </v>
   <v type="int" >       18 </v>
   <v type="int" >       19 </v>
   <v type="int" >       20 </v>
   <v type="int" >       21 </v>
   <v type="int" >       22 </v>
   <v type="int" >       23 </v>
   <v type="int" >       24 </v>
   <v type="int" >       25 </v>
   <v type="int" >       26 </v>
   <v type="int" >       27 </v>
   <v type="int" >       28 </v>
   <v type="int" >       29 </v>
   <v type="int" >       30 </v>
   <v type="int" >       31 </v>
   <v type="int" >       32 </v>
   <v type="int" >       33 </v>
   <v type="int" >       34 </v>
   <v type="int" >       35 </v>
   <v type="int" >       36 </v>
   <v type="int" >       37 </v>
   <v type="int" >       38 </v>
   <v type="int" >       39 </v>
   <v type="int" >       40 </v>
   <v type="int" >       41 </v>
   <v type="int" >       42 </v>
   <v type="int" >       43 </v>
   <v type="int" >       44 </v>
   <v type="int" >       45 </v>
   <v type="int" >       46 </v>
   <v type="int" >       47 </v>
   <v type="int" >       48 </v>
   <v type="int" >       49 </v>
   <v type="int" >       50 </v>
   <v type="int" >       51 </v>
   <v type="int" >       52 </v>
   <v type="int" >       53 </v>
   <v type="int" >       54 </v>
   <v type="int" >       55 </v>
   <v type="int" >       56 </v>
   <v type="int" >       57 </v>
   <v type="int" >       58 </v>
   <v type="int" >       59 </v>
   <v type="int" >       60 </v>
   <v type="int" >       61 </v>
   <v type="int" >       62 </v>
   <v type="int" >       63 </v>
   <v type="int" >       64 </v>
   <v type="int" >       65 </v>
   <v type="int" >       66 </v>
   <v type="int" >       67 </v>
   <v type="int" >       68 </v>
   <v type="int" >       69 </v>
   <v type="int" >       70 </v>
   <v type="int" >       71 </v>
   <v type="int" >       72 </v>
   <v type="int" >       73 </v>
   <v type="int" >       74 </v>
   <v type="int" >       75 </v>
   <v type="int" >       76 </v>
   <v type="int" >       77 </v>
   <v type="int" >       78 </v>
   <v type="int" >       79 </v>
   <v type="int" >       80 </v>
   <v type="int" >       81 </v>
   <v type="int" >       82 </v>
   <v type="int" >       83 </v>
   <v type="int" >       84 </v>
   <v type="int" >       85 </v>
   <v type="int" >       86 </v>
   <v type="int" >       87 </v>
   <v type="int" >       88 </v>
   <v type="int" >       89 </v>
   <v type="int" >       90 </v>
   <v type="int" >       91 </v>
   <v type="int" >       92 </v>
   <v type="int" >       93 </v>
   <v type="int" >       94 </v>
   <v type="int" >       95 </v>
   <v type="int" >       96 </v>
   <v type="int" >       97 </v>
   <v type="int" >       98 </v>
   <v type="int" >       99 </v>
  </varray>
 </primitive_cell>
 <kpoints>
  <generation param="Gamma">
   <v type="int" name="divisions">       2        2        1 </v>
   <v name="usershift">      0.00000000       0.00000000       0.00000000 </v>
   <v name="genvec1">      0.50000000       0.00000000       0.00000000 </v>
   <v name="genvec2">      0.00000000       0.50000000       0.00000000 </v>
   <v name="genvec3">      0.00000000       0.00000000       1.00000000 </v>
   <v name="shift">      0.00000000       0.00000000       0.00000000 </v>
  </generation>
  <varray name="kpointlist" >
   <v>       0.00000000       0.00000000       0.00000000 </v>
   <v>       0.50000000       0.00000000       0.00000000 </v>
   <v>       0.00000000       0.50000000       0.00000000 </v>
   <v>       0.50000000       0.50000000       0.00000000 </v>
  </varray>
  <varray name="weights" >
   <v>       0.25000000 </v>
   <v>       0.25000000 </v>
   <v>       0.25000000 </v>
   <v>       0.25000000 </v>
  </varray>
 </kpoints>
 <parameters>
  <separator name="general" >
   <i type="string" name="SYSTEM">unknown system</i>
   <i type="logical" name="LCOMPAT"> F  </i>
  </separator>
  <separator name="electronic" >
   <i type="string" name="PREC">normal</i>
   <i name="ENMAX">    520.00000000</i>
   <i name="ENAUG">    644.87300000</i>
   <i name="EDIFF">      0.00000100</i>
   <i type="int" name="IALGO">    38</i>
   <i type="int" name="IWAVPR">    11</i>
   <i type="int" name="NBANDS">   280</i>
   <i type="int" name="NBANDSLOW">    -1</i>
   <i type="int" name="NBANDSHIGH">    -1</i>
   <i name="NELECT">    392.00000000</i>
   <i type="int" name="TURBO">     0</i>
   <i type="int" name="IRESTART">     0</i>
   <i type="int" name="NREBOOT">     0</i>
   <i type="int" name="NMIN">     0</i>
   <i name="EREF">      0.00000000</i>
   <separator name="electronic smearing" >
    <i type="int" name="ISMEAR">     0</i>
    <i name="SIGMA">      0.05000000</i>
    <i name="KSPACING">      0.50000000</i>
    <i type="logical" name="KGAMMA"> T  </i>
    <i type="logical" name="KBLOWUP"> T  </i>
   </separator>
   <separator name="electronic projectors" >
    <i type="logical" name="LREAL"> T  </i>
    <v name="ROPT">     -0.00050000     -0.00050000     -0.00050000     -0.00050000</v>
    <i type="int" name="LMAXPAW">  -100</i>
    <i type="int" name="LMAXMIX">     2</i>
    <i type="logical" name="NLSPLINE"> F  </i>
   </separator>
   <separator name="electronic startup" >
    <i type="int" name="ISTART">     0</i>
    <i type="int" name="ICHARG">     2</i>
    <i type="int" name="INIWAV">     1</i>
   </separator>
   <separator name="electronic spin" >
    <i type="int" name="ISPIN">     2</i>
    <i type="logical" name="LNONCOLLINEAR"> F  </i>
    <v name="MAGMOM">      0.60000000      0.60000000      0.60000000      0.60000000      0.60000000      0.60000000      0.60000000      0.60000000      0.60000000      0.60000000      0.60000000      0.60000000      0.60000000      0.60000000      0.60000000      0.60000000      0.60000000      0.60000000      0.60000000      0.60000000
      0.60000000      0.60000000      0.60000000      0.60000000      0.60000000      0.60000000      0.60000000      0.60000000      0.60000000      0.60000000      0.60000000      0.60000000      0.60000000      0.60000000      0.60000000      0.60000000      0.60000000      0.60000000      0.60000000      0.60000000
      0.60000000      0.60000000      0.60000000      0.60000000      0.60000000      0.60000000      0.60000000      0.60000000      0.60000000      0.60000000      0.60000000      0.60000000      0.60000000      0.60000000      0.60000000      0.60000000      0.60000000      0.60000000      0.60000000      0.60000000
      0.60000000      0.60000000      0.60000000      0.60000000      0.60000000      0.60000000      0.60000000      0.60000000      0.60000000      0.60000000      0.60000000      0.60000000      0.60000000      0.60000000      0.60000000      0.60000000      0.60000000      0.60000000      0.60000000      0.60000000
      0.60000000      0.60000000      0.60000000      0.60000000      0.60000000      0.60000000      0.60000000      0.60000000      0.60000000      0.60000000      0.60000000      0.60000000      0.60000000      0.60000000      0.60000000      0.60000000      0.60000000      0.60000000      0.60000000</v>
    <i name="NUPDOWN">     -1.00000000</i>
    <i type="logical" name="LSORBIT"> F  </i>
    <v name="SAXIS">      0.00000000      0.00000000      1.00000000</v>
    <i type="logical" name="LSPIRAL"> F  </i>
    <v name="QSPIRAL">      0.00000000      0.00000000      0.00000000</v>
    <i type="logical" name="LZEROZ"> F  </i>
   </separator>
   <separator name="electronic exchange-correlation" >
    <i type="logical" name="LASPH"> T  </i>
    <i type="logical" name="LMETAGGA"> F  </i>
   </separator>
   <separator name="electronic convergence" >
    <i type="int" name="NELM">   200</i>
    <i type="int" name="NELMDL">    -5</i>
    <i type="int" name="NELMIN">     2</i>
    <i name="ENINI">    520.00000000</i>
    <separator name="electronic convergence detail" >
     <i type="logical" name="LDIAG"> T  </i>
     <i type="logical" name="LSUBROT"> F  </i>
     <i name="WEIMIN">      0.00100000</i>
     <i name="EBREAK">      0.00000000</i>
     <i name="DEPER">      0.30000000</i>
     <i type="int" name="NRMM">     4</i>
     <i name="TIME">      0.40000000</i>
    </separator>
   </separator>
   <separator name="electronic mixer" >
    <i name="AMIX">      0.20000000</i>
    <i name="BMIX">      0.00010000</i>
    <i name="AMIN">      0.10000000</i>
    <i name="AMIX_MAG">      0.80000000</i>
    <i name="BMIX_MAG">      0.00010000</i>
    <separator name="electronic mixer details" >
     <i type="int" name="IMIX">     4</i>
     <i type="logical" name="MIXFIRST"> F  </i>
     <i type="int" name="MAXMIX">   -45</i>
     <i name="WC">    100.00000000</i>
     <i type="int" name="INIMIX">     1</i>
     <i type="int" name="MIXPRE">     1</i>
     <i type="int" name="MREMOVE">     5</i>
    </separator>
   </separator>
   <separator name="electronic dipolcorrection" >
    <i type="logical" name="LDIPOL"> F  </i>
    <i type="logical" name="LMONO"> F  </i>
    <i type="int" name="IDIPOL">     0</i>
    <i name="EPSILON">      1.00000000</i>
    <v name="DIPOL">   -100.00000000   -100.00000000   -100.00000000</v>
    <i name="EFIELD">      0.00000000</i>
   </separator>
  </separator>
  <separator name="grids" >
   <i type="int" name="NGX">    96</i>
   <i type="int" name="NGY">    96</i>
   <i type="int" name="NGZ">    84</i>
   <i type="int" name="NGXF">   192</i>
   <i type="int" name="NGYF">   192</i>
   <i type="int" name="NGZF">   168</i>
   <i type="logical" name="ADDGRID"> T  </i>
  </separator>
  <separator name="ionic" >
   <i type="int" name="NSW">  1000</i>
   <i type="int" name="IBRION">     3</i>
   <i type="int" name="MDALGO">     0</i>
   <i type="int" name="ISIF">     2</i>
   <i name="PSTRESS">      0.00000000</i>
   <i name="EDIFFG">     -0.03000000</i>
   <i type="int" name="NFREE">     0</i>
   <i name="POTIM">      0.00000000</i>
   <i name="SMASS">     -3.00000000</i>
   <i name="SCALEE">      1.00000000</i>
  </separator>
  <separator name="ionic md" >
   <i name="TEBEG">      0.00010000</i>
   <i name="TEEND">      0.00010000</i>
   <i type="int" name="NBLOCK">     1</i>
   <i type="int" name="KBLOCK">  1000</i>
   <i type="int" name="NPACO">   256</i>
   <i name="APACO">     10.00000000</i>
  </separator>
  <separator name="symmetry" >
   <i type="int" name="ISYM">     0</i>
   <i name="SYMPREC">      0.00001000</i>
  </separator>
  <separator name="dos" >
   <i type="int" name="LORBIT">     0</i>
   <v name="RWIGS">     -1.00000000     -1.00000000     -1.00000000     -1.00000000</v>
   <i type="int" name="NEDOS">   301</i>
   <i name="EMIN">     10.00000000</i>
   <i name="EMAX">    -10.00000000</i>
   <i name="EFERMI">      0.00000000</i>
  </separator>
  <separator name="writing" >
   <i type="int" name="NWRITE">     2</i>
   <i type="logical" name="LWAVE"> F  </i>
   <i type="logical" name="LDOWNSAMPLE"> F  </i>
   <i type="logical" name="LCHARG"> F  </i>
   <i type="logical" name="LPARD"> F  </i>
   <i type="logical" name="LVTOT"> F  </i>
   <i type="logical" name="LVHAR"> F  </i>
   <i type="logical" name="LELF"> F  </i>
   <i type="logical" name="LOPTICS"> F  </i>
   <v name="STM">      0.00000000      0.00000000      0.00000000      0.00000000      0.00000000      0.00000000      0.00000000</v>
  </separator>
  <separator name="performance" >
   <i type="int" name="NPAR">     5</i>
   <i type="int" name="NSIM">     4</i>
   <i type="int" name="NBLK">    -1</i>
   <i type="logical" name="LPLANE"> T  </i>
   <i type="logical" name="LSCALAPACK"> T  </i>
   <i type="logical" name="LSCAAWARE"> F  </i>
   <i type="logical" name="LSCALU"> F  </i>
   <i type="logical" name="LASYNC"> F  </i>
   <i type="logical" name="LORBITALREAL"> F  </i>
  </separator>
  <separator name="miscellaneous" >
   <i type="int" name="IDIOT">     3</i>
   <i type="int" name="PHON_NSTRUCT">    -1</i>
   <i type="logical" name="LMUSIC"> F  </i>
   <v name="POMASS">     12.01100000      1.00000000     18.99800000     16.00000000</v>
   <v name="DARWINR">      0.00000000      0.00000000      0.00000000      0.00000000</v>
   <v name="DARWINV">      1.00000000      1.00000000      1.00000000      1.00000000</v>
   <i type="logical" name="LCORR"> T  </i>
  </separator>
  <i type="logical" name="GGA_COMPAT"> T  </i>
  <i type="logical" name="LBERRY"> F  </i>
  <i type="int" name="ICORELEVEL">     0</i>
  <i type="logical" name="LDAU"> F  </i>
  <i type="int" name="I_CONSTRAINED_M">     0</i>
  <separator name="electronic exchange-correlation" >
   <i type="string" name="GGA">--</i>
   <i type="int" name="VOSKOWN">     0</i>
   <i type="logical" name="LHFCALC"> F  </i>
   <i type="string" name="PRECFOCK"></i>
   <i type="logical" name="LSYMGRAD"> F  </i>
   <i type="logical" name="LHFONE"> F  </i>
   <i type="logical" name="LRHFCALC"> F  </i>
   <i type="logical" name="LTHOMAS"> F  </i>
   <i type="logical" name="LMODELHF"> F  </i>
   <i type="logical" name="LFOCKACE"> F  </i>
   <i name="ENCUT4O">     -1.00000000</i>
   <i type="int" name="EXXOEP">     0</i>
   <i type="int" name="FOURORBIT">     0</i>
   <i name="AEXX">      0.00000000</i>
   <i name="HFALPHA">      0.00000000</i>
   <i name="MCALPHA">      0.00000000</i>
   <i name="ALDAX">      1.00000000</i>
   <i name="AGGAX">      1.00000000</i>
   <i name="ALDAC">      1.00000000</i>
   <i name="AGGAC">      1.00000000</i>
   <i type="int" name="NKREDX">     1</i>
   <i type="int" name="NKREDY">     1</i>
   <i type="int" name="NKREDZ">     1</i>
   <i type="logical" name="SHIFTRED"> F  </i>
   <i type="logical" name="ODDONLY"> F  </i>
   <i type="logical" name="EVENONLY"> F  </i>
   <i type="int" name="LMAXFOCK">     0</i>
   <i type="int" name="NMAXFOCKAE">     0</i>
   <i type="logical" name="LFOCKAEDFT"> F  </i>
   <i name="HFSCREEN">      0.00000000</i>
   <i name="HFSCREENC">      0.00000000</i>
   <i type="int" name="NBANDSGWLOW">     0</i>
  </separator>
  <separator name="vdW DFT" >
   <i type="logical" name="LUSE_VDW"> F  </i>
   <i type="int" name="IVDW_NL">     1</i>
   <i type="logical" name="LSPIN_VDW"> F  </i>
   <i name="Zab_VDW">     -0.84910000</i>
   <i name="PARAM1">      0.12340000</i>
   <i name="PARAM2">      1.00000000</i>
   <i name="PARAM3">      0.00000000</i>
  </separator>
  <separator name="model GW" >
   <i type="int" name="MODEL_GW">     0</i>
   <i name="MODEL_EPS0">     23.48414909</i>
   <i name="MODEL_ALPHA">      1.00000000</i>
  </separator>
  <separator name="linear response parameters" >
   <i type="logical" name="LEPSILON"> F  </i>
   <i type="logical" name="LRPA"> F  </i>
   <i type="logical" name="LNABLA"> F  </i>
   <i type="logical" name="LVEL"> F  </i>
   <i name="CSHIFT">      0.10000000</i>
   <i name="OMEGAMAX">     -1.00000000</i>
   <i name="DEG_THRESHOLD">      0.00200000</i>
   <i name="RTIME">     -0.10000000</i>
   <i name="WPLASMAI">      0.00000000</i>
   <v name="DFIELD">      0.00000000      0.00000000      0.00000000</v>
   <v name="WPLASMA">      0.00000000      0.00000000      0.00000000      0.00000000      0.00000000      0.00000000      0.00000000      0.00000000      0.00000000</v>
  </separator>
  <separator name="orbital magnetization" >
   <i type="logical" name="NUCIND"> F  </i>
   <v name="MAGPOS">      0.00000000      0.00000000      0.00000000</v>
   <i type="logical" name="LNICSALL"> T  </i>
   <i type="logical" name="ORBITALMAG"> F  </i>
   <i type="logical" name="LMAGBLOCH"> F  </i>
   <i type="logical" name="LCHIMAG"> F  </i>
   <i type="logical" name="LGAUGE"> T  </i>
   <i type="int" name="MAGATOM">     0</i>
   <v name="MAGDIPOL">      0.00000000      0.00000000      0.00000000</v>
   <v name="AVECCONST">      0.00000000      0.00000000      0.00000000</v>
  </separator>
  <separator name="response functions" >
   <i type="logical" name="LALL_IN_ONE"> F  </i>
   <i type="int" name="IALL_IN_ONE">    -1</i>
   <i type="int" name="NBANDS_WAVE">    -1</i>
   <i type="logical" name="LFINITE_TEMPERATURE"> F  </i>
   <i type="logical" name="LADDER"> F  </i>
   <i type="logical" name="LRPAFORCE"> F  </i>
   <i type="logical" name="LFXC"> F  </i>
   <i type="logical" name="LHARTREE"> T  </i>
   <i type="int" name="IBSE">     0</i>
   <v type="int" name="KPOINT">    -1     0     0     0</v>
   <i type="logical" name="LTCTC"> F  </i>
   <i type="logical" name="LTCTE"> F  </i>
   <i type="logical" name="LTETE"> F  </i>
   <i type="logical" name="LTRIPLET"> F  </i>
   <i type="logical" name="LFXCEPS"> F  </i>
   <i type="logical" name="LFXHEG"> F  </i>
   <i type="int" name="NATURALO">     2</i>
   <i type="logical" name="LHOLEGF"> F  </i>
   <i type="logical" name="L2ORDER"> F  </i>
   <i type="logical" name="LDMP1"> F  </i>
   <i type="logical" name="LMP2LT"> F  </i>
   <i type="logical" name="LSMP2LT"> F  </i>
   <i type="logical" name="LGWLF"> F  </i>
   <i name="ENCUTGW">     -1.60000002</i>
   <i name="ENCUTGWSOFT">     -1.60000002</i>
   <i name="ENCUTLF">     -1.00000000</i>
   <i type="logical" name="LESF_SPLINES"> F  </i>
   <i type="int" name="LMAXMP2">    -1</i>
   <i name="SCISSOR">      0.00000000</i>
   <i type="int" name="NOMEGA">     0</i>
   <i type="int" name="NOMEGAR">     0</i>
   <i type="int" name="NBANDSGW">    -1</i>
   <i type="int" name="NBANDSO">    -1</i>
   <i type="int" name="NBANDSV">    -1</i>
   <i type="int" name="NELMGW">     1</i>
   <i type="int" name="NELMHF">     1</i>
   <i type="int" name="DIM">     3</i>
   <i type="int" name="IESPILON">     4</i>
   <i type="int" name="ANTIRES">     0</i>
   <i name="OMEGAMAX">    -30.00000000</i>
   <i name="OMEGAMIN">    -30.00000000</i>
   <i name="OMEGATL">   -200.00000000</i>
   <i type="int" name="OMEGAGRID">     0</i>
   <i name="CSHIFT">     -0.10000000</i>
   <i type="logical" name="LSELFENERGY"> F  </i>
   <i type="logical" name="LSPECTRAL"> F  </i>
   <i type="logical" name="LSPECTRALGW"> F  </i>
   <i type="logical" name="LSINGLES"> F  </i>
   <i type="logical" name="LFERMIGW"> F  </i>
   <i type="logical" name="ODDONLYGW"> F  </i>
   <i type="logical" name="EVENONLYGW"> F  </i>
   <i type="int" name="NKREDLFX">     1</i>
   <i type="int" name="NKREDLFY">     1</i>
   <i type="int" name="NKREDLFZ">     1</i>
   <i type="int" name="MAXMEM">  2800</i>
   <i type="int" name="TELESCOPE">     0</i>
   <i type="int" name="NTAUPAR">    -1</i>
   <i type="int" name="NOMEGAPAR">    -1</i>
   <i name="DAMP_NEWTON">      0.80000001</i>
   <i name="LAMBDA">      1.00000000</i>
  </separator>
  <separator name="External order field" >
   <i name="OFIELD_KAPPA">      0.00000000</i>
   <v name="OFIELD_K">      0.00000000      0.00000000      0.00000000</v>
   <i name="OFIELD_Q6_NEAR">      0.00000000</i>
   <i name="OFIELD_Q6_FAR">      0.00000000</i>
   <i name="OFIELD_A">      0.00000000</i>
  </separator>
  <separator name="optional k-points parameters" >
   <i type="int" name="KPOINTS_OPT_MODE">     1</i>
   <i type="logical" name="LKPOINTS_OPT"> F  </i>
  </separator>
 </parameters>
 <atominfo>
  <atoms>      99 </atoms>
  <types>       4 </types>
  <array name="atoms" >
   <dimension dim="1">ion</dimension>
   <field type="string">element</field>
   <field type="int">atomtype</field>
   <set>
    <rc><c>C </c><c>   1</c></rc>
    <rc><c>C </c><c>   1</c></rc>
    <rc><c>C </c><c>   1</c></rc>
    <rc><c>C </c><c>   1</c></rc>
    <rc><c>C </c><c>   1</c></rc>
    <rc><c>C </c><c>   1</c></rc>
    <rc><c>C </c><c>   1</c></rc>
    <rc><c>C </c><c>   1</c></rc>
    <rc><c>C </c><c>   1</c></rc>
    <rc><c>C </c><c>   1</c></rc>
    <rc><c>C </c><c>   1</c></rc>
    <rc><c>C </c><c>   1</c></rc>
    <rc><c>C </c><c>   1</c></rc>
    <rc><c>C </c><c>   1</c></rc>
    <rc><c>C </c><c>   1</c></rc>
    <rc><c>C </c><c>   1</c></rc>
    <rc><c>C </c><c>   1</c></rc>
    <rc><c>C </c><c>   1</c></rc>
    <rc><c>C </c><c>   1</c></rc>
    <rc><c>C </c><c>   1</c></rc>
    <rc><c>C </c><c>   1</c></rc>
    <rc><c>C </c><c>   1</c></rc>
    <rc><c>C </c><c>   1</c></rc>
    <rc><c>C </c><c>   1</c></rc>
    <rc><c>C </c><c>   1</c></rc>
    <rc><c>C </c><c>   1</c></rc>
    <rc><c>C </c><c>   1</c></rc>
    <rc><c>C </c><c>   1</c></rc>
    <rc><c>C </c><c>   1</c></rc>
    <rc><c>C </c><c>   1</c></rc>
    <rc><c>C </c><c>   1</c></rc>
    <rc><c>C </c><c>   1</c></rc>
    <rc><c>C </c><c>   1</c></rc>
    <rc><c>C </c><c>   1</c></rc>
    <rc><c>C </c><c>   1</c></rc>
    <rc><c>C </c><c>   1</c></rc>
    <rc><c>C </c><c>   1</c></rc>
    <rc><c>C </c><c>   1</c></rc>
    <rc><c>C </c><c>   1</c></rc>
    <rc><c>C </c><c>   1</c></rc>
    <rc><c>C </c><c>   1</c></rc>
    <rc><c>C </c><c>   1</c></rc>
    <rc><c>C </c><c>   1</c></rc>
    <rc><c>C </c><c>   1</c></rc>
    <rc><c>C </c><c>   1</c></rc>
    <rc><c>C </c><c>   1</c></rc>
    <rc><c>C </c><c>   1</c></rc>
    <rc><c>C </c><c>   1</c></rc>
    <rc><c>C </c><c>   1</c></rc>
    <rc><c>C </c><c>   1</c></rc>
    <rc><c>C </c><c>   1</c></rc>
    <rc><c>C </c><c>   1</c></rc>
    <rc><c>C </c><c>   1</c></rc>
    <rc><c>C </c><c>   1</c></rc>
    <rc><c>C </c><c>   1</c></rc>
    <rc><c>C </c><c>   1</c></rc>
    <rc><c>C </c><c>   1</c></rc>
    <rc><c>C </c><c>   1</c></rc>
    <rc><c>C </c><c>   1</c></rc>
    <rc><c>C </c><c>   1</c></rc>
    <rc><c>C </c><c>   1</c></rc>
    <rc><c>C </c><c>   1</c></rc>
    <rc><c>C </c><c>   1</c></rc>
    <rc><c>C </c><c>   1</c></rc>
    <rc><c>C </c><c>   1</c></rc>
    <rc><c>C </c><c>   1</c></rc>
    <rc><c>C </c><c>   1</c></rc>
    <rc><c>C </c><c>   1</c></rc>
    <rc><c>C </c><c>   1</c></rc>
    <rc><c>C </c><c>   1</c></rc>
    <rc><c>C </c><c>   1</c></rc>
    <rc><c>C </c><c>   1</c></rc>
    <rc><c>C </c><c>   1</c></rc>
    <rc><c>C </c><c>   1</c></rc>
    <rc><c>C </c><c>   1</c></rc>
    <rc><c>C </c><c>   1</c></rc>
    <rc><c>C </c><c>   1</c></rc>
    <rc><c>C </c><c>   1</c></rc>
    <rc><c>C </c><c>   1</c></rc>
    <rc><c>C </c><c>   1</c></rc>
    <rc><c>C </c><c>   1</c></rc>
    <rc><c>C </c><c>   1</c></rc>
    <rc><c>C </c><c>   1</c></rc>
    <rc><c>C </c><c>   1</c></rc>
    <rc><c>C </c><c>   1</c></rc>
    <rc><c>C </c><c>   1</c></rc>
    <rc><c>C </c><c>   1</c></rc>
    <rc><c>C </c><c>   1</c></rc>
    <rc><c>H </c><c>   2</c></rc>
    <rc><c>H </c><c>   2</c></rc>
    <rc><c>H </c><c>   2</c></rc>
    <rc><c>H </c><c>   2</c></rc>
    <rc><c>H </c><c>   2</c></rc>
    <rc><c>H </c><c>   2</c></rc>
    <rc><c>F </c><c>   3</c></rc>
    <rc><c>F </c><c>   3</c></rc>
    <rc><c>F </c><c>   3</c></rc>
    <rc><c>F </c><c>   3</c></rc>
    <rc><c>O </c><c>   4</c></rc>
   </set>
  </array>
  <array name="atomtypes" >
   <dimension dim="1">type</dimension>
   <field type="int">atomspertype</field>
   <field type="string">element</field>
   <field>mass</field>
   <field>valence</field>
   <field type="string">pseudopotential</field>
   <set>
    <rc><c>  88</c><c>C </c><c>     12.01100000</c><c>      4.00000000</c><c>  PAW_PBE C 08Apr2002                   </c></rc>
    <rc><c>   6</c><c>H </c><c>      1.00000000</c><c>      1.00000000</c><c>  PAW_PBE H 15Jun2001                   </c></rc>
    <rc><c>   4</c><c>F </c><c>     18.99800000</c><c>      7.00000000</c><c>  PAW_PBE F 08Apr2002                   </c></rc>
    <rc><c>   1</c><c>O </c><c>     16.00000000</c><c>      6.00000000</c><c>  PAW_PBE O 08Apr2002                   </c></rc>
   </set>
  </array>
 </atominfo>
 <structure name="initialpos" >
  <crystal>
   <varray name="basis" >
    <v>      17.27103806       0.00000000       0.00000000 </v>
    <v>      -8.63551903      14.95715771       0.00000000 </v>
    <v>       0.00000000       0.00000000      15.00000000 </v>
   </varray>
   <i name="volume">   3874.88459904 </i>
   <varray name="rec_basis" >
    <v>       0.05790040       0.03342881       0.00000000 </v>
    <v>       0.00000000       0.06685762       0.00000000 </v>
    <v>       0.00000000       0.00000000       0.06666667 </v>
   </varray>
  </crystal>
  <varray name="positions" >
   <v>       0.99861448       0.99869198       0.50139835 </v>
   <v>       0.99808363       0.14122494       0.49876594 </v>
   <v>       0.99777876       0.28417986       0.49774985 </v>
   <v>       0.99786544       0.42733633       0.49896987 </v>
   <v>       0.99831128       0.57037638       0.50163096 </v>
   <v>       0.99930971       0.71349031       0.50492846 </v>
   <v>       0.99951268       0.85650174       0.50494912 </v>
   <v>       0.14166449       0.99895374       0.49483859 </v>
   <v>       0.14130549       0.14159996       0.49407783 </v>
   <v>       0.14006474       0.28354559       0.49301113 </v>
   <v>       0.13991611       0.42704387       0.49497513 </v>
   <v>       0.14106180       0.57017594       0.49507678 </v>
   <v>       0.14152588       0.71312164       0.49658427 </v>
   <v>       0.14172192       0.85606077       0.49632731 </v>
   <v>       0.28428235       0.99848403       0.49348960 </v>
   <v>       0.28430810       0.14116255       0.49134277 </v>
   <v>       0.28447697       0.28483164       0.48885537 </v>
   <v>       0.28100884       0.42588797       0.49475874 </v>
   <v>       0.28416107       0.57012375       0.49862971 </v>
   <v>       0.28425609       0.71352350       0.49660766 </v>
   <v>       0.28428176       0.85610639       0.49473323 </v>
   <v>       0.42737012       0.99877384       0.49705467 </v>
   <v>       0.42719547       0.14080104       0.49670609 </v>
   <v>       0.42608887       0.28021770       0.49613816 </v>
   <v>       0.42621759       0.71604309       0.49509194 </v>
   <v>       0.42728437       0.85660972       0.49809969 </v>
   <v>       0.57020104       0.99907658       0.50229565 </v>
   <v>       0.57011970       0.14129174       0.50230257 </v>
   <v>       0.57098164       0.28444810       0.50671935 </v>
   <v>       0.57131541       0.85677328       0.50546761 </v>
   <v>       0.71312156       0.99895226       0.50847895 </v>
   <v>       0.71307597       0.14176363       0.50442115 </v>
   <v>       0.71299932       0.28462907       0.50827385 </v>
   <v>       0.71214263       0.42649290       0.52181971 </v>
   <v>       0.72248691       0.57447471       0.55493460 </v>
   <v>       0.72356379       0.71992204       0.55835588 </v>
   <v>       0.71256156       0.85657331       0.52279018 </v>
   <v>       0.85594979       0.99899886       0.50962909 </v>
   <v>       0.85550859       0.14157664       0.50371935 </v>
   <v>       0.85542343       0.28444287       0.50350773 </v>
   <v>       0.85564738       0.42743071       0.50908165 </v>
   <v>       0.85656515       0.57099292       0.51785544 </v>
   <v>       0.85878717       0.71479422       0.52526749 </v>
   <v>       0.85695814       0.85647233       0.51804852 </v>
   <v>       0.04611787       0.09394025       0.49763362 </v>
   <v>       0.04495911       0.23611537       0.49577677 </v>
   <v>       0.04484757       0.37939119       0.49670786 </v>
   <v>       0.04583640       0.52263706       0.49781085 </v>
   <v>       0.04630740       0.66564303       0.50026161 </v>
   <v>       0.04669857       0.80859328       0.50168358 </v>
   <v>       0.04653954       0.95134298       0.49976921 </v>
   <v>       0.18907573       0.09381116       0.49268757 </v>
   <v>       0.18844018       0.23669116       0.49254659 </v>
   <v>       0.18600520       0.37834118       0.49360727 </v>
   <v>       0.18819996       0.52221775       0.49444892 </v>
   <v>       0.18897346       0.66570285       0.49584512 </v>
   <v>       0.18923898       0.80848509       0.49545584 </v>
   <v>       0.18925779       0.95114245       0.49420858 </v>
   <v>       0.33205237       0.09378385       0.49337883 </v>
   <v>       0.33311923       0.23648023       0.49057600 </v>
   <v>       0.32569943       0.37734253       0.48557604 </v>
   <v>       0.32530429       0.51895307       0.50578420 </v>
   <v>       0.33303012       0.66700685       0.49744183 </v>
   <v>       0.33206795       0.80858777       0.49597995 </v>
   <v>       0.33192300       0.95110496       0.49467263 </v>
   <v>       0.47498840       0.09356880       0.49863671 </v>
   <v>       0.47437997       0.23555308       0.49974813 </v>
   <v>       0.47462458       0.80904793       0.49878348 </v>
   <v>       0.47505063       0.95165268       0.49927501 </v>
   <v>       0.61771647       0.09398926       0.50314613 </v>
   <v>       0.61793737       0.23654186       0.50605284 </v>
   <v>       0.61910922       0.37759312       0.51543950 </v>
   <v>       0.61955867       0.81187904       0.51524827 </v>
   <v>       0.61809711       0.95170674       0.50566946 </v>
   <v>       0.76062241       0.09423130       0.50549865 </v>
   <v>       0.76055422       0.23685742       0.50521700 </v>
   <v>       0.76056614       0.37973655       0.51353570 </v>
   <v>       0.76154314       0.52346267       0.53174600 </v>
   <v>       0.76614697       0.66862182       0.54860085 </v>
   <v>       0.76224131       0.80939315       0.53332707 </v>
   <v>       0.76085990       0.95164480       0.51415672 </v>
   <v>       0.90304019       0.09369013       0.50378722 </v>
   <v>       0.90278340       0.23666597       0.50131372 </v>
   <v>       0.90280723       0.37984128       0.50341665 </v>
   <v>       0.90331935       0.52296236       0.50862484 </v>
   <v>       0.90458891       0.66610629       0.51579740 </v>
   <v>       0.90487708       0.80930305       0.51598578 </v>
   <v>       0.90368021       0.95121287       0.50866483 </v>
   <v>       0.46300455       0.35208439       0.49867851 </v>
   <v>       0.58290669       0.41359591       0.51677371 </v>
   <v>       0.58390894       0.73957206       0.51595338 </v>
   <v>       0.46325993       0.68119422       0.49058229 </v>
   <v>       0.54571257       0.57041427       0.37773282 </v>
   <v>       0.54259065       0.56647316       0.47971286 </v>
   <v>       0.41554427       0.42742476       0.46883947 </v>
   <v>       0.41344835       0.55830589       0.52924504 </v>
   <v>       0.63986502       0.67871823       0.59377259 </v>
   <v>       0.63616531       0.53185937       0.58394031 </v>
   <v>       0.58104710       0.60020433       0.43022414 </v>
  </varray>
  <varray name="selective"  type="logical" >
   <v type="logical" >  T  T  T </v>
   <v type="logical" >  T  T  T </v>
   <v type="logical" >  T  T  T </v>
   <v type="logical" >  T  T  T </v>
   <v type="logical" >  T  T  T </v>
   <v type="logical" >  T  T  T </v>
   <v type="logical" >  T  T  T </v>
   <v type="logical" >  T  T  T </v>
   <v type="logical" >  T  T  T </v>
   <v type="logical" >  T  T  T </v>
   <v type="logical" >  T  T  T </v>
   <v type="logical" >  T  T  T </v>
   <v type="logical" >  T  T  T </v>
   <v type="logical" >  T  T  T </v>
   <v type="logical" >  T  T  T </v>
   <v type="logical" >  T  T  T </v>
   <v type="logical" >  T  T  T </v>
   <v type="logical" >  T  T  T </v>
   <v type="logical" >  T  T  T </v>
   <v type="logical" >  T  T  T </v>
   <v type="logical" >  T  T  T </v>
   <v type="logical" >  T  T  T </v>
   <v type="logical" >  T  T  T </v>
   <v type="logical" >  T  T  T </v>
   <v type="logical" >  T  T  T </v>
   <v type="logical" >  T  T  T </v>
   <v type="logical" >  T  T  T </v>
   <v type="logical" >  T  T  T </v>
   <v type="logical" >  T  T  T </v>
   <v type="logical" >  T  T  T </v>
   <v type="logical" >  T  T  T </v>
   <v type="logical" >  T  T  T </v>
   <v type="logical" >  T  T  T </v>
   <v type="logical" >  T  T  T </v>
   <v type="logical" >  T  T  T </v>
   <v type="logical" >  T  T  T </v>
   <v type="logical" >  T  T  T </v>
   <v type="logical" >  T  T  T </v>
   <v type="logical" >  T  T  T </v>
   <v type="logical" >  T  T  T </v>
   <v type="logical" >  T  T  T </v>
   <v type="logical" >  T  T  T </v>
   <v type="logical" >  T  T  T </v>
   <v type="logical" >  T  T  T </v>
   <v type="logical" >  T  T  T </v>
   <v type="logical" >  T  T  T </v>
   <v type="logical" >  T  T  T </v>
   <v type="logical" >  T  T  T </v>
   <v type="logical" >  T  T  T </v>
   <v type="logical" >  T  T  T </v>
   <v type="logical" >  T  T  T </v>
   <v type="logical" >  T  T  T </v>
   <v type="logical" >  T  T  T </v>
   <v type="logical" >  T  T  T </v>
   <v type="logical" >  T  T  T </v>
   <v type="logical" >  T  T  T </v>
   <v type="logical" >  T  T  T </v>
   <v type="logical" >  T  T  T </v>
   <v type="logical" >  T  T  T </v>
   <v type="logical" >  T  T  T </v>
   <v type="logical" >  T  T  T </v>
   <v type="logical" >  T  T  T </v>
   <v type="logical" >  T  T  T </v>
   <v type="logical" >  T  T  T </v>
   <v type="logical" >  T  T  T </v>
   <v type="logical" >  T  T  T </v>
   <v type="logical" >  T  T  T </v>
   <v type="logical" >  T  T  T </v>
   <v type="logical" >  T  T  T </v>
   <v type="logical" >  T  T  T </v>
   <v type="logical" >  T  T  T </v>
   <v type="logical" >  T  T  T </v>
   <v type="logical" >  T  T  T </v>
   <v type="logical" >  T  T  T </v>
   <v type="logical" >  T  T  T </v>
   <v type="logical" >  T  T  T </v>
   <v type="logical" >  T  T  T </v>
   <v type="logical" >  T  T  T </v>
   <v type="logical" >  T  T  T </v>
   <v type="logical" >  T  T  T </v>
   <v type="logical" >  T  T  T </v>
   <v type="logical" >  T  T  T </v>
   <v type="logical" >  T  T  T </v>
   <v type="logical" >  T  T  T </v>
   <v type="logical" >  T  T  T </v>
   <v type="logical" >  T  T  T </v>
   <v type="logical" >  T  T  T </v>
   <v type="logical" >  T  T  T </v>
   <v type="logical" >  T  T  T </v>
   <v type="logical" >  T  T  T </v>
   <v type="logical" >  T  T  T </v>
   <v type="logical" >  T  T  T </v>
   <v type="logical" >  T  T  T </v>
   <v type="logical" >  T  T  T </v>
   <v type="logical" >  T  T  T </v>
   <v type="logical" >  T  T  T </v>
   <v type="logical" >  T  T  T </v>
   <v type="logical" >  T  T  T </v>
   <v type="logical" >  T  T  T </v>
  </varray>
  <nose>
   <v>      -3.00000000       0.00000000       0.00010000       0.00010000 </v>
  </nose>
 </structure>
 <calculation>
  <scstep>
   <time name="dav">   76.46   76.92</time>
   <time name="total">   81.68   82.25</time>
   <energy>
    <i name="alphaZ">    196.80145815 </i>
    <i name="ewald">  39348.65424285 </i>
    <i name="hartreedc"> -51672.15576209 </i>
    <i name="XCdc">   1356.31981435 </i>
    <i name="pawpsdc">  12061.16201661 </i>
    <i name="pawaedc"> -12133.24665886 </i>
    <i name="eentropy">     -0.03548870 </i>
    <i name="bandstr">  -1684.09853694 </i>
    <i name="atom">  16094.84310894 </i>
    <i name="e_fr_energy">   3568.24419431 </i>
    <i name="e_wo_entrp">   3568.27968301 </i>
    <i name="e_0_energy">   3568.26193866 </i>
   </energy>
  </scstep>
  <scstep>
   <time name="dav">   98.31   98.95</time>
   <time name="total">   98.31   98.97</time>
   <energy>
    <i name="e_fr_energy">   -221.72827966 </i>
    <i name="e_wo_entrp">   -221.71962454 </i>
    <i name="e_0_energy">   -221.72395210 </i>
   </energy>
  </scstep>
  <scstep>
   <time name="dav">   83.67   84.24</time>
   <time name="total">   83.67   84.25</time>
   <energy>
    <i name="e_fr_energy">   -874.54073772 </i>
    <i name="e_wo_entrp">   -874.53522301 </i>
    <i name="e_0_energy">   -874.53798037 </i>
   </energy>
  </scstep>
  <scstep>
   <time name="dav">   84.38   84.93</time>
   <time name="total">   84.38   84.95</time>
   <energy>
    <i name="e_fr_energy">   -896.57249042 </i>
    <i name="e_wo_entrp">   -896.56687180 </i>
    <i name="e_0_energy">   -896.56968111 </i>
   </energy>
  </scstep>
  <scstep>
   <time name="dav">   94.09   94.68</time>
   <time name="total">   99.93  100.58</time>
   <energy>
    <i name="e_fr_energy">   -897.22833551 </i>
    <i name="e_wo_entrp">   -897.22274597 </i>
    <i name="e_0_energy">   -897.22554074 </i>
   </energy>
  </scstep>
  <scstep>
   <time name="dav">   84.04   84.59</time>
   <time name="total">   95.27   95.95</time>
   <energy>
    <i name="e_fr_energy">   -878.52564410 </i>
    <i name="e_wo_entrp">   -878.52443502 </i>
    <i name="e_0_energy">   -878.52503956 </i>
   </energy>
  </scstep>
  <scstep>
   <time name="dav">   81.78   82.26</time>
   <time name="total">   92.81   93.38</time>
   <energy>
    <i name="e_fr_energy">   -856.59586628 </i>
    <i name="e_wo_entrp">   -856.59586524 </i>
    <i name="e_0_energy">   -856.59586576 </i>
   </energy>
  </scstep>
  <scstep>
   <time name="dav">   83.31   83.81</time>
   <time name="total">   94.40   95.07</time>
   <energy>
    <i name="e_fr_energy">   -851.56742358 </i>
    <i name="e_wo_entrp">   -851.56742358 </i>
    <i name="e_0_energy">   -851.56742358 </i>
   </energy>
  </scstep>
  <scstep>
   <time name="dav">   82.43   82.95</time>
   <time name="total">   93.33   93.93</time>
   <energy>
    <i name="e_fr_energy">   -851.70527323 </i>
    <i name="e_wo_entrp">   -851.70527323 </i>
    <i name="e_0_energy">   -851.70527323 </i>
   </energy>
  </scstep>
  <scstep>
   <time name="dav">   80.34   80.83</time>
   <time name="total">   91.74   92.34</time>
   <energy>
    <i name="e_fr_energy">   -851.52007381 </i>
    <i name="e_wo_entrp">   -851.52007381 </i>
    <i name="e_0_energy">   -851.52007381 </i>
   </energy>
  </scstep>
  <scstep>
   <time name="dav">   79.78   80.24</time>
   <time name="total">   91.11   91.68</time>
   <energy>
    <i name="e_fr_energy">   -851.50556662 </i>
    <i name="e_wo_entrp">   -851.50556662 </i>
    <i name="e_0_energy">   -851.50556662 </i>
   </energy>
  </scstep>
  <scstep>
   <time name="dav">   82.03   82.52</time>
   <time name="total">   93.31   93.89</time>
   <energy>
    <i name="e_fr_energy">   -851.50539656 </i>
    <i name="e_wo_entrp">   -851.50539656 </i>
    <i name="e_0_energy">   -851.50539656 </i>
   </energy>
  </scstep>
  <scstep>
   <time name="dav">   83.25   83.72</time>
   <time name="total">   94.44   95.04</time>
   <energy>
    <i name="e_fr_energy">   -851.50553846 </i>
    <i name="e_wo_entrp">   -851.50553846 </i>
    <i name="e_0_energy">   -851.50553846 </i>
   </energy>
  </scstep>
  <scstep>
   <time name="dav">   82.28   82.75</time>
   <time name="total">   93.55   94.12</time>
   <energy>
    <i name="e_fr_energy">   -851.50553645 </i>
    <i name="e_wo_entrp">   -851.50553644 </i>
    <i name="e_0_energy">   -851.50553644 </i>
   </energy>
  </scstep>
  <scstep>
   <time name="dav">   80.21   80.71</time>
   <time name="total">   91.42   92.02</time>
   <energy>
    <i name="e_fr_energy">   -851.50560537 </i>
    <i name="e_wo_entrp">   -851.50560537 </i>
    <i name="e_0_energy">   -851.50560537 </i>
   </energy>
  </scstep>
  <scstep>
   <time name="dav">   80.07   80.53</time>
   <time name="total">   91.49   92.06</time>
   <energy>
    <i name="e_fr_energy">   -851.50560990 </i>
    <i name="e_wo_entrp">   -851.50560990 </i>
    <i name="e_0_energy">   -851.50560990 </i>
   </energy>
  </scstep>
  <scstep>
   <time name="dav">   80.21   80.67</time>
   <time name="total">   91.53   92.11</time>
   <energy>
    <i name="e_fr_energy">   -851.50560972 </i>
    <i name="e_wo_entrp">   -851.50560972 </i>
    <i name="e_0_energy">   -851.50560972 </i>
   </energy>
  </scstep>
  <scstep>
   <time name="dav">   78.80   79.27</time>
   <time name="total">   90.09   90.66</time>
   <energy>
    <i name="e_fr_energy">   -851.50560876 </i>
    <i name="e_wo_entrp">   -851.50560876 </i>
    <i name="e_0_energy">   -851.50560876 </i>
   </energy>
  </scstep>
  <scstep>
   <time name="dav">   63.00   63.38</time>
   <time name="total">   68.44   68.90</time>
   <energy>
    <i name="alphaZ">    196.80145815 </i>
    <i name="ewald">  39348.65424285 </i>
    <i name="hartreedc"> -53204.39580124 </i>
    <i name="XCdc">   1407.44014677 </i>
    <i name="pawpsdc">  39775.71197422 </i>
    <i name="pawaedc"> -39859.07905496 </i>
    <i name="eentropy">     -0.00000000 </i>
    <i name="bandstr">  -4611.48168354 </i>
    <i name="atom">  16094.84310894 </i>
    <i name="e_fr_energy">   -851.50560881 </i>
    <i name="e_wo_entrp">   -851.50560881 </i>
    <i name="e_0_energy">   -851.50560881 </i>
   </energy>
  </scstep>
  <structure>
   <crystal>
    <varray name="basis" >
     <v>      17.27103806       0.00000000       0.00000000 </v>
     <v>      -8.63551903      14.95715771       0.00000000 </v>
     <v>       0.00000000       0.00000000      15.00000000 </v>
    </varray>
    <i name="volume">   3874.88459904 </i>
    <varray name="rec_basis" >
     <v>       0.05790040       0.03342881       0.00000000 </v>
     <v>       0.00000000       0.06685762       0.00000000 </v>
     <v>       0.00000000       0.00000000       0.06666667 </v>
    </varray>
   </crystal>
   <varray name="positions" >
    <v>       0.99861448       0.99869198       0.50139835 </v>
    <v>       0.99808363       0.14122494       0.49876594 </v>
    <v>       0.99777876       0.28417986       0.49774985 </v>
    <v>       0.99786544       0.42733633       0.49896987 </v>
    <v>       0.99831128       0.57037638       0.50163096 </v>
    <v>       0.99930971       0.71349031       0.50492846 </v>
    <v>       0.99951268       0.85650174       0.50494912 </v>
    <v>       0.14166449       0.99895374       0.49483859 </v>
    <v>       0.14130549       0.14159996       0.49407783 </v>
    <v>       0.14006474       0.28354559       0.49301113 </v>
    <v>       0.13991611       0.42704387       0.49497513 </v>
    <v>       0.14106180       0.57017594       0.49507678 </v>
    <v>       0.14152588       0.71312164       0.49658427 </v>
    <v>       0.14172192       0.85606077       0.49632731 </v>
    <v>       0.28428235       0.99848403       0.49348960 </v>
    <v>       0.28430810       0.14116255       0.49134277 </v>
    <v>       0.28447697       0.28483164       0.48885537 </v>
    <v>       0.28100884       0.42588797       0.49475874 </v>
    <v>       0.28416107       0.57012375       0.49862971 </v>
    <v>       0.28425609       0.71352350       0.49660766 </v>
    <v>       0.28428176       0.85610639       0.49473323 </v>
    <v>       0.42737012       0.99877384       0.49705467 </v>
    <v>       0.42719547       0.14080104       0.49670609 </v>
    <v>       0.42608887       0.28021770       0.49613816 </v>
    <v>       0.42621759       0.71604309       0.49509194 </v>
    <v>       0.42728437       0.85660972       0.49809969 </v>
    <v>       0.57020104       0.99907658       0.50229565 </v>
    <v>       0.57011970       0.14129174       0.50230257 </v>
    <v>       0.57098164       0.28444810       0.50671935 </v>
    <v>       0.57131541       0.85677328       0.50546761 </v>
    <v>       0.71312156       0.99895226       0.50847895 </v>
    <v>       0.71307597       0.14176363       0.50442115 </v>
    <v>       0.71299932       0.28462907       0.50827385 </v>
    <v>       0.71214263       0.42649290       0.52181971 </v>
    <v>       0.72248691       0.57447471       0.55493460 </v>
    <v>       0.72356379       0.71992204       0.55835588 </v>
    <v>       0.71256156       0.85657331       0.52279018 </v>
    <v>       0.85594979       0.99899886       0.50962909 </v>
    <v>       0.85550859       0.14157664       0.50371935 </v>
    <v>       0.85542343       0.28444287       0.50350773 </v>
    <v>       0.85564738       0.42743071       0.50908165 </v>
    <v>       0.85656515       0.57099292       0.51785544 </v>
    <v>       0.85878717       0.71479422       0.52526749 </v>
    <v>       0.85695814       0.85647233       0.51804852 </v>
    <v>       0.04611787       0.09394025       0.49763362 </v>
    <v>       0.04495911       0.23611537       0.49577677 </v>
    <v>       0.04484757       0.37939119       0.49670786 </v>
    <v>       0.04583640       0.52263706       0.49781085 </v>
    <v>       0.04630740       0.66564303       0.50026161 </v>
    <v>       0.04669857       0.80859328       0.50168358 </v>
    <v>       0.04653954       0.95134298       0.49976921 </v>
    <v>       0.18907573       0.09381116       0.49268757 </v>
    <v>       0.18844018       0.23669116       0.49254659 </v>
    <v>       0.18600520       0.37834118       0.49360727 </v>
    <v>       0.18819996       0.52221775       0.49444892 </v>
    <v>       0.18897346       0.66570285       0.49584512 </v>
    <v>       0.18923898       0.80848509       0.49545584 </v>
    <v>       0.18925779       0.95114245       0.49420858 </v>
    <v>       0.33205237       0.09378385       0.49337883 </v>
    <v>       0.33311923       0.23648023       0.49057600 </v>
    <v>       0.32569943       0.37734253       0.48557604 </v>
    <v>       0.32530429       0.51895307       0.50578420 </v>
    <v>       0.33303012       0.66700685       0.49744183 </v>
    <v>       0.33206795       0.80858777       0.49597995 </v>
    <v>       0.33192300       0.95110496       0.49467263 </v>
    <v>       0.47498840       0.09356880       0.49863671 </v>
    <v>       0.47437997       0.23555308       0.49974813 </v>
    <v>       0.47462458       0.80904793       0.49878348 </v>
    <v>       0.47505063       0.95165268       0.49927501 </v>
    <v>       0.61771647       0.09398926       0.50314613 </v>
    <v>       0.61793737       0.23654186       0.50605284 </v>
    <v>       0.61910922       0.37759312       0.51543950 </v>
    <v>       0.61955867       0.81187904       0.51524827 </v>
    <v>       0.61809711       0.95170674       0.50566946 </v>
    <v>       0.76062241       0.09423130       0.50549865 </v>
    <v>       0.76055422       0.23685742       0.50521700 </v>
    <v>       0.76056614       0.37973655       0.51353570 </v>
    <v>       0.76154314       0.52346267       0.53174600 </v>
    <v>       0.76614697       0.66862182       0.54860085 </v>
    <v>       0.76224131       0.80939315       0.53332707 </v>
    <v>       0.76085990       0.95164480       0.51415672 </v>
    <v>       0.90304019       0.09369013       0.50378722 </v>
    <v>       0.90278340       0.23666597       0.50131372 </v>
    <v>       0.90280723       0.37984128       0.50341665 </v>
    <v>       0.90331935       0.52296236       0.50862484 </v>
    <v>       0.90458891       0.66610629       0.51579740 </v>
    <v>       0.90487708       0.80930305       0.51598578 </v>
    <v>       0.90368021       0.95121287       0.50866483 </v>
    <v>       0.46300455       0.35208439       0.49867851 </v>
    <v>       0.58290669       0.41359591       0.51677371 </v>
    <v>       0.58390894       0.73957206       0.51595338 </v>
    <v>       0.46325993       0.68119422       0.49058229 </v>
    <v>       0.54571257       0.57041427       0.37773282 </v>
    <v>       0.54259065       0.56647316       0.47971286 </v>
    <v>       0.41554427       0.42742476       0.46883947 </v>
    <v>       0.41344835       0.55830589       0.52924504 </v>
    <v>       0.63986502       0.67871823       0.59377259 </v>
    <v>       0.63616531       0.53185937       0.58394031 </v>
    <v>       0.58104710       0.60020433       0.43022414 </v>
   </varray>
  </structure>
  <varray name="forces" >
   <v>      -0.00063845      -0.00042545       0.00360620 </v>
   <v>       0.00100426      -0.00097364       0.00286294 </v>
   <v>       0.00173581      -0.00022023       0.00269155 </v>
   <v>       0.00140387      -0.00009533       0.00384916 </v>
   <v>       0.00096964       0.00004952       0.00554707 </v>
   <v>      -0.00052821       0.00051724       0.00516408 </v>
   <v>      -0.00066232       0.00011218       0.00440499 </v>
   <v>       0.00040477       0.00022456       0.00371522 </v>
   <v>      -0.00003600       0.00011156       0.00145903 </v>
   <v>       0.00061013      -0.00027518       0.00070947 </v>
   <v>       0.00150195      -0.00017432       0.00102365 </v>
   <v>       0.00071999      -0.00062307       0.00043325 </v>
   <v>       0.00079863      -0.00028950       0.00295639 </v>
   <v>       0.00021287       0.00042456       0.00388900 </v>
   <v>       0.00003208       0.00051331       0.00256237 </v>
   <v>      -0.00035462       0.00067744       0.00100342 </v>
   <v>       0.00000439       0.00051763      -0.00096971 </v>
   <v>       0.00067102      -0.00005780      -0.00516498 </v>
   <v>       0.00139475      -0.00094096      -0.00038461 </v>
   <v>       0.00055219      -0.00052422       0.00068579 </v>
   <v>      -0.00000602       0.00013253       0.00261511 </v>
   <v>      -0.00061256       0.00045276       0.00283750 </v>
   <v>       0.00022463       0.00185340       0.00207044 </v>
   <v>       0.00230094       0.00182485       0.00353726 </v>
   <v>       0.00090664      -0.00106598      -0.00066743 </v>
   <v>       0.00027436      -0.00105216       0.00128455 </v>
   <v>       0.00047509      -0.00085864       0.00127941 </v>
   <v>      -0.00126701       0.00053050       0.00251177 </v>
   <v>      -0.00096567      -0.00002374       0.00395706 </v>
   <v>       0.00227786      -0.00193291       0.00143304 </v>
   <v>       0.00752590      -0.00315398       0.00236407 </v>
   <v>       0.00149407      -0.00070000       0.00179658 </v>
   <v>      -0.00160038      -0.00073943       0.00268076 </v>
   <v>      -0.00416441      -0.00249974       0.00404319 </v>
   <v>      -0.00155333       0.00230565       0.00474777 </v>
   <v>      -0.00245883       0.00143434       0.00406174 </v>
   <v>       0.00137664      -0.00057228       0.00298730 </v>
   <v>       0.00119854      -0.00148563       0.00360511 </v>
   <v>       0.00329849      -0.00215234       0.00358182 </v>
   <v>       0.00081505      -0.00051355       0.00339646 </v>
   <v>       0.00041665      -0.00039332       0.00471723 </v>
   <v>      -0.00036693       0.00083822       0.00506709 </v>
   <v>      -0.00245018       0.00153038       0.00492758 </v>
   <v>      -0.00128118      -0.00035919       0.00437646 </v>
   <v>      -0.00005156      -0.00010273       0.00247559 </v>
   <v>      -0.00149468      -0.00105079       0.00094818 </v>
   <v>      -0.00311971      -0.00183116       0.00232147 </v>
   <v>      -0.00059491      -0.00012718       0.00422401 </v>
   <v>      -0.00036129       0.00032032       0.00342968 </v>
   <v>       0.00056284      -0.00049079       0.00456085 </v>
   <v>       0.00054485      -0.00043902       0.00367876 </v>
   <v>      -0.00037877      -0.00031736       0.00262898 </v>
   <v>      -0.00047069      -0.00032872       0.00064017 </v>
   <v>      -0.00120910       0.00015804      -0.00037083 </v>
   <v>      -0.00018745       0.00026873       0.00073594 </v>
   <v>      -0.00024752       0.00004376       0.00054725 </v>
   <v>       0.00014607      -0.00020709       0.00313317 </v>
   <v>      -0.00005474      -0.00027728       0.00359135 </v>
   <v>      -0.00052321      -0.00021172       0.00270469 </v>
   <v>      -0.00047848      -0.00028051       0.00201740 </v>
   <v>      -0.00064016       0.00073076      -0.00672765 </v>
   <v>      -0.00178581       0.00136913      -0.00420377 </v>
   <v>      -0.00080031       0.00048426      -0.00002532 </v>
   <v>       0.00010021       0.00040628       0.00149771 </v>
   <v>       0.00057808      -0.00021815       0.00288423 </v>
   <v>       0.00070008      -0.00083575       0.00286744 </v>
   <v>      -0.00470975      -0.00210962       0.00273865 </v>
   <v>      -0.00096659       0.00100471       0.00054179 </v>
   <v>       0.00064527       0.00025931       0.00191799 </v>
   <v>       0.00038815      -0.00051322       0.00167352 </v>
   <v>       0.00189935      -0.00027218       0.00305653 </v>
   <v>       0.00752564       0.00315147       0.00479197 </v>
   <v>      -0.00258377       0.00060590       0.00193502 </v>
   <v>      -0.00367430       0.00033722       0.00101491 </v>
   <v>      -0.00440987       0.00197396       0.00336941 </v>
   <v>      -0.00027957      -0.00046998       0.00174338 </v>
   <v>       0.00061236       0.00033317       0.00386033 </v>
   <v>       0.00098798      -0.00034508       0.00424179 </v>
   <v>       0.00374308      -0.00517376       0.00435649 </v>
   <v>       0.00021039      -0.00097907       0.00383649 </v>
   <v>      -0.00376588       0.00095674       0.00271682 </v>
   <v>      -0.00403187       0.00151499       0.00289820 </v>
   <v>      -0.00195636       0.00042510       0.00376744 </v>
   <v>      -0.00088753      -0.00033919       0.00439543 </v>
   <v>      -0.00033059      -0.00049169       0.00565385 </v>
   <v>       0.00283786      -0.00190502       0.00388118 </v>
   <v>       0.00151528      -0.00107137       0.00459795 </v>
   <v>       0.00079560      -0.00014326       0.00341429 </v>
   <v>      -0.00009312       0.00025241       0.00543815 </v>
   <v>      -0.00160792       0.00060810       0.00360890 </v>
   <v>       0.00003723      -0.00069283       0.00208095 </v>
   <v>      -0.00051003       0.00001471      -0.00044345 </v>
   <v>       0.00946435       0.00721698      -0.01985643 </v>
   <v>      -0.01268972       0.00182974      -0.00160678 </v>
   <v>      -0.00106040       0.00201886      -0.01700864 </v>
   <v>       0.00206033      -0.00142016      -0.00489622 </v>
   <v>       0.00039551      -0.00303370       0.00365558 </v>
   <v>       0.00033134      -0.00169115       0.00567103 </v>
   <v>       0.00421870       0.00913690      -0.19386197 </v>
  </varray>
  <varray name="stress" >
   <v>       3.23690532      -0.24935160      -0.01787086 </v>
   <v>      -0.24935178       4.21375600      -0.00869074 </v>
   <v>      -0.01787083      -0.00869090      -0.25002099 </v>
  </varray>
  <energy>
   <i name="e_fr_energy">   -859.42221600 </i>
   <i name="e_wo_entrp">   -859.42221599 </i>
   <i name="e_0_energy">   -859.42221599 </i>
  </energy>
  <time name="totalsc"> 2012.71 2025.70</time>
 </calculation>
 <calculation>
  <scstep>
   <time name="dav">   74.56   75.01</time>
   <time name="total">   85.53   86.06</time>
   <energy>
    <i name="alphaZ">    196.80145815 </i>
    <i name="ewald">  39347.82240810 </i>
    <i name="hartreedc"> -53203.55154323 </i>
    <i name="XCdc">   1407.43887142 </i>
    <i name="pawpsdc">  39775.36459311 </i>
    <i name="pawaedc"> -39858.73132362 </i>
    <i name="eentropy">     -0.00000000 </i>
    <i name="bandstr">  -4611.49348660 </i>
    <i name="atom">  16094.84310894 </i>
    <i name="e_fr_energy">   -851.50591373 </i>
    <i name="e_wo_entrp">   -851.50591373 </i>
    <i name="e_0_energy">   -851.50591373 </i>
   </energy>
  </scstep>
  <scstep>
   <time name="dav">   75.45   75.89</time>
   <time name="total">   86.30   86.85</time>
   <energy>
    <i name="e_fr_energy">   -851.50593243 </i>
    <i name="e_wo_entrp">   -851.50593243 </i>
    <i name="e_0_energy">   -851.50593243 </i>
   </energy>
  </scstep>
  <scstep>
   <time name="dav">   66.31   66.70</time>
   <time name="total">   77.21   77.72</time>
   <energy>
    <i name="e_fr_energy">   -851.50592336 </i>
    <i name="e_wo_entrp">   -851.50592336 </i>
    <i name="e_0_energy">   -851.50592336 </i>
   </energy>
  </scstep>
  <scstep>
   <time name="dav">   67.90   68.32</time>
   <time name="total">   79.01   79.57</time>
   <energy>
    <i name="e_fr_energy">   -851.50593858 </i>
    <i name="e_wo_entrp">   -851.50593858 </i>
    <i name="e_0_energy">   -851.50593858 </i>
   </energy>
  </scstep>
  <scstep>
   <time name="dav">   65.16   65.55</time>
   <time name="total">   70.62   71.08</time>
   <energy>
    <i name="alphaZ">    196.80145815 </i>
    <i name="ewald">  39347.82240810 </i>
    <i name="hartreedc"> -53203.47109243 </i>
    <i name="XCdc">   1407.43864998 </i>
    <i name="pawpsdc">  39775.18178464 </i>
    <i name="pawaedc"> -39858.54855113 </i>
    <i name="eentropy">     -0.00000000 </i>
    <i name="bandstr">  -4611.57370500 </i>
    <i name="atom">  16094.84310894 </i>
    <i name="e_fr_energy">   -851.50593873 </i>
    <i name="e_wo_entrp">   -851.50593873 </i>
    <i name="e_0_energy">   -851.50593873 </i>
   </energy>
  </scstep>
  <structure>
   <crystal>
    <varray name="basis" >
     <v>      17.27103806       0.00000000       0.00000000 </v>
     <v>      -8.63551903      14.95715771       0.00000000 </v>
     <v>       0.00000000       0.00000000      15.00000000 </v>
    </varray>
    <i name="volume">   3874.88459904 </i>
    <varray name="rec_basis" >
     <v>       0.05790040       0.03342881       0.00000000 </v>
     <v>       0.00000000       0.06685762       0.00000000 </v>
     <v>       0.00000000       0.00000000       0.06666667 </v>
    </varray>
   </crystal>
   <varray name="positions" >
    <v>       0.99861400       0.99869172       0.50140065 </v>
    <v>       0.99808391       0.14122432       0.49876779 </v>
    <v>       0.99777972       0.28417974       0.49775162 </v>
    <v>       0.99786626       0.42733629       0.49897238 </v>
    <v>       0.99831189       0.57037643       0.50163457 </v>
    <v>       0.99930960       0.71349068       0.50493179 </v>
    <v>       0.99951236       0.85650184       0.50495193 </v>
    <v>       0.14166482       0.99895392       0.49484110 </v>
    <v>       0.14130553       0.14160006       0.49407887 </v>
    <v>       0.14006503       0.28354544       0.49301179 </v>
    <v>       0.13991695       0.42704377       0.49497597 </v>
    <v>       0.14106204       0.57017554       0.49507714 </v>
    <v>       0.14152627       0.71312147       0.49658625 </v>
    <v>       0.14172221       0.85606107       0.49632990 </v>
    <v>       0.28428256       0.99848440       0.49349135 </v>
    <v>       0.28430814       0.14116303       0.49134360 </v>
    <v>       0.28447716       0.28483200       0.48885517 </v>
    <v>       0.28100923       0.42588794       0.49475586 </v>
    <v>       0.28416159       0.57012313       0.49862973 </v>
    <v>       0.28425626       0.71352317       0.49660821 </v>
    <v>       0.28428182       0.85610649       0.49473500 </v>
    <v>       0.42736994       0.99877417       0.49705652 </v>
    <v>       0.42719624       0.14080230       0.49670745 </v>
    <v>       0.42609083       0.28021894       0.49614058 </v>
    <v>       0.42621778       0.71604239       0.49509158 </v>
    <v>       0.42728419       0.85660904       0.49810052 </v>
    <v>       0.57020104       0.99907603       0.50229636 </v>
    <v>       0.57011917       0.14129211       0.50230410 </v>
    <v>       0.57098109       0.28444810       0.50672179 </v>
    <v>       0.57131610       0.85677202       0.50546839 </v>
    <v>       0.71312488       0.99895017       0.50848031 </v>
    <v>       0.71307663       0.14176319       0.50442217 </v>
    <v>       0.71299817       0.28462859       0.50827543 </v>
    <v>       0.71213940       0.42649125       0.52182213 </v>
    <v>       0.72248677       0.57447625       0.55493739 </v>
    <v>       0.72356282       0.71992298       0.55835815 </v>
    <v>       0.71256218       0.85657295       0.52279187 </v>
    <v>       0.85595001       0.99899789       0.50963129 </v>
    <v>       0.85550980       0.14157523       0.50372158 </v>
    <v>       0.85542376       0.28444255       0.50350985 </v>
    <v>       0.85564751       0.42743047       0.50908462 </v>
    <v>       0.85656524       0.57099349       0.51785859 </v>
    <v>       0.85878628       0.71479526       0.52527052 </v>
    <v>       0.85695730       0.85647211       0.51805120 </v>
    <v>       0.04611783       0.09394021       0.49763523 </v>
    <v>       0.04495793       0.23611470       0.49577743 </v>
    <v>       0.04484518       0.37938998       0.49670942 </v>
    <v>       0.04583604       0.52263700       0.49781364 </v>
    <v>       0.04630733       0.66564326       0.50026383 </v>
    <v>       0.04669876       0.80859297       0.50168655 </v>
    <v>       0.04653973       0.95134271       0.49977159 </v>
    <v>       0.18907543       0.09381097       0.49268942 </v>
    <v>       0.18843982       0.23669096       0.49254722 </v>
    <v>       0.18600459       0.37834131       0.49360732 </v>
    <v>       0.18819997       0.52221795       0.49444960 </v>
    <v>       0.18897336       0.66570290       0.49584556 </v>
    <v>       0.18923902       0.80848497       0.49545794 </v>
    <v>       0.18925769       0.95114229       0.49421101 </v>
    <v>       0.33205201       0.09378373       0.49338069 </v>
    <v>       0.33311887       0.23648006       0.49057760 </v>
    <v>       0.32569930       0.37734301       0.48557237 </v>
    <v>       0.32530372       0.51895401       0.50578188 </v>
    <v>       0.33302984       0.66700719       0.49744197 </v>
    <v>       0.33206816       0.80858806       0.49598098 </v>
    <v>       0.33192328       0.95110484       0.49467455 </v>
    <v>       0.47498855       0.09356827       0.49863855 </v>
    <v>       0.47437655       0.23555169       0.49974988 </v>
    <v>       0.47462437       0.80904862       0.49878379 </v>
    <v>       0.47505111       0.95165287       0.49927620 </v>
    <v>       0.61771655       0.09398894       0.50314709 </v>
    <v>       0.61793840       0.23654169       0.50605469 </v>
    <v>       0.61911465       0.37759524       0.51544243 </v>
    <v>       0.61955740       0.81187948       0.51524929 </v>
    <v>       0.61809511       0.95170699       0.50566996 </v>
    <v>       0.76062054       0.09423264       0.50550070 </v>
    <v>       0.76055393       0.23685712       0.50521798 </v>
    <v>       0.76056663       0.37973679       0.51353805 </v>
    <v>       0.76154362       0.52346245       0.53174854 </v>
    <v>       0.76614740       0.66861836       0.54860338 </v>
    <v>       0.76224111       0.80939250       0.53332929 </v>
    <v>       0.76085806       0.95164546       0.51415828 </v>
    <v>       0.90303839       0.09369117       0.50378900 </v>
    <v>       0.90278244       0.23666628       0.50131612 </v>
    <v>       0.90280663       0.37984108       0.50341945 </v>
    <v>       0.90331902       0.52296205       0.50862844 </v>
    <v>       0.90458994       0.66610503       0.51579979 </v>
    <v>       0.90487761       0.80930235       0.51598864 </v>
    <v>       0.90368065       0.95121280       0.50866693 </v>
    <v>       0.46300459       0.35208458       0.49868214 </v>
    <v>       0.58290599       0.41359633       0.51677582 </v>
    <v>       0.58390873       0.73957163       0.51595448 </v>
    <v>       0.46325964       0.68119423       0.49058215 </v>
    <v>       0.54572008       0.57041944       0.37772058 </v>
    <v>       0.54258358       0.56647329       0.47971104 </v>
    <v>       0.41554429       0.42742600       0.46882966 </v>
    <v>       0.41344907       0.55830502       0.52924227 </v>
    <v>       0.63986414       0.67871611       0.59377439 </v>
    <v>       0.63616490       0.53185824       0.58394364 </v>
    <v>       0.58105161       0.60020953       0.43009429 </v>
   </varray>
  </structure>
  <varray name="forces" >
   <v>       0.00034376      -0.00032569       0.00343070 </v>
   <v>      -0.00036648      -0.00064745       0.00269076 </v>
   <v>      -0.00039056      -0.00067533       0.00260862 </v>
   <v>      -0.00032217      -0.00033398       0.00385896 </v>
   <v>       0.00002155      -0.00003299       0.00541538 </v>
   <v>       0.00024987      -0.00002279       0.00490425 </v>
   <v>       0.00034587      -0.00030981       0.00428276 </v>
   <v>       0.00026501      -0.00011795       0.00361436 </v>
   <v>      -0.00005923      -0.00015195       0.00145859 </v>
   <v>      -0.00037950      -0.00038120       0.00056437 </v>
   <v>      -0.00050753      -0.00038068       0.00095887 </v>
   <v>       0.00011606      -0.00034055       0.00052395 </v>
   <v>       0.00018790      -0.00017637       0.00278181 </v>
   <v>       0.00022808      -0.00008325       0.00382608 </v>
   <v>       0.00012257       0.00007147       0.00256471 </v>
   <v>      -0.00032722       0.00024540       0.00111151 </v>
   <v>       0.00012362       0.00014129      -0.00107038 </v>
   <v>       0.00021675       0.00042120      -0.00361622 </v>
   <v>      -0.00009068       0.00046725      -0.00064400 </v>
   <v>      -0.00002349      -0.00000868       0.00055996 </v>
   <v>       0.00012709      -0.00002279       0.00252507 </v>
   <v>       0.00014426      -0.00018453       0.00274445 </v>
   <v>      -0.00029753      -0.00046086       0.00199627 </v>
   <v>      -0.00057522       0.00086965       0.00332936 </v>
   <v>      -0.00017674      -0.00000297      -0.00054927 </v>
   <v>      -0.00005619       0.00004111       0.00119141 </v>
   <v>      -0.00004310      -0.00011026       0.00118173 </v>
   <v>       0.00027696      -0.00037860       0.00241942 </v>
   <v>      -0.00017816      -0.00015491       0.00386396 </v>
   <v>      -0.00062915      -0.00015328       0.00107955 </v>
   <v>      -0.00340079       0.00070684       0.00283749 </v>
   <v>      -0.00030625      -0.00016464       0.00174297 </v>
   <v>       0.00020440       0.00000237       0.00261595 </v>
   <v>       0.00125082       0.00057366       0.00426603 </v>
   <v>       0.00050162      -0.00098000       0.00431004 </v>
   <v>       0.00043640      -0.00069630       0.00378209 </v>
   <v>      -0.00042890      -0.00060445       0.00278388 </v>
   <v>      -0.00011851      -0.00030129       0.00341932 </v>
   <v>      -0.00079319      -0.00015083       0.00349498 </v>
   <v>      -0.00036871      -0.00032122       0.00333893 </v>
   <v>      -0.00009794      -0.00028097       0.00468595 </v>
   <v>       0.00015099      -0.00040105       0.00489739 </v>
   <v>       0.00071165      -0.00063802       0.00447164 </v>
   <v>       0.00030410      -0.00050163       0.00415953 </v>
   <v>      -0.00002770      -0.00042027       0.00242918 </v>
   <v>       0.00018937      -0.00098496       0.00098683 </v>
   <v>       0.00124299       0.00055791       0.00174069 </v>
   <v>       0.00039611      -0.00019855       0.00400772 </v>
   <v>       0.00010999       0.00024850       0.00350429 </v>
   <v>       0.00006278       0.00014685       0.00450421 </v>
   <v>       0.00004227      -0.00013773       0.00364311 </v>
   <v>      -0.00018061       0.00117931       0.00085452 </v>
   <v>      -0.00016000      -0.00004352       0.00053797 </v>
   <v>      -0.00015275      -0.00031262      -0.00049558 </v>
   <v>       0.00027667      -0.00045523       0.00056206 </v>
   <v>       0.00028594      -0.00031936       0.00051748 </v>
   <v>       0.00022604      -0.00008272       0.00306447 </v>
   <v>       0.00016039       0.00004393       0.00348862 </v>
   <v>      -0.00006971       0.00022851       0.00249795 </v>
   <v>       0.00017706       0.00064789       0.00180317 </v>
   <v>       0.00017398       0.00077637      -0.00708589 </v>
   <v>       0.00154947      -0.00185697      -0.00313633 </v>
   <v>       0.00009896      -0.00012599      -0.00011867 </v>
   <v>       0.00002436      -0.00015526       0.00141288 </v>
   <v>      -0.00011322       0.00044982       0.00124560 </v>
   <v>      -0.00018293       0.00024445       0.00273117 </v>
   <v>       0.00268543       0.00151234       0.00371018 </v>
   <v>       0.00025805      -0.00051345       0.00042328 </v>
   <v>      -0.00007937      -0.00026271       0.00180548 </v>
   <v>      -0.00010484      -0.00017722       0.00157871 </v>
   <v>      -0.00060419      -0.00013429       0.00294363 </v>
   <v>      -0.00345106      -0.00230832       0.00371414 </v>
   <v>       0.00048255      -0.00050925       0.00220032 </v>
   <v>       0.00053924      -0.00049516       0.00113348 </v>
   <v>      -0.00001717      -0.00043217       0.00324428 </v>
   <v>      -0.00015622      -0.00020429       0.00175000 </v>
   <v>      -0.00009488      -0.00039670       0.00380106 </v>
   <v>      -0.00035516      -0.00019871       0.00451704 </v>
   <v>       0.00020060      -0.00077080       0.00457204 </v>
   <v>      -0.00054264      -0.00027635       0.00368457 </v>
   <v>       0.00068839      -0.00090418       0.00288095 </v>
   <v>      -0.00058687      -0.00076755       0.00292281 </v>
   <v>       0.00026603      -0.00051790       0.00360698 </v>
   <v>       0.00018991      -0.00026238       0.00425508 </v>
   <v>       0.00025592      -0.00015453       0.00552509 </v>
   <v>       0.00036470       0.00009242       0.00420612 </v>
   <v>      -0.00023103      -0.00018786       0.00461604 </v>
   <v>       0.00005921      -0.00062944       0.00346738 </v>
   <v>       0.00007293       0.00095150       0.00533947 </v>
   <v>       0.00036978      -0.00025437       0.00346156 </v>
   <v>      -0.00018156      -0.00033767       0.00195397 </v>
   <v>       0.00005279      -0.00030955      -0.00064077 </v>
   <v>      -0.01746893      -0.02685632      -0.07907547 </v>
   <v>       0.01697851       0.04176150      -0.06196536 </v>
   <v>       0.00074826      -0.00287230      -0.01225572 </v>
   <v>       0.00006924      -0.00023591      -0.00175730 </v>
   <v>      -0.00240481       0.00002801       0.00299973 </v>
   <v>      -0.00199018      -0.00008254       0.00190753 </v>
   <v>       0.00346576       0.00423277      -0.06963493 </v>
[...]
       <r>   -17.2463    10.9154    38.3021 </r>
       <r>   -17.1212     7.5310    39.2442 </r>
       <r>   -16.9961     3.8232    39.7224 </r>
       <r>   -16.8710     9.2995    40.8857 </r>
       <r>   -16.7459     7.3503    41.8052 </r>
       <r>   -16.6208     8.0971    42.8180 </r>
       <r>   -16.4958     2.0619    43.0759 </r>
       <r>   -16.3707    12.1285    44.5931 </r>
       <r>   -16.2456    13.5881    46.2928 </r>
       <r>   -16.1205     5.2583    46.9506 </r>
       <r>   -15.9954     4.1650    47.4716 </r>
       <r>   -15.8703     2.1845    47.7449 </r>
       <r>   -15.7452     0.6196    47.8224 </r>
       <r>   -15.6201     3.3950    48.2471 </r>
       <r>   -15.4950     4.0882    48.7585 </r>
       <r>   -15.3699     6.7734    49.6057 </r>
       <r>   -15.2449     9.8311    50.8355 </r>
       <r>   -15.1198     5.8903    51.5723 </r>
       <r>   -14.9947    12.3551    53.1178 </r>
       <r>   -14.8696     9.7903    54.3425 </r>
       <r>   -14.7445     5.7172    55.0577 </r>
       <r>   -14.6194     6.7335    55.9000 </r>
       <r>   -14.4943    11.0226    57.2788 </r>
       <r>   -14.3692     9.9415    58.5224 </r>
       <r>   -14.2441    12.8455    60.1292 </r>
       <r>   -14.1190     9.6667    61.3384 </r>
       <r>   -13.9939     4.1084    61.8523 </r>
       <r>   -13.8689     7.0490    62.7341 </r>
       <r>   -13.7438     5.6225    63.4374 </r>
       <r>   -13.6187     8.7641    64.5337 </r>
       <r>   -13.4936     7.4024    65.4597 </r>
       <r>   -13.3685     7.1121    66.3494 </r>
       <r>   -13.2434     9.2687    67.5088 </r>
       <r>   -13.1183     5.1641    68.1548 </r>
       <r>   -12.9932     5.3154    68.8197 </r>
       <r>   -12.8681    10.2875    70.1065 </r>
       <r>   -12.7430     5.1848    70.7551 </r>
       <r>   -12.6180    11.2152    72.1580 </r>
       <r>   -12.4929    10.0184    73.4112 </r>
       <r>   -12.3678    11.0583    74.7945 </r>
       <r>   -12.2427    11.4122    76.2221 </r>
       <r>   -12.1176     8.1752    77.2447 </r>
       <r>   -11.9925     9.5001    78.4331 </r>
       <r>   -11.8674     4.9725    79.0551 </r>
       <r>   -11.7423    10.1276    80.3219 </r>
       <r>   -11.6172     6.5338    81.1393 </r>
       <r>   -11.4921    12.5837    82.7133 </r>
       <r>   -11.3671    11.9838    84.2124 </r>
       <r>   -11.2420     9.1711    85.3596 </r>
       <r>   -11.1169    19.1889    87.7600 </r>
       <r>   -10.9918    12.9340    89.3779 </r>
       <r>   -10.8667    10.7413    90.7215 </r>
       <r>   -10.7416     7.7568    91.6918 </r>
       <r>   -10.6165    10.6338    93.0220 </r>
       <r>   -10.4914     8.7673    94.1187 </r>
       <r>   -10.3663    11.0981    95.5070 </r>
       <r>   -10.2412    15.4297    97.4371 </r>
       <r>   -10.1161    12.3932    98.9874 </r>
       <r>    -9.9911    17.6333   101.1931 </r>
       <r>    -9.8660    20.3474   103.7384 </r>
       <r>    -9.7409    15.1081   105.6283 </r>
       <r>    -9.6158    21.1733   108.2768 </r>
       <r>    -9.4907    17.9124   110.5175 </r>
       <r>    -9.3656    20.0374   113.0240 </r>
       <r>    -9.2405    17.2153   115.1774 </r>
       <r>    -9.1154    18.9008   117.5418 </r>
       <r>    -8.9903    20.2531   120.0752 </r>
       <r>    -8.8652    21.2741   122.7364 </r>
       <r>    -8.7402    30.1876   126.5126 </r>
       <r>    -8.6151    23.5901   129.4635 </r>
       <r>    -8.4900    17.5516   131.6590 </r>
       <r>    -8.3649    20.9702   134.2822 </r>
       <r>    -8.2398    12.9532   135.9025 </r>
       <r>    -8.1147    21.2133   138.5561 </r>
       <r>    -7.9896    24.4486   141.6143 </r>
       <r>    -7.8645    17.0652   143.7490 </r>
       <r>    -7.7394    14.5701   145.5716 </r>
       <r>    -7.6143    19.3608   147.9935 </r>
       <r>    -7.4893    12.9419   149.6124 </r>
       <r>    -7.3642    13.3396   151.2810 </r>
       <r>    -7.2391    16.6027   153.3578 </r>
       <r>    -7.1140    17.9855   155.6077 </r>
       <r>    -6.9889    21.7935   158.3338 </r>
       <r>    -6.8638    16.9383   160.4526 </r>
       <r>    -6.7387    11.8574   161.9359 </r>
       <r>    -6.6136    16.1034   163.9502 </r>
       <r>    -6.4885     7.8245   164.9290 </r>
       <r>    -6.3634     6.5493   165.7483 </r>
       <r>    -6.2384    15.7455   167.7179 </r>
       <r>    -6.1133    16.9642   169.8399 </r>
       <r>    -5.9882    19.9380   172.3340 </r>
       <r>    -5.8631     7.9431   173.3276 </r>
       <r>    -5.7380    15.1839   175.2269 </r>
       <r>    -5.6129    13.3852   176.9013 </r>
       <r>    -5.4878    10.8372   178.2569 </r>
       <r>    -5.3627     8.1584   179.2775 </r>
       <r>    -5.2376    11.0119   180.6550 </r>
       <r>    -5.1125     3.0397   181.0352 </r>
       <r>    -4.9874    14.0903   182.7978 </r>
       <r>    -4.8624    19.3374   185.2167 </r>
       <r>    -4.7373    15.9305   187.2094 </r>
       <r>    -4.6122     3.0710   187.5936 </r>
       <r>    -4.4871     9.1273   188.7353 </r>
       <r>    -4.3620     4.2188   189.2630 </r>
       <r>    -4.2369     3.4131   189.6900 </r>
       <r>    -4.1118     7.6745   190.6500 </r>
       <r>    -3.9867     8.3116   191.6897 </r>
       <r>    -3.8616     4.6663   192.2734 </r>
       <r>    -3.7365     8.0065   193.2749 </r>
       <r>    -3.6115     5.6262   193.9787 </r>
       <r>    -3.4864     0.1700   194.0000 </r>
       <r>    -3.3613     0.0361   194.0045 </r>
       <r>    -3.2362     2.6257   194.3330 </r>
       <r>    -3.1111     6.0775   195.0932 </r>
       <r>    -2.9860     1.7153   195.3078 </r>
       <r>    -2.8609     1.5317   195.4994 </r>
       <r>    -2.7358     0.0050   195.5000 </r>
       <r>    -2.6107     0.4277   195.5535 </r>
       <r>    -2.4856     3.5260   195.9946 </r>
       <r>    -2.3606     0.0434   196.0000 </r>
       <r>    -2.2355     0.0565   196.0071 </r>
       <r>    -2.1104     3.5824   196.4552 </r>
       <r>    -1.9853     0.3582   196.5000 </r>
       <r>    -1.8602     0.0039   196.5005 </r>
       <r>    -1.7351     1.4846   196.6862 </r>
       <r>    -1.6100     2.2255   196.9646 </r>
       <r>    -1.4849     6.3853   197.7633 </r>
       <r>    -1.3598     1.8864   197.9993 </r>
       <r>    -1.2347     0.2712   198.0332 </r>
       <r>    -1.1096     4.8065   198.6345 </r>
       <r>    -0.9846     6.1186   199.3999 </r>
       <r>    -0.8595     8.5306   200.4670 </r>
       <r>    -0.7344    16.2964   202.5055 </r>
       <r>    -0.6093     3.9571   203.0005 </r>
       <r>    -0.4842     8.6453   204.0819 </r>
       <r>    -0.3591    11.7482   205.5515 </r>
       <r>    -0.2340     6.0894   206.3132 </r>
       <r>    -0.1089     5.4773   206.9984 </r>
       <r>     0.0162     8.7963   208.0987 </r>
       <r>     0.1413     7.5124   209.0384 </r>
       <r>     0.2663    13.5242   210.7302 </r>
       <r>     0.3914     8.4236   211.7839 </r>
       <r>     0.5165     1.7262   211.9998 </r>
       <r>     0.6416     2.8807   212.3602 </r>
       <r>     0.7667     9.1088   213.4996 </r>
       <r>     0.8918    11.7117   214.9646 </r>
       <r>     1.0169     8.1992   215.9903 </r>
       <r>     1.1420     9.0123   217.1176 </r>
       <r>     1.2671     6.1945   217.8925 </r>
       <r>     1.3922     8.7800   218.9908 </r>
       <r>     1.5172    12.3024   220.5297 </r>
       <r>     1.6423    19.9601   223.0265 </r>
       <r>     1.7674    12.8969   224.6398 </r>
       <r>     1.8925    10.4521   225.9472 </r>
       <r>     2.0176    15.6545   227.9055 </r>
       <r>     2.1427    19.3644   230.3278 </r>
       <r>     2.2678    18.0901   232.5906 </r>
       <r>     2.3929    18.3651   234.8879 </r>
       <r>     2.5180    23.7957   237.8646 </r>
       <r>     2.6431     6.8033   238.7156 </r>
       <r>     2.7681    18.5811   241.0399 </r>
       <r>     2.8932    24.8318   244.1461 </r>
       <r>     3.0183    39.2744   249.0590 </r>
       <r>     3.1434    21.8295   251.7896 </r>
       <r>     3.2685    23.3113   254.7056 </r>
       <r>     3.3936    18.1719   256.9788 </r>
       <r>     3.5187    18.9266   259.3463 </r>
       <r>     3.6438    22.4747   262.1577 </r>
       <r>     3.7689    14.2277   263.9374 </r>
       <r>     3.8940    29.7994   267.6650 </r>
       <r>     4.0191    21.4116   270.3434 </r>
       <r>     4.1441    18.6935   272.6818 </r>
       <r>     4.2692    18.4786   274.9933 </r>
       <r>     4.3943    30.6489   278.8272 </r>
       <r>     4.5194     9.3454   279.9962 </r>
       <r>     4.6445     0.0305   280.0000 </r>
       <r>     4.7696     0.0000   280.0000 </r>
       <r>     4.8947     0.0000   280.0000 </r>
       <r>     5.0198     0.0000   280.0000 </r>
       <r>     5.1449     0.0000   280.0000 </r>
       <r>     5.2700     0.0000   280.0000 </r>
       <r>     5.3950     0.0000   280.0000 </r>
       <r>     5.5201     0.0000   280.0000 </r>
       <r>     5.6452     0.0000   280.0000 </r>
       <r>     5.7703     0.0000   280.0000 </r>
       <r>     5.8954     0.0000   280.0000 </r>
       <r>     6.0205     0.0000   280.0000 </r>
       <r>     6.1456     0.0000   280.0000 </r>
      </set>
     </set>
    </array>
   </total>
  </dos>
 </calculation>
 <structure name="finalpos" >
  <crystal>
   <varray name="basis" >
    <v>      17.27103806       0.00000000       0.00000000 </v>
    <v>      -8.63551903      14.95715771       0.00000000 </v>
    <v>       0.00000000       0.00000000      15.00000000 </v>
   </varray>
   <i name="volume">   3874.88459904 </i>
   <varray name="rec_basis" >
    <v>       0.05790040       0.03342881       0.00000000 </v>
    <v>       0.00000000       0.06685762       0.00000000 </v>
    <v>       0.00000000       0.00000000       0.06666667 </v>
   </varray>
  </crystal>
  <varray name="positions" >
   <v>       0.99864683       0.99868363       0.50297106 </v>
   <v>       0.99821515       0.14129243       0.50039612 </v>
   <v>       0.99801732       0.28427417       0.49962550 </v>
   <v>       0.99813190       0.42739828       0.50101060 </v>
   <v>       0.99856586       0.57043167       0.50388646 </v>
   <v>       0.99946503       0.71351377       0.50702817 </v>
   <v>       0.99952147       0.85649462       0.50652368 </v>
   <v>       0.14168451       0.99895100       0.49653497 </v>
   <v>       0.14136613       0.14159054       0.49602339 </v>
   <v>       0.14028988       0.28364121       0.49486927 </v>
   <v>       0.14024358       0.42714499       0.49648351 </v>
   <v>       0.14129066       0.57022002       0.49676990 </v>
   <v>       0.14167850       0.71317063       0.49845409 </v>
   <v>       0.14177892       0.85608454       0.49820237 </v>
   <v>       0.28430850       0.99849964       0.49476847 </v>
   <v>       0.28432992       0.14112946       0.49287438 </v>
   <v>       0.28456405       0.28478228       0.49075778 </v>
   <v>       0.28139656       0.42600383       0.49503296 </v>
   <v>       0.28449623       0.57026558       0.49851182 </v>
   <v>       0.28436659       0.71361571       0.49718282 </v>
   <v>       0.28432033       0.85617880       0.49595452 </v>
   <v>       0.42742641       0.99885556       0.49761149 </v>
   <v>       0.42723550       0.14078995       0.49754100 </v>
   <v>       0.42606484       0.28013473       0.49872953 </v>
   <v>       0.42631197       0.71631767       0.49410251 </v>
   <v>       0.42730308       0.85676687       0.49799250 </v>
   <v>       0.57027032       0.99921502       0.50201532 </v>
   <v>       0.57021522       0.14130954       0.50278244 </v>
   <v>       0.57105041       0.28429635       0.50743364 </v>
   <v>       0.57131877       0.85706501       0.50382502 </v>
   <v>       0.71318146       0.99902980       0.50793828 </v>
   <v>       0.71319562       0.14182467       0.50478708 </v>
   <v>       0.71312966       0.28460365       0.50902486 </v>
   <v>       0.71218913       0.42636223       0.52166056 </v>
   <v>       0.72172837       0.57417136       0.55202101 </v>
   <v>       0.72212503       0.71892719       0.55351801 </v>
   <v>       0.71231795       0.85647067       0.52065953 </v>
   <v>       0.85594497       0.99897312       0.50999054 </v>
   <v>       0.85565270       0.14164069       0.50460065 </v>
   <v>       0.85561542       0.28447541       0.50491110 </v>
   <v>       0.85584576       0.42744309       0.51057056 </v>
   <v>       0.85664407       0.57094441       0.51875198 </v>
   <v>       0.85869079       0.71469623       0.52529311 </v>
   <v>       0.85678019       0.85635941       0.51811471 </v>
   <v>       0.04618537       0.09395189       0.49938609 </v>
   <v>       0.04516720       0.23619690       0.49765743 </v>
   <v>       0.04514086       0.37948487       0.49864530 </v>
   <v>       0.04610344       0.52270696       0.49996931 </v>
   <v>       0.04649408       0.66568944       0.50249620 </v>
   <v>       0.04676059       0.80860885       0.50361953 </v>
   <v>       0.04656466       0.95133765       0.50147207 </v>
   <v>       0.18910024       0.09379695       0.49431898 </v>
   <v>       0.18855672       0.23670233       0.49455358 </v>
   <v>       0.18635347       0.37844632       0.49499531 </v>
   <v>       0.18848847       0.52231481       0.49558345 </v>
   <v>       0.18912948       0.66575246       0.49725393 </v>
   <v>       0.18929933       0.80852100       0.49716315 </v>
   <v>       0.18929157       0.95116597       0.49585108 </v>
   <v>       0.33208429       0.09377126       0.49449691 </v>
   <v>       0.33313982       0.23641652       0.49263146 </v>
   <v>       0.32596621       0.37727348       0.48638863 </v>
   <v>       0.32592436       0.51925028       0.50460814 </v>
   <v>       0.33319363       0.66714471       0.49715163 </v>
   <v>       0.33210554       0.80867751       0.49660031 </v>
   <v>       0.33196884       0.95116038       0.49572092 </v>
   <v>       0.47507814       0.09361365       0.49915325 </v>
   <v>       0.47440247       0.23547812       0.50111771 </v>
   <v>       0.47463019       0.80927879       0.49777864 </v>
   <v>       0.47511903       0.95178293       0.49932050 </v>
   <v>       0.61782898       0.09407098       0.50329175 </v>
   <v>       0.61805972       0.23648938       0.50674342 </v>
   <v>       0.61919218       0.37742118       0.51519729 </v>
   <v>       0.61942202       0.81205787       0.51262919 </v>
   <v>       0.61817049       0.95189963       0.50478038 </v>
   <v>       0.76073580       0.09430417       0.50569341 </v>
   <v>       0.76071487       0.23688760       0.50608773 </v>
   <v>       0.76070790       0.37969522       0.51427842 </v>
   <v>       0.76141077       0.52328513       0.53106389 </v>
   <v>       0.76545685       0.66821950       0.54594155 </v>
   <v>       0.76169877       0.80906179       0.53110169 </v>
   <v>       0.76080938       0.95164064       0.51339429 </v>
   <v>       0.90313327       0.09372033       0.50480010 </v>
   <v>       0.90300030       0.23674009       0.50282163 </v>
   <v>       0.90303764       0.37987780       0.50519857 </v>
   <v>       0.90353428       0.52299074       0.51037079 </v>
   <v>       0.90466558       0.66606740       0.51699159 </v>
   <v>       0.90478042       0.80924118       0.51667859 </v>
   <v>       0.90364766       0.95115938       0.50947672 </v>
   <v>       0.46283600       0.35194938       0.50261870 </v>
   <v>       0.58291557       0.41330942       0.51563027 </v>
   <v>       0.58347061       0.73984006       0.51252572 </v>
   <v>       0.46336106       0.68155354       0.48913406 </v>
   <v>       0.54401328       0.56986243       0.35565311 </v>
   <v>       0.54366469       0.56815526       0.45765373 </v>
   <v>       0.41567308       0.42686181       0.46899865 </v>
   <v>       0.41472581       0.55896617       0.52541923 </v>
   <v>       0.63623116       0.67583661       0.58340970 </v>
   <v>       0.63451656       0.53167458       0.57822294 </v>
   <v>       0.58073931       0.60099453       0.40696637 </v>
  </varray>
  <varray name="selective"  type="logical" >
   <v type="logical" >  T  T  T </v>
   <v type="logical" >  T  T  T </v>
   <v type="logical" >  T  T  T </v>
   <v type="logical" >  T  T  T </v>
   <v type="logical" >  T  T  T </v>
   <v type="logical" >  T  T  T </v>
   <v type="logical" >  T  T  T </v>
   <v type="logical" >  T  T  T </v>
   <v type="logical" >  T  T  T </v>
   <v type="logical" >  T  T  T </v>
   <v type="logical" >  T  T  T </v>
   <v type="logical" >  T  T  T </v>
   <v type="logical" >  T  T  T </v>
   <v type="logical" >  T  T  T </v>
   <v type="logical" >  T  T  T </v>
   <v type="logical" >  T  T  T </v>
   <v type="logical" >  T  T  T </v>
   <v type="logical" >  T  T  T </v>
   <v type="logical" >  T  T  T </v>
   <v type="logical" >  T  T  T </v>
   <v type="logical" >  T  T  T </v>
   <v type="logical" >  T  T  T </v>
   <v type="logical" >  T  T  T </v>
   <v type="logical" >  T  T  T </v>
   <v type="logical" >  T  T  T </v>
   <v type="logical" >  T  T  T </v>
   <v type="logical" >  T  T  T </v>
   <v type="logical" >  T  T  T </v>
   <v type="logical" >  T  T  T </v>
   <v type="logical" >  T  T  T </v>
   <v type="logical" >  T  T  T </v>
   <v type="logical" >  T  T  T </v>
   <v type="logical" >  T  T  T </v>
   <v type="logical" >  T  T  T </v>
   <v type="logical" >  T  T  T </v>
   <v type="logical" >  T  T  T </v>
   <v type="logical" >  T  T  T </v>
   <v type="logical" >  T  T  T </v>
   <v type="logical" >  T  T  T </v>
   <v type="logical" >  T  T  T </v>
   <v type="logical" >  T  T  T </v>
   <v type="logical" >  T  T  T </v>
   <v type="logical" >  T  T  T </v>
   <v type="logical" >  T  T  T </v>
   <v type="logical" >  T  T  T </v>
   <v type="logical" >  T  T  T </v>
   <v type="logical" >  T  T  T </v>
   <v type="logical" >  T  T  T </v>
   <v type="logical" >  T  T  T </v>
   <v type="logical" >  T  T  T </v>
   <v type="logical" >  T  T  T </v>
   <v type="logical" >  T  T  T </v>
   <v type="logical" >  T  T  T </v>
   <v type="logical" >  T  T  T </v>
   <v type="logical" >  T  T  T </v>
   <v type="logical" >  T  T  T </v>
   <v type="logical" >  T  T  T </v>
   <v type="logical" >  T  T  T </v>
   <v type="logical" >  T  T  T </v>
   <v type="logical" >  T  T  T </v>
   <v type="logical" >  T  T  T </v>
   <v type="logical" >  T  T  T </v>
   <v type="logical" >  T  T  T </v>
   <v type="logical" >  T  T  T </v>
   <v type="logical" >  T  T  T </v>
   <v type="logical" >  T  T  T </v>
   <v type="logical" >  T  T  T </v>
   <v type="logical" >  T  T  T </v>
   <v type="logical" >  T  T  T </v>
   <v type="logical" >  T  T  T </v>
   <v type="logical" >  T  T  T </v>
   <v type="logical" >  T  T  T </v>
   <v type="logical" >  T  T  T </v>
   <v type="logical" >  T  T  T </v>
   <v type="logical" >  T  T  T </v>
   <v type="logical" >  T  T  T </v>
   <v type="logical" >  T  T  T </v>
   <v type="logical" >  T  T  T </v>
   <v type="logical" >  T  T  T </v>
   <v type="logical" >  T  T  T </v>
   <v type="logical" >  T  T  T </v>
   <v type="logical" >  T  T  T </v>
   <v type="logical" >  T  T  T </v>
   <v type="logical" >  T  T  T </v>
   <v type="logical" >  T  T  T </v>
   <v type="logical" >  T  T  T </v>
   <v type="logical" >  T  T  T </v>
   <v type="logical" >  T  T  T </v>
   <v type="logical" >  T  T  T </v>
   <v type="logical" >  T  T  T </v>
   <v type="logical" >  T  T  T </v>
   <v type="logical" >  T  T  T </v>
   <v type="logical" >  T  T  T </v>
   <v type="logical" >  T  T  T </v>
   <v type="logical" >  T  T  T </v>
   <v type="logical" >  T  T  T </v>
   <v type="logical" >  T  T  T </v>
   <v type="logical" >  T  T  T </v>
   <v type="logical" >  T  T  T </v>
  </varray>
  <nose>
   <v>      -3.00000000       0.00000000       0.00010000       0.00010000 </v>
  </nose>
 </structure>
</modeling>
