unknown system                          
           1
    17.271038    0.000000    0.000000
    -8.635519   14.957158    0.000000
     0.000000    0.000000   15.000000
   C    H    F    O 
    88     6     4     1
Direct configuration=     1
   0.99861400  0.99869172  0.50140065
   0.99808391  0.14122432  0.49876779
   0.99777972  0.28417974  0.49775162
   0.99786626  0.42733629  0.49897238
   0.99831189  0.57037643  0.50163457
   0.99930960  0.71349068  0.50493179
   0.99951236  0.85650184  0.50495193
   0.14166482  0.99895392  0.49484110
   0.14130553  0.14160006  0.49407887
   0.14006503  0.28354544  0.49301179
   0.13991695  0.42704377  0.49497597
   0.14106204  0.57017554  0.49507714
   0.14152627  0.71312147  0.49658625
   0.14172221  0.85606107  0.49632990
   0.28428256  0.99848440  0.49349135
   0.28430814  0.14116303  0.49134360
   0.28447716  0.28483200  0.48885517
   0.28100923  0.42588794  0.49475586
   0.28416159  0.57012313  0.49862973
   0.28425626  0.71352317  0.49660821
   0.28428182  0.85610649  0.49473500
   0.42736994  0.99877417  0.49705652
   0.42719624  0.14080230  0.49670745
   0.42609083  0.28021894  0.49614058
   0.42621778  0.71604239  0.49509158
   0.42728419  0.85660904  0.49810052
   0.57020104  0.99907603  0.50229636
   0.57011917  0.14129211  0.50230410
   0.57098109  0.28444810  0.50672179
   0.57131610  0.85677202  0.50546839
   0.71312488  0.99895017  0.50848031
   0.71307663  0.14176319  0.50442217
   0.71299817  0.28462859  0.50827543
   0.71213940  0.42649125  0.52182213
   0.72248677  0.57447625  0.55493739
   0.72356282  0.71992298  0.55835815
   0.71256218  0.85657295  0.52279187
   0.85595001  0.99899789  0.50963129
   0.85550980  0.14157523  0.50372158
   0.85542376  0.28444255  0.50350985
   0.85564751  0.42743047  0.50908462
   0.85656524  0.57099349  0.51785859
   0.85878628  0.71479526  0.52527052
   0.85695730  0.85647211  0.51805120
   0.04611783  0.09394021  0.49763523
   0.04495793  0.23611470  0.49577743
   0.04484518  0.37938998  0.49670942
   0.04583604  0.52263700  0.49781364
   0.04630733  0.66564326  0.50026383
   0.04669876  0.80859297  0.50168655
   0.04653973  0.95134271  0.49977159
   0.18907543  0.09381097  0.49268942
   0.18843982  0.23669096  0.49254722
   0.18600459  0.37834131  0.49360732
   0.18819997  0.52221795  0.49444960
   0.18897336  0.66570290  0.49584556
   0.18923902  0.80848497  0.49545794
   0.18925769  0.95114229  0.49421101
   0.33205201  0.09378373  0.49338069
   0.33311887  0.23648006  0.49057760
   0.32569930  0.37734301  0.48557237
   0.32530372  0.51895401  0.50578188
   0.33302984  0.66700719  0.49744197
   0.33206816  0.80858806  0.49598098
   0.33192328  0.95110484  0.49467455
   0.47498855  0.09356827  0.49863855
   0.47437655  0.23555169  0.49974988
   0.47462437  0.80904862  0.49878379
   0.47505111  0.95165287  0.49927620
   0.61771655  0.09398894  0.50314709
   0.61793840  0.23654169  0.50605469
   0.61911465  0.37759524  0.51544243
   0.61955740  0.81187948  0.51524929
   0.61809511  0.95170699  0.50566996
   0.76062054  0.09423264  0.50550070
   0.76055393  0.23685712  0.50521798
   0.76056663  0.37973679  0.51353805
   0.76154362  0.52346245  0.53174854
   0.76614740  0.66861836  0.54860338
   0.76224111  0.80939250  0.53332929
   0.76085806  0.95164546  0.51415828
   0.90303839  0.09369117  0.50378900
   0.90278244  0.23666628  0.50131612
   0.90280663  0.37984108  0.50341945
   0.90331902  0.52296205  0.50862844
   0.90458994  0.66610503  0.51579979
   0.90487761  0.80930235  0.51598864
   0.90368065  0.95121280  0.50866693
   0.46300459  0.35208458  0.49868214
   0.58290599  0.41359633  0.51677582
   0.58390873  0.73957163  0.51595448
   0.46325964  0.68119423  0.49058215
   0.54572008  0.57041944  0.37772058
   0.54258358  0.56647329  0.47971104
   0.41554429  0.42742600  0.46882966
   0.41344907  0.55830502  0.52924227
   0.63986414  0.67871611  0.59377439
   0.63616490  0.53185824  0.58394364
   0.58105161  0.60020953  0.43009429
Direct configuration=     2
   0.99861384  0.99869140  0.50140458
   0.99808389  0.14122346  0.49877108
   0.99778029  0.28417929  0.49775504
   0.99786689  0.42733615  0.49897721
   0.99831266  0.57037660  0.50164128
   0.99930986  0.71349114  0.50493769
   0.99951235  0.85650184  0.50495683
   0.14166543  0.99895415  0.49484629
   0.14130565  0.14160021  0.49408150
   0.14006513  0.28354521  0.49301422
   0.13991748  0.42704355  0.49497866
   0.14106242  0.57017507  0.49507843
   0.14152688  0.71312133  0.49659021
   0.14172278  0.85606145  0.49633508
   0.28428303  0.99848495  0.49349515
   0.28430821  0.14116382  0.49134640
   0.28447756  0.28483253  0.48885745
   0.28101001  0.42588835  0.49475478
   0.28416231  0.57012307  0.49863139
   0.28425656  0.71352300  0.49660977
   0.28428212  0.85610673  0.49473868
   0.42736996  0.99877449  0.49705995
   0.42719670  0.14080326  0.49671005
   0.42609266  0.28022092  0.49614575
   0.42621792  0.71604186  0.49509151
   0.42728415  0.85660860  0.49810190
   0.57020113  0.99907563  0.50229687
   0.57011889  0.14129232  0.50230629
   0.57098057  0.28444810  0.50672552
   0.57131635  0.85677098  0.50546865
   0.71312605  0.99894901  0.50848211
   0.71307712  0.14176281  0.50442305
   0.71299745  0.28462830  0.50827733
   0.71213773  0.42649032  0.52182550
   0.72248654  0.57447692  0.55494038
   0.72356176  0.71992315  0.55835975
   0.71256235  0.85657230  0.52279325
   0.85595018  0.99899695  0.50963436
   0.85551050  0.14157401  0.50372508
   0.85542388  0.28444217  0.50351319
   0.85564766  0.42743017  0.50908953
   0.85656543  0.57099383  0.51786349
   0.85878580  0.71479580  0.52527472
   0.85695666  0.85647164  0.51805498
   0.04611781  0.09394003  0.49763827
   0.04495685  0.23611354  0.49577902
   0.04484433  0.37938950  0.49671232
   0.04583614  0.52263694  0.49781903
   0.04630764  0.66564381  0.50026805
   0.04669920  0.80859296  0.50169207
   0.04654005  0.95134253  0.49977602
   0.18907566  0.09381188  0.49269253
   0.18843955  0.23669092  0.49254974
   0.18600409  0.37834138  0.49360916
   0.18820019  0.52221793  0.49445203
   0.18897353  0.66570284  0.49584684
   0.18923935  0.80848496  0.49546228
   0.18925789  0.95114235  0.49421607
   0.33205188  0.09378397  0.49338472
   0.33311905  0.23648057  0.49058239
   0.32569960  0.37734392  0.48556984
   0.32530358  0.51895365  0.50578100
   0.33302974  0.66700751  0.49744318
   0.33206846  0.80858834  0.49598318
   0.33192379  0.95110523  0.49467729
   0.47498881  0.09356815  0.49864175
   0.47437598  0.23555179  0.49975376
   0.47462426  0.80904897  0.49878404
   0.47505153  0.95165300  0.49927807
   0.61771664  0.09398868  0.50314796
   0.61793905  0.23654158  0.50605724
   0.61911655  0.37759549  0.51544589
   0.61955651  0.81187972  0.51524985
   0.61809364  0.95170703  0.50566994
   0.76061886  0.09423369  0.50550360
   0.76055367  0.23685685  0.50521884
   0.76056704  0.37973683  0.51354140
   0.76154384  0.52346219  0.53175203
   0.76614757  0.66861466  0.54860638
   0.76224048  0.80939175  0.53333157
   0.76085667  0.95164552  0.51416005
   0.90303628  0.09369169  0.50379174
   0.90278177  0.23666633  0.50132016
   0.90280634  0.37984084  0.50342425
   0.90331903  0.52296179  0.50863465
   0.90459129  0.66610409  0.51580366
   0.90487798  0.80930169  0.51599315
   0.90368099  0.95121239  0.50867008
   0.46300509  0.35208570  0.49868954
   0.58290566  0.41359656  0.51677813
   0.58390833  0.73957126  0.51595479
   0.46325932  0.68119401  0.49058271
   0.54570197  0.57040611  0.37765658
   0.54260197  0.56649721  0.47965634
   0.41554344  0.42742415  0.46882300
   0.41344968  0.55830469  0.52924218
   0.63986102  0.67871356  0.59377355
   0.63616292  0.53185720  0.58394467
   0.58105217  0.60021055  0.42991964
Direct configuration=     3
   0.99861454  0.99869125  0.50140927
   0.99808302  0.14122266  0.49877517
   0.99777977  0.28417864  0.49775973
   0.99786683  0.42733596  0.49898385
   0.99831333  0.57037698  0.50165015
   0.99931097  0.71349155  0.50494504
   0.99951307  0.85650172  0.50496291
   0.14166632  0.99895470  0.49485395
   0.14130583  0.14160054  0.49408604
   0.14006481  0.28354509  0.49301925
   0.13991726  0.42704340  0.49498393
   0.14106291  0.57017488  0.49508122
   0.14152759  0.71312147  0.49659587
   0.14172357  0.85606174  0.49634260
   0.28428375  0.99848561  0.49350107
   0.28430859  0.14116495  0.49135214
   0.28447799  0.28483329  0.48886457
   0.28101057  0.42588898  0.49475866
   0.28416297  0.57012377  0.49863606
   0.28425697  0.71352336  0.49661272
   0.28428281  0.85610722  0.49474414
   0.42737052  0.99877472  0.49706444
   0.42719657  0.14080338  0.49671380
   0.42609316  0.28022280  0.49615381
   0.42621809  0.71604248  0.49509352
   0.42728451  0.85660903  0.49810356
   0.57020124  0.99907593  0.50229634
   0.57011944  0.14129217  0.50230822
   0.57098081  0.28444800  0.50672923
   0.57131559  0.85677124  0.50546725
   0.71312367  0.99894992  0.50848286
   0.71307679  0.14176306  0.50442275
   0.71299807  0.28462853  0.50827828
   0.71213972  0.42649109  0.52182817
   0.72248606  0.57447494  0.55494108
   0.72356141  0.71992126  0.55835785
   0.71256141  0.85657165  0.52279243
   0.85594989  0.99899674  0.50963691
   0.85550935  0.14157425  0.50372878
   0.85542355  0.28444198  0.50351675
   0.85564791  0.42743007  0.50909517
   0.85656581  0.57099340  0.51786855
   0.85878664  0.71479465  0.52527823
   0.85695688  0.85647098  0.51805822
   0.04611783  0.09393965  0.49764244
   0.04495686  0.23611235  0.49578180
   0.04484599  0.37938987  0.49671662
   0.04583715  0.52263697  0.49782649
   0.04630862  0.66564455  0.50027394
   0.04669998  0.80859369  0.50169949
   0.04654058  0.95134273  0.49978197
   0.18907816  0.09381376  0.49269723
   0.18843991  0.23669138  0.49255517
   0.18600447  0.37834132  0.49361432
   0.18820100  0.52221767  0.49445701
   0.18897419  0.66570259  0.49584939
   0.18924017  0.80848526  0.49546874
   0.18925873  0.95114294  0.49422370
   0.33205234  0.09378495  0.49339091
   0.33312049  0.23648236  0.49059143
   0.32570028  0.37734455  0.48557326
   0.32530436  0.51895257  0.50578438
   0.33303023  0.66700755  0.49744624
   0.33206876  0.80858845  0.49598661
   0.33192441  0.95110617  0.49468095
   0.47498906  0.09356898  0.49864566
   0.47437869  0.23555386  0.49975913
   0.47462435  0.80904830  0.49878386
   0.47505157  0.95165297  0.49928002
   0.61771673  0.09398875  0.50314779
   0.61793856  0.23654171  0.50605928
   0.61911275  0.37759373  0.51544696
   0.61955702  0.81187937  0.51524844
   0.61809416  0.95170647  0.50566851
   0.76061925  0.09423221  0.50550496
   0.76055371  0.23685689  0.50521860
   0.76056696  0.37973656  0.51354433
   0.76154336  0.52346196  0.53175480
   0.76614604  0.66861592  0.54860769
   0.76223939  0.80939106  0.53333187
   0.76085711  0.95164444  0.51416067
   0.90303545  0.09369061  0.50379456
   0.90278230  0.23666582  0.50132493
   0.90280699  0.37984072  0.50343006
   0.90331984  0.52296182  0.50864220
   0.90459212  0.66610458  0.51580806
   0.90487768  0.80930161  0.51599796
   0.90368092  0.95121163  0.50867320
   0.46300624  0.35208811  0.49870032
   0.58290628  0.41359629  0.51677879
   0.58390778  0.73957148  0.51595260
   0.46325910  0.68119345  0.49058470
   0.54563265  0.57035645  0.37751483
   0.54266671  0.56655824  0.47951509
   0.41554166  0.42741906  0.46882810
   0.41345043  0.55830529  0.52924729
   0.63985444  0.67870937  0.59376536
   0.63615906  0.53185659  0.58394043
   0.58104411  0.60020160  0.42977657
Direct configuration=     4
   0.99861555  0.99869103  0.50141512
   0.99808246  0.14122153  0.49877900
   0.99777903  0.28417790  0.49776576
   0.99786686  0.42733576  0.49899266
   0.99831429  0.57037749  0.50166145
   0.99931292  0.71349207  0.50495417
   0.99951421  0.85650170  0.50497078
   0.14166791  0.99895709  0.49486310
   0.14130602  0.14160120  0.49409129
   0.14006431  0.28354539  0.49302532
   0.13991716  0.42704331  0.49499167
   0.14106369  0.57017485  0.49508587
   0.14152856  0.71312187  0.49660333
   0.14172466  0.85606204  0.49635286
   0.28428471  0.99848653  0.49350930
   0.28431014  0.14116673  0.49136097
   0.28447820  0.28483414  0.48887591
   0.28101033  0.42588907  0.49476518
   0.28416360  0.57012432  0.49864330
   0.28425751  0.71352392  0.49661699
   0.28428384  0.85610797  0.49475140
   0.42737147  0.99877511  0.49707003
   0.42719668  0.14080374  0.49671922
   0.42609348  0.28022463  0.49616532
   0.42621815  0.71604306  0.49509606
   0.42728513  0.85660980  0.49810561
   0.57020136  0.99907645  0.50229510
   0.57012042  0.14129209  0.50231026
   0.57098151  0.28444777  0.50673333
   0.57131464  0.85677194  0.50546453
   0.71312163  0.99895133  0.50848234
   0.71307608  0.14176341  0.50442162
   0.71299914  0.28462885  0.50827869
   0.71214209  0.42649174  0.52183053
   0.72248488  0.57447190  0.55494053
   0.72356051  0.71991827  0.55835346
   0.71256015  0.85657102  0.52279005
   0.85594904  0.99899655  0.50963938
   0.85550724  0.14157501  0.50373304
   0.85542248  0.28444382  0.50352006
   0.85564844  0.42742999  0.50910215
   0.85656669  0.57099270  0.51787445
   0.85878804  0.71479281  0.52528183
   0.85695735  0.85647021  0.51806156
   0.04611795  0.09393910  0.49764804
   0.04495746  0.23611144  0.49578623
   0.04484862  0.37939042  0.49672276
   0.04583858  0.52263702  0.49783623
   0.04631008  0.66564507  0.50028227
   0.04670117  0.80859471  0.50170928
   0.04654158  0.95134319  0.49978993
   0.18907936  0.09381636  0.49270299
   0.18844073  0.23669209  0.49256341
   0.18600541  0.37834107  0.49362242
   0.18820227  0.52221746  0.49446427
   0.18897518  0.66570224  0.49585335
   0.18924071  0.80848446  0.49547671
   0.18926004  0.95114384  0.49423421
   0.33205318  0.09378639  0.49339924
   0.33311968  0.23648319  0.49060267
   0.32570074  0.37734417  0.48558151
   0.32530616  0.51895389  0.50579051
   0.33303115  0.66700744  0.49745101
   0.33206921  0.80858856  0.49599140
   0.33192517  0.95110726  0.49468606
   0.47498929  0.09357013  0.49865052
   0.47437900  0.23555531  0.49976554
   0.47462461  0.80904741  0.49878342
   0.47505152  0.95165291  0.49928232
   0.61771697  0.09398900  0.50314690
   0.61793795  0.23654183  0.50606131
   0.61910805  0.37759162  0.51544794
   0.61955792  0.81187880  0.51524521
   0.61809540  0.95170570  0.50566599
   0.76062060  0.09422953  0.50550523
   0.76055394  0.23685702  0.50521786
   0.76056683  0.37973628  0.51354743
   0.76154271  0.52346145  0.53175745
   0.76614432  0.66861704  0.54860781
   0.76223817  0.80939012  0.53333091
   0.76085819  0.95164303  0.51416062
   0.90303590  0.09368863  0.50379804
   0.90278325  0.23666505  0.50133078
   0.90280806  0.37984058  0.50343742
   0.90332114  0.52296195  0.50865176
   0.90459229  0.66610552  0.51581382
   0.90487709  0.80930124  0.51600231
   0.90368076  0.95121077  0.50867685
   0.46300782  0.35209134  0.49871460
   0.58290709  0.41359586  0.51677833
   0.58390703  0.73957206  0.51594850
   0.46325879  0.68119267  0.49058788
   0.54552498  0.57028002  0.37731324
   0.54275953  0.56664175  0.47931276
   0.41554084  0.42741522  0.46884104
   0.41345281  0.55830548  0.52925369
   0.63984577  0.67870402  0.59375277
   0.63615608  0.53185867  0.58393540
   0.58103588  0.60019179  0.42961735
Direct configuration=     5
   0.99861573  0.99869029  0.50142291
   0.99808236  0.14121983  0.49878316
   0.99777930  0.28417711  0.49777323
   0.99786811  0.42733550  0.49900394
   0.99831589  0.57037788  0.50167555
   0.99931479  0.71349270  0.50496580
   0.99951398  0.85650154  0.50498018
   0.14166985  0.99896050  0.49487354
   0.14130606  0.14160227  0.49409701
   0.14006375  0.28354619  0.49303020
   0.13991835  0.42704332  0.49500080
   0.14106486  0.57017463  0.49509227
   0.14152973  0.71312181  0.49661244
   0.14172602  0.85606252  0.49636592
   0.28428570  0.99848782  0.49351962
   0.28431208  0.14116884  0.49137175
   0.28447746  0.28483427  0.48888835
   0.28101005  0.42588886  0.49477070
   0.28416439  0.57012435  0.49865109
   0.28425822  0.71352403  0.49662204
   0.28428471  0.85610863  0.49476014
   0.42737219  0.99877596  0.49707682
   0.42719724  0.14080516  0.49672668
   0.42609368  0.28022651  0.49617982
   0.42621822  0.71604239  0.49509849
   0.42728561  0.85660983  0.49810836
   0.57020152  0.99907622  0.50229427
   0.57012075  0.14129247  0.50231338
   0.57098113  0.28444707  0.50673899
   0.57131463  0.85677142  0.50546188
   0.71312490  0.99895016  0.50848077
   0.71307616  0.14176278  0.50442093
   0.71299898  0.28462862  0.50828005
   0.71214011  0.42648999  0.52183432
   0.72248311  0.57447069  0.55494176
   0.72355777  0.71991608  0.55834989
   0.71255970  0.85657006  0.52278848
   0.85594816  0.99899522  0.50964316
   0.85550669  0.14157451  0.50373880
   0.85542295  0.28444363  0.50352522
   0.85564927  0.42742990  0.50911177
   0.85656774  0.57099249  0.51788289
   0.85878819  0.71479197  0.52528756
   0.85695684  0.85646926  0.51806668
   0.04611804  0.09393836  0.49765518
   0.04495729  0.23611079  0.49579224
   0.04484948  0.37939019  0.49673094
   0.04583938  0.52263689  0.49784834
   0.04631140  0.66564498  0.50029380
   0.04670359  0.80859637  0.50172073
   0.04654319  0.95134365  0.49980041
   0.18907903  0.09381865  0.49270953
   0.18844103  0.23669282  0.49257298
   0.18600590  0.37834081  0.49363136
   0.18820215  0.52221767  0.49447140
   0.18897603  0.66570202  0.49585854
   0.18924120  0.80848344  0.49548631
   0.18926131  0.95114492  0.49424737
   0.33205413  0.09378743  0.49340787
   0.33311785  0.23648351  0.49061448
   0.32570089  0.37734365  0.48558942
   0.32530940  0.51895725  0.50579652
   0.33303173  0.66700752  0.49745650
   0.33206985  0.80858899  0.49599743
   0.33192598  0.95110801  0.49469304
   0.47498968  0.09357077  0.49865679
   0.47437620  0.23555515  0.49977352
   0.47462469  0.80904757  0.49878316
   0.47505183  0.95165308  0.49928554
   0.61771732  0.09398908  0.50314648
   0.61793857  0.23654174  0.50606463
   0.61911252  0.37759362  0.51545168
   0.61955728  0.81187862  0.51524169
   0.61809520  0.95170548  0.50566363
   0.76061999  0.09422953  0.50550711
   0.76055365  0.23685695  0.50521811
   0.76056716  0.37973617  0.51355223
   0.76154346  0.52346090  0.53176039
   0.76614353  0.66861455  0.54860891
   0.76223705  0.80938865  0.53333109
   0.76085747  0.95164246  0.51416150
   0.90303623  0.09368757  0.50380325
   0.90278259  0.23666521  0.50133844
   0.90280861  0.37984083  0.50344725
   0.90332229  0.52296177  0.50866448
   0.90459400  0.66610537  0.51582114
   0.90487713  0.80929981  0.51600780
   0.90368079  0.95121008  0.50868235
   0.46300922  0.35209432  0.49873234
   0.58290679  0.41359588  0.51677890
   0.58390577  0.73957235  0.51594465
   0.46325804  0.68119182  0.49059127
   0.54541736  0.57020455  0.37709697
   0.54283991  0.56671762  0.47910924
   0.41554112  0.42741434  0.46884816
   0.41345618  0.55830429  0.52925781
   0.63983589  0.67869753  0.59373773
   0.63615388  0.53186315  0.58393157
   0.58104038  0.60019325  0.42934708
Direct configuration=     6
   0.99861550  0.99868926  0.50143297
   0.99808287  0.14121825  0.49878832
   0.99778016  0.28417646  0.49778236
   0.99787014  0.42733534  0.49901793
   0.99831777  0.57037776  0.50169273
   0.99931690  0.71349570  0.50497947
   0.99951381  0.85650166  0.50499156
   0.14167067  0.99896173  0.49488472
   0.14130585  0.14160369  0.49410360
   0.14006350  0.28354668  0.49303445
   0.13992028  0.42704358  0.49501105
   0.14106587  0.57017444  0.49510065
   0.14153098  0.71312101  0.49662326
   0.14172805  0.85606358  0.49638191
   0.28428674  0.99848917  0.49353204
   0.28431294  0.14117038  0.49138392
   0.28447592  0.28483364  0.48890092
   0.28101115  0.42588978  0.49477475
   0.28416551  0.57012461  0.49865879
   0.28425922  0.71352391  0.49662785
   0.28428534  0.85610898  0.49477027
   0.42737265  0.99877702  0.49708479
   0.42719771  0.14080663  0.49673627
   0.42609343  0.28023009  0.49619590
   0.42621839  0.71604125  0.49510079
   0.42728600  0.85660941  0.49811192
   0.57020205  0.99907560  0.50229420
   0.57012067  0.14129290  0.50231786
   0.57098029  0.28444679  0.50674668
   0.57131536  0.85677036  0.50545949
   0.71312534  0.99894741  0.50848089
   0.71307675  0.14176169  0.50442109
   0.71299845  0.28462841  0.50828289
   0.71213826  0.42648829  0.52184025
   0.72248227  0.57447114  0.55494494
   0.72355425  0.71991447  0.55834768
   0.71255958  0.85656856  0.52278825
   0.85594804  0.99899319  0.50964872
   0.85550804  0.14157311  0.50374635
   0.85542334  0.28444411  0.50353175
   0.85565015  0.42742978  0.50912452
   0.85656908  0.57099274  0.51789433
   0.85878760  0.71479173  0.52529566
   0.85695590  0.85646807  0.51807391
   0.04611813  0.09393745  0.49766369
   0.04495626  0.23611006  0.49579964
   0.04484890  0.37938901  0.49674146
   0.04584002  0.52263660  0.49786290
   0.04631275  0.66564466  0.50030895
   0.04670832  0.80859794  0.50173346
   0.04654301  0.95134233  0.49981277
   0.18907988  0.09382089  0.49271576
   0.18844023  0.23669377  0.49258323
   0.18600610  0.37834105  0.49364039
   0.18820123  0.52221736  0.49447700
   0.18897698  0.66570203  0.49586515
   0.18924219  0.80848321  0.49549797
   0.18926263  0.95114662  0.49426317
   0.33205521  0.09378830  0.49341724
   0.33311711  0.23648441  0.49062706
   0.32570132  0.37734408  0.48559545
   0.32531342  0.51896014  0.50580146
   0.33303200  0.66700775  0.49746243
   0.33207067  0.80858958  0.49600467
   0.33192634  0.95110817  0.49470096
   0.47499044  0.09357135  0.49866463
   0.47437299  0.23555480  0.49978374
   0.47462463  0.80904812  0.49878317
   0.47505252  0.95165348  0.49928983
   0.61771756  0.09398888  0.50314684
   0.61793948  0.23654154  0.50606959
   0.61911540  0.37759439  0.51545636
   0.61955613  0.81187889  0.51523833
   0.61809523  0.95170586  0.50566171
   0.76061884  0.09422996  0.50550948
   0.76055332  0.23685658  0.50521986
   0.76056779  0.37973583  0.51355926
   0.76154442  0.52346014  0.53176492
   0.76614331  0.66860987  0.54861181
   0.76223593  0.80938679  0.53333310
   0.76085617  0.95164186  0.51416375
   0.90303584  0.09368733  0.50381048
   0.90278125  0.23666567  0.50134801
   0.90280905  0.37984115  0.50345985
   0.90332366  0.52296143  0.50868074
   0.90459675  0.66610440  0.51583104
   0.90487734  0.80929788  0.51601535
   0.90368070  0.95120925  0.50869024
   0.46301018  0.35209647  0.49875338
   0.58290641  0.41359595  0.51678110
   0.58390400  0.73957236  0.51594164
   0.46325711  0.68119082  0.49059443
   0.54531943  0.57013657  0.37687692
   0.54290738  0.56678683  0.47890910
   0.41554233  0.42741635  0.46884699
   0.41346107  0.55830204  0.52925857
   0.63982362  0.67868869  0.59371918
   0.63614867  0.53186577  0.58392749
   0.58105317  0.60020218  0.42895851
Direct configuration=     7
   0.99861546  0.99868795  0.50144634
   0.99808343  0.14121747  0.49879573
   0.99777976  0.28417575  0.49779489
   0.99787180  0.42733505  0.49903680
   0.99831956  0.57037695  0.50171540
   0.99932078  0.71349938  0.50499654
   0.99951571  0.85650105  0.50500598
   0.14167033  0.99896049  0.49489881
   0.14130565  0.14160498  0.49411320
   0.14006315  0.28354685  0.49304137
   0.13992112  0.42704364  0.49502498
   0.14106623  0.57017451  0.49511325
   0.14153235  0.71311995  0.49663790
   0.14173253  0.85606600  0.49640333
   0.28428812  0.99849041  0.49354876
   0.28431279  0.14117105  0.49139991
   0.28447447  0.28483344  0.48891840
   0.28101432  0.42589282  0.49478270
   0.28416720  0.57012547  0.49866920
   0.28426070  0.71352431  0.49663616
   0.28428608  0.85610893  0.49478345
   0.42737317  0.99877776  0.49709466
   0.42719800  0.14080736  0.49674753
   0.42609177  0.28023401  0.49621659
   0.42621861  0.71604107  0.49510420
   0.42728660  0.85660959  0.49811672
   0.57020313  0.99907551  0.50229400
   0.57012119  0.14129288  0.50232350
   0.57097868  0.28444614  0.50675436
   0.57131576  0.85677042  0.50545540
   0.71312156  0.99894567  0.50848119
   0.71307730  0.14176118  0.50442086
   0.71299896  0.28462843  0.50828652
   0.71214096  0.42648863  0.52184735
   0.72248251  0.57447001  0.55494714
   0.72355150  0.71991104  0.55834243
   0.71255872  0.85656647  0.52278699
   0.85594857  0.99899169  0.50965568
   0.85550968  0.14157224  0.50375570
   0.85542172  0.28444375  0.50353847
   0.85565118  0.42742974  0.50914153
   0.85657142  0.57099268  0.51790909
   0.85878807  0.71478996  0.52530503
   0.85695578  0.85646635  0.51808251
   0.04611837  0.09393619  0.49767428
   0.04495547  0.23610885  0.49580942
   0.04484923  0.37938744  0.49675667
   0.04584180  0.52263619  0.49788222
   0.04631457  0.66564507  0.50033014
   0.04671332  0.80860002  0.50174956
   0.04654133  0.95134022  0.49982835
   0.18908184  0.09382250  0.49272430
   0.18843826  0.23669499  0.49259672
   0.18600751  0.37834236  0.49365254
   0.18820178  0.52221594  0.49448212
   0.18897876  0.66570194  0.49587527
   0.18924420  0.80848413  0.49551426
   0.18926142  0.95114958  0.49428341
   0.33205679  0.09378975  0.49342814
   0.33311840  0.23648691  0.49064501
   0.32570323  0.37734601  0.48560613
   0.32531791  0.51896093  0.50580915
   0.33303500  0.66701154  0.49746925
   0.33207159  0.80858975  0.49601444
   0.33192655  0.95110829  0.49471199
   0.47499138  0.09357264  0.49867486
   0.47437178  0.23555670  0.49979799
   0.47462477  0.80904736  0.49878310
   0.47505499  0.95165436  0.49929364
   0.61771764  0.09398825  0.50314698
   0.61793914  0.23654161  0.50607568
   0.61911211  0.37759232  0.51546067
   0.61955633  0.81187887  0.51523270
   0.61809637  0.95170532  0.50565865
   0.76061920  0.09422862  0.50551137
   0.76055343  0.23685599  0.50522238
   0.76056832  0.37973498  0.51356827
   0.76154386  0.52345923  0.53177093
   0.76614082  0.66861040  0.54861472
   0.76223409  0.80938442  0.53333490
   0.76085581  0.95163962  0.51416606
   0.90303741  0.09368753  0.50381791
   0.90278118  0.23666543  0.50135996
   0.90281076  0.37984174  0.50347641
   0.90332593  0.52296110  0.50870213
   0.90459963  0.66610472  0.51584469
   0.90487685  0.80929637  0.51602529
   0.90368020  0.95120740  0.50870076
   0.46301098  0.35209880  0.49878091
   0.58290707  0.41359543  0.51678308
   0.58390138  0.73957278  0.51593692
   0.46325615  0.68118910  0.49059867
   0.54518193  0.57004144  0.37657980
   0.54301970  0.56689553  0.47861166
   0.41554320  0.42742004  0.46884776
   0.41346685  0.55830068  0.52925587
   0.63980361  0.67867285  0.59368504
   0.63614161  0.53187181  0.58391897
   0.58104940  0.60019623  0.42850878
Direct configuration=     8
   0.99861540  0.99868654  0.50146306
   0.99808442  0.14121785  0.49880619
   0.99777825  0.28417478  0.49781186
   0.99787315  0.42733435  0.49906145
   0.99832203  0.57037680  0.50174459
   0.99932635  0.71350183  0.50501545
   0.99951889  0.85649933  0.50502377
   0.14166828  0.99895994  0.49491717
   0.14130319  0.14159971  0.49412594
   0.14006266  0.28354842  0.49305451
   0.13992073  0.42704283  0.49504376
   0.14106766  0.57017462  0.49513108
   0.14153482  0.71311922  0.49665605
   0.14173864  0.85606993  0.49642885
   0.28428875  0.99849209  0.49357053
   0.28431405  0.14117239  0.49142060
   0.28447497  0.28483649  0.48894444
   0.28101764  0.42589580  0.49479971
   0.28417086  0.57012732  0.49868391
   0.28426216  0.71352597  0.49664608
   0.28428793  0.85610920  0.49480061
   0.42737482  0.99877843  0.49710631
   0.42719924  0.14080949  0.49676106
   0.42608933  0.28023620  0.49624160
   0.42622095  0.71604313  0.49510959
   0.42728844  0.85661090  0.49812267
   0.57020527  0.99907644  0.50229260
   0.57012293  0.14129311  0.50232976
   0.57097650  0.28444531  0.50676139
   0.57131575  0.85677127  0.50544803
   0.71312493  0.99894766  0.50847701
   0.71307805  0.14176127  0.50441908
   0.71299975  0.28462814  0.50829013
   0.71214324  0.42648846  0.52185359
   0.72248260  0.57446912  0.55494597
   0.72354922  0.71990677  0.55833161
   0.71255786  0.85656429  0.52278239
   0.85594922  0.99899161  0.50966308
   0.85551143  0.14157445  0.50376351
   0.85542064  0.28444315  0.50354568
   0.85565319  0.42742968  0.50916263
   0.85656844  0.57099523  0.51792502
   0.85878969  0.71478805  0.52531438
   0.85695556  0.85646424  0.51808940
   0.04611908  0.09393513  0.49768704
   0.04495604  0.23610830  0.49582194
   0.04485144  0.37938690  0.49677805
   0.04584487  0.52263611  0.49790760
   0.04631726  0.66564630  0.50035797
   0.04671562  0.80860061  0.50176884
   0.04654036  0.95133891  0.49984729
   0.18908257  0.09382215  0.49273798
   0.18843897  0.23669683  0.49261345
   0.18601193  0.37834516  0.49366800
   0.18820560  0.52221600  0.49449058
   0.18898129  0.66570166  0.49589069
   0.18924742  0.80848560  0.49553686
   0.18926226  0.95115162  0.49430734
   0.33205787  0.09379120  0.49344292
   0.33311893  0.23648982  0.49067188
   0.32570751  0.37734909  0.48562741
   0.32532270  0.51896235  0.50582292
   0.33303549  0.66701071  0.49748041
   0.33207284  0.80859009  0.49602740
   0.33192721  0.95110900  0.49472799
   0.47499208  0.09357416  0.49868731
   0.47437201  0.23556052  0.49981640
   0.47462597  0.80904650  0.49878269
   0.47505765  0.95165551  0.49929671
   0.61771868  0.09398809  0.50314604
   0.61793844  0.23654564  0.50608074
   0.61910889  0.37759017  0.51546356
   0.61955772  0.81187871  0.51522232
   0.61809635  0.95170353  0.50565305
   0.76062124  0.09422593  0.50551185
   0.76055337  0.23685542  0.50522462
   0.76056972  0.37973463  0.51357840
   0.76154312  0.52345853  0.53177750
   0.76613766  0.66861348  0.54861457
   0.76223195  0.80938219  0.53333420
   0.76085612  0.95163725  0.51416670
   0.90304052  0.09368666  0.50382529
   0.90278219  0.23666440  0.50137369
   0.90281317  0.37984219  0.50349685