  99  99   0   0
  0.3914025E+02  0.1727104E-08  0.1727104E-08  0.1500000E-08  0.0000000E+00
  1.000000000000000E-004
  CAR 
 unknown system                          
      4.56690698    -31.14545162  301     -2.40082471      1.00000000
    -31.145  0.0000E+00  0.0000E+00  0.0000E+00  0.0000E+00
    -31.026  0.0000E+00  0.0000E+00  0.0000E+00  0.0000E+00
    -30.907  0.0000E+00  0.0000E+00  0.0000E+00  0.0000E+00
    -30.788  0.0000E+00  0.0000E+00  0.0000E+00  0.0000E+00
    -30.669  0.0000E+00  0.0000E+00  0.0000E+00  0.0000E+00
    -30.550  0.0000E+00  0.0000E+00  0.0000E+00  0.0000E+00
    -30.431  0.0000E+00  0.0000E+00  0.0000E+00  0.0000E+00
    -30.312  0.0000E+00  0.0000E+00  0.0000E+00  0.0000E+00
    -30.193  0.0000E+00  0.0000E+00  0.0000E+00  0.0000E+00
    -30.074  0.0000E+00  0.0000E+00  0.0000E+00  0.0000E+00
    -29.955  0.0000E+00  0.0000E+00  0.0000E+00  0.0000E+00
    -29.836  0.0000E+00  0.0000E+00  0.0000E+00  0.0000E+00
    -29.717  0.1505E-09  0.1505E-09  0.1791E-10  0.1791E-10
    -29.598  0.1363E-03  0.1363E-03  0.1623E-04  0.1623E-04
    -29.479  0.1090E-01  0.1090E-01  0.1313E-02  0.1313E-02
    -29.360  0.5762E-02  0.5762E-02  0.1999E-02  0.1999E-02
    -29.241  0.6310E-05  0.6310E-05  0.2000E-02  0.2000E-02
    -29.122  0.2548E-12  0.2548E-12  0.2000E-02  0.2000E-02
    -29.003  0.0000E+00  0.0000E+00  0.2000E-02  0.2000E-02
    -28.884  0.0000E+00  0.0000E+00  0.2000E-02  0.2000E-02
    -28.765  0.0000E+00  0.0000E+00  0.2000E-02  0.2000E-02
    -28.646  0.0000E+00  0.0000E+00  0.2000E-02  0.2000E-02
    -28.527  0.0000E+00  0.0000E+00  0.2000E-02  0.2000E-02
    -28.408  0.0000E+00  0.0000E+00  0.2000E-02  0.2000E-02
    -28.288  0.0000E+00  0.0000E+00  0.2000E-02  0.2000E-02
    -28.169  0.0000E+00  0.0000E+00  0.2000E-02  0.2000E-02
    -28.050  0.0000E+00  0.0000E+00  0.2000E-02  0.2000E-02
    -27.931  0.0000E+00  0.0000E+00  0.2000E-02  0.2000E-02
    -27.812  0.0000E+00  0.0000E+00  0.2000E-02  0.2000E-02
    -27.693  0.0000E+00  0.0000E+00  0.2000E-02  0.2000E-02
    -27.574  0.0000E+00  0.0000E+00  0.2000E-02  0.2000E-02
    -27.455  0.0000E+00  0.0000E+00  0.2000E-02  0.2000E-02
    -27.336  0.0000E+00  0.0000E+00  0.2000E-02  0.2000E-02
    -27.217  0.0000E+00  0.0000E+00  0.2000E-02  0.2000E-02
    -27.098  0.0000E+00  0.0000E+00  0.2000E-02  0.2000E-02
    -26.979  0.0000E+00  0.0000E+00  0.2000E-02  0.2000E-02
    -26.860  0.0000E+00  0.0000E+00  0.2000E-02  0.2000E-02
    -26.741  0.0000E+00  0.0000E+00  0.2000E-02  0.2000E-02
    -26.622  0.0000E+00  0.0000E+00  0.2000E-02  0.2000E-02
    -26.503  0.0000E+00  0.0000E+00  0.2000E-02  0.2000E-02
    -26.384  0.0000E+00  0.0000E+00  0.2000E-02  0.2000E-02
    -26.265  0.0000E+00  0.0000E+00  0.2000E-02  0.2000E-02
    -26.146  0.0000E+00  0.0000E+00  0.2000E-02  0.2000E-02
    -26.027  0.0000E+00  0.0000E+00  0.2000E-02  0.2000E-02
    -25.908  0.0000E+00  0.0000E+00  0.2000E-02  0.2000E-02
    -25.789  0.0000E+00  0.0000E+00  0.2000E-02  0.2000E-02
    -25.670  0.0000E+00  0.0000E+00  0.2000E-02  0.2000E-02
    -25.551  0.0000E+00  0.0000E+00  0.2000E-02  0.2000E-02
    -25.431  0.0000E+00  0.0000E+00  0.2000E-02  0.2000E-02
    -25.312  0.0000E+00  0.0000E+00  0.2000E-02  0.2000E-02
    -25.193  0.0000E+00  0.0000E+00  0.2000E-02  0.2000E-02
    -25.074  0.0000E+00  0.0000E+00  0.2000E-02  0.2000E-02
    -24.955  0.0000E+00  0.0000E+00  0.2000E-02  0.2000E-02
    -24.836  0.0000E+00  0.0000E+00  0.2000E-02  0.2000E-02
    -24.717  0.0000E+00  0.0000E+00  0.2000E-02  0.2000E-02
    -24.598  0.0000E+00  0.0000E+00  0.2000E-02  0.2000E-02
    -24.479  0.0000E+00  0.0000E+00  0.2000E-02  0.2000E-02
    -24.360  0.0000E+00  0.0000E+00  0.2000E-02  0.2000E-02
    -24.241  0.0000E+00  0.0000E+00  0.2000E-02  0.2000E-02
    -24.122  0.0000E+00  0.0000E+00  0.2000E-02  0.2000E-02
    -24.003  0.3360E-09  0.3360E-09  0.2000E-02  0.2000E-02
    -23.884  0.1910E-03  0.1910E-03  0.2023E-02  0.2023E-02
    -23.765  0.7488E-02  0.7488E-02  0.2914E-02  0.2914E-02
    -23.646  0.7210E-03  0.7210E-03  0.3000E-02  0.3000E-02
    -23.527  0.9253E-08  0.9253E-08  0.3000E-02  0.3000E-02
    -23.408  0.0000E+00  0.0000E+00  0.3000E-02  0.3000E-02
    -23.289  0.0000E+00  0.0000E+00  0.3000E-02  0.3000E-02
    -23.170  0.0000E+00  0.0000E+00  0.3000E-02  0.3000E-02
    -23.051  0.0000E+00  0.0000E+00  0.3000E-02  0.3000E-02
    -22.932  0.0000E+00  0.0000E+00  0.3000E-02  0.3000E-02
    -22.813  0.0000E+00  0.0000E+00  0.3000E-02  0.3000E-02
    -22.694  0.0000E+00  0.0000E+00  0.3000E-02  0.3000E-02
    -22.574  0.0000E+00  0.0000E+00  0.3000E-02  0.3000E-02
    -22.455  0.0000E+00  0.0000E+00  0.3000E-02  0.3000E-02
    -22.336  0.0000E+00  0.0000E+00  0.3000E-02  0.3000E-02
    -22.217  0.0000E+00  0.0000E+00  0.3000E-02  0.3000E-02
    -22.098  0.0000E+00  0.0000E+00  0.3000E-02  0.3000E-02
    -21.979  0.1809E-09  0.1809E-09  0.3000E-02  0.3000E-02
    -21.860  0.6760E-04  0.6760E-04  0.3008E-02  0.3008E-02
    -21.741  0.4150E-02  0.4150E-02  0.3502E-02  0.3502E-02
    -21.622  0.8520E-02  0.8520E-02  0.4516E-02  0.4516E-02
    -21.503  0.2183E-02  0.2183E-02  0.4776E-02  0.4776E-02
    -21.384  0.9331E-02  0.9331E-02  0.5887E-02  0.5887E-02
    -21.265  0.8523E-02  0.8523E-02  0.6901E-02  0.6901E-02
    -21.146  0.3631E-02  0.3631E-02  0.7334E-02  0.7334E-02
    -21.027  0.2861E-02  0.2861E-02  0.7674E-02  0.7674E-02
    -20.908  0.1279E-01  0.1279E-01  0.9197E-02  0.9197E-02
    -20.789  0.8884E-02  0.8884E-02  0.1025E-01  0.1025E-01
    -20.670  0.4141E-02  0.4141E-02  0.1075E-01  0.1075E-01
    -20.551  0.1829E-02  0.1829E-02  0.1097E-01  0.1097E-01
    -20.432  0.6703E-02  0.6703E-02  0.1176E-01  0.1176E-01
    -20.313  0.1061E-01  0.1061E-01  0.1303E-01  0.1303E-01
    -20.194  0.1221E-01  0.1221E-01  0.1448E-01  0.1448E-01
    -20.075  0.5614E-02  0.5614E-02  0.1515E-01  0.1515E-01
    -19.956  0.1676E-02  0.1676E-02  0.1535E-01  0.1535E-01
    -19.837  0.7352E-02  0.7352E-02  0.1622E-01  0.1622E-01
    -19.717  0.5466E-02  0.5466E-02  0.1687E-01  0.1687E-01
    -19.598  0.4247E-02  0.4247E-02  0.1738E-01  0.1738E-01
    -19.479  0.1344E-01  0.1344E-01  0.1898E-01  0.1898E-01
    -19.360  0.1241E-01  0.1241E-01  0.2046E-01  0.2046E-01
    -19.241  0.2612E-02  0.2612E-02  0.2077E-01  0.2077E-01
    -19.122  0.6532E-02  0.6532E-02  0.2155E-01  0.2155E-01
    -19.003  0.6693E-02  0.6693E-02  0.2234E-01  0.2234E-01
    -18.884  0.4613E-02  0.4613E-02  0.2289E-01  0.2289E-01
    -18.765  0.3530E-02  0.3530E-02  0.2331E-01  0.2331E-01
    -18.646  0.7141E-02  0.7141E-02  0.2416E-01  0.2416E-01
    -18.527  0.1480E-01  0.1480E-01  0.2592E-01  0.2592E-01
    -18.408  0.9564E-02  0.9564E-02  0.2706E-01  0.2706E-01
    -18.289  0.4659E-02  0.4659E-02  0.2762E-01  0.2762E-01
    -18.170  0.8774E-02  0.8774E-02  0.2866E-01  0.2866E-01
    -18.051  0.6502E-02  0.6502E-02  0.2943E-01  0.2943E-01
    -17.932  0.7843E-02  0.7843E-02  0.3037E-01  0.3037E-01
    -17.813  0.3633E-02  0.3633E-02  0.3080E-01  0.3080E-01
    -17.694  0.4885E-02  0.4885E-02  0.3138E-01  0.3138E-01
    -17.575  0.3823E-02  0.3823E-02  0.3184E-01  0.3184E-01
    -17.456  0.1323E-01  0.1323E-01  0.3341E-01  0.3341E-01
    -17.337  0.1447E-01  0.1447E-01  0.3514E-01  0.3514E-01
    -17.218  0.9876E-02  0.9876E-02  0.3631E-01  0.3631E-01
    -17.099  0.7866E-02  0.7866E-02  0.3725E-01  0.3725E-01
    -16.980  0.4645E-02  0.4645E-02  0.3780E-01  0.3780E-01
    -16.861  0.8645E-02  0.8645E-02  0.3883E-01  0.3883E-01
    -16.741  0.8585E-02  0.8585E-02  0.3985E-01  0.3985E-01
    -16.622  0.4509E-02  0.4509E-02  0.4039E-01  0.4039E-01
    -16.503  0.5239E-02  0.5239E-02  0.4101E-01  0.4101E-01
    -16.384  0.9167E-02  0.9167E-02  0.4210E-01  0.4210E-01
    -16.265  0.1512E-01  0.1512E-01  0.4390E-01  0.4390E-01
    -16.146  0.7537E-02  0.7537E-02  0.4480E-01  0.4480E-01
    -16.027  0.2009E-02  0.2009E-02  0.4504E-01  0.4504E-01
    -15.908  0.5383E-02  0.5383E-02  0.4568E-01  0.4568E-01
    -15.789  0.6038E-03  0.6038E-03  0.4575E-01  0.4575E-01
    -15.670  0.3257E-02  0.3257E-02  0.4614E-01  0.4614E-01
    -15.551  0.1066E-02  0.1066E-02  0.4627E-01  0.4627E-01
    -15.432  0.6663E-02  0.6663E-02  0.4706E-01  0.4706E-01
    -15.313  0.6580E-02  0.6580E-02  0.4784E-01  0.4784E-01
    -15.194  0.1014E-01  0.1014E-01  0.4905E-01  0.4905E-01
    -15.075  0.5546E-02  0.5546E-02  0.4971E-01  0.4971E-01
    -14.956  0.1146E-01  0.1146E-01  0.5108E-01  0.5108E-01
    -14.837  0.1409E-01  0.1409E-01  0.5275E-01  0.5275E-01
    -14.718  0.2551E-02  0.2551E-02  0.5306E-01  0.5306E-01
    -14.599  0.5682E-02  0.5682E-02  0.5373E-01  0.5373E-01
    -14.480  0.1400E-01  0.1400E-01  0.5540E-01  0.5540E-01
    -14.361  0.7992E-02  0.7992E-02  0.5635E-01  0.5635E-01
    -14.242  0.9421E-02  0.9421E-02  0.5747E-01  0.5747E-01
    -14.123  0.1266E-01  0.1266E-01  0.5898E-01  0.5898E-01
    -14.004  0.6537E-02  0.6537E-02  0.5976E-01  0.5976E-01
    -13.884  0.6336E-02  0.6336E-02  0.6051E-01  0.6051E-01
    -13.765  0.4114E-02  0.4114E-02  0.6100E-01  0.6100E-01
    -13.646  0.5382E-02  0.5382E-02  0.6164E-01  0.6164E-01
    -13.527  0.1113E-01  0.1113E-01  0.6297E-01  0.6297E-01
    -13.408  0.6634E-02  0.6634E-02  0.6376E-01  0.6376E-01
    -13.289  0.7365E-02  0.7365E-02  0.6463E-01  0.6463E-01
    -13.170  0.7483E-02  0.7483E-02  0.6553E-01  0.6553E-01
    -13.051  0.6754E-02  0.6754E-02  0.6633E-01  0.6633E-01
    -12.932  0.5096E-02  0.5096E-02  0.6694E-01  0.6694E-01
    -12.813  0.5575E-02  0.5575E-02  0.6760E-01  0.6760E-01
    -12.694  0.8047E-02  0.8047E-02  0.6856E-01  0.6856E-01
    -12.575  0.6872E-02  0.6872E-02  0.6938E-01  0.6938E-01
    -12.456  0.1717E-01  0.1717E-01  0.7142E-01  0.7142E-01
    -12.337  0.1069E-01  0.1069E-01  0.7269E-01  0.7269E-01
    -12.218  0.1080E-01  0.1080E-01  0.7398E-01  0.7398E-01
    -12.099  0.5249E-02  0.5249E-02  0.7460E-01  0.7460E-01
    -11.980  0.5057E-02  0.5057E-02  0.7520E-01  0.7520E-01
    -11.861  0.9617E-02  0.9617E-02  0.7635E-01  0.7635E-01
    -11.742  0.7369E-02  0.7369E-02  0.7723E-01  0.7723E-01
    -11.623  0.9068E-02  0.9068E-02  0.7831E-01  0.7831E-01
    -11.504  0.1141E-01  0.1141E-01  0.7966E-01  0.7966E-01
    -11.385  0.1282E-01  0.1282E-01  0.8119E-01  0.8119E-01
    -11.266  0.1171E-01  0.1171E-01  0.8258E-01  0.8258E-01
    -11.147  0.1395E-01  0.1395E-01  0.8425E-01  0.8425E-01
    -11.027  0.9745E-02  0.9745E-02  0.8541E-01  0.8541E-01
    -10.908  0.1126E-01  0.1126E-01  0.8675E-01  0.8675E-01
    -10.789  0.9807E-02  0.9807E-02  0.8791E-01  0.8791E-01
    -10.670  0.7914E-02  0.7914E-02  0.8886E-01  0.8886E-01
    -10.551  0.6101E-02  0.6101E-02  0.8958E-01  0.8958E-01
    -10.432  0.6894E-02  0.6894E-02  0.9040E-01  0.9040E-01
    -10.313  0.8737E-02  0.8737E-02  0.9144E-01  0.9144E-01
    -10.194  0.1558E-01  0.1558E-01  0.9330E-01  0.9330E-01
    -10.075  0.1973E-01  0.1973E-01  0.9565E-01  0.9565E-01
     -9.956  0.1776E-01  0.1776E-01  0.9776E-01  0.9776E-01
     -9.837  0.1799E-01  0.1799E-01  0.9990E-01  0.9990E-01
     -9.718  0.1588E-01  0.1588E-01  0.1018E+00  0.1018E+00
     -9.599  0.1984E-01  0.1984E-01  0.1042E+00  0.1042E+00
     -9.480  0.7298E-02  0.7298E-02  0.1050E+00  0.1050E+00
     -9.361  0.2272E-01  0.2272E-01  0.1077E+00  0.1077E+00
     -9.242  0.1271E-01  0.1271E-01  0.1092E+00  0.1092E+00
     -9.123  0.2272E-01  0.2272E-01  0.1119E+00  0.1119E+00
     -9.004  0.2080E-01  0.2080E-01  0.1144E+00  0.1144E+00
     -8.885  0.2066E-01  0.2066E-01  0.1169E+00  0.1169E+00
     -8.766  0.2839E-01  0.2839E-01  0.1203E+00  0.1203E+00
     -8.647  0.3072E-01  0.3072E-01  0.1239E+00  0.1239E+00
     -8.528  0.1390E-01  0.1390E-01  0.1256E+00  0.1256E+00
     -8.409  0.2151E-01  0.2151E-01  0.1281E+00  0.1281E+00
     -8.290  0.1550E-01  0.1550E-01  0.1300E+00  0.1300E+00
     -8.171  0.1778E-01  0.1778E-01  0.1321E+00  0.1321E+00
     -8.051  0.2284E-01  0.2284E-01  0.1348E+00  0.1348E+00
     -7.932  0.2190E-01  0.2190E-01  0.1374E+00  0.1374E+00
     -7.813  0.2016E-01  0.2016E-01  0.1398E+00  0.1398E+00
     -7.694  0.1372E-01  0.1372E-01  0.1415E+00  0.1415E+00
     -7.575  0.1873E-01  0.1873E-01  0.1437E+00  0.1437E+00
     -7.456  0.1424E-01  0.1424E-01  0.1454E+00  0.1454E+00
     -7.337  0.6428E-02  0.6428E-02  0.1461E+00  0.1461E+00
     -7.218  0.1716E-01  0.1716E-01  0.1482E+00  0.1482E+00
     -7.099  0.2104E-01  0.2104E-01  0.1507E+00  0.1507E+00
     -6.980  0.2165E-01  0.2165E-01  0.1533E+00  0.1533E+00
     -6.861  0.1509E-01  0.1509E-01  0.1551E+00  0.1551E+00
     -6.742  0.9964E-02  0.9964E-02  0.1563E+00  0.1563E+00
     -6.623  0.9903E-02  0.9903E-02  0.1574E+00  0.1574E+00
     -6.504  0.1469E-01  0.1469E-01  0.1592E+00  0.1592E+00
     -6.385  0.9269E-02  0.9269E-02  0.1603E+00  0.1603E+00
     -6.266  0.1175E-01  0.1175E-01  0.1617E+00  0.1617E+00
     -6.147  0.1694E-01  0.1694E-01  0.1637E+00  0.1637E+00
     -6.028  0.1887E-01  0.1887E-01  0.1659E+00  0.1659E+00
     -5.909  0.9688E-02  0.9688E-02  0.1671E+00  0.1671E+00
     -5.790  0.1746E-01  0.1746E-01  0.1692E+00  0.1692E+00
     -5.671  0.1789E-01  0.1789E-01  0.1713E+00  0.1713E+00
     -5.552  0.1418E-01  0.1418E-01  0.1730E+00  0.1730E+00
     -5.433  0.8234E-02  0.8234E-02  0.1740E+00  0.1740E+00
     -5.314  0.5066E-02  0.5066E-02  0.1746E+00  0.1746E+00
     -5.194  0.2860E-02  0.2860E-02  0.1749E+00  0.1749E+00
     -5.075  0.3561E-02  0.3561E-02  0.1753E+00  0.1753E+00
     -4.956  0.2072E-01  0.2072E-01  0.1778E+00  0.1778E+00
     -4.837  0.1897E-01  0.1897E-01  0.1801E+00  0.1801E+00
     -4.718  0.1134E-01  0.1134E-01  0.1814E+00  0.1814E+00
     -4.599  0.5080E-02  0.5080E-02  0.1820E+00  0.1820E+00
     -4.480  0.9386E-02  0.9386E-02  0.1831E+00  0.1831E+00
     -4.361  0.1012E-02  0.1012E-02  0.1833E+00  0.1833E+00
     -4.242  0.4149E-02  0.4149E-02  0.1838E+00  0.1838E+00
     -4.123  0.7722E-02  0.7722E-02  0.1847E+00  0.1847E+00
     -4.004  0.7699E-02  0.7699E-02  0.1856E+00  0.1856E+00
     -3.885  0.6370E-02  0.6370E-02  0.1863E+00  0.1863E+00
     -3.766  0.7727E-02  0.7727E-02  0.1873E+00  0.1873E+00
     -3.647  0.5986E-02  0.5986E-02  0.1880E+00  0.1880E+00
     -3.528  0.1775E-03  0.1775E-03  0.1880E+00  0.1880E+00
     -3.409  0.5101E-04  0.5101E-04  0.1880E+00  0.1880E+00
     -3.290  0.2441E-02  0.2441E-02  0.1883E+00  0.1883E+00
     -3.171  0.6532E-02  0.6532E-02  0.1891E+00  0.1891E+00
     -3.052  0.1516E-02  0.1516E-02  0.1893E+00  0.1893E+00
     -2.933  0.1854E-02  0.1854E-02  0.1895E+00  0.1895E+00
     -2.814  0.2076E-03  0.2076E-03  0.1895E+00  0.1895E+00
     -2.695  0.1689E-04  0.1689E-04  0.1895E+00  0.1895E+00
     -2.576  0.3170E-02  0.3170E-02  0.1899E+00  0.1899E+00
     -2.457  0.1013E-02  0.1013E-02  0.1900E+00  0.1900E+00
     -2.337  0.3665E-06  0.3665E-06  0.1900E+00  0.1900E+00
     -2.218  0.1336E-02  0.1336E-02  0.1902E+00  0.1902E+00
     -2.099  0.2856E-02  0.2856E-02  0.1905E+00  0.1905E+00
     -1.980  0.8065E-05  0.8065E-05  0.1905E+00  0.1905E+00
     -1.861  0.1208E-04  0.1208E-04  0.1905E+00  0.1905E+00
     -1.742  0.1868E-02  0.1868E-02  0.1907E+00  0.1907E+00
     -1.623  0.2615E-02  0.2615E-02  0.1910E+00  0.1910E+00
     -1.504  0.7123E-02  0.7123E-02  0.1919E+00  0.1919E+00
     -1.385  0.9825E-03  0.9825E-03  0.1920E+00  0.1920E+00
     -1.266  0.1074E-03  0.1074E-03  0.1920E+00  0.1920E+00
     -1.147  0.5471E-02  0.5471E-02  0.1927E+00  0.1927E+00
     -1.028  0.6514E-02  0.6514E-02  0.1934E+00  0.1934E+00
     -0.909  0.4471E-02  0.4471E-02  0.1940E+00  0.1940E+00
     -0.790  0.1433E-01  0.1433E-01  0.1957E+00  0.1957E+00
     -0.671  0.1032E-01  0.1032E-01  0.1969E+00  0.1969E+00
     -0.552  0.5418E-02  0.5418E-02  0.1976E+00  0.1976E+00
     -0.433  0.1293E-01  0.1293E-01  0.1991E+00  0.1991E+00
     -0.314  0.6601E-02  0.6601E-02  0.1999E+00  0.1999E+00
     -0.195  0.4961E-02  0.4961E-02  0.2005E+00  0.2005E+00
     -0.076  0.7311E-02  0.7311E-02  0.2013E+00  0.2013E+00
      0.043  0.8161E-02  0.8161E-02  0.2023E+00  0.2023E+00
      0.162  0.1061E-01  0.1061E-01  0.2036E+00  0.2036E+00
      0.281  0.1278E-01  0.1278E-01  0.2051E+00  0.2051E+00
      0.400  0.6175E-02  0.6175E-02  0.2058E+00  0.2058E+00
      0.520  0.1451E-02  0.1451E-02  0.2060E+00  0.2060E+00
      0.639  0.3384E-02  0.3384E-02  0.2064E+00  0.2064E+00
      0.758  0.1051E-01  0.1051E-01  0.2077E+00  0.2077E+00
      0.877  0.1321E-01  0.1321E-01  0.2092E+00  0.2092E+00
      0.996  0.5673E-02  0.5673E-02  0.2099E+00  0.2099E+00
      1.115  0.9254E-02  0.9254E-02  0.2110E+00  0.2110E+00
      1.234  0.6458E-02  0.6458E-02  0.2118E+00  0.2118E+00
      1.353  0.1003E-01  0.1003E-01  0.2130E+00  0.2130E+00
      1.472  0.9964E-02  0.9964E-02  0.2142E+00  0.2142E+00
      1.591  0.1972E-01  0.1972E-01  0.2165E+00  0.2165E+00
      1.710  0.1069E-01  0.1069E-01  0.2178E+00  0.2178E+00
      1.829  0.1593E-01  0.1593E-01  0.2197E+00  0.2197E+00
      1.948  0.1012E-01  0.1012E-01  0.2209E+00  0.2209E+00
      2.067  0.1999E-01  0.1999E-01  0.2233E+00  0.2233E+00
      2.186  0.1352E-01  0.1352E-01  0.2249E+00  0.2249E+00
      2.305  0.2019E-01  0.2019E-01  0.2273E+00  0.2273E+00
      2.424  0.2209E-01  0.2209E-01  0.2299E+00  0.2299E+00
      2.543  0.1768E-01  0.1768E-01  0.2320E+00  0.2320E+00
      2.662  0.7751E-02  0.7751E-02  0.2329E+00  0.2329E+00
      2.781  0.1895E-01  0.1895E-01  0.2352E+00  0.2352E+00
      2.900  0.2677E-01  0.2677E-01  0.2384E+00  0.2384E+00
      3.019  0.1363E-01  0.1363E-01  0.2400E+00  0.2400E+00
      3.138  0.7879E-04  0.7877E-04  0.2400E+00  0.2400E+00
      3.257  0.5047E-10  0.5045E-10  0.2400E+00  0.2400E+00
      3.376  0.0000E+00  0.0000E+00  0.2400E+00  0.2400E+00
      3.496  0.0000E+00  0.0000E+00  0.2400E+00  0.2400E+00
      3.615  0.0000E+00  0.0000E+00  0.2400E+00  0.2400E+00
      3.734  0.0000E+00  0.0000E+00  0.2400E+00  0.2400E+00
      3.853  0.0000E+00  0.0000E+00  0.2400E+00  0.2400E+00
      3.972  0.0000E+00  0.0000E+00  0.2400E+00  0.2400E+00
      4.091  0.0000E+00  0.0000E+00  0.2400E+00  0.2400E+00
      4.210  0.0000E+00  0.0000E+00  0.2400E+00  0.2400E+00
      4.329  0.0000E+00  0.0000E+00  0.2400E+00  0.2400E+00
      4.448  0.0000E+00  0.0000E+00  0.2400E+00  0.2400E+00
      4.567  0.0000E+00  0.0000E+00  0.2400E+00  0.2400E+00
