 vasp.6.4.2 20Jul23 (build Aug 26 2025 15:10:52) complex                        
  
 POSCAR found type information on POSCAR C H F O 
 02/POSCAR found :  4 types and      99 ions
 Reading from existing POTCAR
 scaLAPACK will be used
 -----------------------------------------------------------------------------
|                                                                             |
|           W    W    AA    RRRRR   N    N  II  N    N   GGGG   !!!           |
|           W    W   A  A   R    R  NN   N  II  NN   N  G    G  !!!           |
|           W    W  A    A  R    R  N N  N  II  N N  N  G       !!!           |
|           W WW W  AAAAAA  RRRRR   N  N N  II  N  N N  G  GGG   !            |
|           WW  WW  A    A  R   R   N   NN  II  N   NN  G    G                |
|           W    W  A    A  R    R  N    N  II  N    N   GGGG   !!!           |
|                                                                             |
|     For optimal performance we recommend to set                             |
|       NCORE = 2 up to number-of-cores-per-socket                            |
|     NCORE specifies how many cores store one orbital (NPAR=cpu/NCORE).      |
|     This setting can greatly improve the performance of VASP for DFT.       |
|     The default, NCORE=1 might be grossly inefficient on modern             |
|     multi-core architectures or massively parallel machines. Do your        |
|     own testing! More info at https://www.vasp.at/wiki/index.php/NCORE      |
|     Unfortunately you need to use the default for GW and RPA                |
|     calculations (for HF NCORE is supported but not extensively tested      |
|     yet).                                                                   |
|                                                                             |
 -----------------------------------------------------------------------------

 Reading from existing POTCAR
 LDA part: xc-table for Pade appr. of Perdew
 POSCAR found type information on POSCAR C H F O 
 00/POSCAR found :  4 types and      99 ions
 POSCAR found type information on POSCAR C H F O 
 06/POSCAR found :  4 types and      99 ions
 Jacobian:    33.7825262909836     
 POSCAR found type information on POSCAR C H F O 
 00/POSCAR found :  4 types and      99 ions
 POSCAR found type information on POSCAR C H F O 
 06/POSCAR found :  4 types and      99 ions
 POSCAR, INCAR and KPOINTS ok, starting setup
 FFT: planning ... GRIDC
 FFT: planning ... GRID_SOFT
 FFT: planning ... GRID
 WAVECAR not read
 entering main loop
       N       E                     dE             d eps       ncg     rms          rms(c)
DAV:   1     0.355649529424E+04    0.35565E+04   -0.14464E+05  4200   0.120E+03
DAV:   2    -0.201975470085E+03   -0.37585E+04   -0.35736E+04  5630   0.290E+02
DAV:   3    -0.887506502920E+03   -0.68553E+03   -0.68258E+03  4610   0.130E+02
DAV:   4    -0.912829005849E+03   -0.25323E+02   -0.25174E+02  4580   0.317E+01
DAV:   5    -0.913609310429E+03   -0.78030E+00   -0.77875E+00  5310   0.484E+00    0.439E+01
DAV:   6    -0.880422801472E+03    0.33187E+02   -0.21372E+01  4360   0.928E+00    0.334E+01
DAV:   7    -0.852035491130E+03    0.28387E+02   -0.10819E+02  4260   0.188E+01    0.132E+01
DAV:   8    -0.851781751436E+03    0.25374E+00   -0.64667E+00  4540   0.592E+00    0.662E+00
DAV:   9    -0.851841834033E+03   -0.60083E-01   -0.12609E+00  4370   0.271E+00    0.254E+00
DAV:  10    -0.851721301344E+03    0.12053E+00   -0.40993E-01  4450   0.152E+00    0.111E+00
DAV:  11    -0.851705836797E+03    0.15465E-01   -0.12947E-01  4380   0.832E-01    0.314E-01
DAV:  12    -0.851704529785E+03    0.13070E-02   -0.22626E-02  4420   0.397E-01    0.156E-01
DAV:  13    -0.851704576962E+03   -0.47177E-04   -0.32449E-03  4490   0.146E-01    0.115E-01
DAV:  14    -0.851704587986E+03   -0.11024E-04   -0.19675E-03  4430   0.103E-01    0.565E-02
DAV:  15    -0.851704581642E+03    0.63435E-05   -0.22185E-04  4610   0.451E-02    0.383E-02
DAV:  16    -0.851704616180E+03   -0.34537E-04   -0.23702E-04  4580   0.482E-02    0.289E-02
DAV:  17    -0.851704604147E+03    0.12033E-04   -0.10983E-04  5000   0.339E-02    0.916E-03
DAV:  18    -0.851704607338E+03   -0.31908E-05   -0.25173E-05  4430   0.103E-02    0.574E-03
DAV:  19    -0.851704607126E+03    0.21128E-06   -0.21306E-06  3520   0.524E-03
   1 F= -.85962294E+03 E0= -.85962294E+03  d E =-.859623E+03  mag=     0.0000
quench:  g(F)=  0.000E+00 g(S)=  0.000E+00 dE (1.order)= 0.000E+00
 bond charge predicted
       N       E                     dE             d eps       ncg     rms          rms(c)
DAV:   1    -0.851705061737E+03   -0.45440E-03   -0.29142E-02  4060   0.255E-01    0.312E-02
DAV:   2    -0.851705103245E+03   -0.41508E-04   -0.58988E-04  4220   0.304E-02    0.258E-02
DAV:   3    -0.851705096441E+03    0.68045E-05   -0.79854E-06  3800   0.482E-03    0.206E-02
DAV:   4    -0.851705099184E+03   -0.27432E-05   -0.26175E-05  3820   0.844E-03    0.556E-03
DAV:   5    -0.851705100995E+03   -0.18110E-05   -0.63217E-06  3420   0.313E-03    0.334E-03
DAV:   6    -0.851705101210E+03   -0.21474E-06   -0.73162E-07  2870   0.175E-03
   2 F= -.85962340E+03 E0= -.85962340E+03  d E =-.462512E-03  mag=     0.0000
quench:  g(F)=  0.000E+00 g(S)=  0.000E+00 dE (1.order)= 0.000E+00
 bond charge predicted
       N       E                     dE             d eps       ncg     rms          rms(c)
DAV:   1    -0.851705727845E+03   -0.62685E-03   -0.78030E-02  4040   0.426E-01    0.485E-02
DAV:   2    -0.851705829023E+03   -0.10118E-03   -0.13975E-03  4120   0.484E-02    0.369E-02
DAV:   3    -0.851705816513E+03    0.12510E-04   -0.18619E-05  4270   0.746E-03    0.293E-02
DAV:   4    -0.851705832049E+03   -0.15537E-04   -0.57795E-05  3880   0.131E-02    0.617E-03
DAV:   5    -0.851705834584E+03   -0.25341E-05   -0.11533E-05  3660   0.462E-03    0.504E-03
DAV:   6    -0.851705834835E+03   -0.25186E-06   -0.13080E-06  3020   0.261E-03
   3 F= -.85962408E+03 E0= -.85962408E+03  d E =-.674145E-03  mag=     0.0000
quench:  g(F)=  0.000E+00 g(S)=  0.000E+00 dE (1.order)= 0.000E+00
 bond charge predicted
       N       E                     dE             d eps       ncg     rms          rms(c)
DAV:   1    -0.851706833159E+03   -0.99858E-03   -0.12670E-01  4000   0.557E-01    0.620E-02
DAV:   2    -0.851706995099E+03   -0.16194E-03   -0.21433E-03  4030   0.607E-02    0.441E-02
DAV:   3    -0.851706982366E+03    0.12733E-04   -0.29063E-05  4560   0.926E-03    0.348E-02
DAV:   4    -0.851707007975E+03   -0.25609E-04   -0.71459E-05  3840   0.151E-02    0.613E-03
DAV:   5    -0.851707009538E+03   -0.15624E-05   -0.13543E-05  4280   0.527E-03    0.569E-03
DAV:   6    -0.851707009367E+03    0.17022E-06   -0.14187E-06  2970   0.285E-03
   4 F= -.85962517E+03 E0= -.85962517E+03  d E =-.109467E-02  mag=     0.0000
quench:  g(F)=  0.000E+00 g(S)=  0.000E+00 dE (1.order)= 0.000E+00
 bond charge predicted
       N       E                     dE             d eps       ncg     rms          rms(c)
DAV:   1    -0.851708120875E+03   -0.11113E-02   -0.21054E-01  3980   0.736E-01    0.807E-02
DAV:   2    -0.851708401276E+03   -0.28040E-03   -0.36317E-03  4040   0.818E-02    0.579E-02
DAV:   3    -0.851708381323E+03    0.19953E-04   -0.53529E-05  4600   0.130E-02    0.455E-02
DAV:   4    -0.851708412584E+03   -0.31261E-04   -0.10547E-04  3840   0.188E-02    0.971E-03
DAV:   5    -0.851708416979E+03   -0.43947E-05   -0.21573E-05  4380   0.675E-03    0.758E-03
DAV:   6    -0.851708417103E+03   -0.12462E-06   -0.48707E-06  3620   0.504E-03
   5 F= -.85962648E+03 E0= -.85962648E+03  d E =-.131023E-02  mag=     0.0000
quench:  g(F)=  0.000E+00 g(S)=  0.000E+00 dE (1.order)= 0.000E+00
 bond charge predicted
       N       E                     dE             d eps       ncg     rms          rms(c)
DAV:   1    -0.851709611705E+03   -0.11947E-02   -0.34926E-01  3920   0.964E-01    0.102E-01
DAV:   2    -0.851710092392E+03   -0.48069E-03   -0.60794E-03  3980   0.110E-01    0.741E-02
DAV:   3    -0.851710057491E+03    0.34901E-04   -0.82766E-05  4620   0.162E-02    0.587E-02
DAV:   4    -0.851710101903E+03   -0.44412E-04   -0.21722E-04  3990   0.265E-02    0.112E-02
DAV:   5    -0.851710107265E+03   -0.53626E-05   -0.39875E-05  4360   0.951E-03    0.969E-03
DAV:   6    -0.851710107903E+03   -0.63741E-06   -0.45745E-06  3560   0.539E-03
   6 F= -.85962806E+03 E0= -.85962806E+03  d E =-.157493E-02  mag=     0.0000
quench:  g(F)=  0.000E+00 g(S)=  0.000E+00 dE (1.order)= 0.000E+00
 bond charge predicted
       N       E                     dE             d eps       ncg     rms          rms(c)
DAV:   1    -0.851711230812E+03   -0.11235E-02   -0.52182E-01  3920   0.121E+00    0.123E-01
DAV:   2    -0.851711988216E+03   -0.75740E-03   -0.94260E-03  3960   0.142E-01    0.918E-02
DAV:   3    -0.851711928742E+03    0.59473E-04   -0.12220E-04  4620   0.203E-02    0.735E-02
DAV:   4    -0.851711983083E+03   -0.54340E-04   -0.38555E-04  4360   0.358E-02    0.136E-02
DAV:   5    -0.851711990499E+03   -0.74165E-05   -0.70032E-05  4330   0.127E-02    0.123E-02
DAV:   6    -0.851711991716E+03   -0.12164E-05   -0.53641E-06  3640   0.601E-03    0.661E-03
DAV:   7    -0.851711991796E+03   -0.80770E-07   -0.45081E-06  3850   0.427E-03
   7 F= -.85962981E+03 E0= -.85962981E+03  d E =-.175033E-02  mag=     0.0000
quench:  g(F)=  0.000E+00 g(S)=  0.000E+00 dE (1.order)= 0.000E+00
 bond charge predicted
       N       E                     dE             d eps       ncg     rms          rms(c)
DAV:   1    -0.851712879914E+03   -0.88820E-03   -0.81134E-01  3900   0.156E+00    0.153E-01
DAV:   2    -0.851714074692E+03   -0.11948E-02   -0.14688E-02  3940   0.185E-01    0.112E-01
DAV:   3    -0.851713994612E+03    0.80080E-04   -0.19884E-04  4600   0.269E-02    0.896E-02
DAV:   4    -0.851714063158E+03   -0.68546E-04   -0.51709E-04  4370   0.438E-02    0.169E-02
DAV:   5    -0.851714076719E+03   -0.13561E-04   -0.99983E-05  4360   0.155E-02    0.151E-02
DAV:   6    -0.851714077896E+03   -0.11772E-05   -0.90003E-06  3720   0.721E-03    0.809E-03
DAV:   7    -0.851714078468E+03   -0.57252E-06   -0.60470E-06  3900   0.489E-03
   8 F= -.85963173E+03 E0= -.85963173E+03  d E =-.192287E-02  mag=    -0.0000
quench:  g(F)=  0.000E+00 g(S)=  0.000E+00 dE (1.order)= 0.000E+00
 bond charge predicted
       N       E                     dE             d eps       ncg     rms          rms(c)
DAV:   1    -0.851714479838E+03   -0.40194E-03   -0.12065E+00  3900   0.199E+00    0.189E-01
DAV:   2    -0.851716321457E+03   -0.18416E-02   -0.22302E-02  3960   0.238E-01    0.136E-01
DAV:   3    -0.851716214462E+03    0.10700E-03   -0.31676E-04  4600   0.350E-02    0.108E-01
DAV:   4    -0.851716296695E+03   -0.82233E-04   -0.63244E-04  4460   0.506E-02    0.215E-02
DAV:   5    -0.851716320579E+03   -0.23884E-04   -0.13007E-04  4380   0.181E-02    0.169E-02
DAV:   6    -0.851716321709E+03   -0.11303E-05   -0.13322E-05  3740   0.840E-03    0.861E-03
DAV:   7    -0.851716322283E+03   -0.57384E-06   -0.70363E-06  4280   0.518E-03
   9 F= -.85963379E+03 E0= -.85963379E+03  d E =-.206001E-02  mag=    -0.0000
quench:  g(F)=  0.000E+00 g(S)=  0.000E+00 dE (1.order)= 0.000E+00
 bond charge predicted
       N       E                     dE             d eps       ncg     rms          rms(c)
DAV:   1    -0.851715544863E+03    0.77685E-03   -0.19894E+00  3900   0.262E+00    0.240E-01
DAV:   2    -0.851718758307E+03   -0.32134E-02   -0.38069E-02  3960   0.323E-01    0.178E-01
DAV:   3    -0.851718555612E+03    0.20270E-03   -0.52139E-04  4640   0.457E-02    0.142E-01
DAV:   4    -0.851718620817E+03   -0.65205E-04   -0.12280E-03  4500   0.690E-02    0.284E-02
DAV:   5    -0.851718657373E+03   -0.36556E-04   -0.23674E-04  4320   0.250E-02    0.222E-02
DAV:   6    -0.851718661784E+03   -0.44106E-05   -0.20725E-05  3820   0.105E-02    0.115E-02
DAV:   7    -0.851718663829E+03   -0.20447E-05   -0.12922E-05  4380   0.704E-03    0.423E-03
DAV:   8    -0.851718663768E+03    0.60951E-07   -0.35324E-06  3660   0.491E-03
  10 F= -.85963593E+03 E0= -.85963593E+03  d E =-.214206E-02  mag=    -0.0000
quench:  g(F)=  0.000E+00 g(S)=  0.000E+00 dE (1.order)= 0.000E+00
 bond charge predicted
       N       E                     dE             d eps       ncg     rms          rms(c)
DAV:   1    -0.851716300075E+03    0.23638E-02   -0.29062E+00  3900   0.327E+00    0.291E-01
DAV:   2    -0.851721159215E+03   -0.48591E-02   -0.56846E-02  3960   0.407E-01    0.214E-01
DAV:   3    -0.851720883492E+03    0.27572E-03   -0.78889E-04  4620   0.582E-02    0.170E-01
DAV:   4    -0.851720961166E+03   -0.77674E-04   -0.16865E-03  4540   0.857E-02    0.346E-02
DAV:   5    -0.851721007426E+03   -0.46260E-04   -0.33247E-04  4320   0.308E-02    0.271E-02
DAV:   6    -0.851721007726E+03   -0.30008E-06   -0.35871E-05  3920   0.136E-02    0.140E-02
DAV:   7    -0.851721011750E+03   -0.40236E-05   -0.18304E-05  4300   0.856E-03    0.645E-03
DAV:   8    -0.851721011594E+03    0.15563E-06   -0.77919E-06  4200   0.704E-03
  11 F= -.85963807E+03 E0= -.85963807E+03  d E =-.213211E-02  mag=     0.0000
quench:  g(F)=  0.000E+00 g(S)=  0.000E+00 dE (1.order)= 0.000E+00
 bond charge predicted
       N       E                     dE             d eps       ncg     rms          rms(c)
DAV:   1    -0.851716216059E+03    0.47957E-02   -0.42791E+00  3900   0.405E+00    0.354E-01
DAV:   2    -0.851723573094E+03   -0.73570E-02   -0.85358E-02  3960   0.507E-01    0.260E-01
DAV:   3    -0.851723173732E+03    0.39936E-03   -0.11945E-03  4600   0.724E-02    0.206E-01
DAV:   4    -0.851723268902E+03   -0.95170E-04   -0.24039E-03  4560   0.105E-01    0.418E-02
DAV:   5    -0.851723324120E+03   -0.55218E-04   -0.47259E-04  4300   0.379E-02    0.316E-02
DAV:   6    -0.851723324349E+03   -0.22884E-06   -0.52660E-05  3980   0.159E-02    0.160E-02
DAV:   7    -0.851723329559E+03   -0.52107E-05   -0.23157E-05  4300   0.959E-03    0.705E-03
DAV:   8    -0.851723329317E+03    0.24230E-06   -0.85383E-06  4220   0.687E-03
  12 F= -.85964014E+03 E0= -.85964014E+03  d E =-.207394E-02  mag=    -0.0000
quench:  g(F)=  0.000E+00 g(S)=  0.000E+00 dE (1.order)= 0.000E+00
 bond charge predicted
       N       E                     dE             d eps       ncg     rms          rms(c)
DAV:   1    -0.851713882821E+03    0.94467E-02   -0.66313E+00  3900   0.507E+00    0.441E-01
DAV:   2    -0.851725717411E+03   -0.11835E-01   -0.13652E-01  3980   0.648E-01    0.334E-01
DAV:   3    -0.851724991973E+03    0.72544E-03   -0.18791E-03  4600   0.913E-02    0.267E-01
DAV:   4    -0.851724956841E+03    0.35132E-04   -0.44311E-03  4580   0.138E-01    0.544E-02
DAV:   5    -0.851725051231E+03   -0.94390E-04   -0.83875E-04  4320   0.499E-02    0.410E-02
DAV:   6    -0.851725052583E+03   -0.13517E-05   -0.76517E-05  4140   0.188E-02    0.213E-02
DAV:   7    -0.851725061208E+03   -0.86252E-05   -0.40223E-05  4260   0.124E-02    0.872E-03
DAV:   8    -0.851725061196E+03    0.12020E-07   -0.13564E-05  4280   0.820E-03    0.291E-03
DAV:   9    -0.851725061149E+03    0.47366E-07   -0.14971E-06  3160   0.284E-03
  13 F= -.85964157E+03 E0= -.85964157E+03  d E =-.143248E-02  mag=     0.0000
quench:  g(F)=  0.000E+00 g(S)=  0.000E+00 dE (1.order)= 0.000E+00
 bond charge predicted
       N       E                     dE             d eps       ncg     rms          rms(c)
DAV:   1    -0.851707853295E+03    0.17208E-01   -0.74435E+00  3900   0.561E+00    0.494E-01
DAV:   2    -0.851721888040E+03   -0.14035E-01   -0.16230E-01  4100   0.726E-01    0.372E-01
DAV:   3    -0.851721138608E+03    0.74943E-03   -0.25902E-03  4720   0.110E-01    0.295E-01
DAV:   4    -0.851721012285E+03    0.12632E-03   -0.37813E-03  4520   0.145E-01    0.681E-02
DAV:   5    -0.851721139281E+03   -0.12700E-03   -0.88542E-04  4280   0.539E-02    0.422E-02
DAV:   6    -0.851721125175E+03    0.14106E-04   -0.13222E-04  4260   0.252E-02    0.196E-02
DAV:   7    -0.851721133333E+03   -0.81577E-05   -0.29101E-05  4300   0.106E-02    0.108E-02
DAV:   8    -0.851721132458E+03    0.87519E-06   -0.83251E-06  4400   0.706E-03
  14 F= -.85963738E+03 E0= -.85963738E+03  d E =0.419215E-02  mag=    -0.0000
quench:  g(F)=  0.000E+00 g(S)=  0.000E+00 dE (1.order)= 0.000E+00
 bond charge predicted
       N       E                     dE             d eps       ncg     rms          rms(c)
DAV:   1    -0.851727209410E+03   -0.60761E-02   -0.53018E-01  3940   0.131E+00    0.149E-01
DAV:   2    -0.851728455091E+03   -0.12457E-02   -0.15488E-02  4460   0.187E-01    0.142E-01
DAV:   3    -0.851728316075E+03    0.13902E-03   -0.21927E-04  4780   0.294E-02    0.124E-01
DAV:   4    -0.851728065755E+03    0.25032E-03   -0.78464E-04  4240   0.532E-02    0.391E-02
DAV:   5    -0.851728093919E+03   -0.28164E-04   -0.23953E-04  4640   0.223E-02    0.177E-02
DAV:   6    -0.851728095624E+03   -0.17051E-05   -0.22021E-05  4160   0.917E-03    0.678E-03
DAV:   7    -0.851728096852E+03   -0.12277E-05   -0.20240E-06  3180   0.322E-03    0.407E-03
DAV:   8    -0.851728096593E+03    0.25887E-06   -0.10874E-06  3040   0.256E-03
  15 F= -.85964432E+03 E0= -.85964432E+03  d E =-.694197E-02  mag=    -0.0000
quench:  g(F)=  0.000E+00 g(S)=  0.000E+00 dE (1.order)= 0.000E+00
 bond charge predicted
       N       E                     dE             d eps       ncg     rms          rms(c)
DAV:   1    -0.851728134692E+03   -0.37840E-04   -0.39359E-04  4000   0.436E-02    0.430E-03
DAV:   2    -0.851728135463E+03   -0.77146E-06   -0.10096E-05  4040   0.619E-03    0.362E-03
DAV:   3    -0.851728135391E+03    0.72148E-07   -0.19680E-07  2300   0.113E-03
  16 F= -.85964436E+03 E0= -.85964436E+03  d E =-.381576E-04  mag=    -0.0000
quench:  g(F)=  0.000E+00 g(S)=  0.000E+00 dE (1.order)= 0.000E+00
 bond charge predicted
       N       E                     dE             d eps       ncg     rms          rms(c)
DAV:   1    -0.851728194151E+03   -0.58687E-04   -0.14874E-03  3880   0.845E-02    0.845E-03
DAV:   2    -0.851728196891E+03   -0.27404E-05   -0.35000E-05  4040   0.114E-02    0.689E-03
DAV:   3    -0.851728196692E+03    0.19946E-06   -0.59149E-07  2800   0.194E-03
  17 F= -.85964442E+03 E0= -.85964442E+03  d E =-.600715E-04  mag=    -0.0000
quench:  g(F)=  0.000E+00 g(S)=  0.000E+00 dE (1.order)= 0.000E+00
 bond charge predicted
       N       E                     dE             d eps       ncg     rms          rms(c)
DAV:   1    -0.851728258351E+03   -0.61460E-04   -0.31948E-03  3880   0.123E-01    0.119E-02
DAV:   2    -0.851728263940E+03   -0.55883E-05   -0.69837E-05  4020   0.161E-02    0.942E-03
DAV:   3    -0.851728263660E+03    0.27932E-06   -0.11274E-06  3060   0.266E-03
  18 F= -.85964449E+03 E0= -.85964449E+03  d E =-.654515E-04  mag=     0.0000
quench:  g(F)=  0.000E+00 g(S)=  0.000E+00 dE (1.order)= 0.000E+00
 bond charge predicted
       N       E                     dE             d eps       ncg     rms          rms(c)
DAV:   1    -0.851728326502E+03   -0.62563E-04   -0.56804E-03  3880   0.162E-01    0.154E-02
DAV:   2    -0.851728336028E+03   -0.95260E-05   -0.11816E-04  3900   0.207E-02    0.119E-02
DAV:   3    -0.851728335607E+03    0.42123E-06   -0.18698E-06  3440   0.329E-03
  19 F= -.85964456E+03 E0= -.85964456E+03  d E =-.702281E-04  mag=     0.0000
quench:  g(F)=  0.000E+00 g(S)=  0.000E+00 dE (1.order)= 0.000E+00
 bond charge predicted
       N       E                     dE             d eps       ncg     rms          rms(c)
DAV:   1    -0.851728408386E+03   -0.72358E-04   -0.91440E-03  3880   0.203E-01    0.192E-02
DAV:   2    -0.851728423194E+03   -0.14808E-04   -0.18448E-04  3840   0.258E-02    0.148E-02
DAV:   3    -0.851728422547E+03    0.64752E-06   -0.29095E-06  3900   0.397E-03
  20 F= -.85964464E+03 E0= -.85964464E+03  d E =-.851428E-04  mag=    -0.0000
quench:  g(F)=  0.000E+00 g(S)=  0.000E+00 dE (1.order)= 0.000E+00
 bond charge predicted
       N       E                     dE             d eps       ncg     rms          rms(c)
DAV:   1    -0.851728513432E+03   -0.90237E-04   -0.13782E-02  3880   0.247E-01    0.233E-02
DAV:   2    -0.851728535250E+03   -0.21819E-04   -0.27491E-04  3840   0.314E-02    0.182E-02
DAV:   3    -0.851728534144E+03    0.11062E-05   -0.43158E-06  4200   0.478E-03    0.140E-02
DAV:   4    -0.851728536393E+03   -0.22490E-05   -0.81804E-06  3580   0.641E-03    0.275E-03
DAV:   5    -0.851728536566E+03   -0.17299E-06   -0.16078E-06  3270   0.242E-03
  21 F= -.85964475E+03 E0= -.85964475E+03  d E =-.112047E-03  mag=    -0.0000
quench:  g(F)=  0.000E+00 g(S)=  0.000E+00 dE (1.order)= 0.000E+00
 bond charge predicted
       N       E                     dE             d eps       ncg     rms          rms(c)
DAV:   1    -0.851728630541E+03   -0.94147E-04   -0.24618E-02  3920   0.328E-01    0.295E-02
DAV:   2    -0.851728673066E+03   -0.42526E-04   -0.52321E-04  3840   0.433E-02    0.231E-02
DAV:   3    -0.851728670029E+03    0.30373E-05   -0.78658E-06  4500   0.645E-03    0.182E-02
DAV:   4    -0.851728672234E+03   -0.22051E-05   -0.18065E-05  3700   0.942E-03    0.380E-03
DAV:   5    -0.851728672530E+03   -0.29614E-06   -0.33588E-06  3720   0.344E-03
  22 F= -.85964489E+03 E0= -.85964489E+03  d E =-.134277E-03  mag=     0.0000
quench:  g(F)=  0.000E+00 g(S)=  0.000E+00 dE (1.order)= 0.000E+00
 bond charge predicted
       N       E                     dE             d eps       ncg     rms          rms(c)
DAV:   1    -0.851728748771E+03   -0.76537E-04   -0.39789E-02  3920   0.419E-01    0.376E-02
DAV:   2    -0.851728817727E+03   -0.68956E-04   -0.84709E-04  3840   0.552E-02    0.293E-02
DAV:   3    -0.851728813059E+03    0.46681E-05   -0.12734E-05  4560   0.821E-03    0.229E-02
DAV:   4    -0.851728816920E+03   -0.38609E-05   -0.28194E-05  3720   0.119E-02    0.480E-03
DAV:   5    -0.851728817322E+03   -0.40225E-06   -0.53190E-06  4060   0.436E-03
  23 F= -.85964503E+03 E0= -.85964503E+03  d E =-.144447E-03  mag=     0.0000
quench:  g(F)=  0.000E+00 g(S)=  0.000E+00 dE (1.order)= 0.000E+00
 bond charge predicted
       N       E                     dE             d eps       ncg     rms          rms(c)
DAV:   1    -0.851728884842E+03   -0.67923E-04   -0.61231E-02  3920   0.522E-01    0.467E-02
DAV:   2    -0.851728991601E+03   -0.10676E-03   -0.13061E-03  3840   0.687E-02    0.360E-02
DAV:   3    -0.851728985036E+03    0.65657E-05   -0.19900E-05  4620   0.103E-02    0.280E-02
DAV:   4    -0.851728991499E+03   -0.64635E-05   -0.39228E-05  3800   0.144E-02    0.588E-03
DAV:   5    -0.851728991982E+03   -0.48288E-06   -0.75823E-06  4280   0.533E-03
  24 F= -.85964521E+03 E0= -.85964521E+03  d E =-.174316E-03  mag=     0.0000
quench:  g(F)=  0.000E+00 g(S)=  0.000E+00 dE (1.order)= 0.000E+00
 bond charge predicted
       N       E                     dE             d eps       ncg     rms          rms(c)
DAV:   1    -0.851729043078E+03   -0.51579E-04   -0.93771E-02  3920   0.649E-01    0.577E-02
DAV:   2    -0.851729209105E+03   -0.16603E-03   -0.20170E-03  3840   0.851E-02    0.440E-02
DAV:   3    -0.851729199771E+03    0.93333E-05   -0.30737E-05  4680   0.127E-02    0.342E-02
DAV:   4    -0.851729209837E+03   -0.10065E-04   -0.54919E-05  4100   0.173E-02    0.713E-03
DAV:   5    -0.851729210448E+03   -0.61128E-06   -0.10480E-05  4300   0.643E-03    0.487E-03
DAV:   6    -0.851729210169E+03    0.27881E-06   -0.21353E-06  3300   0.379E-03
  25 F= -.85964542E+03 E0= -.85964542E+03  d E =-.216697E-03  mag=    -0.0000
quench:  g(F)=  0.000E+00 g(S)=  0.000E+00 dE (1.order)= 0.000E+00
 bond charge predicted
       N       E                     dE             d eps       ncg     rms          rms(c)
DAV:   1    -0.851729208859E+03    0.15894E-05   -0.15141E-01  3920   0.823E-01    0.722E-02
DAV:   2    -0.851729479426E+03   -0.27057E-03   -0.32656E-03  3840   0.108E-01    0.548E-02
DAV:   3    -0.851729463447E+03    0.15979E-04   -0.49073E-05  4680   0.161E-02    0.426E-02
DAV:   4    -0.851729476913E+03   -0.13466E-04   -0.89149E-05  4280   0.218E-02    0.882E-03
DAV:   5    -0.851729477794E+03   -0.88114E-06   -0.16685E-05  4260   0.809E-03    0.593E-03
DAV:   6    -0.851729477507E+03    0.28696E-06   -0.30149E-06  3440   0.429E-03
  26 F= -.85964569E+03 E0= -.85964569E+03  d E =-.262981E-03  mag=     0.0000
quench:  g(F)=  0.000E+00 g(S)=  0.000E+00 dE (1.order)= 0.000E+00
 bond charge predicted
       N       E                     dE             d eps       ncg     rms          rms(c)
DAV:   1    -0.851729337713E+03    0.14008E-03   -0.24746E-01  3920   0.105E+00    0.917E-02
DAV:   2    -0.851729779261E+03   -0.44155E-03   -0.53269E-03  3840   0.137E-01    0.697E-02
DAV:   3    -0.851729752345E+03    0.26917E-04   -0.78716E-05  4640   0.203E-02    0.542E-02
DAV:   4    -0.851729772458E+03   -0.20114E-04   -0.15451E-04  4460   0.283E-02    0.111E-02
DAV:   5    -0.851729773855E+03   -0.13971E-05   -0.27936E-05  4260   0.104E-02    0.762E-03
DAV:   6    -0.851729773576E+03    0.27949E-06   -0.46003E-06  3680   0.528E-03
  27 F= -.85964597E+03 E0= -.85964597E+03  d E =-.287792E-03  mag=     0.0000
quench:  g(F)=  0.000E+00 g(S)=  0.000E+00 dE (1.order)= 0.000E+00
 bond charge predicted
       N       E                     dE             d eps       ncg     rms          rms(c)
DAV:   1    -0.851729422140E+03    0.35172E-03   -0.39321E-01  3920   0.132E+00    0.115E-01
DAV:   2    -0.851730121657E+03   -0.69952E-03   -0.84748E-03  3860   0.173E-01    0.874E-02
DAV:   3    -0.851730078768E+03    0.42889E-04   -0.12349E-04  4620   0.254E-02    0.681E-02
DAV:   4    -0.851730112116E+03   -0.33348E-04   -0.25381E-04  4500   0.358E-02    0.140E-02
DAV:   5    -0.851730114419E+03   -0.23029E-05   -0.45113E-05  4260   0.132E-02    0.963E-03
DAV:   6    -0.851730114156E+03    0.26380E-06   -0.72673E-06  3740   0.657E-03
  28 F= -.85964630E+03 E0= -.85964630E+03  d E =-.329045E-03  mag=    -0.0000
quench:  g(F)=  0.000E+00 g(S)=  0.000E+00 dE (1.order)= 0.000E+00
 bond charge predicted
       N       E                     dE             d eps       ncg     rms          rms(c)
DAV:   1    -0.851729503735E+03    0.61068E-03   -0.59701E-01  3920   0.163E+00    0.142E-01
DAV:   2    -0.851730569037E+03   -0.10653E-02   -0.12898E-02  3880   0.213E-01    0.107E-01
DAV:   3    -0.851730506555E+03    0.62482E-04   -0.18864E-04  4680   0.314E-02    0.833E-02
DAV:   4    -0.851730559915E+03   -0.53359E-04   -0.36983E-04  4520   0.435E-02    0.172E-02
DAV:   5    -0.851730563023E+03   -0.31081E-05   -0.66117E-05  4280   0.161E-02    0.117E-02
DAV:   6    -0.851730562844E+03    0.17865E-06   -0.11488E-05  3820   0.812E-03    0.524E-03
DAV:   7    -0.851730563505E+03   -0.66092E-06   -0.26336E-06  3500   0.334E-03
  29 F= -.85964674E+03 E0= -.85964674E+03  d E =-.437069E-03  mag=    -0.0000
quench:  g(F)=  0.000E+00 g(S)=  0.000E+00 dE (1.order)= 0.000E+00
 bond charge predicted
       N       E                     dE             d eps       ncg     rms          rms(c)
DAV:   1    -0.851729495301E+03    0.10675E-02   -0.89771E-01  3920   0.200E+00    0.174E-01
DAV:   2    -0.851731103419E+03   -0.16081E-02   -0.19395E-02  3920   0.261E-01    0.132E-01
DAV:   3    -0.851731010767E+03    0.92652E-04   -0.28885E-04  4680   0.388E-02    0.102E-01
DAV:   4    -0.851731075726E+03   -0.64959E-04   -0.53612E-04  4520   0.525E-02    0.215E-02
DAV:   5    -0.851731081924E+03   -0.61978E-05   -0.96716E-05  4260   0.194E-02    0.141E-02
DAV:   6    -0.851731081701E+03    0.22344E-06   -0.17082E-05  3820   0.967E-03    0.621E-03
DAV:   7    -0.851731082737E+03   -0.10363E-05   -0.39345E-06  4000   0.399E-03    0.349E-03
DAV:   8    -0.851731082673E+03    0.64327E-07   -0.90954E-07  2870   0.318E-03
  30 F= -.85964724E+03 E0= -.85964724E+03  d E =-.501732E-03  mag=     0.0000
quench:  g(F)=  0.000E+00 g(S)=  0.000E+00 dE (1.order)= 0.000E+00
 bond charge predicted
       N       E                     dE             d eps       ncg     rms          rms(c)
DAV:   1    -0.851729294429E+03    0.17883E-02   -0.13548E+00  3920   0.245E+00    0.214E-01
DAV:   2    -0.851731721623E+03   -0.24272E-02   -0.29091E-02  3940   0.320E-01    0.163E-01
DAV:   3    -0.851731572662E+03    0.14896E-03   -0.43543E-04  4640   0.477E-02    0.126E-01
DAV:   4    -0.851731647810E+03   -0.75148E-04   -0.84695E-04  4540   0.654E-02    0.262E-02
DAV:   5    -0.851731657263E+03   -0.94523E-05   -0.15085E-04  4280   0.240E-02    0.175E-02
DAV:   6    -0.851731656824E+03    0.43918E-06   -0.24859E-05  3860   0.116E-02    0.792E-03
DAV:   7    -0.851731658537E+03   -0.17134E-05   -0.64799E-06  4340   0.509E-03    0.411E-03
DAV:   8    -0.851731658420E+03    0.11719E-06   -0.13104E-06  3000   0.378E-03
  31 F= -.85964779E+03 E0= -.85964779E+03  d E =-.543578E-03  mag=    -0.0000
quench:  g(F)=  0.000E+00 g(S)=  0.000E+00 dE (1.order)= 0.000E+00
 bond charge predicted
       N       E                     dE             d eps       ncg     rms          rms(c)
DAV:   1    -0.851729041736E+03    0.26168E-02   -0.19496E+00  3920   0.294E+00    0.257E-01
DAV:   2    -0.851732521700E+03   -0.34800E-02   -0.41601E-02  3940   0.384E-01    0.197E-01
DAV:   3    -0.851732297891E+03    0.22381E-03   -0.63876E-04  4680   0.578E-02    0.153E-01
DAV:   4    -0.851732386586E+03   -0.88695E-04   -0.12474E-03  4540   0.792E-02    0.318E-02
DAV:   5    -0.851732400203E+03   -0.13618E-04   -0.22107E-04  4240   0.292E-02    0.210E-02
DAV:   6    -0.851732399816E+03    0.38752E-06   -0.36766E-05  3920   0.137E-02    0.931E-03
DAV:   7    -0.851732402217E+03   -0.24013E-05   -0.86671E-06  4360   0.582E-03    0.485E-03
DAV:   8    -0.851732402068E+03    0.14951E-06   -0.17494E-06  3300   0.420E-03
  32 F= -.85964849E+03 E0= -.85964849E+03  d E =-.703408E-03  mag=    -0.0000
quench:  g(F)=  0.000E+00 g(S)=  0.000E+00 dE (1.order)= 0.000E+00
 bond charge predicted
       N       E                     dE             d eps       ncg     rms          rms(c)
DAV:   1    -0.851728803965E+03    0.35983E-02   -0.27304E+00  3920   0.349E+00    0.306E-01
DAV:   2    -0.851733676018E+03   -0.48721E-02   -0.58006E-02  3940   0.455E-01    0.236E-01
DAV:   3    -0.851733357995E+03    0.31802E-03   -0.91467E-04  4680   0.691E-02    0.182E-01
DAV:   4    -0.851733448382E+03   -0.90387E-04   -0.17437E-03  4540   0.939E-02    0.380E-02
DAV:   5    -0.851733463962E+03   -0.15580E-04   -0.31381E-04  4260   0.351E-02    0.246E-02
DAV:   6    -0.851733465592E+03   -0.16298E-05   -0.53903E-05  4140   0.161E-02    0.107E-02
DAV:   7    -0.851733468694E+03   -0.31025E-05   -0.10294E-05  4400   0.634E-03    0.567E-03
DAV:   8    -0.851733468477E+03    0.21664E-06   -0.19141E-06  3340   0.409E-03
  33 F= -.85964951E+03 E0= -.85964951E+03  d E =-.101952E-02  mag=    -0.0000
quench:  g(F)=  0.000E+00 g(S)=  0.000E+00 dE (1.order)= 0.000E+00
 bond charge predicted
       N       E                     dE             d eps       ncg     rms          rms(c)
DAV:   1    -0.851727632820E+03    0.58359E-02   -0.41162E+00  3920   0.426E+00    0.372E-01
DAV:   2    -0.851735132717E+03   -0.74999E-02   -0.87997E-02  3940   0.557E-01    0.289E-01
DAV:   3    -0.851734618661E+03    0.51406E-03   -0.13546E-03  4660   0.836E-02    0.226E-01
DAV:   4    -0.851734619472E+03   -0.81077E-06   -0.29245E-03  4580   0.119E-01    0.466E-02
DAV:   5    -0.851734645882E+03   -0.26410E-04   -0.51889E-04  4260   0.437E-02    0.317E-02
DAV:   6    -0.851734649784E+03   -0.39017E-05   -0.74641E-05  4120   0.186E-02    0.144E-02
DAV:   7    -0.851734656735E+03   -0.69511E-05   -0.17573E-05  4420   0.816E-03    0.696E-03
DAV:   8    -0.851734656538E+03    0.19728E-06   -0.29639E-06  3560   0.484E-03
  34 F= -.85965062E+03 E0= -.85965062E+03  d E =-.111247E-02  mag=     0.0000
quench:  g(F)=  0.000E+00 g(S)=  0.000E+00 dE (1.order)= 0.000E+00
 bond charge predicted
       N       E                     dE             d eps       ncg     rms          rms(c)
DAV:   1    -0.851725195611E+03    0.94611E-02   -0.50210E+00  3900   0.478E+00    0.421E-01
DAV:   2    -0.851734667155E+03   -0.94715E-02   -0.11096E-01  3960   0.628E-01    0.326E-01
DAV:   3    -0.851734057489E+03    0.60967E-03   -0.19661E-03  4760   0.994E-02    0.254E-01
DAV:   4    -0.851733994897E+03    0.62591E-04   -0.28641E-03  4460   0.126E-01    0.617E-02
DAV:   5    -0.851734060016E+03   -0.65119E-04   -0.59886E-04  4280   0.475E-02    0.360E-02
DAV:   6    -0.851734061563E+03   -0.15469E-05   -0.11893E-04  4080   0.235E-02    0.148E-02
DAV:   7    -0.851734067804E+03   -0.62417E-05   -0.17385E-05  4460   0.852E-03    0.879E-03
DAV:   8    -0.851734067676E+03    0.12825E-06   -0.46825E-06  3720   0.597E-03
  35 F= -.85964995E+03 E0= -.85964995E+03  d E =0.667311E-03  mag=     0.0000
quench:  g(F)=  0.000E+00 g(S)=  0.000E+00 dE (1.order)= 0.000E+00
 bond charge predicted
       N       E                     dE             d eps       ncg     rms          rms(c)
DAV:   1    -0.851736668757E+03   -0.26010E-02   -0.15083E-01  3900   0.825E-01    0.844E-02
DAV:   2    -0.851736982390E+03   -0.31363E-03   -0.42076E-03  4520   0.121E-01    0.787E-02
DAV:   3    -0.851736931159E+03    0.51231E-04   -0.11658E-04  4840   0.224E-02    0.658E-02
DAV:   4    -0.851736861885E+03    0.69275E-04   -0.17097E-04  4280   0.294E-02    0.264E-02
DAV:   5    -0.851736864510E+03   -0.26255E-05   -0.64653E-05  4340   0.149E-02    0.104E-02
DAV:   6    -0.851736865147E+03   -0.63705E-06   -0.62704E-06  3960   0.525E-03
  36 F= -.85965274E+03 E0= -.85965274E+03  d E =-.278446E-02  mag=    -0.0000
quench:  g(F)=  0.000E+00 g(S)=  0.000E+00 dE (1.order)= 0.000E+00
 bond charge predicted
       N       E                     dE             d eps       ncg     rms          rms(c)
DAV:   1    -0.851734657464E+03    0.22070E-02   -0.17071E-01  3880   0.878E-01    0.866E-02
DAV:   2    -0.851735011143E+03   -0.35368E-03   -0.46284E-03  4540   0.128E-01    0.795E-02
DAV:   3    -0.851734960294E+03    0.50849E-04   -0.12320E-04  4760   0.233E-02    0.663E-02
DAV:   4    -0.851734899156E+03    0.61138E-04   -0.18473E-04  4280   0.305E-02    0.259E-02
DAV:   5    -0.851734904350E+03   -0.51935E-05   -0.62691E-05  4420   0.146E-02    0.111E-02
DAV:   6    -0.851734905303E+03   -0.95287E-06   -0.63586E-06  4020   0.548E-03
  37 F= -.85965076E+03 E0= -.85965076E+03  d E =0.197994E-02  mag=     0.0000
quench:  g(F)=  0.000E+00 g(S)=  0.000E+00 dE (1.order)= 0.000E+00
 bond charge predicted
       N       E                     dE             d eps       ncg     rms          rms(c)
DAV:   1    -0.851735792638E+03   -0.88829E-03   -0.67162E-03  3880   0.177E-01    0.186E-02
DAV:   2    -0.851735805881E+03   -0.13244E-04   -0.19223E-04  4540   0.263E-02    0.179E-02
DAV:   3    -0.851735803063E+03    0.28183E-05   -0.55234E-06  4120   0.491E-03    0.151E-02
DAV:   4    -0.851735798571E+03    0.44918E-05   -0.10169E-05  3940   0.716E-03    0.585E-03
DAV:   5    -0.851735798580E+03   -0.90513E-08   -0.33649E-06  3410   0.339E-03
  38 F= -.85965165E+03 E0= -.85965165E+03  d E =-.896137E-03  mag=    -0.0000
quench:  g(F)=  0.000E+00 g(S)=  0.000E+00 dE (1.order)= 0.000E+00
 bond charge predicted
       N       E                     dE             d eps       ncg     rms          rms(c)
DAV:   1    -0.851736763603E+03   -0.96503E-03   -0.20804E-02  3920   0.313E-01    0.322E-02
DAV:   2    -0.851736808678E+03   -0.45075E-04   -0.59681E-04  4540   0.463E-02    0.298E-02
DAV:   3    -0.851736801592E+03    0.70857E-05   -0.17281E-05  4880   0.863E-03    0.249E-02
DAV:   4    -0.851736792079E+03    0.95140E-05   -0.22426E-05  4080   0.108E-02    0.102E-02
DAV:   5    -0.851736792318E+03   -0.23987E-06   -0.90053E-06  4100   0.565E-03
  39 F= -.85965265E+03 E0= -.85965265E+03  d E =-.997927E-03  mag=    -0.0000
quench:  g(F)=  0.000E+00 g(S)=  0.000E+00 dE (1.order)= 0.000E+00
 bond charge predicted
       N       E                     dE             d eps       ncg     rms          rms(c)
DAV:   1    -0.851736978524E+03   -0.18645E-03   -0.29618E-02  3920   0.377E-01    0.383E-02
DAV:   2    -0.851737043453E+03   -0.64929E-04   -0.85089E-04  4540   0.559E-02    0.353E-02
DAV:   3    -0.851737033603E+03    0.98497E-05   -0.24889E-05  4860   0.104E-02    0.294E-02
DAV:   4    -0.851737020700E+03    0.12903E-04   -0.31574E-05  4100   0.129E-02    0.120E-02
DAV:   5    -0.851737021126E+03   -0.42580E-06   -0.12231E-05  4270   0.661E-03    0.476E-03
DAV:   6    -0.851737021176E+03   -0.49222E-07   -0.11164E-06  2730   0.235E-03
  40 F= -.85965288E+03 E0= -.85965288E+03  d E =-.231594E-03  mag=     0.0000
quench:  g(F)=  0.000E+00 g(S)=  0.000E+00 dE (1.order)= 0.000E+00
 bond charge predicted
       N       E                     dE             d eps       ncg     rms          rms(c)
DAV:   1    -0.851737030383E+03   -0.92570E-05   -0.29678E-05  3860   0.116E-02    0.168E-03
DAV:   2    -0.851737030400E+03   -0.16807E-07   -0.69819E-07  2470   0.174E-03
  41 F= -.85965289E+03 E0= -.85965289E+03  d E =-.877589E-05  mag=    -0.0000
quench:  g(F)=  0.000E+00 g(S)=  0.000E+00 dE (1.order)= 0.000E+00
 bond charge predicted
       N       E                     dE             d eps       ncg     rms          rms(c)
DAV:   1    -0.851737047128E+03   -0.16745E-04   -0.11470E-04  3840   0.227E-02    0.266E-03
DAV:   2    -0.851737047241E+03   -0.11275E-06   -0.25424E-06  3100   0.318E-03
  42 F= -.85965291E+03 E0= -.85965291E+03  d E =-.159574E-04  mag=     0.0000
quench:  g(F)=  0.000E+00 g(S)=  0.000E+00 dE (1.order)= 0.000E+00
 bond charge predicted
       N       E                     dE             d eps       ncg     rms          rms(c)
DAV:   1    -0.851737068828E+03   -0.21700E-04   -0.24867E-04  3920   0.334E-02    0.445E-03
DAV:   2    -0.851737069062E+03   -0.23418E-06   -0.56535E-06  4240   0.461E-03
  43 F= -.85965293E+03 E0= -.85965293E+03  d E =-.205132E-04  mag=     0.0000
quench:  g(F)=  0.000E+00 g(S)=  0.000E+00 dE (1.order)= 0.000E+00
 bond charge predicted
       N       E                     dE             d eps       ncg     rms          rms(c)
DAV:   1    -0.851737092079E+03   -0.23251E-04   -0.41580E-04  3880   0.432E-02    0.617E-03
DAV:   2    -0.851737092410E+03   -0.33082E-06   -0.90765E-06  4300   0.585E-03
  44 F= -.85965295E+03 E0= -.85965295E+03  d E =-.216746E-04  mag=    -0.0000
quench:  g(F)=  0.000E+00 g(S)=  0.000E+00 dE (1.order)= 0.000E+00
 bond charge predicted
       N       E                     dE             d eps       ncg     rms          rms(c)
DAV:   1    -0.851737113946E+03   -0.21867E-04   -0.59965E-04  3880   0.518E-02    0.765E-03
DAV:   2    -0.851737114392E+03   -0.44619E-06   -0.12694E-05  4400   0.694E-03    0.657E-03
DAV:   3    -0.851737114202E+03    0.18994E-06   -0.53731E-07  2520   0.180E-03
  45 F= -.85965297E+03 E0= -.85965297E+03  d E =-.197744E-04  mag=    -0.0000
quench:  g(F)=  0.000E+00 g(S)=  0.000E+00 dE (1.order)= 0.000E+00
 bond charge predicted
       N       E                     dE             d eps       ncg     rms          rms(c)
DAV:   1    -0.851737132854E+03   -0.18462E-04   -0.77371E-04  3880   0.588E-02    0.548E-03
DAV:   2    -0.851737133990E+03   -0.11364E-05   -0.15627E-05  4240   0.755E-03    0.454E-03
DAV:   3    -0.851737133925E+03    0.65702E-07   -0.23884E-07  2280   0.119E-03
  46 F= -.85965299E+03 E0= -.85965299E+03  d E =-.173691E-04  mag=     0.0000
quench:  g(F)=  0.000E+00 g(S)=  0.000E+00 dE (1.order)= 0.000E+00
 bond charge predicted
       N       E                     dE             d eps       ncg     rms          rms(c)
DAV:   1    -0.851737151425E+03   -0.17435E-04   -0.12039E-03  3880   0.733E-02    0.643E-03
DAV:   2    -0.851737153279E+03   -0.18533E-05   -0.24727E-05  4140   0.951E-03    0.524E-03
DAV:   3    -0.851737153151E+03    0.12790E-06   -0.37165E-07  2520   0.149E-03
  47 F= -.85965300E+03 E0= -.85965300E+03  d E =-.162748E-04  mag=    -0.0000
quench:  g(F)=  0.000E+00 g(S)=  0.000E+00 dE (1.order)= 0.000E+00
 bond charge predicted
       N       E                     dE             d eps       ncg     rms          rms(c)
DAV:   1    -0.851737171511E+03   -0.18233E-04   -0.17942E-03  3900   0.896E-02    0.787E-03
DAV:   2    -0.851737174213E+03   -0.27019E-05   -0.35893E-05  3960   0.114E-02    0.627E-03
DAV:   3    -0.851737174065E+03    0.14791E-06   -0.51159E-07  2740   0.176E-03
  48 F= -.85965302E+03 E0= -.85965302E+03  d E =-.173566E-04  mag=    -0.0000
quench:  g(F)=  0.000E+00 g(S)=  0.000E+00 dE (1.order)= 0.000E+00
 bond charge predicted
       N       E                     dE             d eps       ncg     rms          rms(c)
DAV:   1    -0.851737197500E+03   -0.23287E-04   -0.26521E-03  3880   0.109E-01    0.953E-03
DAV:   2    -0.851737201406E+03   -0.39060E-05   -0.52179E-05  3840   0.138E-02    0.740E-03
DAV:   3    -0.851737201257E+03    0.14935E-06   -0.74513E-07  2980   0.211E-03
  49 F= -.85965304E+03 E0= -.85965304E+03  d E =-.230621E-04  mag=     0.0000
quench:  g(F)=  0.000E+00 g(S)=  0.000E+00 dE (1.order)= 0.000E+00
 bond charge predicted
       N       E                     dE             d eps       ncg     rms          rms(c)
DAV:   1    -0.851737233915E+03   -0.32509E-04   -0.39686E-03  3900   0.134E-01    0.117E-02
DAV:   2    -0.851737239781E+03   -0.58662E-05   -0.77887E-05  3840   0.168E-02    0.898E-03
DAV:   3    -0.851737239531E+03    0.25042E-06   -0.11469E-06  3140   0.257E-03
  50 F= -.85965308E+03 E0= -.85965308E+03  d E =-.335685E-04  mag=     0.0000
quench:  g(F)=  0.000E+00 g(S)=  0.000E+00 dE (1.order)= 0.000E+00
 bond charge predicted
       N       E                     dE             d eps       ncg     rms          rms(c)
DAV:   1    -0.851737282385E+03   -0.42604E-04   -0.60292E-03  3880   0.165E-01    0.145E-02
DAV:   2    -0.851737291370E+03   -0.89849E-05   -0.11876E-04  3840   0.208E-02    0.111E-02
DAV:   3    -0.851737291004E+03    0.36634E-06   -0.19088E-06  3480   0.322E-03
  51 F= -.85965312E+03 E0= -.85965312E+03  d E =-.460258E-04  mag=     0.0000
quench:  g(F)=  0.000E+00 g(S)=  0.000E+00 dE (1.order)= 0.000E+00
 bond charge predicted
       N       E                     dE             d eps       ncg     rms          rms(c)
DAV:   1    -0.851737337276E+03   -0.45906E-04   -0.92393E-03  3900   0.205E-01    0.182E-02
DAV:   2    -0.851737351068E+03   -0.13792E-04   -0.18248E-04  3840   0.259E-02    0.140E-02
DAV:   3    -0.851737350498E+03    0.56954E-06   -0.31774E-06  3880   0.407E-03
  52 F= -.85965318E+03 E0= -.85965318E+03  d E =-.530584E-04  mag=     0.0000
quench:  g(F)=  0.000E+00 g(S)=  0.000E+00 dE (1.order)= 0.000E+00
 bond charge predicted
       N       E                     dE             d eps       ncg     rms          rms(c)
DAV:   1    -0.851737393714E+03   -0.42646E-04   -0.14197E-02  3880   0.254E-01    0.227E-02
DAV:   2    -0.851737414540E+03   -0.20826E-04   -0.27858E-04  3840   0.320E-02    0.176E-02
DAV:   3    -0.851737413665E+03    0.87502E-06   -0.50779E-06  4320   0.509E-03
  53 F= -.85965323E+03 E0= -.85965323E+03  d E =-.552307E-04  mag=     0.0000
quench:  g(F)=  0.000E+00 g(S)=  0.000E+00 dE (1.order)= 0.000E+00
 bond charge predicted
       N       E                     dE             d eps       ncg     rms          rms(c)
DAV:   1    -0.851737452826E+03   -0.38286E-04   -0.21871E-02  3880   0.315E-01    0.282E-02
DAV:   2    -0.851737484288E+03   -0.31462E-04   -0.42509E-04  3840   0.395E-02    0.219E-02
DAV:   3    -0.851737483001E+03    0.12877E-05   -0.77129E-06  4600   0.627E-03    0.166E-02
DAV:   4    -0.851737487634E+03   -0.46330E-05   -0.11429E-05  3680   0.799E-03    0.341E-03
DAV:   5    -0.851737487841E+03   -0.20751E-06   -0.26453E-06  3620   0.312E-03
  54 F= -.85965330E+03 E0= -.85965330E+03  d E =-.642151E-04  mag=     0.0000
quench:  g(F)=  0.000E+00 g(S)=  0.000E+00 dE (1.order)= 0.000E+00
 bond charge predicted
       N       E                     dE             d eps       ncg     rms          rms(c)
DAV:   1    -0.851737527410E+03   -0.39776E-04   -0.34541E-02  3920   0.394E-01    0.337E-02
DAV:   2    -0.851737581629E+03   -0.54220E-04   -0.71240E-04  3840   0.514E-02    0.260E-02
DAV:   3    -0.851737577891E+03    0.37386E-05   -0.12803E-05  4660   0.811E-03    0.199E-02
DAV:   4    -0.851737582622E+03   -0.47316E-05   -0.22023E-05  3660   0.108E-02    0.447E-03
DAV:   5    -0.851737582995E+03   -0.37283E-06   -0.45169E-06  4040   0.409E-03
  55 F= -.85965338E+03 E0= -.85965338E+03  d E =-.819805E-04  mag=    -0.0000
quench:  g(F)=  0.000E+00 g(S)=  0.000E+00 dE (1.order)= 0.000E+00
 bond charge predicted
       N       E                     dE             d eps       ncg     rms          rms(c)
DAV:   1    -0.851737621510E+03   -0.38888E-04   -0.53502E-02  3920   0.490E-01    0.419E-02
DAV:   2    -0.851737706467E+03   -0.84957E-04   -0.11098E-03  3840   0.641E-02    0.324E-02
DAV:   3    -0.851737700463E+03    0.60041E-05   -0.19574E-05  4640   0.100E-02    0.250E-02
DAV:   4    -0.851737707420E+03   -0.69567E-05   -0.35545E-05  3800   0.136E-02    0.553E-03
DAV:   5    -0.851737708042E+03   -0.62188E-06   -0.70136E-06  4280   0.510E-03
  56 F= -.85965349E+03 E0= -.85965349E+03  d E =-.108307E-03  mag=     0.0000
quench:  g(F)=  0.000E+00 g(S)=  0.000E+00 dE (1.order)= 0.000E+00
 bond charge predicted
       N       E                     dE             d eps       ncg     rms          rms(c)
DAV:   1    -0.851737708733E+03   -0.13136E-05   -0.81863E-02  3920   0.606E-01    0.518E-02
DAV:   2    -0.851737841211E+03   -0.13248E-03   -0.17086E-03  3840   0.793E-02    0.400E-02
DAV:   3    -0.851737831973E+03    0.92379E-05   -0.29766E-05  4640   0.123E-02    0.309E-02
DAV:   4    -0.851737841733E+03   -0.97602E-05   -0.54805E-05  4140   0.168E-02    0.679E-03
DAV:   5    -0.851737842498E+03   -0.76464E-06   -0.10375E-05  4340   0.628E-03    0.442E-03
DAV:   6    -0.851737842701E+03   -0.20341E-06   -0.16741E-06  2900   0.294E-03
  57 F= -.85965360E+03 E0= -.85965360E+03  d E =-.114732E-03  mag=     0.0000
quench:  g(F)=  0.000E+00 g(S)=  0.000E+00 dE (1.order)= 0.000E+00
 bond charge predicted
       N       E                     dE             d eps       ncg     rms          rms(c)
DAV:   1    -0.851737795083E+03    0.47415E-04   -0.12020E-01  3920   0.735E-01    0.623E-02
DAV:   2    -0.851737989502E+03   -0.19442E-03   -0.24908E-03  3840   0.957E-02    0.479E-02
DAV:   3    -0.851737975672E+03    0.13829E-04   -0.43723E-05  4620   0.150E-02    0.368E-02
DAV:   4    -0.851737986906E+03   -0.11233E-04   -0.80166E-05  4280   0.203E-02    0.810E-03
DAV:   5    -0.851737987756E+03   -0.84992E-06   -0.14924E-05  4300   0.762E-03    0.514E-03
DAV:   6    -0.851737988057E+03   -0.30106E-06   -0.23285E-06  3100   0.329E-03
  58 F= -.85965372E+03 E0= -.85965372E+03  d E =-.123169E-03  mag=    -0.0000
quench:  g(F)=  0.000E+00 g(S)=  0.000E+00 dE (1.order)= 0.000E+00
 bond charge predicted
       N       E                     dE             d eps       ncg     rms          rms(c)
DAV:   1    -0.851737883098E+03    0.10466E-03   -0.17563E-01  3920   0.890E-01    0.756E-02
DAV:   2    -0.851738166175E+03   -0.28308E-03   -0.36232E-03  3840   0.116E-01    0.581E-02
DAV:   3    -0.851738146201E+03    0.19974E-04   -0.65039E-05  4640   0.183E-02    0.444E-02
DAV:   4    -0.851738161645E+03   -0.15444E-04   -0.11490E-04  4380   0.243E-02    0.983E-03
DAV:   5    -0.851738162512E+03   -0.86687E-06   -0.21526E-05  4280   0.920E-03    0.605E-03
DAV:   6    -0.851738162973E+03   -0.46101E-06   -0.33853E-06  3320   0.384E-03
  59 F= -.85965388E+03 E0= -.85965388E+03  d E =-.150887E-03  mag=    -0.0000
quench:  g(F)=  0.000E+00 g(S)=  0.000E+00 dE (1.order)= 0.000E+00
 bond charge predicted
       N       E                     dE             d eps       ncg     rms          rms(c)
DAV:   1    -0.851737932423E+03    0.23009E-03   -0.26009E-01  3920   0.108E+00    0.923E-02
DAV:   2    -0.851738349662E+03   -0.41724E-03   -0.53473E-03  3860   0.141E-01    0.712E-02
DAV:   3    -0.851738320353E+03    0.29309E-04   -0.97477E-05  4640   0.224E-02    0.543E-02
DAV:   4    -0.851738341533E+03   -0.21180E-04   -0.17191E-04  4400   0.297E-02    0.120E-02
DAV:   5    -0.851738342381E+03   -0.84720E-06   -0.32407E-05  4280   0.113E-02    0.733E-03
DAV:   6    -0.851738343074E+03   -0.69340E-06   -0.50148E-06  3560   0.465E-03
  60 F= -.85965403E+03 E0= -.85965403E+03  d E =-.153415E-03  mag=     0.0000
quench:  g(F)=  0.000E+00 g(S)=  0.000E+00 dE (1.order)= 0.000E+00
 bond charge predicted
       N       E                     dE             d eps       ncg     rms          rms(c)
DAV:   1    -0.851737913330E+03    0.42905E-03   -0.39161E-01  3920   0.133E+00    0.113E-01
DAV:   2    -0.851738548909E+03   -0.63558E-03   -0.80937E-03  3880   0.173E-01    0.875E-02
DAV:   3    -0.851738504555E+03    0.44354E-04   -0.14521E-04  4640   0.274E-02    0.669E-02
DAV:   4    -0.851738533842E+03   -0.29288E-04   -0.26308E-04  4440   0.366E-02    0.148E-02
DAV:   5    -0.851738535625E+03   -0.17826E-05   -0.48198E-05  4260   0.137E-02    0.919E-03
DAV:   6    -0.851738536492E+03   -0.86644E-06   -0.76899E-06  3640   0.589E-03
  61 F= -.85965419E+03 E0= -.85965419E+03  d E =-.159593E-03  mag=    -0.0000
quench:  g(F)=  0.000E+00 g(S)=  0.000E+00 dE (1.order)= 0.000E+00
 bond charge predicted
       N       E                     dE             d eps       ncg     rms          rms(c)
DAV:   1    -0.851737850522E+03    0.68510E-03   -0.58598E-01  3920   0.163E+00    0.139E-01
DAV:   2    -0.851738818152E+03   -0.96763E-03   -0.12209E-02  3920   0.212E-01    0.107E-01
DAV:   3    -0.851738748624E+03    0.69529E-04   -0.21612E-04  4680   0.334E-02    0.820E-02
DAV:   4    -0.851738791761E+03   -0.43137E-04   -0.39081E-04  4500   0.448E-02    0.182E-02
DAV:   5    -0.851738794646E+03   -0.28850E-05   -0.70892E-05  4240   0.166E-02    0.114E-02
DAV:   6    -0.851738795433E+03   -0.78691E-06   -0.11801E-05  3760   0.743E-03    0.485E-03
DAV:   7    -0.851738796280E+03   -0.84757E-06   -0.19935E-06  3060   0.288E-03
  62 F= -.85965441E+03 E0= -.85965441E+03  d E =-.220979E-03  mag=    -0.0000
quench:  g(F)=  0.000E+00 g(S)=  0.000E+00 dE (1.order)= 0.000E+00
 bond charge predicted
       N       E                     dE             d eps       ncg     rms          rms(c)
DAV:   1    -0.851737877525E+03    0.91791E-03   -0.85802E-01  3920   0.197E+00    0.168E-01
DAV:   2    -0.851739317892E+03   -0.14404E-02   -0.17994E-02  3960   0.256E-01    0.129E-01
DAV:   3    -0.851739219182E+03    0.98710E-04   -0.31640E-04  4700   0.404E-02    0.989E-02
DAV:   4    -0.851739270749E+03   -0.51567E-04   -0.54362E-04  4460   0.530E-02    0.221E-02
DAV:   5    -0.851739275480E+03   -0.47309E-05   -0.99866E-05  4280   0.197E-02    0.135E-02
DAV:   6    -0.851739276029E+03   -0.54885E-06   -0.17520E-05  3780   0.888E-03    0.568E-03
DAV:   7    -0.851739277144E+03   -0.11150E-05   -0.28395E-06  3440   0.339E-03    0.311E-03
DAV:   8    -0.851739277109E+03    0.34946E-07   -0.48818E-07  2540   0.211E-03
  63 F= -.85965484E+03 E0= -.85965484E+03  d E =-.435265E-03  mag=     0.0000
quench:  g(F)=  0.000E+00 g(S)=  0.000E+00 dE (1.order)= 0.000E+00
 bond charge predicted
       N       E                     dE             d eps       ncg     rms          rms(c)
DAV:   1    -0.851737752827E+03    0.15243E-02   -0.13156E+00  3920   0.243E+00    0.207E-01
DAV:   2    -0.851740025007E+03   -0.22722E-02   -0.27930E-02  3960   0.317E-01    0.158E-01
DAV:   3    -0.851739879743E+03    0.14526E-03   -0.46979E-04  4700   0.492E-02    0.122E-01
DAV:   4    -0.851739946847E+03   -0.67104E-04   -0.81849E-04  4540   0.652E-02    0.270E-02
DAV:   5    -0.851739955030E+03   -0.81831E-05   -0.14969E-04  4220   0.241E-02    0.167E-02
DAV:   6    -0.851739955526E+03   -0.49592E-06   -0.26109E-05  3880   0.110E-02    0.703E-03
DAV:   7    -0.851739957286E+03   -0.17593E-05   -0.45399E-06  4000   0.427E-03    0.380E-03
DAV:   8    -0.851739957216E+03    0.69289E-07   -0.67318E-07  2580   0.267E-03
  64 F= -.85965547E+03 E0= -.85965547E+03  d E =-.622155E-03  mag=    -0.0000
quench:  g(F)=  0.000E+00 g(S)=  0.000E+00 dE (1.order)= 0.000E+00
 bond charge predicted
       N       E                     dE             d eps       ncg     rms          rms(c)
DAV:   1    -0.851737402685E+03    0.25546E-02   -0.20113E+00  3920   0.300E+00    0.254E-01
DAV:   2    -0.851740948148E+03   -0.35455E-02   -0.43015E-02  3960   0.392E-01    0.194E-01
DAV:   3    -0.851740721569E+03    0.22658E-03   -0.70115E-04  4700   0.601E-02    0.150E-01
DAV:   4    -0.851740801988E+03   -0.80420E-04   -0.12770E-03  4580   0.811E-02    0.329E-02
DAV:   5    -0.851740813815E+03   -0.11827E-04   -0.23182E-04  4220   0.298E-02    0.208E-02
DAV:   6    -0.851740814927E+03   -0.11114E-05   -0.39516E-05  3960   0.133E-02    0.885E-03
DAV:   7    -0.851740817605E+03   -0.26787E-05   -0.69245E-06  4280   0.519E-03    0.462E-03
DAV:   8    -0.851740817470E+03    0.13516E-06   -0.97473E-07  2820   0.305E-03
  65 F= -.85965626E+03 E0= -.85965626E+03  d E =-.790609E-03  mag=    -0.0000
quench:  g(F)=  0.000E+00 g(S)=  0.000E+00 dE (1.order)= 0.000E+00
 bond charge predicted
       N       E                     dE             d eps       ncg     rms          rms(c)
DAV:   1    -0.851736828521E+03    0.39891E-02   -0.28853E+00  3920   0.360E+00    0.304E-01
DAV:   2    -0.851741983631E+03   -0.51551E-02   -0.62103E-02  3960   0.468E-01    0.231E-01
DAV:   3    -0.851741664618E+03    0.31901E-03   -0.10221E-03  4700   0.722E-02    0.178E-01
DAV:   4    -0.851741769717E+03   -0.10510E-03   -0.17293E-03  4540   0.951E-02    0.397E-02
DAV:   5    -0.851741784458E+03   -0.14742E-04   -0.32283E-04  4240   0.353E-02    0.240E-02
DAV:   6    -0.851741786531E+03   -0.20727E-05   -0.58097E-05  4080   0.156E-02    0.986E-03
DAV:   7    -0.851741789685E+03   -0.31544E-05   -0.86782E-06  4280   0.578E-03    0.540E-03
DAV:   8    -0.851741789506E+03    0.17900E-06   -0.10057E-06  2800   0.291E-03
  66 F= -.85965715E+03 E0= -.85965715E+03  d E =-.893203E-03  mag=     0.0000
quench:  g(F)=  0.000E+00 g(S)=  0.000E+00 dE (1.order)= 0.000E+00
 bond charge predicted
       N       E                     dE             d eps       ncg     rms          rms(c)
DAV:   1    -0.851735525300E+03    0.62644E-02   -0.42264E+00  3920   0.434E+00    0.367E-01
DAV:   2    -0.851743121330E+03   -0.75960E-02   -0.90814E-02  3980   0.569E-01    0.284E-01
DAV:   3    -0.851742595564E+03    0.52577E-03   -0.15005E-03  4700   0.873E-02    0.220E-01
DAV:   4    -0.851742619859E+03   -0.24295E-04   -0.28570E-03  4600   0.120E-01    0.487E-02
DAV:   5    -0.851742648128E+03   -0.28269E-04   -0.51902E-04  4180   0.440E-02    0.308E-02
DAV:   6    -0.851742653414E+03   -0.52857E-05   -0.84517E-05  4140   0.186E-02    0.130E-02
DAV:   7    -0.851742659588E+03   -0.61739E-05   -0.13701E-05  4340   0.720E-03    0.671E-03
DAV:   8    -0.851742659219E+03    0.36872E-06   -0.18817E-06  3420   0.356E-03
  67 F= -.85965790E+03 E0= -.85965790E+03  d E =-.751785E-03  mag=    -0.0000
quench:  g(F)=  0.000E+00 g(S)=  0.000E+00 dE (1.order)= 0.000E+00
 bond charge predicted
       N       E                     dE             d eps       ncg     rms          rms(c)
DAV:   1    -0.851732246228E+03    0.10413E-01   -0.54593E+00  3920   0.498E+00    0.426E-01
DAV:   2    -0.851742401689E+03   -0.10155E-01   -0.12073E-01  3960   0.656E-01    0.330E-01
DAV:   3    -0.851741689400E+03    0.71229E-03   -0.22348E-03  4740   0.106E-01    0.255E-01
DAV:   4    -0.851741594134E+03    0.95266E-04   -0.32527E-03  4540   0.133E-01    0.636E-02
DAV:   5    -0.851741651240E+03   -0.57106E-04   -0.68157E-04  4240   0.503E-02    0.357E-02
DAV:   6    -0.851741656152E+03   -0.49124E-05   -0.12432E-04  4160   0.231E-02    0.143E-02
DAV:   7    -0.851741662503E+03   -0.63503E-05   -0.17990E-05  4260   0.867E-03    0.865E-03
DAV:   8    -0.851741662263E+03    0.23970E-06   -0.36614E-06  4040   0.514E-03
  68 F= -.85965679E+03 E0= -.85965679E+03  d E =0.111463E-02  mag=    -0.0000
quench:  g(F)=  0.000E+00 g(S)=  0.000E+00 dE (1.order)= 0.000E+00
 bond charge predicted
       N       E                     dE             d eps       ncg     rms          rms(c)
DAV:   1    -0.851744213417E+03   -0.25509E-02   -0.16256E-01  3900   0.841E-01    0.869E-02
DAV:   2    -0.851744561586E+03   -0.34817E-03   -0.46292E-03  4540   0.124E-01    0.809E-02
DAV:   3    -0.851744507218E+03    0.54367E-04   -0.12006E-04  4820   0.230E-02    0.677E-02
DAV:   4    -0.851744433835E+03    0.73383E-04   -0.18927E-04  4260   0.303E-02    0.273E-02
DAV:   5    -0.851744437583E+03   -0.37484E-05   -0.68762E-05  4360   0.149E-02    0.113E-02
DAV:   6    -0.851744438637E+03   -0.10534E-05   -0.65599E-06  3980   0.534E-03    0.423E-03
DAV:   7    -0.851744438788E+03   -0.15115E-06   -0.44153E-07  2620   0.164E-03
  69 F= -.85965954E+03 E0= -.85965954E+03  d E =-.275322E-02  mag=     0.0000
quench:  g(F)=  0.000E+00 g(S)=  0.000E+00 dE (1.order)= 0.000E+00
 bond charge predicted
       N       E                     dE             d eps       ncg     rms          rms(c)
DAV:   1    -0.851742178962E+03    0.22597E-02   -0.16466E-01  3900   0.853E-01    0.848E-02
DAV:   2    -0.851742528594E+03   -0.34963E-03   -0.45604E-03  4540   0.125E-01    0.781E-02
DAV:   3    -0.851742478585E+03    0.50009E-04   -0.11444E-04  4760   0.226E-02    0.652E-02
DAV:   4    -0.851742415032E+03    0.63553E-04   -0.19235E-04  4300   0.306E-02    0.250E-02
DAV:   5    -0.851742420466E+03   -0.54339E-05   -0.61808E-05  4380   0.141E-02    0.112E-02
DAV:   6    -0.851742421609E+03   -0.11429E-05   -0.57780E-06  3920   0.531E-03    0.440E-03
DAV:   7    -0.851742421791E+03   -0.18164E-06   -0.49872E-07  2620   0.173E-03
  70 F= -.85965749E+03 E0= -.85965749E+03  d E =0.205003E-02  mag=    -0.0000
quench:  g(F)=  0.000E+00 g(S)=  0.000E+00 dE (1.order)= 0.000E+00
 bond charge predicted
       N       E                     dE             d eps       ncg     rms          rms(c)
DAV:   1    -0.851743344828E+03   -0.92322E-03   -0.73494E-03  3920   0.183E-01    0.188E-02
DAV:   2    -0.851743360229E+03   -0.15401E-04   -0.21168E-04  4560   0.271E-02    0.177E-02
DAV:   3    -0.851743357643E+03    0.25860E-05   -0.57393E-06  4020   0.507E-03    0.148E-02
DAV:   4    -0.851743354174E+03    0.34682E-05   -0.96424E-06  3920   0.693E-03    0.596E-03
DAV:   5    -0.851743354316E+03   -0.14177E-06   -0.30612E-06  3420   0.324E-03
  71 F= -.85965843E+03 E0= -.85965843E+03  d E =-.937535E-03  mag=    -0.0000
quench:  g(F)=  0.000E+00 g(S)=  0.000E+00 dE (1.order)= 0.000E+00
 bond charge predicted
       N       E                     dE             d eps       ncg     rms          rms(c)
DAV:   1    -0.851744323919E+03   -0.96974E-03   -0.22680E-02  3920   0.323E-01    0.332E-02
DAV:   2    -0.851744373903E+03   -0.49985E-04   -0.66658E-04  4560   0.480E-02    0.307E-02
DAV:   3    -0.851744366472E+03    0.74315E-05   -0.18122E-05  4840   0.888E-03    0.256E-02
DAV:   4    -0.851744356921E+03    0.95507E-05   -0.25278E-05  3990   0.113E-02    0.106E-02
DAV:   5    -0.851744357487E+03   -0.56535E-06   -0.96226E-06  4100   0.571E-03
  72 F= -.85965944E+03 E0= -.85965944E+03  d E =-.101100E-02  mag=    -0.0000
quench:  g(F)=  0.000E+00 g(S)=  0.000E+00 dE (1.order)= 0.000E+00
 bond charge predicted
       N       E                     dE             d eps       ncg     rms          rms(c)
DAV:   1    -0.851744481727E+03   -0.12481E-03   -0.31484E-02  3920   0.384E-01    0.393E-02
DAV:   2    -0.851744551817E+03   -0.70090E-04   -0.92815E-04  4560   0.572E-02    0.362E-02
DAV:   3    -0.851744541711E+03    0.10106E-04   -0.25586E-05  4840   0.106E-02    0.301E-02
DAV:   4    -0.851744528957E+03    0.12754E-04   -0.34887E-05  3980   0.133E-02    0.124E-02
DAV:   5    -0.851744529791E+03   -0.83364E-06   -0.12919E-05  4240   0.666E-03    0.515E-03
DAV:   6    -0.851744529928E+03   -0.13726E-06   -0.11372E-06  2700   0.222E-03
  73 F= -.85965962E+03 E0= -.85965962E+03  d E =-.179939E-03  mag=    -0.0000
quench:  g(F)=  0.000E+00 g(S)=  0.000E+00 dE (1.order)= 0.000E+00
 bond charge predicted
       N       E                     dE             d eps       ncg     rms          rms(c)
DAV:   1    -0.851744541344E+03   -0.11553E-04   -0.33786E-05  3880   0.123E-02    0.184E-03
DAV:   2    -0.851744541363E+03   -0.18721E-07   -0.81102E-07  2580   0.185E-03
  74 F= -.85965963E+03 E0= -.85965963E+03  d E =-.109799E-04  mag=     0.0000
quench:  g(F)=  0.000E+00 g(S)=  0.000E+00 dE (1.order)= 0.000E+00
 bond charge predicted
       N       E                     dE             d eps       ncg     rms          rms(c)
DAV:   1    -0.851744561775E+03   -0.20430E-04   -0.13013E-04  3880   0.241E-02    0.299E-03
DAV:   2    -0.851744561924E+03   -0.14898E-06   -0.30205E-06  3200   0.342E-03
  75 F= -.85965965E+03 E0= -.85965965E+03  d E =-.196612E-04  mag=    -0.0000
quench:  g(F)=  0.000E+00 g(S)=  0.000E+00 dE (1.order)= 0.000E+00
 bond charge predicted
       N       E                     dE             d eps       ncg     rms          rms(c)
DAV:   1    -0.851744587225E+03   -0.25450E-04   -0.27800E-04  3860   0.352E-02    0.495E-03
DAV:   2    -0.851744587506E+03   -0.28128E-06   -0.66419E-06  4260   0.495E-03
  76 F= -.85965967E+03 E0= -.85965967E+03  d E =-.242798E-04  mag=     0.0000
quench:  g(F)=  0.000E+00 g(S)=  0.000E+00 dE (1.order)= 0.000E+00
 bond charge predicted
       N       E                     dE             d eps       ncg     rms          rms(c)
DAV:   1    -0.851744613103E+03   -0.25877E-04   -0.45440E-04  3900   0.450E-02    0.678E-03
DAV:   2    -0.851744613482E+03   -0.37903E-06   -0.10293E-05  4380   0.617E-03    0.592E-03
DAV:   3    -0.851744613213E+03    0.26890E-06   -0.48537E-07  2400   0.168E-03
  77 F= -.85965970E+03 E0= -.85965970E+03  d E =-.240645E-04  mag=     0.0000
quench:  g(F)=  0.000E+00 g(S)=  0.000E+00 dE (1.order)= 0.000E+00
 bond charge predicted
       N       E                     dE             d eps       ncg     rms          rms(c)
DAV:   1    -0.851744634387E+03   -0.20905E-04   -0.62515E-04  3860   0.529E-02    0.524E-03
DAV:   2    -0.851744635408E+03   -0.10210E-05   -0.13513E-05  4340   0.697E-03    0.453E-03
DAV:   3    -0.851744635319E+03    0.89101E-07   -0.22966E-07  2260   0.116E-03
  78 F= -.85965972E+03 E0= -.85965972E+03  d E =-.201679E-04  mag=     0.0000
quench:  g(F)=  0.000E+00 g(S)=  0.000E+00 dE (1.order)= 0.000E+00
 bond charge predicted
       N       E                     dE             d eps       ncg     rms          rms(c)
DAV:   1    -0.851744650404E+03   -0.14996E-04   -0.80608E-04  3880   0.601E-02    0.556E-03
DAV:   2    -0.851744651752E+03   -0.13473E-05   -0.17413E-05  4300   0.793E-03    0.471E-03
DAV:   3    -0.851744651641E+03    0.11107E-06   -0.28495E-07  2320   0.130E-03
  79 F= -.85965973E+03 E0= -.85965973E+03  d E =-.141720E-04  mag=    -0.0000
quench:  g(F)=  0.000E+00 g(S)=  0.000E+00 dE (1.order)= 0.000E+00
 bond charge predicted
       N       E                     dE             d eps       ncg     rms          rms(c)
DAV:   1    -0.851744661347E+03   -0.95951E-05   -0.11928E-03  3880   0.732E-02    0.669E-03
DAV:   2    -0.851744663298E+03   -0.19514E-05   -0.25265E-05  4200   0.957E-03    0.554E-03
DAV:   3    -0.851744663148E+03    0.15025E-06   -0.38589E-07  2520   0.153E-03
  80 F= -.85965974E+03 E0= -.85965974E+03  d E =-.896197E-05  mag=    -0.0000
quench:  g(F)=  0.000E+00 g(S)=  0.000E+00 dE (1.order)= 0.000E+00
 bond charge predicted
       N       E                     dE             d eps       ncg     rms          rms(c)
DAV:   1    -0.851744672036E+03   -0.87375E-05   -0.16886E-03  3880   0.871E-02    0.784E-03
DAV:   2    -0.851744674729E+03   -0.26935E-05   -0.34680E-05  4000   0.112E-02    0.628E-03
DAV:   3    -0.851744674567E+03    0.16177E-06   -0.50455E-07  2640   0.176E-03
  81 F= -.85965975E+03 E0= -.85965975E+03  d E =-.861111E-05  mag=     0.0000
quench:  g(F)=  0.000E+00 g(S)=  0.000E+00 dE (1.order)= 0.000E+00
 bond charge predicted
       N       E                     dE             d eps       ncg     rms          rms(c)
DAV:   1    -0.851744689518E+03   -0.14789E-04   -0.24048E-03  3900   0.104E-01    0.929E-03
DAV:   2    -0.851744693311E+03   -0.37931E-05   -0.48568E-05  3880   0.132E-02    0.722E-03
DAV:   3    -0.851744693135E+03    0.17608E-06   -0.67448E-07  2780   0.205E-03
  82 F= -.85965977E+03 E0= -.85965977E+03  d E =-.155759E-04  mag=    -0.0000
quench:  g(F)=  0.000E+00 g(S)=  0.000E+00 dE (1.order)= 0.000E+00
 bond charge predicted
       N       E                     dE             d eps       ncg     rms          rms(c)
DAV:   1    -0.851744721265E+03   -0.27954E-04   -0.35313E-03  3880   0.126E-01    0.113E-02
DAV:   2    -0.851744726867E+03   -0.56013E-05   -0.71260E-05  3840   0.159E-02    0.862E-03
DAV:   3    -0.851744726644E+03    0.22272E-06   -0.10373E-06  2860   0.248E-03
  83 F= -.85965980E+03 E0= -.85965980E+03  d E =-.303204E-04  mag=    -0.0000
quench:  g(F)=  0.000E+00 g(S)=  0.000E+00 dE (1.order)= 0.000E+00
 bond charge predicted
       N       E                     dE             d eps       ncg     rms          rms(c)
DAV:   1    -0.851744768087E+03   -0.41220E-04   -0.53597E-03  3900   0.156E-01    0.140E-02
DAV:   2    -0.851744776694E+03   -0.86067E-05   -0.10935E-04  3840   0.197E-02    0.107E-02
DAV:   3    -0.851744776359E+03    0.33437E-06   -0.17439E-06  3300   0.312E-03
  84 F= -.85965984E+03 E0= -.85965984E+03  d E =-.461831E-04  mag=     0.0000
quench:  g(F)=  0.000E+00 g(S)=  0.000E+00 dE (1.order)= 0.000E+00
 bond charge predicted
       N       E                     dE             d eps       ncg     rms          rms(c)
DAV:   1    -0.851744821336E+03   -0.44643E-04   -0.83003E-03  3880   0.194E-01    0.176E-02
DAV:   2    -0.851744834749E+03   -0.13413E-04   -0.17084E-04  3840   0.247E-02    0.136E-02
DAV:   3    -0.851744834208E+03    0.54111E-06   -0.29702E-06  3780   0.396E-03
  85 F= -.85965990E+03 E0= -.85965990E+03  d E =-.537039E-04  mag=    -0.0000
quench:  g(F)=  0.000E+00 g(S)=  0.000E+00 dE (1.order)= 0.000E+00
 bond charge predicted
       N       E                     dE             d eps       ncg     rms          rms(c)
DAV:   1    -0.851744869327E+03   -0.34578E-04   -0.12931E-02  3880   0.242E-01    0.222E-02
DAV:   2    -0.851744889925E+03   -0.20597E-04   -0.26579E-04  3840   0.308E-02    0.171E-02
DAV:   3    -0.851744889167E+03    0.75727E-06   -0.47866E-06  4300   0.496E-03
  86 F= -.85965995E+03 E0= -.85965995E+03  d E =-.496256E-04  mag=    -0.0000
quench:  g(F)=  0.000E+00 g(S)=  0.000E+00 dE (1.order)= 0.000E+00
 bond charge predicted
       N       E                     dE             d eps       ncg     rms          rms(c)
DAV:   1    -0.851744913181E+03   -0.23256E-04   -0.19676E-02  3880   0.298E-01    0.275E-02
DAV:   2    -0.851744943448E+03   -0.30266E-04   -0.39658E-04  3840   0.377E-02    0.212E-02
DAV:   3    -0.851744942315E+03    0.11326E-05   -0.71075E-06  4620   0.607E-03    0.161E-02
DAV:   4    -0.851744945800E+03   -0.34852E-05   -0.97826E-06  3680   0.752E-03    0.342E-03
DAV:   5    -0.851744945996E+03   -0.19549E-06   -0.23528E-06  3380   0.292E-03
  87 F= -.85966000E+03 E0= -.85966000E+03  d E =-.493074E-04  mag=     0.0000
quench:  g(F)=  0.000E+00 g(S)=  0.000E+00 dE (1.order)= 0.000E+00
 bond charge predicted
       N       E                     dE             d eps       ncg     rms          rms(c)
DAV:   1    -0.851744961553E+03   -0.15753E-04   -0.30664E-02  3920   0.371E-01    0.324E-02
DAV:   2    -0.851745012083E+03   -0.50530E-04   -0.64887E-04  3840   0.487E-02    0.249E-02
DAV:   3    -0.851745008727E+03    0.33560E-05   -0.11492E-05  4640   0.776E-03    0.190E-02
DAV:   4    -0.851745012208E+03   -0.34805E-05   -0.19077E-05  3660   0.102E-02    0.435E-03
DAV:   5    -0.851745012489E+03   -0.28162E-06   -0.40147E-06  3860   0.383E-03
  88 F= -.85966005E+03 E0= -.85966005E+03  d E =-.559559E-04  mag=    -0.0000
quench:  g(F)=  0.000E+00 g(S)=  0.000E+00 dE (1.order)= 0.000E+00
 bond charge predicted
       N       E                     dE             d eps       ncg     rms          rms(c)
DAV:   1    -0.851745028043E+03   -0.15836E-04   -0.47141E-02  3920   0.459E-01    0.402E-02
DAV:   2    -0.851745106029E+03   -0.77986E-04   -0.10008E-03  3840   0.604E-02    0.311E-02
DAV:   3    -0.851745100644E+03    0.53845E-05   -0.17466E-05  4640   0.955E-03    0.239E-02
DAV:   4    -0.851745106004E+03   -0.53591E-05   -0.30968E-05  3780   0.130E-02    0.537E-03
DAV:   5    -0.851745106510E+03   -0.50643E-06   -0.63538E-06  4200   0.483E-03
  89 F= -.85966013E+03 E0= -.85966013E+03  d E =-.794298E-04  mag=    -0.0000
quench:  g(F)=  0.000E+00 g(S)=  0.000E+00 dE (1.order)= 0.000E+00
 bond charge predicted
       N       E                     dE             d eps       ncg     rms          rms(c)
DAV:   1    -0.851745091277E+03    0.14726E-04   -0.71354E-02  3920   0.565E-01    0.495E-02
DAV:   2    -0.851745209819E+03   -0.11854E-03   -0.15163E-03  3840   0.743E-02    0.383E-02
DAV:   3    -0.851745201656E+03    0.81621E-05   -0.26401E-05  4620   0.117E-02    0.294E-02
DAV:   4    -0.851745209699E+03   -0.80423E-05   -0.47351E-05  4060   0.160E-02    0.656E-03
DAV:   5    -0.851745210419E+03   -0.72052E-06   -0.92033E-06  4280   0.587E-03
  90 F= -.85966022E+03 E0= -.85966022E+03  d E =-.856289E-04  mag=    -0.0000
quench:  g(F)=  0.000E+00 g(S)=  0.000E+00 dE (1.order)= 0.000E+00
 bond charge predicted
       N       E                     dE             d eps       ncg     rms          rms(c)
DAV:   1    -0.851745158459E+03    0.51239E-04   -0.10428E-01  3920   0.682E-01    0.598E-02
DAV:   2    -0.851745332865E+03   -0.17441E-03   -0.22126E-03  3840   0.893E-02    0.459E-02
DAV:   3    -0.851745321487E+03    0.11377E-04   -0.38176E-05  4620   0.141E-02    0.351E-02
DAV:   4    -0.851745333149E+03   -0.11662E-04   -0.65877E-05  4260   0.188E-02    0.772E-03
DAV:   5    -0.851745333990E+03   -0.84057E-06   -0.12415E-05  4280   0.694E-03    0.505E-03
DAV:   6    -0.851745333957E+03    0.33200E-07   -0.23420E-06  3140   0.375E-03
  91 F= -.85966032E+03 E0= -.85966032E+03  d E =-.104410E-03  mag=    -0.0000
quench:  g(F)=  0.000E+00 g(S)=  0.000E+00 dE (1.order)= 0.000E+00
 bond charge predicted
       N       E                     dE             d eps       ncg     rms          rms(c)
DAV:   1    -0.851745233309E+03    0.10068E-03   -0.15226E-01  3920   0.825E-01    0.715E-02
DAV:   2    -0.851745488560E+03   -0.25525E-03   -0.32263E-03  3860   0.107E-01    0.547E-02
DAV:   3    -0.851745471253E+03    0.17308E-04   -0.56645E-05  4660   0.171E-02    0.418E-02
DAV:   4    -0.851745484591E+03   -0.13338E-04   -0.94207E-05  4400   0.223E-02    0.938E-03
DAV:   5    -0.851745485752E+03   -0.11610E-05   -0.17702E-05  4240   0.830E-03    0.587E-03
DAV:   6    -0.851745485896E+03   -0.14427E-06   -0.33324E-06  3380   0.416E-03
  92 F= -.85966045E+03 E0= -.85966045E+03  d E =-.133235E-03  mag=     0.0000
quench:  g(F)=  0.000E+00 g(S)=  0.000E+00 dE (1.order)= 0.000E+00
 bond charge predicted
       N       E                     dE             d eps       ncg     rms          rms(c)
DAV:   1    -0.851745241128E+03    0.24462E-03   -0.23448E-01  3920   0.102E+00    0.879E-02
DAV:   2    -0.851745640866E+03   -0.39974E-03   -0.50126E-03  3880   0.133E-01    0.667E-02
DAV:   3    -0.851745615589E+03    0.25277E-04   -0.84219E-05  4660   0.208E-02    0.511E-02
DAV:   4    -0.851745636980E+03   -0.21391E-04   -0.14245E-04  4400   0.274E-02    0.114E-02
DAV:   5    -0.851745638674E+03   -0.16942E-05   -0.26529E-05  4240   0.102E-02    0.710E-03
DAV:   6    -0.851745639086E+03   -0.41172E-06   -0.49155E-06  3540   0.490E-03
  93 F= -.85966059E+03 E0= -.85966059E+03  d E =-.131664E-03  mag=    -0.0000
quench:  g(F)=  0.000E+00 g(S)=  0.000E+00 dE (1.order)= 0.000E+00
 bond charge predicted
       N       E                     dE             d eps       ncg     rms          rms(c)
DAV:   1    -0.851745244229E+03    0.39445E-03   -0.36197E-01  3920   0.127E+00    0.108E-01
DAV:   2    -0.851745871325E+03   -0.62710E-03   -0.78000E-03  3940   0.165E-01    0.818E-02
DAV:   3    -0.851745832320E+03    0.39005E-04   -0.12439E-04  4660   0.253E-02    0.631E-02
DAV:   4    -0.851745866126E+03   -0.33806E-04   -0.22690E-04  4440   0.344E-02    0.137E-02
DAV:   5    -0.851745868483E+03   -0.23572E-05   -0.41179E-05  4260   0.127E-02    0.879E-03
DAV:   6    -0.851745869313E+03   -0.82987E-06   -0.70953E-06  3600   0.592E-03
  94 F= -.85966079E+03 E0= -.85966079E+03  d E =-.202047E-03  mag=     0.0000
quench:  g(F)=  0.000E+00 g(S)=  0.000E+00 dE (1.order)= 0.000E+00
 bond charge predicted
       N       E                     dE             d eps       ncg     rms          rms(c)
DAV:   1    -0.851745189536E+03    0.67895E-03   -0.56433E-01  3920   0.158E+00    0.134E-01
DAV:   2    -0.851746199580E+03   -0.10100E-02   -0.12363E-02  3960   0.207E-01    0.100E-01
DAV:   3    -0.851746142112E+03    0.57468E-04   -0.18736E-04  4700   0.309E-02    0.777E-02
DAV:   4    -0.851746192152E+03   -0.50040E-04   -0.34281E-04  4500   0.422E-02    0.168E-02
DAV:   5    -0.851746195948E+03   -0.37962E-05   -0.62197E-05  4240   0.155E-02    0.108E-02
DAV:   6    -0.851746197495E+03   -0.15468E-05   -0.10664E-05  3740   0.716E-03    0.465E-03
DAV:   7    -0.851746198398E+03   -0.90360E-06   -0.18254E-06  3100   0.275E-03
  95 F= -.85966108E+03 E0= -.85966108E+03  d E =-.293343E-03  mag=     0.0000
quench:  g(F)=  0.000E+00 g(S)=  0.000E+00 dE (1.order)= 0.000E+00
 bond charge predicted
       N       E                     dE             d eps       ncg     rms          rms(c)
DAV:   1    -0.851745137335E+03    0.10602E-02   -0.84632E-01  3920   0.193E+00    0.162E-01
DAV:   2    -0.851746714368E+03   -0.15770E-02   -0.18876E-02  3960   0.251E-01    0.120E-01
DAV:   3    -0.851746631319E+03    0.83049E-04   -0.27359E-04  4740   0.370E-02    0.931E-02
DAV:   4    -0.851746696056E+03   -0.64738E-04   -0.46441E-04  4500   0.494E-02    0.201E-02
DAV:   5    -0.851746702052E+03   -0.59964E-05   -0.86361E-05  4260   0.182E-02    0.125E-02
DAV:   6    -0.851746703366E+03   -0.13135E-05   -0.15246E-05  3780   0.801E-03    0.528E-03
DAV:   7    -0.851746704446E+03   -0.10805E-05   -0.22995E-06  3140   0.303E-03    0.288E-03
DAV:   8    -0.851746704419E+03    0.27663E-07   -0.39028E-07  2580   0.166E-03
  96 F= -.85966154E+03 E0= -.85966154E+03  d E =-.463273E-03  mag=     0.0000
quench:  g(F)=  0.000E+00 g(S)=  0.000E+00 dE (1.order)= 0.000E+00
 bond charge predicted
       N       E                     dE             d eps       ncg     rms          rms(c)
DAV:   1    -0.851744721962E+03    0.19825E-02   -0.13364E+00  3920   0.241E+00    0.202E-01
DAV:   2    -0.851747312063E+03   -0.25901E-02   -0.30309E-02  3960   0.315E-01    0.147E-01
DAV:   3    -0.851747190841E+03    0.12122E-03   -0.41126E-04  4680   0.452E-02    0.115E-01
DAV:   4    -0.851747265756E+03   -0.74914E-04   -0.71020E-04  4560   0.609E-02    0.245E-02
DAV:   5    -0.851747278133E+03   -0.12378E-04   -0.13230E-04  4220   0.226E-02    0.154E-02
DAV:   6    -0.851747281456E+03   -0.33229E-05   -0.22411E-05  3900   0.975E-03    0.660E-03
DAV:   7    -0.851747282873E+03   -0.14168E-05   -0.35620E-06  3660   0.378E-03    0.350E-03
DAV:   8    -0.851747282770E+03    0.10338E-06   -0.50593E-07  2700   0.194E-03
  97 F= -.85966206E+03 E0= -.85966206E+03  d E =-.513124E-03  mag=    -0.0000
quench:  g(F)=  0.000E+00 g(S)=  0.000E+00 dE (1.order)= 0.000E+00
 bond charge predicted
       N       E                     dE             d eps       ncg     rms          rms(c)
DAV:   1    -0.851743722168E+03    0.35607E-02   -0.20797E+00  3920   0.300E+00    0.249E-01
DAV:   2    -0.851747898752E+03   -0.41766E-02   -0.47927E-02  3960   0.393E-01    0.180E-01
DAV:   3    -0.851747722312E+03    0.17644E-03   -0.61912E-04  4640   0.552E-02    0.141E-01
DAV:   4    -0.851747799867E+03   -0.77555E-04   -0.10871E-03  4540   0.752E-02    0.298E-02
DAV:   5    -0.851747815733E+03   -0.15866E-04   -0.20430E-04  4240   0.278E-02    0.190E-02
DAV:   6    -0.851747821522E+03   -0.57884E-05   -0.33719E-05  3920   0.117E-02    0.815E-03
DAV:   7    -0.851747825265E+03   -0.37434E-05   -0.51872E-06  3920   0.454E-03    0.431E-03
DAV:   8    -0.851747825503E+03   -0.23848E-06   -0.65891E-07  2820   0.211E-03
  98 F= -.85966252E+03 E0= -.85966252E+03  d E =-.457962E-03  mag=     0.0000
quench:  g(F)=  0.000E+00 g(S)=  0.000E+00 dE (1.order)= 0.000E+00
 bond charge predicted
       N       E                     dE             d eps       ncg     rms          rms(c)
DAV:   1    -0.851742056981E+03    0.57683E-02   -0.29756E+00  3920   0.359E+00    0.299E-01
DAV:   2    -0.851748184344E+03   -0.61274E-02   -0.69488E-02  3960   0.468E-01    0.213E-01
DAV:   3    -0.851747947797E+03    0.23655E-03   -0.90222E-04  4640   0.662E-02    0.167E-01
DAV:   4    -0.851748030633E+03   -0.82836E-04   -0.14115E-03  4580   0.871E-02    0.363E-02
DAV:   5    -0.851748055846E+03   -0.25213E-04   -0.27708E-04  4240   0.324E-02    0.222E-02
DAV:   6    -0.851748062492E+03   -0.66463E-05   -0.52226E-05  4160   0.148E-02    0.911E-03
DAV:   7    -0.851748065502E+03   -0.30093E-05   -0.70788E-06  4140   0.540E-03    0.537E-03
DAV:   8    -0.851748065459E+03    0.42448E-07   -0.10589E-06  2880   0.284E-03
  99 F= -.85966267E+03 E0= -.85966267E+03  d E =-.157849E-03  mag=     0.0000
quench:  g(F)=  0.000E+00 g(S)=  0.000E+00 dE (1.order)= 0.000E+00
 bond charge predicted
       N       E                     dE             d eps       ncg     rms          rms(c)
DAV:   1    -0.851739062366E+03    0.90031E-02   -0.42523E+00  3900   0.430E+00    0.359E-01
DAV:   2    -0.851747780324E+03   -0.87180E-02   -0.99093E-02  3960   0.566E-01    0.261E-01
DAV:   3    -0.851747380172E+03    0.40015E-03   -0.13453E-03  4600   0.807E-02    0.205E-01
DAV:   4    -0.851747384410E+03   -0.42377E-05   -0.23380E-03  4560   0.111E-01    0.461E-02
DAV:   5    -0.851747429498E+03   -0.45088E-04   -0.45855E-04  4220   0.407E-02    0.298E-02
DAV:   6    -0.851747432915E+03   -0.34168E-05   -0.77914E-05  4220   0.180E-02    0.123E-02
DAV:   7    -0.851747438728E+03   -0.58130E-05   -0.11753E-05  4340   0.669E-03    0.697E-03
DAV:   8    -0.851747438678E+03    0.49251E-07   -0.18188E-06  3340   0.350E-03
 100 F= -.85966197E+03 E0= -.85966197E+03  d E =0.702572E-03  mag=    -0.0000
quench:  g(F)=  0.000E+00 g(S)=  0.000E+00 dE (1.order)= 0.000E+00
 bond charge predicted
       N       E                     dE             d eps       ncg     rms          rms(c)
DAV:   1    -0.851732347050E+03    0.15092E-01   -0.55889E+00  3880   0.499E+00    0.424E-01
DAV:   2    -0.851744283666E+03   -0.11937E-01   -0.13619E-01  3980   0.665E-01    0.314E-01
DAV:   3    -0.851743676338E+03    0.60733E-03   -0.22663E-03  4700   0.102E-01    0.247E-01
DAV:   4    -0.851743471298E+03    0.20504E-03   -0.27216E-03  4400   0.126E-01    0.707E-02
DAV:   5    -0.851743574643E+03   -0.10335E-03   -0.65870E-04  4280   0.485E-02    0.391E-02
DAV:   6    -0.851743574146E+03    0.49717E-06   -0.13548E-04  4120   0.255E-02    0.150E-02
DAV:   7    -0.851743579250E+03   -0.51039E-05   -0.18268E-05  4340   0.902E-03    0.101E-02
DAV:   8    -0.851743579221E+03    0.28405E-07   -0.64220E-06  3860   0.733E-03
 101 F= -.85965801E+03 E0= -.85965801E+03  d E =0.396222E-02  mag=     0.0000
quench:  g(F)=  0.000E+00 g(S)=  0.000E+00 dE (1.order)= 0.000E+00
 bond charge predicted
       N       E                     dE             d eps       ncg     rms          rms(c)
DAV:   1    -0.851748092877E+03   -0.45136E-02   -0.29412E-01  3880   0.120E+00    0.123E-01
DAV:   2    -0.851748696322E+03   -0.60344E-03   -0.82942E-03  4520   0.177E-01    0.112E-01
[...]
 411 F= -.85972232E+03 E0= -.85972232E+03  d E =-.463905E-04  mag=    -0.0000
quench:  g(F)=  0.000E+00 g(S)=  0.000E+00 dE (1.order)= 0.000E+00
 bond charge predicted
       N       E                     dE             d eps       ncg     rms          rms(c)
DAV:   1    -0.851817193378E+03   -0.49707E-04   -0.60081E-03  3880   0.167E-01    0.142E-02
DAV:   2    -0.851817204302E+03   -0.10924E-04   -0.13219E-04  3880   0.216E-02    0.106E-02
DAV:   3    -0.851817203961E+03    0.34156E-06   -0.18697E-06  3480   0.322E-03
 412 F= -.85972237E+03 E0= -.85972237E+03  d E =-.466129E-04  mag=     0.0000
quench:  g(F)=  0.000E+00 g(S)=  0.000E+00 dE (1.order)= 0.000E+00
 bond charge predicted
       N       E                     dE             d eps       ncg     rms          rms(c)
DAV:   1    -0.851817298272E+03   -0.93969E-04   -0.85288E-03  3880   0.197E-01    0.167E-02
DAV:   2    -0.851817313598E+03   -0.15327E-04   -0.18592E-04  3880   0.253E-02    0.121E-02
DAV:   3    -0.851817313287E+03    0.31076E-06   -0.24996E-06  3720   0.364E-03
 413 F= -.85972246E+03 E0= -.85972246E+03  d E =-.907491E-04  mag=    -0.0000
quench:  g(F)=  0.000E+00 g(S)=  0.000E+00 dE (1.order)= 0.000E+00
 bond charge predicted
       N       E                     dE             d eps       ncg     rms          rms(c)
DAV:   1    -0.851817461338E+03   -0.14774E-03   -0.13071E-02  3880   0.245E-01    0.214E-02
DAV:   2    -0.851817484284E+03   -0.22945E-04   -0.28705E-04  3880   0.318E-02    0.160E-02
DAV:   3    -0.851817483759E+03    0.52521E-06   -0.46137E-06  4380   0.473E-03
 414 F= -.85972261E+03 E0= -.85972261E+03  d E =-.145370E-03  mag=     0.0000
quench:  g(F)=  0.000E+00 g(S)=  0.000E+00 dE (1.order)= 0.000E+00
 bond charge predicted
       N       E                     dE             d eps       ncg     rms          rms(c)
DAV:   1    -0.851817689978E+03   -0.20569E-03   -0.19769E-02  3880   0.293E-01    0.278E-02
DAV:   2    -0.851817721132E+03   -0.31154E-04   -0.41923E-04  3880   0.376E-02    0.208E-02
DAV:   3    -0.851817720963E+03    0.16877E-06   -0.63147E-06  4460   0.551E-03
 415 F= -.85972281E+03 E0= -.85972281E+03  d E =-.202002E-03  mag=    -0.0000
quench:  g(F)=  0.000E+00 g(S)=  0.000E+00 dE (1.order)= 0.000E+00
 bond charge predicted
       N       E                     dE             d eps       ncg     rms          rms(c)
DAV:   1    -0.851818027795E+03   -0.30666E-03   -0.30860E-02  3880   0.351E-01    0.351E-02
DAV:   2    -0.851818073878E+03   -0.46083E-04   -0.63271E-04  3900   0.444E-02    0.260E-02
DAV:   3    -0.851818074346E+03   -0.46806E-06   -0.82950E-06  4440   0.616E-03
 416 F= -.85972311E+03 E0= -.85972311E+03  d E =-.307259E-03  mag=     0.0000
quench:  g(F)=  0.000E+00 g(S)=  0.000E+00 dE (1.order)= 0.000E+00
 bond charge predicted
       N       E                     dE             d eps       ncg     rms          rms(c)
DAV:   1    -0.851818473813E+03   -0.39994E-03   -0.52046E-02  3880   0.444E-01    0.459E-02
DAV:   2    -0.851818551116E+03   -0.77303E-04   -0.10583E-03  3900   0.563E-02    0.343E-02
DAV:   3    -0.851818551937E+03   -0.82095E-06   -0.14426E-05  4580   0.796E-03    0.268E-02
DAV:   4    -0.851818568803E+03   -0.16866E-04   -0.30897E-05  3720   0.117E-02    0.481E-03
DAV:   5    -0.851818569605E+03   -0.80257E-06   -0.60668E-06  4140   0.453E-03
 417 F= -.85972355E+03 E0= -.85972355E+03  d E =-.435124E-03  mag=    -0.0000
quench:  g(F)=  0.000E+00 g(S)=  0.000E+00 dE (1.order)= 0.000E+00
 bond charge predicted
       N       E                     dE             d eps       ncg     rms          rms(c)
DAV:   1    -0.851819032877E+03   -0.46407E-03   -0.78109E-02  3880   0.533E-01    0.554E-02
DAV:   2    -0.851819158090E+03   -0.12521E-03   -0.16571E-03  3920   0.691E-02    0.404E-02
DAV:   3    -0.851819157779E+03    0.31102E-06   -0.21174E-05  4620   0.970E-03    0.316E-02
DAV:   4    -0.851819179497E+03   -0.21718E-04   -0.48971E-05  3700   0.145E-02    0.583E-03
DAV:   5    -0.851819180512E+03   -0.10149E-05   -0.91665E-06  4280   0.556E-03    0.461E-03
DAV:   6    -0.851819180595E+03   -0.83106E-07   -0.14793E-06  3020   0.277E-03
 418 F= -.85972408E+03 E0= -.85972408E+03  d E =-.533068E-03  mag=     0.0000
quench:  g(F)=  0.000E+00 g(S)=  0.000E+00 dE (1.order)= 0.000E+00
 bond charge predicted
       N       E                     dE             d eps       ncg     rms          rms(c)
DAV:   1    -0.851819694971E+03   -0.51446E-03   -0.11272E-01  3880   0.645E-01    0.666E-02
DAV:   2    -0.851819877469E+03   -0.18250E-03   -0.23878E-03  3900   0.836E-02    0.483E-02
DAV:   3    -0.851819875588E+03    0.18809E-05   -0.32548E-05  4640   0.120E-02    0.376E-02
DAV:   4    -0.851819903667E+03   -0.28079E-04   -0.64673E-05  3780   0.171E-02    0.711E-03
DAV:   5    -0.851819905536E+03   -0.18694E-05   -0.12990E-05  4320   0.666E-03    0.533E-03
DAV:   6    -0.851819905686E+03   -0.15047E-06   -0.17674E-06  3040   0.290E-03
 419 F= -.85972471E+03 E0= -.85972471E+03  d E =-.625572E-03  mag=     0.0000
quench:  g(F)=  0.000E+00 g(S)=  0.000E+00 dE (1.order)= 0.000E+00
 bond charge predicted
       N       E                     dE             d eps       ncg     rms          rms(c)
DAV:   1    -0.851820402588E+03   -0.49705E-03   -0.16196E-01  3900   0.778E-01    0.788E-02
DAV:   2    -0.851820674403E+03   -0.27182E-03   -0.34899E-03  3900   0.102E-01    0.566E-02
DAV:   3    -0.851820670709E+03    0.36944E-05   -0.46077E-05  4620   0.145E-02    0.442E-02
DAV:   4    -0.851820706104E+03   -0.35396E-04   -0.93745E-05  3820   0.205E-02    0.867E-03
DAV:   5    -0.851820709140E+03   -0.30359E-05   -0.18982E-05  4340   0.795E-03    0.652E-03
DAV:   6    -0.851820709252E+03   -0.11174E-06   -0.24752E-06  3240   0.350E-03
 420 F= -.85972540E+03 E0= -.85972540E+03  d E =-.688811E-03  mag=    -0.0000
quench:  g(F)=  0.000E+00 g(S)=  0.000E+00 dE (1.order)= 0.000E+00
 bond charge predicted
       N       E                     dE             d eps       ncg     rms          rms(c)
DAV:   1    -0.851821119468E+03   -0.41033E-03   -0.21538E-01  3900   0.924E-01    0.891E-02
DAV:   2    -0.851821496245E+03   -0.37678E-03   -0.47338E-03  3900   0.121E-01    0.632E-02
DAV:   3    -0.851821489476E+03    0.67690E-05   -0.64006E-05  4580   0.175E-02    0.495E-02
DAV:   4    -0.851821529797E+03   -0.40321E-04   -0.11156E-04  3840   0.239E-02    0.107E-02
DAV:   5    -0.851821534865E+03   -0.50678E-05   -0.24744E-05  4340   0.915E-03    0.785E-03
DAV:   6    -0.851821534712E+03    0.15226E-06   -0.39060E-06  3600   0.490E-03
 421 F= -.85972610E+03 E0= -.85972610E+03  d E =-.699683E-03  mag=    -0.0000
quench:  g(F)=  0.000E+00 g(S)=  0.000E+00 dE (1.order)= 0.000E+00
 bond charge predicted
       N       E                     dE             d eps       ncg     rms          rms(c)
DAV:   1    -0.851821761431E+03   -0.22657E-03   -0.26035E-01  3900   0.105E+00    0.959E-02
DAV:   2    -0.851822225233E+03   -0.46380E-03   -0.57776E-03  3920   0.139E-01    0.679E-02
DAV:   3    -0.851822213154E+03    0.12079E-04   -0.85559E-05  4660   0.205E-02    0.529E-02
DAV:   4    -0.851822255534E+03   -0.42380E-04   -0.12786E-04  4180   0.269E-02    0.124E-02
DAV:   5    -0.851822261114E+03   -0.55803E-05   -0.29169E-05  4340   0.103E-02    0.849E-03
DAV:   6    -0.851822261082E+03    0.32029E-07   -0.54613E-06  3680   0.567E-03
 422 F= -.85972670E+03 E0= -.85972670E+03  d E =-.603462E-03  mag=     0.0000
quench:  g(F)=  0.000E+00 g(S)=  0.000E+00 dE (1.order)= 0.000E+00
 bond charge predicted
       N       E                     dE             d eps       ncg     rms          rms(c)
DAV:   1    -0.851822293068E+03   -0.31954E-04   -0.14195E-03  3920   0.876E-02    0.870E-03
DAV:   2    -0.851822295749E+03   -0.26805E-05   -0.37863E-05  4680   0.129E-02    0.770E-03
DAV:   3    -0.851822295075E+03    0.67375E-06   -0.14552E-06  2560   0.282E-03
 423 F= -.85972673E+03 E0= -.85972673E+03  d E =-.316943E-04  mag=     0.0000
quench:  g(F)=  0.000E+00 g(S)=  0.000E+00 dE (1.order)= 0.000E+00
 bond charge predicted
       N       E                     dE             d eps       ncg     rms          rms(c)
DAV:   1    -0.851822255405E+03    0.40343E-04   -0.33268E-03  3840   0.133E-01    0.132E-02
DAV:   2    -0.851822261060E+03   -0.56550E-05   -0.77889E-05  4640   0.184E-02    0.113E-02
DAV:   3    -0.851822260001E+03    0.10589E-05   -0.27940E-06  3180   0.381E-03    0.867E-03
DAV:   4    -0.851822259403E+03    0.59793E-06   -0.53125E-06  3720   0.547E-03
 424 F= -.85972669E+03 E0= -.85972669E+03  d E =0.388202E-04  mag=    -0.0000
quench:  g(F)=  0.000E+00 g(S)=  0.000E+00 dE (1.order)= 0.000E+00
 bond charge predicted
       N       E                     dE             d eps       ncg     rms          rms(c)
DAV:   1    -0.851822258366E+03    0.16351E-05   -0.60307E-05  4000   0.174E-02    0.235E-03
DAV:   2    -0.851822258430E+03   -0.64188E-07   -0.14604E-06  2420   0.259E-03
 425 F= -.85972669E+03 E0= -.85972669E+03  d E =0.730810E-06  mag=     0.0000
quench:  g(F)=  0.000E+00 g(S)=  0.000E+00 dE (1.order)= 0.000E+00
 bond charge predicted
       N       E                     dE             d eps       ncg     rms          rms(c)
DAV:   1    -0.851822249519E+03    0.88476E-05   -0.24400E-04  3940   0.344E-02    0.388E-03
DAV:   2    -0.851822249815E+03   -0.29660E-06   -0.56326E-06  4160   0.481E-03
 426 F= -.85972668E+03 E0= -.85972668E+03  d E =0.794045E-05  mag=     0.0000
quench:  g(F)=  0.000E+00 g(S)=  0.000E+00 dE (1.order)= 0.000E+00
 bond charge predicted
       N       E                     dE             d eps       ncg     rms          rms(c)
DAV:   1    -0.851822224428E+03    0.25090E-04   -0.56192E-04  3900   0.508E-02    0.664E-03
DAV:   2    -0.851822224917E+03   -0.48932E-06   -0.12280E-05  4160   0.694E-03    0.549E-03
DAV:   3    -0.851822224832E+03    0.85187E-07   -0.43276E-07  2380   0.165E-03
 427 F= -.85972666E+03 E0= -.85972666E+03  d E =0.237374E-04  mag=     0.0000
quench:  g(F)=  0.000E+00 g(S)=  0.000E+00 dE (1.order)= 0.000E+00
 bond charge predicted
       N       E                     dE             d eps       ncg     rms          rms(c)
DAV:   1    -0.851822176491E+03    0.48426E-04   -0.10172E-03  3920   0.660E-02    0.672E-03
DAV:   2    -0.851822177852E+03   -0.13610E-05   -0.20602E-05  3940   0.853E-03    0.518E-03
DAV:   3    -0.851822177865E+03   -0.12791E-07   -0.31604E-07  2620   0.138E-03
 428 F= -.85972662E+03 E0= -.85972662E+03  d E =0.448694E-04  mag=    -0.0000
quench:  g(F)=  0.000E+00 g(S)=  0.000E+00 dE (1.order)= 0.000E+00
 bond charge predicted
       N       E                     dE             d eps       ncg     rms          rms(c)
DAV:   1    -0.851822104317E+03    0.73535E-04   -0.16878E-03  3900   0.822E-02    0.831E-03
DAV:   2    -0.851822106553E+03   -0.22356E-05   -0.33507E-05  3880   0.105E-02    0.618E-03
DAV:   3    -0.851822106596E+03   -0.43445E-07   -0.45464E-07  2680   0.161E-03
 429 F= -.85972655E+03 E0= -.85972655E+03  d E =0.678789E-04  mag=     0.0000
quench:  g(F)=  0.000E+00 g(S)=  0.000E+00 dE (1.order)= 0.000E+00
 bond charge predicted
       N       E                     dE             d eps       ncg     rms          rms(c)
DAV:   1    -0.851822012882E+03    0.93671E-04   -0.25802E-03  3900   0.996E-02    0.103E-02
DAV:   2    -0.851822016154E+03   -0.32724E-05   -0.50144E-05  3900   0.126E-02    0.760E-03
DAV:   3    -0.851822016245E+03   -0.91037E-07   -0.63800E-07  2780   0.185E-03
 430 F= -.85972646E+03 E0= -.85972646E+03  d E =0.856029E-04  mag=    -0.0000
quench:  g(F)=  0.000E+00 g(S)=  0.000E+00 dE (1.order)= 0.000E+00
 bond charge predicted
       N       E                     dE             d eps       ncg     rms          rms(c)
DAV:   1    -0.851821889120E+03    0.12703E-03   -0.46925E-03  3880   0.133E-01    0.139E-02
DAV:   2    -0.851821895138E+03   -0.60173E-05   -0.91193E-05  3900   0.168E-02    0.102E-02
DAV:   3    -0.851821895289E+03   -0.15143E-06   -0.11791E-06  3100   0.247E-03
 431 F= -.85972635E+03 E0= -.85972635E+03  d E =0.114258E-03  mag=    -0.0000
quench:  g(F)=  0.000E+00 g(S)=  0.000E+00 dE (1.order)= 0.000E+00
 bond charge predicted
       N       E                     dE             d eps       ncg     rms          rms(c)
DAV:   1    -0.851821725519E+03    0.16962E-03   -0.81166E-03  3900   0.175E-01    0.184E-02
DAV:   2    -0.851821736091E+03   -0.10572E-04   -0.15733E-04  3860   0.221E-02    0.136E-02
DAV:   3    -0.851821736247E+03   -0.15616E-06   -0.21753E-06  3500   0.327E-03
 432 F= -.85972620E+03 E0= -.85972620E+03  d E =0.150154E-03  mag=    -0.0000
quench:  g(F)=  0.000E+00 g(S)=  0.000E+00 dE (1.order)= 0.000E+00
 bond charge predicted
       N       E                     dE             d eps       ncg     rms          rms(c)
DAV:   1    -0.851821510745E+03    0.22535E-03   -0.13068E-02  3880   0.222E-01    0.234E-02
DAV:   2    -0.851821528042E+03   -0.17296E-04   -0.25342E-04  3880   0.281E-02    0.173E-02
DAV:   3    -0.851821528427E+03   -0.38494E-06   -0.36689E-06  3880   0.419E-03
 433 F= -.85972600E+03 E0= -.85972600E+03  d E =0.196687E-03  mag=    -0.0000
quench:  g(F)=  0.000E+00 g(S)=  0.000E+00 dE (1.order)= 0.000E+00
 bond charge predicted
       N       E                     dE             d eps       ncg     rms          rms(c)
DAV:   1    -0.851821253905E+03    0.27414E-03   -0.19340E-02  3880   0.272E-01    0.284E-02
DAV:   2    -0.851821279937E+03   -0.26032E-04   -0.37509E-04  3840   0.343E-02    0.210E-02
DAV:   3    -0.851821280408E+03   -0.47120E-06   -0.54488E-06  4020   0.516E-03
 434 F= -.85972577E+03 E0= -.85972577E+03  d E =0.235623E-03  mag=    -0.0000
quench:  g(F)=  0.000E+00 g(S)=  0.000E+00 dE (1.order)= 0.000E+00
 bond charge predicted
       N       E                     dE             d eps       ncg     rms          rms(c)
DAV:   1    -0.851820987739E+03    0.29220E-03   -0.25065E-02  3880   0.314E-01    0.321E-02
DAV:   2    -0.851821022131E+03   -0.34392E-04   -0.48546E-04  3840   0.398E-02    0.240E-02
DAV:   3    -0.851821022492E+03   -0.36078E-06   -0.73846E-06  4300   0.609E-03
 435 F= -.85972552E+03 E0= -.85972552E+03  d E =0.245256E-03  mag=     0.0000
quench:  g(F)=  0.000E+00 g(S)=  0.000E+00 dE (1.order)= 0.000E+00
 bond charge predicted
       N       E                     dE             d eps       ncg     rms          rms(c)
DAV:   1    -0.851820741885E+03    0.28025E-03   -0.29493E-02  3880   0.352E-01    0.343E-02
DAV:   2    -0.851820783158E+03   -0.41273E-04   -0.57154E-04  3840   0.447E-02    0.260E-02
DAV:   3    -0.851820783215E+03   -0.57131E-07   -0.94422E-06  4400   0.695E-03
 436 F= -.85972529E+03 E0= -.85972529E+03  d E =0.230395E-03  mag=     0.0000
quench:  g(F)=  0.000E+00 g(S)=  0.000E+00 dE (1.order)= 0.000E+00
 bond charge predicted
       N       E                     dE             d eps       ncg     rms          rms(c)
DAV:   1    -0.851820797747E+03   -0.14589E-04   -0.27593E-05  3700   0.111E-02    0.388E-03
DAV:   2    -0.851820797999E+03   -0.25194E-06   -0.40789E-06  3720   0.381E-03
 437 F= -.85972530E+03 E0= -.85972530E+03  d E =-.138758E-04  mag=    -0.0000
quench:  g(F)=  0.000E+00 g(S)=  0.000E+00 dE (1.order)= 0.000E+00
 bond charge predicted
       N       E                     dE             d eps       ncg     rms          rms(c)
DAV:   1    -0.851820809563E+03   -0.11817E-04   -0.44990E-05  3880   0.140E-02    0.241E-03
DAV:   2    -0.851820809687E+03   -0.12325E-06   -0.10730E-06  2640   0.213E-03
 438 F= -.85972531E+03 E0= -.85972531E+03  d E =-.990396E-05  mag=    -0.0000
quench:  g(F)=  0.000E+00 g(S)=  0.000E+00 dE (1.order)= 0.000E+00
 bond charge predicted
       N       E                     dE             d eps       ncg     rms          rms(c)
DAV:   1    -0.851820826194E+03   -0.16630E-04   -0.88792E-05  3920   0.193E-02    0.273E-03
DAV:   2    -0.851820826290E+03   -0.96625E-07   -0.18174E-06  3040   0.263E-03
 439 F= -.85972533E+03 E0= -.85972533E+03  d E =-.139887E-04  mag=     0.0000
quench:  g(F)=  0.000E+00 g(S)=  0.000E+00 dE (1.order)= 0.000E+00
 bond charge predicted
       N       E                     dE             d eps       ncg     rms          rms(c)
DAV:   1    -0.851820846667E+03   -0.20473E-04   -0.14243E-04  3880   0.243E-02    0.371E-03
DAV:   2    -0.851820846757E+03   -0.90316E-07   -0.28876E-06  3360   0.326E-03
 440 F= -.85972534E+03 E0= -.85972534E+03  d E =-.170597E-04  mag=    -0.0000
quench:  g(F)=  0.000E+00 g(S)=  0.000E+00 dE (1.order)= 0.000E+00
 bond charge predicted
       N       E                     dE             d eps       ncg     rms          rms(c)
DAV:   1    -0.851820870780E+03   -0.24114E-04   -0.19417E-04  3880   0.283E-02    0.448E-03
DAV:   2    -0.851820870877E+03   -0.96741E-07   -0.38365E-06  3620   0.371E-03
 441 F= -.85972536E+03 E0= -.85972536E+03  d E =-.199803E-04  mag=     0.0000
quench:  g(F)=  0.000E+00 g(S)=  0.000E+00 dE (1.order)= 0.000E+00
 bond charge predicted
       N       E                     dE             d eps       ncg     rms          rms(c)
DAV:   1    -0.851820898984E+03   -0.28204E-04   -0.24780E-04  3900   0.321E-02    0.509E-03
DAV:   2    -0.851820899094E+03   -0.10978E-06   -0.46971E-06  3740   0.410E-03
 442 F= -.85972539E+03 E0= -.85972539E+03  d E =-.233575E-04  mag=     0.0000
quench:  g(F)=  0.000E+00 g(S)=  0.000E+00 dE (1.order)= 0.000E+00
 bond charge predicted
       N       E                     dE             d eps       ncg     rms          rms(c)
DAV:   1    -0.851820934740E+03   -0.35756E-04   -0.38380E-04  3900   0.403E-02    0.600E-03
DAV:   2    -0.851820934941E+03   -0.20100E-06   -0.71905E-06  3820   0.508E-03
 443 F= -.85972542E+03 E0= -.85972542E+03  d E =-.297852E-04  mag=     0.0000
quench:  g(F)=  0.000E+00 g(S)=  0.000E+00 dE (1.order)= 0.000E+00
 bond charge predicted
       N       E                     dE             d eps       ncg     rms          rms(c)
DAV:   1    -0.851820979405E+03   -0.44665E-04   -0.58351E-04  3890   0.501E-02    0.733E-03
DAV:   2    -0.851820979693E+03   -0.28752E-06   -0.10889E-05  3940   0.631E-03    0.592E-03
DAV:   3    -0.851820979925E+03   -0.23237E-06   -0.34329E-07  2650   0.152E-03
 444 F= -.85972546E+03 E0= -.85972546E+03  d E =-.376414E-04  mag=    -0.0000
quench:  g(F)=  0.000E+00 g(S)=  0.000E+00 dE (1.order)= 0.000E+00
 bond charge predicted
       N       E                     dE             d eps       ncg     rms          rms(c)
DAV:   1    -0.851821034904E+03   -0.55212E-04   -0.89725E-04  3860   0.623E-02    0.614E-03
DAV:   2    -0.851821035991E+03   -0.10870E-05   -0.16733E-05  3880   0.773E-03    0.470E-03
DAV:   3    -0.851821036026E+03   -0.34510E-07   -0.25867E-07  2200   0.127E-03
 445 F= -.85972550E+03 E0= -.85972550E+03  d E =-.473350E-04  mag=    -0.0000
quench:  g(F)=  0.000E+00 g(S)=  0.000E+00 dE (1.order)= 0.000E+00
 bond charge predicted
       N       E                     dE             d eps       ncg     rms          rms(c)
DAV:   1    -0.851821102450E+03   -0.66458E-04   -0.14295E-03  3880   0.787E-02    0.757E-03
DAV:   2    -0.851821104237E+03   -0.17871E-05   -0.27116E-05  3880   0.983E-03    0.579E-03
DAV:   3    -0.851821104236E+03    0.10768E-08   -0.43577E-07  2630   0.163E-03
 446 F= -.85972556E+03 E0= -.85972556E+03  d E =-.576951E-04  mag=     0.0000
quench:  g(F)=  0.000E+00 g(S)=  0.000E+00 dE (1.order)= 0.000E+00
 bond charge predicted
       N       E                     dE             d eps       ncg     rms          rms(c)
DAV:   1    -0.851821183858E+03   -0.79622E-04   -0.22725E-03  3880   0.991E-02    0.952E-03
DAV:   2    -0.851821186681E+03   -0.28224E-05   -0.43047E-05  3880   0.124E-02    0.727E-03
DAV:   3    -0.851821186678E+03    0.27503E-08   -0.68508E-07  2790   0.202E-03
 447 F= -.85972563E+03 E0= -.85972563E+03  d E =-.695659E-04  mag=    -0.0000
quench:  g(F)=  0.000E+00 g(S)=  0.000E+00 dE (1.order)= 0.000E+00
 reached required accuracy - stopping structural energy minimisation
