unknown system                          
           1
    17.271038    0.000000    0.000000
    -8.635519   14.957158    0.000000
     0.000000    0.000000   15.000000
   C    H    F    O 
    88     8     2     1
Direct configuration=     1
   0.99871400  0.99982825  0.50335640
   0.99827619  0.14253832  0.50551868
   0.99833574  0.28564825  0.50640348
   0.99893219  0.42889212  0.50556916
   0.99979345  0.57202216  0.50313587
   0.00064340  0.71518341  0.50065105
   0.00017036  0.85803589  0.50074931
   0.14216905  0.00052806  0.50623432
   0.14119340  0.14264179  0.50582410
   0.14033034  0.28481820  0.50498256
   0.14088135  0.42842986  0.50495695
   0.14238996  0.57171897  0.50620615
   0.14277425  0.71488226  0.50617584
   0.14268000  0.85790595  0.50645339
   0.28501721  0.00050376  0.50719100
   0.28457303  0.14287454  0.50453344
   0.28370026  0.28616817  0.49954961
   0.28134108  0.42584546  0.49400147
   0.28544758  0.57142903  0.49919366
   0.28518505  0.71518953  0.50485037
   0.28512358  0.85806663  0.50739694
   0.42802875  0.00117819  0.50597340
   0.42774616  0.14352529  0.50329322
   0.42575984  0.28303822  0.50065147
   0.42683123  0.71800832  0.50555129
   0.42784891  0.85874027  0.50548451
   0.57074690  0.00134642  0.50443112
   0.57073465  0.14371125  0.50295846
   0.57167138  0.28714528  0.49547679
   0.57158204  0.85906929  0.50072641
   0.71353759  0.00059079  0.50054125
   0.71359643  0.14362018  0.50367877
   0.71369242  0.28649432  0.49857611
   0.71378048  0.42848160  0.48476288
   0.72056935  0.57448934  0.46000133
   0.72247723  0.71857095  0.46037949
   0.71253702  0.85768139  0.48767055
   0.85604039  0.00017199  0.49861382
   0.85587515  0.14307279  0.50399666
   0.85606204  0.28604891  0.50371298
   0.85681640  0.42912338  0.49779741
   0.85801328  0.57251332  0.48987587
   0.85967764  0.71604567  0.48519551
   0.85687447  0.85732583  0.49092462
   0.04610400  0.09503407  0.50557364
   0.04526835  0.23744604  0.50651216
   0.04575422  0.38088674  0.50646484
   0.04717502  0.52421092  0.50566735
   0.04764479  0.66732445  0.50390365
   0.04762522  0.81029097  0.50300362
   0.04698554  0.95280172  0.50402555
   0.18930638  0.09526614  0.50578580
   0.18822855  0.23760259  0.50408840
   0.18672815  0.37956006  0.50255080
   0.18937643  0.52362594  0.50460764
   0.19007176  0.66732397  0.50579102
   0.19019596  0.81030443  0.50698862
   0.19001557  0.95298504  0.50701396
   0.33259845  0.09585187  0.50547359
   0.33264738  0.23795325  0.50168988
   0.32773257  0.37848614  0.49169577
   0.32539117  0.51943828  0.48883049
   0.33387305  0.66849675  0.50282491
   0.33274937  0.81041337  0.50630309
   0.33263421  0.95315379  0.50726466
   0.47556501  0.09613646  0.50415362
   0.47473035  0.23866049  0.49991697
   0.47500420  0.81113196  0.50463146
   0.47562911  0.95390827  0.50540208
   0.61825390  0.09624236  0.50397032
   0.61857680  0.23895504  0.49908821
   0.62060090  0.38028914  0.48668475
   0.61957538  0.81399786  0.49231797
   0.61853511  0.95384598  0.50209165
   0.76103655  0.09591510  0.50324660
   0.76115261  0.23862263  0.50248647
   0.76168037  0.38152652  0.49371234
   0.76307605  0.52569962  0.47749508
   0.76626140  0.66840817  0.46693104
   0.76135720  0.80943493  0.47906815
   0.76100693  0.95290249  0.49553434
   0.90319860  0.09496539  0.50320535
   0.90331777  0.23820722  0.50533132
   0.90378460  0.38144912  0.50295381
   0.90483536  0.52461018  0.49767528
   0.90584890  0.66762275  0.49223268
   0.90531278  0.81058409  0.49259068
   0.90363017  0.95218106  0.49841818
   0.46172636  0.35553834  0.50159025
   0.39977790  0.41596898  0.48637920
   0.64972238  0.54045493  0.44477093
   0.58479013  0.41694354  0.48303084
   0.58286069  0.74195150  0.48873530
   0.46376470  0.68302466  0.50793838
   0.57712367  0.53741125  0.57906307
   0.51573960  0.54779313  0.51095450
   0.41551726  0.55933232  0.47063969
   0.63408054  0.67033473  0.43572198
   0.53096695  0.50474692  0.53503518
Direct configuration=     2
   0.99871372  0.99982778  0.50335488
   0.99827685  0.14253885  0.50551756
   0.99833553  0.28564768  0.50640184
   0.99893103  0.42889224  0.50556631
   0.99979369  0.57202216  0.50313295
   0.00064247  0.71518416  0.50064953
   0.00016802  0.85803422  0.50074959
   0.14216869  0.00052797  0.50623502
   0.14119186  0.14264091  0.50582391
   0.14033036  0.28481838  0.50498452
   0.14088210  0.42843005  0.50496374
   0.14239180  0.57171872  0.50621025
   0.14277340  0.71488199  0.50617946
   0.14267971  0.85790671  0.50645475
   0.28501643  0.00050333  0.50719119
   0.28457276  0.14287482  0.50453557
   0.28370048  0.28616687  0.49955502
   0.28134049  0.42584532  0.49401849
   0.28544886  0.57143085  0.49921069
   0.28518486  0.71518876  0.50485622
   0.28512210  0.85806551  0.50739914
   0.42802858  0.00117932  0.50597244
   0.42774488  0.14352548  0.50329157
   0.42575951  0.28303814  0.50064937
   0.42683078  0.71800897  0.50555264
   0.42784759  0.85874119  0.50548385
   0.57074578  0.00134555  0.50442585
   0.57073410  0.14371097  0.50295380
   0.57167221  0.28714605  0.49546907
   0.57158092  0.85907036  0.50071906
   0.71353799  0.00059161  0.50053605
   0.71359485  0.14362053  0.50367170
   0.71369222  0.28649536  0.49856595
   0.71378049  0.42848160  0.48474989
   0.72057198  0.57449166  0.45998459
   0.72247794  0.71857171  0.46036648
   0.71253689  0.85768205  0.48766218
   0.85603907  0.00017035  0.49860860
   0.85587368  0.14307230  0.50399136
   0.85606252  0.28604916  0.50370518
   0.85681640  0.42912382  0.49778891
   0.85801212  0.57251249  0.48986816
   0.85967624  0.71604503  0.48519072
   0.85687468  0.85732512  0.49092028
   0.04610323  0.09503311  0.50557216
   0.04526837  0.23744584  0.50651118
   0.04575490  0.38088739  0.50646537
   0.04717526  0.52421089  0.50566659
   0.04764508  0.66732480  0.50390324
   0.04762432  0.81029127  0.50300412
   0.04698452  0.95280100  0.50402519
   0.18930618  0.09526643  0.50578685
   0.18822721  0.23760252  0.50409038
   0.18672804  0.37955920  0.50256012
   0.18937761  0.52362564  0.50461776
   0.19007102  0.66732358  0.50579456
   0.19019525  0.81030407  0.50699068
   0.19001559  0.95298516  0.50701512
   0.33259756  0.09585122  0.50547303
   0.33264671  0.23795317  0.50169363
   0.32773223  0.37848573  0.49171419
   0.32539274  0.51943890  0.48885407
   0.33387239  0.66849712  0.50283428
   0.33274812  0.81041269  0.50630491
   0.33263391  0.95315460  0.50726544
   0.47556442  0.09613555  0.50415133
   0.47473037  0.23866119  0.49991319
   0.47500328  0.81113219  0.50462851
   0.47562821  0.95390892  0.50539994
   0.61825321  0.09624379  0.50396325
   0.61857594  0.23895553  0.49908171
   0.62059977  0.38028851  0.48667260
   0.61957487  0.81399974  0.49231040
   0.61853386  0.95384545  0.50208553
   0.76103532  0.09591417  0.50323920
   0.76115390  0.23862352  0.50247861
   0.76168035  0.38152693  0.49370033
   0.76307727  0.52570069  0.47748233
   0.76626368  0.66840788  0.46692139
   0.76135835  0.80943568  0.47905972
   0.76100493  0.95290134  0.49552801
   0.90319939  0.09496549  0.50320039
   0.90331572  0.23820484  0.50532684
   0.90378508  0.38144940  0.50294640
   0.90483618  0.52461079  0.49766997
   0.90584787  0.66762241  0.49222942
   0.90531071  0.81058276  0.49258975
   0.90362944  0.95217945  0.49841401
   0.46172643  0.35553834  0.50158741
   0.39977787  0.41597013  0.48641007
   0.64972342  0.54045462  0.44475152
   0.58478955  0.41694384  0.48301524
   0.58285950  0.74195085  0.48872214
   0.46376499  0.68302616  0.50793846
   0.57716658  0.53742958  0.57908540
   0.51575906  0.54778139  0.51096043
   0.41552091  0.55932741  0.47066347
   0.63407994  0.67033632  0.43570912
   0.53093034  0.50474194  0.53527260
Direct configuration=     3
   0.99871314  0.99982683  0.50335222
   0.99827745  0.14253904  0.50551507
   0.99833485  0.28564688  0.50639891
   0.99893079  0.42889286  0.50556294
   0.99979456  0.57202269  0.50312856
   0.00064150  0.71518274  0.50064811
   0.00016628  0.85803446  0.50074883
   0.14216803  0.00052773  0.50623609
   0.14119034  0.14264021  0.50582373
   0.14033025  0.28481828  0.50498815
   0.14088303  0.42842984  0.50497456
   0.14239241  0.57171808  0.50621671
   0.14277114  0.71488148  0.50618317
   0.14267902  0.85790710  0.50645685
   0.28501542  0.00050330  0.50719212
   0.28457222  0.14287483  0.50453913
   0.28369971  0.28616532  0.49956531
   0.28134044  0.42584535  0.49404772
   0.28545151  0.57143269  0.49923795
   0.28518401  0.71518827  0.50486562
   0.28512079  0.85806505  0.50740246
   0.42802773  0.00118004  0.50597099
   0.42774388  0.14352543  0.50328918
   0.42575915  0.28303821  0.50064669
   0.42683057  0.71801065  0.50555423
   0.42784585  0.85874184  0.50548285
   0.57074459  0.00134554  0.50441756
   0.57073288  0.14371216  0.50294760
   0.57167191  0.28714653  0.49545735
   0.57157897  0.85907120  0.50070783
   0.71353691  0.00059132  0.50052732
   0.71359380  0.14362119  0.50366044
   0.71369201  0.28649602  0.49855056
   0.71378035  0.42848206  0.48472998
   0.72057444  0.57449355  0.45995988
   0.72247974  0.71857367  0.46034786
   0.71253694  0.85768312  0.48764958
   0.85603810  0.00016892  0.49860018
   0.85587196  0.14307086  0.50398260
   0.85606307  0.28604855  0.50369417
   0.85681675  0.42912448  0.49777571
   0.85801203  0.57251231  0.48985657
   0.85967561  0.71604419  0.48518363
   0.85687469  0.85732420  0.49091337
   0.04610206  0.09503189  0.50556979
   0.04526725  0.23744492  0.50650966
   0.04575490  0.38088761  0.50646594
   0.04717588  0.52421087  0.50566525
   0.04764467  0.66732528  0.50390265
   0.04762318  0.81029167  0.50300486
   0.04698325  0.95279965  0.50402462
   0.18930554  0.09526649  0.50578866
   0.18822600  0.23760171  0.50409375
   0.18672803  0.37956029  0.50257399
   0.18937932  0.52362558  0.50463367
   0.19007061  0.66732294  0.50580071
   0.19019400  0.81030381  0.50699413
   0.19001515  0.95298520  0.50701691
   0.33259659  0.09585121  0.50547371
   0.33264639  0.23795270  0.50169987
   0.32773204  0.37848556  0.49174562
   0.32539596  0.51943973  0.48889361
   0.33387259  0.66849850  0.50284922
   0.33274646  0.81041183  0.50630809
   0.33263311  0.95315448  0.50726658
   0.47556360  0.09613574  0.50414782
   0.47473040  0.23866192  0.49990754
   0.47500182  0.81113301  0.50462372
   0.47562708  0.95390962  0.50539657
   0.61825193  0.09624415  0.50395254
   0.61857613  0.23895616  0.49907213
   0.62059760  0.38028865  0.48665505
   0.61957346  0.81400007  0.49229791
   0.61853305  0.95384598  0.50207586
   0.76103366  0.09591481  0.50322887
   0.76115436  0.23862457  0.50246615
   0.76167962  0.38152694  0.49368330
   0.76307752  0.52570075  0.47746255
   0.76626482  0.66840797  0.46690579
   0.76135934  0.80943623  0.47904677
   0.76100351  0.95290068  0.49551799
   0.90319922  0.09496393  0.50319306
   0.90331466  0.23820235  0.50532105
   0.90378613  0.38144970  0.50293539
   0.90483646  0.52461098  0.49766148
   0.90584639  0.66762189  0.49222408
   0.90530818  0.81058067  0.49258788
   0.90362681  0.95217706  0.49840793
   0.46172676  0.35553854  0.50158359
   0.39977802  0.41597184  0.48646096
   0.64972579  0.54045438  0.44472235
   0.58478856  0.41694424  0.48299248
   0.58285849  0.74195140  0.48870275
   0.46376548  0.68302807  0.50793802
   0.57728732  0.53750291  0.57917141
   0.51580021  0.54774150  0.51098247
   0.41552317  0.55932271  0.47070584
   0.63407937  0.67033813  0.43568855
   0.53080686  0.50470872  0.53554372
Direct configuration=     4
   0.99871133  0.99982508  0.50334808
   0.99827689  0.14253801  0.50551052
   0.99833375  0.28564615  0.50639441
   0.99893202  0.42889373  0.50555856
   0.99979572  0.57202342  0.50312257
   0.00064035  0.71518051  0.50064678
   0.00016388  0.85803347  0.50074831
   0.14216705  0.00052738  0.50623755
   0.14118910  0.14263970  0.50582361
   0.14032962  0.28481802  0.50499398
   0.14088347  0.42842974  0.50499000
   0.14239156  0.57171724  0.50622451
   0.14276892  0.71488106  0.50618703
   0.14267762  0.85790687  0.50645977
   0.28501509  0.00050333  0.50719272
   0.28457141  0.14287454  0.50454445
   0.28369799  0.28616399  0.49958231
   0.28134130  0.42584581  0.49409236
   0.28545417  0.57143421  0.49927603
   0.28518251  0.71518839  0.50487915
   0.28511977  0.85806537  0.50740692
   0.42802622  0.00118021  0.50596892
   0.42774291  0.14352412  0.50328687
   0.42575894  0.28303859  0.50064376
   0.42683109  0.71801332  0.50555626
   0.42784386  0.85874218  0.50548142
   0.57074353  0.00134695  0.50440578
   0.57073050  0.14371401  0.50294065
   0.57167039  0.28714708  0.49544128
   0.57157675  0.85907153  0.50069230
   0.71353443  0.00059038  0.50051416
   0.71359338  0.14362264  0.50364567
   0.71369209  0.28649629  0.49852968
   0.71377917  0.42848256  0.48470261
   0.72057492  0.57449385  0.45992902
   0.72248219  0.71857494  0.46032514
   0.71253635  0.85768374  0.48763212
   0.85603738  0.00016794  0.49858795
   0.85587045  0.14306826  0.50396988
   0.85606365  0.28604742  0.50367943
   0.85681724  0.42912481  0.49775721
   0.85801272  0.57251280  0.48984056
   0.85967556  0.71604312  0.48517385
   0.85687378  0.85732281  0.49090348
   0.04610077  0.09503061  0.50556636
   0.04526788  0.23744578  0.50650861
   0.04575415  0.38088720  0.50646643
   0.04717685  0.52421128  0.50566321
   0.04764319  0.66732524  0.50390179
   0.04762162  0.81029162  0.50300575
   0.04698214  0.95279864  0.50402370
   0.18930426  0.09526618  0.50579142
   0.18822506  0.23760030  0.50409887
   0.18672798  0.37956198  0.50259349
   0.18938182  0.52362542  0.50465486
   0.19007038  0.66732383  0.50580892
   0.19019213  0.81030367  0.50699917
   0.19001411  0.95298534  0.50701937
   0.33259556  0.09585139  0.50547441
   0.33264663  0.23795207  0.50170892
   0.32773179  0.37848570  0.49179300
   0.32540216  0.51944119  0.48895218
   0.33387370  0.66850071  0.50287066
   0.33274461  0.81041141  0.50631300
   0.33263165  0.95315355  0.50726806
   0.47556247  0.09613747  0.50414299
   0.47473005  0.23866229  0.49989988
   0.47500001  0.81113491  0.50461664
   0.47562570  0.95391029  0.50539169
   0.61824756  0.09624307  0.50393970
   0.61857715  0.23895733  0.49905882
   0.62059714  0.38029081  0.48663241
   0.61957159  0.81399935  0.49227939
   0.61853256  0.95384754  0.50206206
   0.76103175  0.09591636  0.50321501
   0.76115388  0.23862568  0.50244833
   0.76167889  0.38152727  0.49366058
   0.76307672  0.52569960  0.47743491
   0.76626405  0.66840929  0.46688298
   0.76135944  0.80943645  0.47902844
   0.76100225  0.95290061  0.49550497
   0.90319788  0.09496120  0.50318293
   0.90331500  0.23820081  0.50531301
   0.90378697  0.38144983  0.50292034
   0.90483514  0.52460910  0.49765040
   0.90584525  0.66762116  0.49221623
   0.90530626  0.81057864  0.49258452
   0.90362395  0.95217498  0.49839963
   0.46172742  0.35553906  0.50157893
   0.39977839  0.41597414  0.48653544
   0.64972916  0.54045401  0.44468272
   0.58478661  0.41694517  0.48296284
   0.58285766  0.74195322  0.48867710
   0.46376606  0.68303048  0.50793668
   0.57746163  0.53761872  0.57929605
   0.51586149  0.54769104  0.51101282
   0.41552350  0.55931792  0.47077545
   0.63407865  0.67033933  0.43565894
   0.53062592  0.50464144  0.53587544
Direct configuration=     5
   0.99870819  0.99982271  0.50334212
   0.99827510  0.14253625  0.50550332
   0.99833308  0.28564589  0.50638824
   0.99893374  0.42889420  0.50555247
   0.99979564  0.57202318  0.50311488
   0.00063875  0.71518116  0.50064450
   0.00016246  0.85803328  0.50074664
   0.14216566  0.00052694  0.50623939
   0.14118786  0.14263884  0.50582359
   0.14032905  0.28481818  0.50500257
   0.14088300  0.42843004  0.50501043
   0.14239100  0.57171701  0.50623404
   0.14276768  0.71488128  0.50619125
   0.14267540  0.85790633  0.50646356
   0.28501478  0.00050330  0.50719324
   0.28457292  0.14287302  0.50455150
   0.28369612  0.28616278  0.49960792
   0.28134273  0.42584683  0.49415576
   0.28545765  0.57143474  0.49932553
   0.28518107  0.71518935  0.50489737
   0.28511834  0.85806565  0.50741257
   0.42802453  0.00118031  0.50596607
   0.42774178  0.14352337  0.50328437
   0.42575969  0.28303976  0.50064229
   0.42683260  0.71801680  0.50555908
   0.42784172  0.85874271  0.50547946
   0.57074196  0.00134886  0.50439018
   0.57072788  0.14371600  0.50293198
   0.57166892  0.28714864  0.49542057
   0.57157740  0.85907193  0.50067244
   0.71353172  0.00059025  0.50049578
   0.71359165  0.14362415  0.50362655
   0.71369161  0.28649521  0.49850333
   0.71377673  0.42848212  0.48466893
   0.72057356  0.57449323  0.45989434
   0.72248456  0.71857641  0.46029711
   0.71253468  0.85768344  0.48760913
   0.85603601  0.00016678  0.49857147
   0.85586933  0.14306539  0.50395284
   0.85606409  0.28604643  0.50366023
   0.85681689  0.42912366  0.49773290
   0.85801255  0.57251249  0.48981941
   0.85967456  0.71604161  0.48516048
   0.85687148  0.85732082  0.49089015
   0.04609924  0.09502920  0.50556157
   0.04526713  0.23744550  0.50650768
   0.04575320  0.38088640  0.50646679
   0.04717777  0.52421218  0.50566029
   0.04764104  0.66732407  0.50390053
   0.04761931  0.81029011  0.50300676
   0.04698077  0.95279793  0.50402226
   0.18930255  0.09526554  0.50579530
   0.18822380  0.23759870  0.50410631
   0.18672769  0.37956253  0.50262006
   0.18938406  0.52362582  0.50468234
   0.19006911  0.66732501  0.50581993
   0.19018992  0.81030357  0.50700583
   0.19001282  0.95298547  0.50702248
   0.33259462  0.09585123  0.50547535
   0.33264696  0.23795172  0.50172119
   0.32773032  0.37848628  0.49185808
   0.32541073  0.51944461  0.48902885
   0.33387490  0.66850306  0.50289940
   0.33274270  0.81041194  0.50632001
   0.33262997  0.95315269  0.50726976
   0.47556056  0.09613930  0.50413694
   0.47472889  0.23866183  0.49989012
   0.47499839  0.81113774  0.50460683
   0.47562390  0.95391082  0.50538499
   0.61824310  0.09624286  0.50392576
   0.61857767  0.23895935  0.49904105
   0.62059587  0.38029109  0.48660502
   0.61956982  0.81399931  0.49225388
   0.61853135  0.95384894  0.50204343
   0.76102860  0.09591855  0.50319816
   0.76115328  0.23862653  0.50242454
   0.76167914  0.38152832  0.49363269
   0.76307346  0.52569626  0.47739935
   0.76626247  0.66841097  0.46685261
   0.76135837  0.80943626  0.47900408
   0.76100115  0.95290112  0.49548796
   0.90319599  0.09495841  0.50316934
   0.90331572  0.23819967  0.50530146
   0.90378754  0.38144950  0.50290094
   0.90483384  0.52460706  0.49763576
   0.90584490  0.66762005  0.49220540
   0.90530498  0.81057690  0.49257894
   0.90362199  0.95217356  0.49838860
   0.46172838  0.35553979  0.50157367
   0.39977881  0.41597688  0.48663652
   0.64973189  0.54045250  0.44463218
   0.58478347  0.41694686  0.48292704
   0.58285642  0.74195510  0.48864534
   0.46376671  0.68303354  0.50793402
   0.57762770  0.53773730  0.57940017
   0.51593779  0.54765464  0.51103829
   0.41552273  0.55931320  0.47088194
   0.63408327  0.67034169  0.43562352
   0.53045474  0.50455647  0.53633197
Direct configuration=     6
   0.99870490  0.99982062  0.50333416
   0.99827267  0.14253441  0.50549304
   0.99833318  0.28564575  0.50638041
   0.99893449  0.42889398  0.50554389
   0.99979357  0.57202153  0.50310547
   0.00063680  0.71518107  0.50064216
   0.00016069  0.85803093  0.50074533
   0.14216386  0.00052658  0.50624176
   0.14118624  0.14263716  0.50582387
   0.14032832  0.28481807  0.50501478
   0.14088205  0.42843069  0.50503644
   0.14239440  0.57171806  0.50624581
   0.14276664  0.71488185  0.50619638
   0.14267272  0.85790577  0.50646851
   0.28501356  0.00050276  0.50719411
   0.28457191  0.14287235  0.50456095
   0.28369464  0.28616107  0.49964437
   0.28134422  0.42584892  0.49424165
   0.28546167  0.57143461  0.49938744
   0.28517984  0.71519053  0.50491972
   0.28511588  0.85806538  0.50741967
   0.42802302  0.00118092  0.50596238
   0.42774032  0.14352439  0.50328141
   0.42576049  0.28304080  0.50064241
   0.42683483  0.71802120  0.50556316
   0.42783979  0.85874407  0.50547690
   0.57073927  0.00134893  0.50437205
   0.57072567  0.14371801  0.50292065
   0.57166779  0.28715046  0.49539513
   0.57157900  0.85907311  0.50064755
   0.71352986  0.00059221  0.50047158
   0.71358743  0.14362524  0.50360246
   0.71369139  0.28649626  0.49847235
   0.71377296  0.42847884  0.48462998
   0.72057009  0.57449206  0.45985869
   0.72248821  0.71857980  0.46026272
   0.71253261  0.85768287  0.48757978
   0.85603366  0.00016497  0.49855040
   0.85586800  0.14306362  0.50393131
   0.85606433  0.28604585  0.50363568
   0.85681574  0.42912109  0.49770245
   0.85800954  0.57250899  0.48979380
   0.85967165  0.71603931  0.48514252
   0.85686831  0.85731859  0.49087290
   0.04609714  0.09502733  0.50555509
   0.04526483  0.23744339  0.50650623
   0.04575287  0.38088584  0.50646711
   0.04717826  0.52421282  0.50565641
   0.04763882  0.66732268  0.50389873
   0.04761669  0.81028841  0.50300799
   0.04697875  0.95279729  0.50402017
   0.18930191  0.09526485  0.50580060
   0.18822177  0.23759735  0.50411701
   0.18672771  0.37956139  0.50265433
   0.18938547  0.52362608  0.50471600
   0.19006693  0.66732547  0.50583468
   0.19018891  0.81030459  0.50701278
   0.19001154  0.95298526  0.50702635
   0.33259447  0.09584988  0.50547692
   0.33264640  0.23795175  0.50173621
   0.32772877  0.37848741  0.49194092
   0.32541811  0.51944707  0.48912977
   0.33387560  0.66850501  0.50293658
   0.33274086  0.81041333  0.50632968
   0.33262851  0.95315260  0.50727166
   0.47555795  0.09613977  0.50412996
   0.47472617  0.23866241  0.49987989
   0.47499854  0.81114119  0.50459401
   0.47562130  0.95391219  0.50537766
   0.61824045  0.09624518  0.50390996
   0.61857657  0.23896181  0.49901823
   0.62059134  0.38028991  0.48657349
   0.61956889  0.81400036  0.49222033
   0.61852918  0.95384946  0.50201920
   0.76102552  0.09591989  0.50317856
   0.76115325  0.23862675  0.50239431
   0.76167937  0.38152889  0.49359839
   0.76307052  0.52569469  0.47735609
   0.76626182  0.66841168  0.46681498
   0.76135650  0.80943612  0.47897323
   0.76099957  0.95290143  0.49546561
   0.90319400  0.09495621  0.50315146
   0.90331564  0.23819809  0.50528506
   0.90378819  0.38144849  0.50287682
   0.90483309  0.52460589  0.49761636
   0.90584424  0.66761855  0.49219097
   0.90530363  0.81057532  0.49257029
   0.90362032  0.95217198  0.49837411
   0.46173002  0.35554093  0.50156838
   0.39977885  0.41597975  0.48676825
   0.64973247  0.54044875  0.44457049
   0.58477957  0.41694881  0.48288627
   0.58285425  0.74195608  0.48860756
   0.46376774  0.68303750  0.50792981
   0.57777704  0.53785538  0.57947444
   0.51603658  0.54761728  0.51106693
   0.41552649  0.55931356  0.47103580
   0.63408964  0.67034203  0.43558004
   0.53029832  0.50447748  0.53689798
Direct configuration=     7
   0.99870218  0.99981910  0.50332251
   0.99826968  0.14253226  0.50547724
   0.99833323  0.28564460  0.50636936
   0.99893376  0.42889349  0.50553034
   0.99979039  0.57201909  0.50309285
   0.00063395  0.71517830  0.50063920
   0.00015952  0.85802989  0.50074237
   0.14216147  0.00052588  0.50624543
   0.14118345  0.14263436  0.50582499
   0.14032737  0.28481584  0.50503238
   0.14088112  0.42843083  0.50507133
   0.14239563  0.57171778  0.50626151
   0.14276437  0.71488218  0.50620420
   0.14267004  0.85790549  0.50647573
   0.28501118  0.00050141  0.50719624
   0.28456901  0.14287279  0.50457511
   0.28369325  0.28615894  0.49970145
   0.28134185  0.42584631  0.49436351
   0.28546243  0.57143467  0.49947509
   0.28517918  0.71519181  0.50494823
   0.28511255  0.85806525  0.50742797
   0.42802192  0.00118234  0.50595918
   0.42773822  0.14352695  0.50327756
   0.42575932  0.28304164  0.50064500
   0.42683753  0.71802715  0.50557000
   0.42783844  0.85874695  0.50547354
   0.57073540  0.00134813  0.50434852
   0.57072349  0.14372043  0.50290364
   0.57166484  0.28715179  0.49536322
   0.57157925  0.85907551  0.50061217
   0.71352876  0.00059594  0.50043677
   0.71358299  0.14362712  0.50357068
   0.71369124  0.28649935  0.49843122
   0.71376754  0.42847459  0.48458055
   0.72056242  0.57449148  0.45982047
   0.72249557  0.71858589  0.46021473
   0.71253202  0.85768388  0.48753972
   0.85603038  0.00016253  0.49852078
   0.85586548  0.14306346  0.50390137
   0.85606549  0.28604573  0.50360207
   0.85681363  0.42911646  0.49766197
   0.85800373  0.57250324  0.48975853
   0.85966742  0.71603604  0.48511767
   0.85686542  0.85731672  0.49084825
   0.04609413  0.09502480  0.50554521
   0.04526421  0.23744180  0.50650276
   0.04575334  0.38088585  0.50646756
   0.04717905  0.52421264  0.50565080
   0.04763675  0.66732172  0.50389617
   0.04761410  0.81028697  0.50301006
   0.04697549  0.95279552  0.50401707
   0.18930189  0.09526411  0.50580893
   0.18821850  0.23759554  0.50413511
   0.18672542  0.37955680  0.50270459
   0.18938678  0.52362695  0.50476027
   0.19006555  0.66732557  0.50585704
   0.19018787  0.81030596  0.50702161
   0.19000936  0.95298429  0.50703193
   0.33259410  0.09584813  0.50548019
   0.33264549  0.23795196  0.50175912
   0.32772815  0.37848967  0.49206545
   0.32541974  0.51944614  0.48927932
   0.33387606  0.66850659  0.50299023
   0.33273911  0.81041499  0.50634437
   0.33262913  0.95315470  0.50727240
   0.47555521  0.09613954  0.50412129
   0.47472345  0.23866453  0.49986791
   0.47500121  0.81114566  0.50457588
   0.47561837  0.95391417  0.50536817
   0.61823868  0.09624889  0.50388868
   0.61857400  0.23896464  0.49898628
   0.62058223  0.38028822  0.48653159
   0.61956845  0.81400151  0.49217201
   0.61852658  0.95384976  0.50198443
   0.76102296  0.09592018  0.50315083
   0.76115312  0.23862702  0.50235226
   0.76167875  0.38152845  0.49355285
   0.76306753  0.52569382  0.47730135
   0.76626270  0.66841125  0.46676491
   0.76135488  0.80943650  0.47893399
   0.76099653  0.95290111  0.49543218
   0.90319132  0.09495438  0.50312497
   0.90331450  0.23819628  0.50525913
   0.90378720  0.38144400  0.50284696
   0.90483093  0.52460367  0.49758754
   0.90584084  0.66761542  0.49216998
   0.90530030  0.81057278  0.49255590
   0.90361711  0.95216900  0.49835272
   0.46173286  0.35554256  0.50156362
   0.39977860  0.41598334  0.48696000
   0.64973009  0.54044122  0.44448892
   0.58477452  0.41695073  0.48283686
   0.58285078  0.74195607  0.48855858
   0.46376971  0.68304334  0.50792271
   0.57798161  0.53803054  0.57957281
   0.51618615  0.54753621  0.51111907
   0.41555261  0.55932995  0.47127070
   0.63409394  0.67033595  0.43552316
   0.53006956  0.50439228  0.53756289
Direct configuration=     8
   0.99869884  0.99981707  0.50330564
   0.99826644  0.14253018  0.50545367
   0.99833242  0.28564222  0.50635376
   0.99893169  0.42889230  0.50551004
   0.99978787  0.57201720  0.50307581
   0.00062897  0.71517115  0.50063699
   0.00015569  0.85802863  0.50073707
   0.14216019  0.00052280  0.50625177
   0.14117901  0.14263101  0.50582808
   0.14032369  0.28480973  0.50505949
   0.14088148  0.42842934  0.50511921
   0.14239220  0.57171648  0.50628441
   0.14276123  0.71488192  0.50621705
   0.14266752  0.85790536  0.50648621
   0.28500894  0.00050037  0.50720081
   0.28457071  0.14286988  0.50459243
   0.28369248  0.28616049  0.49978097
   0.28133992  0.42584048  0.49452857
   0.28545855  0.57143707  0.49960262
   0.28517893  0.71519302  0.50498935
   0.28511130  0.85806801  0.50743881
   0.42802055  0.00118562  0.50595651
   0.42773589  0.14352919  0.50327294
   0.42575428  0.28304235  0.50064921
   0.42684075  0.71803477  0.50558177
   0.42783833  0.85875089  0.50546977
   0.57073232  0.00135012  0.50431779
   0.57072086  0.14372386  0.50287821
   0.57165663  0.28715175  0.49532284
   0.57157837  0.85908039  0.50056278
   0.71352351  0.00059567  0.50038950
   0.71358134  0.14362945  0.50352781
   0.71368762  0.28649780  0.49838000
   0.71376115  0.42847355  0.48452028
   0.72055276  0.57448935  0.45977744
   0.72250730  0.71859315  0.46014872
   0.71253175  0.85768668  0.48748371
   0.85602631  0.00016050  0.49847938
   0.85586508  0.14306422  0.50386023
   0.85606253  0.28604364  0.50355924
   0.85681253  0.42911235  0.49760823
   0.85799671  0.57249880  0.48970909
   0.85966404  0.71603188  0.48508209
   0.85686391  0.85731543  0.49081340
   0.04609024  0.09502209  0.50553043
   0.04526392  0.23743988  0.50649576
   0.04575300  0.38088604  0.50646827
   0.04717805  0.52421088  0.50564288
   0.04763397  0.66732014  0.50389311
   0.04761113  0.81028525  0.50301381
   0.04697196  0.95279351  0.50401287
   0.18929948  0.09526317  0.50582218
   0.18821463  0.23759108  0.50416570
   0.18672007  0.37954917  0.50277702
   0.18938562  0.52362718  0.50482156
   0.19006612  0.66732782  0.50588803
   0.19018450  0.81030613  0.50703399
   0.19000525  0.95298291  0.50704043
   0.33259056  0.09584856  0.50548666
   0.33264588  0.23795313  0.50179445
   0.32773047  0.37849003  0.49224697
   0.32542639  0.51944646  0.48949977
   0.33387717  0.66850924  0.50306684
   0.33273776  0.81041657  0.50636564
   0.33262878  0.95315674  0.50727276
   0.47555343  0.09614204  0.50411078
   0.47472126  0.23866763  0.49985382
   0.47500364  0.81115198  0.50455121
   0.47561734  0.95391470  0.50535679
   0.61823539  0.09625060  0.50385866
   0.61857149  0.23896816  0.49894254
   0.62057423  0.38028628  0.48647581
   0.61956794  0.81399875  0.49210809
   0.61852531  0.95385025  0.50193842
   0.76101866  0.09592075  0.50311137
   0.76115192  0.23862950  0.50229513
   0.76167540  0.38152610  0.49349331
   0.76305445  0.52568372  0.47723719
   0.76626359  0.66841175  0.46670079
   0.76135214  0.80943844  0.47888383
   0.76099315  0.95290168  0.49538475
   0.90318729  0.09495345  0.50308838
   0.90331284  0.23819971  0.50522606
   0.90378515  0.38143963  0.50280782