  93  93   0   0
  0.4166543E+02  0.1727104E-08  0.1727104E-08  0.1500000E-08  0.1000000E-15
   1.0000000000000000E-004
  CAR 
 unknown system                          
      5.74583607    -30.80024801  301     -2.82907131      1.00000000
    -30.800  0.0000E+00  0.0000E+00  0.0000E+00  0.0000E+00
    -30.678  0.0000E+00  0.0000E+00  0.0000E+00  0.0000E+00
    -30.557  0.0000E+00  0.0000E+00  0.0000E+00  0.0000E+00
    -30.435  0.0000E+00  0.0000E+00  0.0000E+00  0.0000E+00
    -30.313  0.0000E+00  0.0000E+00  0.0000E+00  0.0000E+00
    -30.191  0.0000E+00  0.0000E+00  0.0000E+00  0.0000E+00
    -30.069  0.0000E+00  0.0000E+00  0.0000E+00  0.0000E+00
    -29.948  0.0000E+00  0.0000E+00  0.0000E+00  0.0000E+00
    -29.826  0.0000E+00  0.0000E+00  0.0000E+00  0.0000E+00
    -29.704  0.0000E+00  0.0000E+00  0.0000E+00  0.0000E+00
    -29.582  0.0000E+00  0.0000E+00  0.0000E+00  0.0000E+00
    -29.460  0.0000E+00  0.0000E+00  0.0000E+00  0.0000E+00
    -29.338  0.2341E-09  0.2341E-09  0.2851E-10  0.2851E-10
    -29.217  0.3870E-03  0.3870E-03  0.4714E-04  0.4714E-04
    -29.095  0.2750E-01  0.2750E-01  0.3398E-02  0.3398E-02
    -28.973  0.2654E-01  0.2654E-01  0.6630E-02  0.6630E-02
    -28.851  0.2989E-03  0.2989E-03  0.6667E-02  0.6667E-02
    -28.729  0.1306E-09  0.1306E-09  0.6667E-02  0.6667E-02
    -28.607  0.0000E+00  0.0000E+00  0.6667E-02  0.6667E-02
    -28.486  0.0000E+00  0.0000E+00  0.6667E-02  0.6667E-02
    -28.364  0.0000E+00  0.0000E+00  0.6667E-02  0.6667E-02
    -28.242  0.0000E+00  0.0000E+00  0.6667E-02  0.6667E-02
    -28.120  0.0000E+00  0.0000E+00  0.6667E-02  0.6667E-02
    -27.998  0.0000E+00  0.0000E+00  0.6667E-02  0.6667E-02
    -27.877  0.0000E+00  0.0000E+00  0.6667E-02  0.6667E-02
    -27.755  0.0000E+00  0.0000E+00  0.6667E-02  0.6667E-02
    -27.633  0.0000E+00  0.0000E+00  0.6667E-02  0.6667E-02
    -27.511  0.0000E+00  0.0000E+00  0.6667E-02  0.6667E-02
    -27.389  0.0000E+00  0.0000E+00  0.6667E-02  0.6667E-02
    -27.267  0.0000E+00  0.0000E+00  0.6667E-02  0.6667E-02
    -27.146  0.0000E+00  0.0000E+00  0.6667E-02  0.6667E-02
    -27.024  0.0000E+00  0.0000E+00  0.6667E-02  0.6667E-02
    -26.902  0.0000E+00  0.0000E+00  0.6667E-02  0.6667E-02
    -26.780  0.0000E+00  0.0000E+00  0.6667E-02  0.6667E-02
    -26.658  0.0000E+00  0.0000E+00  0.6667E-02  0.6667E-02
    -26.537  0.0000E+00  0.0000E+00  0.6667E-02  0.6667E-02
    -26.415  0.0000E+00  0.0000E+00  0.6667E-02  0.6667E-02
    -26.293  0.0000E+00  0.0000E+00  0.6667E-02  0.6667E-02
    -26.171  0.0000E+00  0.0000E+00  0.6667E-02  0.6667E-02
    -26.049  0.0000E+00  0.0000E+00  0.6667E-02  0.6667E-02
    -25.927  0.0000E+00  0.0000E+00  0.6667E-02  0.6667E-02
    -25.806  0.0000E+00  0.0000E+00  0.6667E-02  0.6667E-02
    -25.684  0.0000E+00  0.0000E+00  0.6667E-02  0.6667E-02
    -25.562  0.0000E+00  0.0000E+00  0.6667E-02  0.6667E-02
    -25.440  0.0000E+00  0.0000E+00  0.6667E-02  0.6667E-02
    -25.318  0.0000E+00  0.0000E+00  0.6667E-02  0.6667E-02
    -25.197  0.0000E+00  0.0000E+00  0.6667E-02  0.6667E-02
    -25.075  0.0000E+00  0.0000E+00  0.6667E-02  0.6667E-02
    -24.953  0.0000E+00  0.0000E+00  0.6667E-02  0.6667E-02
    -24.831  0.0000E+00  0.0000E+00  0.6667E-02  0.6667E-02
    -24.709  0.0000E+00  0.0000E+00  0.6667E-02  0.6667E-02
    -24.587  0.0000E+00  0.0000E+00  0.6667E-02  0.6667E-02
    -24.466  0.0000E+00  0.0000E+00  0.6667E-02  0.6667E-02
    -24.344  0.0000E+00  0.0000E+00  0.6667E-02  0.6667E-02
    -24.222  0.0000E+00  0.0000E+00  0.6667E-02  0.6667E-02
    -24.100  0.0000E+00  0.0000E+00  0.6667E-02  0.6667E-02
    -23.978  0.0000E+00  0.0000E+00  0.6667E-02  0.6667E-02
    -23.856  0.0000E+00  0.0000E+00  0.6667E-02  0.6667E-02
    -23.735  0.0000E+00  0.0000E+00  0.6667E-02  0.6667E-02
    -23.613  0.0000E+00  0.0000E+00  0.6667E-02  0.6667E-02
    -23.491  0.0000E+00  0.0000E+00  0.6667E-02  0.6667E-02
    -23.369  0.0000E+00  0.0000E+00  0.6667E-02  0.6667E-02
    -23.247  0.0000E+00  0.0000E+00  0.6667E-02  0.6667E-02
    -23.126  0.0000E+00  0.0000E+00  0.6667E-02  0.6667E-02
    -23.004  0.0000E+00  0.0000E+00  0.6667E-02  0.6667E-02
    -22.882  0.8248E-09  0.8248E-09  0.6667E-02  0.6667E-02
    -22.760  0.6082E-03  0.6082E-03  0.6741E-02  0.6741E-02
    -22.638  0.2460E-01  0.2460E-01  0.9738E-02  0.9738E-02
    -22.516  0.3127E-01  0.3127E-01  0.1355E-01  0.1355E-01
    -22.395  0.2559E-01  0.2559E-01  0.1666E-01  0.1666E-01
    -22.273  0.3066E-02  0.3066E-02  0.1704E-01  0.1704E-01
    -22.151  0.2714E-01  0.2714E-01  0.2034E-01  0.2034E-01
    -22.029  0.2434E-01  0.2434E-01  0.2331E-01  0.2331E-01
    -21.907  0.1780E-01  0.1780E-01  0.2548E-01  0.2548E-01
    -21.786  0.1947E-01  0.1947E-01  0.2785E-01  0.2785E-01
    -21.664  0.2826E-01  0.2826E-01  0.3129E-01  0.3129E-01
    -21.542  0.1276E-01  0.1276E-01  0.3284E-01  0.3284E-01
    -21.420  0.2539E-01  0.2539E-01  0.3594E-01  0.3594E-01
    -21.298  0.1604E-01  0.1604E-01  0.3789E-01  0.3789E-01
    -21.176  0.1713E-01  0.1713E-01  0.3998E-01  0.3998E-01
    -21.055  0.7211E-02  0.7211E-02  0.4086E-01  0.4086E-01
    -20.933  0.2538E-01  0.2538E-01  0.4395E-01  0.4395E-01
    -20.811  0.4631E-01  0.4631E-01  0.4959E-01  0.4959E-01
    -20.689  0.2555E-01  0.2555E-01  0.5270E-01  0.5270E-01
    -20.567  0.2310E-01  0.2310E-01  0.5552E-01  0.5552E-01
    -20.446  0.1380E-01  0.1380E-01  0.5720E-01  0.5720E-01
    -20.324  0.3058E-01  0.3058E-01  0.6092E-01  0.6092E-01
    -20.202  0.1305E-01  0.1305E-01  0.6251E-01  0.6251E-01
    -20.080  0.1667E-01  0.1667E-01  0.6455E-01  0.6455E-01
    -19.958  0.1764E-01  0.1764E-01  0.6669E-01  0.6669E-01
    -19.836  0.1913E-01  0.1913E-01  0.6902E-01  0.6902E-01
    -19.715  0.3824E-01  0.3824E-01  0.7368E-01  0.7368E-01
    -19.593  0.3684E-01  0.3684E-01  0.7817E-01  0.7817E-01
    -19.471  0.2130E-01  0.2130E-01  0.8076E-01  0.8076E-01
    -19.349  0.9436E-02  0.9436E-02  0.8191E-01  0.8191E-01
    -19.227  0.1154E-01  0.1154E-01  0.8332E-01  0.8332E-01
    -19.106  0.1213E-01  0.1213E-01  0.8480E-01  0.8480E-01
    -18.984  0.1725E-01  0.1725E-01  0.8690E-01  0.8690E-01
    -18.862  0.2868E-01  0.2868E-01  0.9039E-01  0.9039E-01
    -18.740  0.4755E-01  0.4755E-01  0.9619E-01  0.9619E-01
    -18.618  0.2116E-01  0.2116E-01  0.9876E-01  0.9876E-01
    -18.496  0.3011E-01  0.3011E-01  0.1024E+00  0.1024E+00
    -18.375  0.1617E-01  0.1617E-01  0.1044E+00  0.1044E+00
    -18.253  0.2016E-01  0.2016E-01  0.1069E+00  0.1069E+00
    -18.131  0.1909E-01  0.1909E-01  0.1092E+00  0.1092E+00
    -18.009  0.2606E-01  0.2606E-01  0.1124E+00  0.1124E+00
    -17.887  0.1089E-01  0.1089E-01  0.1137E+00  0.1137E+00
    -17.765  0.4276E-01  0.4276E-01  0.1189E+00  0.1189E+00
    -17.644  0.4492E-01  0.4492E-01  0.1244E+00  0.1244E+00
    -17.522  0.1104E-01  0.1104E-01  0.1257E+00  0.1257E+00
    -17.400  0.1820E-01  0.1820E-01  0.1279E+00  0.1279E+00
    -17.278  0.3708E-01  0.3708E-01  0.1324E+00  0.1324E+00
    -17.156  0.2838E-01  0.2838E-01  0.1359E+00  0.1359E+00
    -17.035  0.1712E-01  0.1712E-01  0.1380E+00  0.1380E+00
    -16.913  0.2093E-01  0.2093E-01  0.1405E+00  0.1405E+00
    -16.791  0.2221E-01  0.2221E-01  0.1432E+00  0.1432E+00
    -16.669  0.5309E-01  0.5309E-01  0.1497E+00  0.1497E+00
    -16.547  0.2079E-01  0.2079E-01  0.1522E+00  0.1522E+00
    -16.425  0.1417E-01  0.1417E-01  0.1540E+00  0.1540E+00
    -16.304  0.1637E-02  0.1637E-02  0.1542E+00  0.1542E+00
    -16.182  0.1851E-04  0.1851E-04  0.1542E+00  0.1542E+00
    -16.060  0.5528E-02  0.5528E-02  0.1548E+00  0.1548E+00
    -15.938  0.2228E-01  0.2228E-01  0.1576E+00  0.1576E+00
    -15.816  0.2893E-01  0.2893E-01  0.1611E+00  0.1611E+00
    -15.695  0.1635E-01  0.1635E-01  0.1631E+00  0.1631E+00
    -15.573  0.8672E-02  0.8672E-02  0.1641E+00  0.1641E+00
    -15.451  0.3178E-01  0.3178E-01  0.1680E+00  0.1680E+00
    -15.329  0.4488E-01  0.4488E-01  0.1735E+00  0.1735E+00
    -15.207  0.2515E-01  0.2515E-01  0.1765E+00  0.1765E+00
    -15.085  0.2328E-01  0.2328E-01  0.1794E+00  0.1794E+00
    -14.964  0.2778E-01  0.2778E-01  0.1828E+00  0.1828E+00
    -14.842  0.3126E-01  0.3126E-01  0.1866E+00  0.1866E+00
    -14.720  0.2595E-01  0.2595E-01  0.1897E+00  0.1897E+00
    -14.598  0.4436E-01  0.4436E-01  0.1951E+00  0.1951E+00
    -14.476  0.3167E-01  0.3167E-01  0.1990E+00  0.1990E+00
    -14.355  0.1226E-01  0.1226E-01  0.2005E+00  0.2005E+00
    -14.233  0.1695E-01  0.1695E-01  0.2025E+00  0.2025E+00
    -14.111  0.1179E-01  0.1179E-01  0.2040E+00  0.2040E+00
    -13.989  0.2426E-01  0.2426E-01  0.2069E+00  0.2069E+00
    -13.867  0.3025E-01  0.3025E-01  0.2106E+00  0.2106E+00
    -13.745  0.3917E-01  0.3917E-01  0.2154E+00  0.2154E+00
    -13.624  0.2477E-01  0.2477E-01  0.2184E+00  0.2184E+00
    -13.502  0.2019E-01  0.2019E-01  0.2209E+00  0.2209E+00
    -13.380  0.6509E-02  0.6509E-02  0.2217E+00  0.2217E+00
    -13.258  0.1218E-01  0.1218E-01  0.2231E+00  0.2231E+00
    -13.136  0.1943E-01  0.1943E-01  0.2255E+00  0.2255E+00
    -13.014  0.2345E-01  0.2345E-01  0.2284E+00  0.2284E+00
    -12.893  0.3108E-01  0.3108E-01  0.2322E+00  0.2322E+00
    -12.771  0.5939E-01  0.5939E-01  0.2394E+00  0.2394E+00
    -12.649  0.1712E-01  0.1712E-01  0.2415E+00  0.2415E+00
    -12.527  0.3272E-01  0.3272E-01  0.2455E+00  0.2455E+00
    -12.405  0.2896E-01  0.2896E-01  0.2490E+00  0.2490E+00
    -12.284  0.2044E-01  0.2044E-01  0.2515E+00  0.2515E+00
    -12.162  0.8027E-02  0.8027E-02  0.2525E+00  0.2525E+00
    -12.040  0.3099E-01  0.3099E-01  0.2562E+00  0.2562E+00
    -11.918  0.2357E-01  0.2357E-01  0.2591E+00  0.2591E+00
    -11.796  0.3853E-01  0.3853E-01  0.2638E+00  0.2638E+00
    -11.674  0.4601E-01  0.4601E-01  0.2694E+00  0.2694E+00
    -11.553  0.4077E-01  0.4077E-01  0.2744E+00  0.2744E+00
    -11.431  0.3328E-01  0.3328E-01  0.2784E+00  0.2784E+00
    -11.309  0.4352E-01  0.4352E-01  0.2837E+00  0.2837E+00
    -11.187  0.3358E-01  0.3358E-01  0.2878E+00  0.2878E+00
    -11.065  0.2288E-01  0.2288E-01  0.2906E+00  0.2906E+00
    -10.944  0.1549E-01  0.1549E-01  0.2925E+00  0.2925E+00
    -10.822  0.1402E-01  0.1402E-01  0.2942E+00  0.2942E+00
    -10.700  0.3323E-01  0.3323E-01  0.2982E+00  0.2982E+00
    -10.578  0.5075E-01  0.5075E-01  0.3044E+00  0.3044E+00
    -10.456  0.3979E-01  0.3979E-01  0.3093E+00  0.3093E+00
    -10.334  0.4596E-01  0.4596E-01  0.3149E+00  0.3149E+00
    -10.213  0.4941E-01  0.4941E-01  0.3209E+00  0.3209E+00
    -10.091  0.5616E-01  0.5616E-01  0.3277E+00  0.3277E+00
     -9.969  0.5893E-01  0.5893E-01  0.3349E+00  0.3349E+00
     -9.847  0.6032E-01  0.6032E-01  0.3423E+00  0.3423E+00
     -9.725  0.6624E-01  0.6624E-01  0.3503E+00  0.3503E+00
     -9.604  0.6127E-01  0.6127E-01  0.3578E+00  0.3578E+00
     -9.482  0.7834E-01  0.7834E-01  0.3673E+00  0.3673E+00
     -9.360  0.5480E-01  0.5480E-01  0.3740E+00  0.3740E+00
     -9.238  0.7576E-01  0.7576E-01  0.3832E+00  0.3832E+00
     -9.116  0.8866E-01  0.8866E-01  0.3940E+00  0.3940E+00
     -8.994  0.8085E-01  0.8085E-01  0.4039E+00  0.4039E+00
     -8.873  0.5842E-01  0.5842E-01  0.4110E+00  0.4110E+00
     -8.751  0.4930E-01  0.4930E-01  0.4170E+00  0.4170E+00
     -8.629  0.5929E-01  0.5929E-01  0.4242E+00  0.4242E+00
     -8.507  0.6424E-01  0.6424E-01  0.4321E+00  0.4321E+00
     -8.385  0.9400E-01  0.9400E-01  0.4435E+00  0.4435E+00
     -8.263  0.5794E-01  0.5794E-01  0.4506E+00  0.4506E+00
     -8.142  0.4446E-01  0.4446E-01  0.4560E+00  0.4560E+00
     -8.020  0.3195E-01  0.3195E-01  0.4599E+00  0.4599E+00
     -7.898  0.4075E-01  0.4075E-01  0.4648E+00  0.4648E+00
     -7.776  0.2606E-01  0.2606E-01  0.4680E+00  0.4680E+00
     -7.654  0.3547E-01  0.3547E-01  0.4723E+00  0.4723E+00
     -7.533  0.7399E-01  0.7399E-01  0.4814E+00  0.4814E+00
     -7.411  0.7850E-01  0.7850E-01  0.4909E+00  0.4909E+00
     -7.289  0.4670E-01  0.4670E-01  0.4966E+00  0.4966E+00
     -7.167  0.2883E-01  0.2883E-01  0.5001E+00  0.5001E+00
     -7.045  0.4123E-01  0.4123E-01  0.5051E+00  0.5051E+00
     -6.923  0.5278E-01  0.5278E-01  0.5116E+00  0.5116E+00
     -6.802  0.3808E-01  0.3808E-01  0.5162E+00  0.5162E+00
     -6.680  0.4203E-01  0.4203E-01  0.5213E+00  0.5213E+00
     -6.558  0.3018E-01  0.3018E-01  0.5250E+00  0.5250E+00
     -6.436  0.8252E-01  0.8252E-01  0.5351E+00  0.5351E+00
     -6.314  0.3003E-01  0.3003E-01  0.5387E+00  0.5387E+00
     -6.193  0.3322E-01  0.3322E-01  0.5428E+00  0.5428E+00
     -6.071  0.4420E-01  0.4420E-01  0.5481E+00  0.5481E+00
     -5.949  0.1738E-01  0.1738E-01  0.5503E+00  0.5503E+00
     -5.827  0.3335E-01  0.3335E-01  0.5543E+00  0.5543E+00
     -5.705  0.1139E-01  0.1139E-01  0.5557E+00  0.5557E+00
     -5.583  0.2573E-01  0.2573E-01  0.5589E+00  0.5589E+00
     -5.462  0.4222E-01  0.4222E-01  0.5640E+00  0.5640E+00
     -5.340  0.3569E-01  0.3569E-01  0.5683E+00  0.5683E+00
     -5.218  0.6942E-01  0.6942E-01  0.5768E+00  0.5768E+00
     -5.096  0.5285E-01  0.5285E-01  0.5832E+00  0.5832E+00
     -4.974  0.2852E-01  0.2852E-01  0.5867E+00  0.5867E+00
     -4.853  0.6444E-02  0.6444E-02  0.5875E+00  0.5875E+00
     -4.731  0.3600E-02  0.3600E-02  0.5879E+00  0.5879E+00
     -4.609  0.2438E-01  0.2438E-01  0.5909E+00  0.5909E+00
     -4.487  0.5710E-01  0.5710E-01  0.5979E+00  0.5979E+00
     -4.365  0.5750E-01  0.5750E-01  0.6049E+00  0.6049E+00
     -4.243  0.7587E-01  0.7587E-01  0.6141E+00  0.6141E+00
     -4.122  0.3750E-01  0.3750E-01  0.6187E+00  0.6187E+00
     -4.000  0.3606E-01  0.3606E-01  0.6231E+00  0.6231E+00
     -3.878  0.4910E-02  0.4910E-02  0.6237E+00  0.6237E+00
     -3.756  0.5470E-02  0.5470E-02  0.6243E+00  0.6243E+00
     -3.634  0.2040E-01  0.2040E-01  0.6268E+00  0.6268E+00
     -3.513  0.5595E-02  0.5595E-02  0.6275E+00  0.6275E+00
     -3.391  0.5414E-02  0.5414E-02  0.6282E+00  0.6282E+00
     -3.269  0.1414E-02  0.1414E-02  0.6283E+00  0.6283E+00
     -3.147  0.1243E-04  0.1243E-04  0.6283E+00  0.6283E+00
     -3.025  0.1512E-01  0.1512E-01  0.6302E+00  0.6302E+00
     -2.903  0.2582E-01  0.2582E-01  0.6333E+00  0.6333E+00
     -2.782  0.9400E-04  0.9400E-04  0.6333E+00  0.6333E+00
     -2.660  0.7279E-02  0.7279E-02  0.6342E+00  0.6342E+00
     -2.538  0.6394E-02  0.6394E-02  0.6350E+00  0.6350E+00
     -2.416  0.3287E-05  0.3287E-05  0.6350E+00  0.6350E+00
     -2.294  0.1872E-02  0.1872E-02  0.6352E+00  0.6352E+00
     -2.172  0.1056E-01  0.1056E-01  0.6365E+00  0.6365E+00
     -2.051  0.6106E-02  0.6106E-02  0.6373E+00  0.6373E+00
     -1.929  0.2212E-01  0.2212E-01  0.6400E+00  0.6400E+00
     -1.807  0.1230E-02  0.1230E-02  0.6401E+00  0.6401E+00
     -1.685  0.1476E-01  0.1476E-01  0.6419E+00  0.6419E+00
     -1.563  0.1775E-01  0.1775E-01  0.6441E+00  0.6441E+00
     -1.442  0.7680E-02  0.7680E-02  0.6450E+00  0.6450E+00
     -1.320  0.2813E-02  0.2813E-02  0.6453E+00  0.6453E+00
     -1.198  0.3702E-01  0.3702E-01  0.6499E+00  0.6499E+00
     -1.076  0.5023E-01  0.5023E-01  0.6560E+00  0.6560E+00
     -0.954  0.2422E-01  0.2422E-01  0.6589E+00  0.6589E+00
     -0.832  0.3018E-01  0.3018E-01  0.6626E+00  0.6626E+00
     -0.711  0.2639E-01  0.2639E-01  0.6658E+00  0.6658E+00
     -0.589  0.1492E-01  0.1492E-01  0.6676E+00  0.6676E+00
     -0.467  0.2841E-01  0.2841E-01  0.6711E+00  0.6711E+00
     -0.345  0.2587E-01  0.2587E-01  0.6742E+00  0.6742E+00
     -0.223  0.3738E-01  0.3738E-01  0.6788E+00  0.6788E+00
     -0.102  0.4224E-01  0.4224E-01  0.6839E+00  0.6839E+00
      0.020  0.1704E-01  0.1704E-01  0.6860E+00  0.6860E+00
      0.142  0.6775E-02  0.6775E-02  0.6868E+00  0.6868E+00
      0.264  0.1437E-01  0.1437E-01  0.6886E+00  0.6886E+00
      0.386  0.1955E-01  0.1955E-01  0.6910E+00  0.6910E+00
      0.508  0.2913E-01  0.2913E-01  0.6945E+00  0.6945E+00
      0.629  0.1418E-01  0.1418E-01  0.6963E+00  0.6963E+00
      0.751  0.1469E-01  0.1469E-01  0.6980E+00  0.6980E+00
      0.873  0.3272E-01  0.3272E-01  0.7020E+00  0.7020E+00
      0.995  0.2751E-01  0.2751E-01  0.7054E+00  0.7054E+00
      1.117  0.2522E-01  0.2522E-01  0.7085E+00  0.7085E+00
      1.238  0.4683E-01  0.4683E-01  0.7142E+00  0.7142E+00
      1.360  0.5569E-01  0.5569E-01  0.7209E+00  0.7209E+00
      1.482  0.3942E-01  0.3942E-01  0.7257E+00  0.7257E+00
      1.604  0.2035E-01  0.2035E-01  0.7282E+00  0.7282E+00
      1.726  0.2064E-01  0.2064E-01  0.7307E+00  0.7307E+00
      1.848  0.3335E-01  0.3335E-01  0.7348E+00  0.7348E+00
      1.969  0.9744E-01  0.9744E-01  0.7467E+00  0.7467E+00
      2.091  0.3894E-01  0.3894E-01  0.7514E+00  0.7514E+00
      2.213  0.2720E-01  0.2720E-01  0.7547E+00  0.7547E+00
      2.335  0.6291E-01  0.6291E-01  0.7624E+00  0.7624E+00
      2.457  0.7180E-01  0.7180E-01  0.7711E+00  0.7711E+00
      2.579  0.4961E-01  0.4961E-01  0.7772E+00  0.7772E+00
      2.700  0.2579E-01  0.2579E-01  0.7803E+00  0.7803E+00
      2.822  0.1173E+00  0.1173E+00  0.7946E+00  0.7946E+00
      2.944  0.1525E+00  0.1525E+00  0.8132E+00  0.8132E+00
      3.066  0.4373E-01  0.4373E-01  0.8185E+00  0.8185E+00
      3.188  0.3102E-01  0.3102E-01  0.8223E+00  0.8223E+00
      3.309  0.5266E-01  0.5266E-01  0.8287E+00  0.8287E+00
      3.431  0.9453E-01  0.9453E-01  0.8402E+00  0.8402E+00
      3.553  0.4622E-01  0.4622E-01  0.8459E+00  0.8459E+00
      3.675  0.3526E-01  0.3526E-01  0.8501E+00  0.8501E+00
      3.797  0.1024E+00  0.1024E+00  0.8626E+00  0.8626E+00
      3.919  0.9423E-01  0.9423E-01  0.8741E+00  0.8741E+00
      4.040  0.6388E-01  0.6388E-01  0.8819E+00  0.8819E+00
      4.162  0.1176E-01  0.1176E-01  0.8833E+00  0.8833E+00
      4.284  0.9724E-04  0.9724E-04  0.8833E+00  0.8833E+00
      4.406  0.5875E-10  0.5876E-10  0.8833E+00  0.8833E+00
      4.528  0.0000E+00  0.0000E+00  0.8833E+00  0.8833E+00
      4.649  0.0000E+00  0.0000E+00  0.8833E+00  0.8833E+00
      4.771  0.0000E+00  0.0000E+00  0.8833E+00  0.8833E+00
      4.893  0.0000E+00  0.0000E+00  0.8833E+00  0.8833E+00
      5.015  0.0000E+00  0.0000E+00  0.8833E+00  0.8833E+00
      5.137  0.0000E+00  0.0000E+00  0.8833E+00  0.8833E+00
      5.259  0.0000E+00  0.0000E+00  0.8833E+00  0.8833E+00
      5.380  0.0000E+00  0.0000E+00  0.8833E+00  0.8833E+00
      5.502  0.0000E+00  0.0000E+00  0.8833E+00  0.8833E+00
      5.624  0.0000E+00  0.0000E+00  0.8833E+00  0.8833E+00
      5.746  0.0000E+00  0.0000E+00  0.8833E+00  0.8833E+00
