 vasp.6.4.2 20Jul23 (build Jan 24 2024 13:44:02) complex                         
 POSCAR found type information on POSCAR C F N H O 
 04/POSCAR found :  5 types and      93 ions
 scaLAPACK will be used selectively (only on CPU)
 LDA part: xc-table for Pade appr. of Perdew
 POSCAR found type information on POSCAR C F N H O 
 00/POSCAR found :  5 types and      93 ions
 POSCAR found type information on POSCAR C F N H O 
 06/POSCAR found :  5 types and      93 ions
 POSCAR, INCAR and KPOINTS ok, starting setup
 FFT: planning ... GRIDC
 FFT: planning ... GRID_SOFT
 FFT: planning ... GRID
 WAVECAR not read
 entering main loop
       N       E                     dE             d eps       ncg     rms          rms(c)
DAV:   1     0.349450938085E+04    0.34945E+04   -0.14369E+05  4590   0.109E+03
DAV:   2    -0.184458087387E+03   -0.36790E+04   -0.34684E+04  6380   0.268E+02
DAV:   3    -0.840837665180E+03   -0.65638E+03   -0.65325E+03  5230   0.118E+02
DAV:   4    -0.863473388940E+03   -0.22636E+02   -0.22530E+02  5190   0.276E+01
DAV:   5    -0.864192583795E+03   -0.71919E+00   -0.71823E+00  6030   0.418E+00    0.513E+01
DAV:   6    -0.847752000889E+03    0.16441E+02   -0.20557E+01  5080   0.784E+00    0.333E+01
DAV:   7    -0.827766343253E+03    0.19986E+02   -0.30689E+01  4990   0.888E+00    0.202E+01
DAV:   8    -0.823092130759E+03    0.46742E+01   -0.21057E+01  4900   0.699E+00    0.799E+00
DAV:   9    -0.823136104874E+03   -0.43974E-01   -0.11455E+00  4990   0.194E+00    0.335E+00
DAV:  10    -0.822998275700E+03    0.13783E+00   -0.30559E-01  4860   0.113E+00    0.116E+00
DAV:  11    -0.822981788404E+03    0.16487E-01   -0.14325E-01  4750   0.671E-01    0.276E-01
DAV:  12    -0.822981293901E+03    0.49450E-03   -0.11073E-02  5260   0.272E-01    0.148E-01
DAV:  13    -0.822981450134E+03   -0.15623E-03   -0.26874E-03  4920   0.110E-01    0.106E-01
DAV:  14    -0.822981463599E+03   -0.13465E-04   -0.27932E-04  5050   0.336E-02    0.796E-02
DAV:  15    -0.822981524538E+03   -0.60939E-04   -0.31353E-04  4640   0.425E-02    0.327E-02
DAV:  16    -0.822981547708E+03   -0.23170E-04   -0.40346E-05  4910   0.151E-02    0.213E-02
DAV:  17    -0.822981544838E+03    0.28697E-05   -0.24049E-05  5040   0.124E-02    0.866E-03
DAV:  18    -0.822981544056E+03    0.78166E-06   -0.53329E-06  4770   0.546E-03
   1 F= -.83052175E+03 E0= -.83052175E+03  d E =-.830522E+03  mag=     0.0000
quench:  g(F)=  0.356E-03 g(S)=  0.000E+00 dE (1.order)=-0.712E-03
 bond charge predicted
       N       E                     dE             d eps       ncg     rms          rms(c)
DAV:   1    -0.822981741989E+03   -0.19715E-03   -0.25902E-02  4480   0.332E-01    0.303E-02
DAV:   2    -0.822981790400E+03   -0.48411E-04   -0.62189E-04  4580   0.471E-02    0.267E-02
DAV:   3    -0.822981784518E+03    0.58815E-05   -0.18391E-05  5730   0.853E-03    0.212E-02
DAV:   4    -0.822981780273E+03    0.42454E-05   -0.16150E-05  4440   0.925E-03    0.785E-03
DAV:   5    -0.822981780730E+03   -0.45699E-06   -0.55271E-06  4340   0.421E-03
   2 F= -.83052199E+03 E0= -.83052199E+03  d E =-.243329E-03  mag=     0.0000
quench:  g(F)=  0.396E-03 g(S)=  0.000E+00 dE (1.order)=-0.104E-02
 bond charge predicted
       N       E                     dE             d eps       ncg     rms          rms(c)
DAV:   1    -0.822981943898E+03   -0.16363E-03   -0.47155E-02  4320   0.450E-01    0.419E-02
DAV:   2    -0.822982033038E+03   -0.89139E-04   -0.11577E-03  4760   0.645E-02    0.371E-02
DAV:   3    -0.822982021346E+03    0.11692E-04   -0.37059E-05  5800   0.119E-02    0.293E-02
DAV:   4    -0.822982012331E+03    0.90148E-05   -0.30069E-05  4480   0.126E-02    0.114E-02
DAV:   5    -0.822982013241E+03   -0.90966E-06   -0.10813E-05  4520   0.584E-03    0.495E-03
DAV:   6    -0.822982013497E+03   -0.25598E-06   -0.84640E-07  2810   0.185E-03
   3 F= -.83052222E+03 E0= -.83052222E+03  d E =-.227103E-03  mag=    -0.0000
quench:  g(F)=  0.729E-03 g(S)=  0.000E+00 dE (1.order)=-0.140E-02
 bond charge predicted
       N       E                     dE             d eps       ncg     rms          rms(c)
DAV:   1    -0.822982167785E+03   -0.15454E-03   -0.47492E-02  4320   0.458E-01    0.454E-02
DAV:   2    -0.822982261074E+03   -0.93288E-04   -0.12311E-03  5220   0.669E-02    0.405E-02
DAV:   3    -0.822982245208E+03    0.15866E-04   -0.45587E-05  5480   0.130E-02    0.318E-02
DAV:   4    -0.822982229675E+03    0.15533E-04   -0.36314E-05  4400   0.135E-02    0.131E-02
DAV:   5    -0.822982229608E+03    0.66531E-07   -0.12064E-05  4440   0.641E-03    0.545E-03
DAV:   6    -0.822982229757E+03   -0.14871E-06   -0.10873E-06  2920   0.213E-03
   4 F= -.83052245E+03 E0= -.83052245E+03  d E =-.226796E-03  mag=     0.0000
quench:  g(F)=  0.801E-03 g(S)=  0.000E+00 dE (1.order)=-0.107E-02
 bond charge predicted
       N       E                     dE             d eps       ncg     rms          rms(c)
DAV:   1    -0.822982506536E+03   -0.27693E-03   -0.24868E-02  4300   0.331E-01    0.330E-02
DAV:   2    -0.822982554609E+03   -0.48073E-04   -0.64291E-04  5210   0.485E-02    0.296E-02
DAV:   3    -0.822982546064E+03    0.85447E-05   -0.24397E-05  5455   0.954E-03    0.232E-02
DAV:   4    -0.822982537467E+03    0.85974E-05   -0.18997E-05  4240   0.981E-03    0.964E-03
DAV:   5    -0.822982537401E+03    0.66182E-07   -0.65841E-06  4160   0.472E-03
   5 F= -.83052275E+03 E0= -.83052275E+03  d E =-.302312E-03  mag=    -0.0000
quench:  g(F)=  0.350E-03 g(S)=  0.000E+00 dE (1.order)=-0.685E-03
 bond charge predicted
       N       E                     dE             d eps       ncg     rms          rms(c)
DAV:   1    -0.822982724343E+03   -0.18688E-03   -0.23984E-02  4290   0.319E-01    0.294E-02
DAV:   2    -0.822982768090E+03   -0.43748E-04   -0.57347E-04  4560   0.455E-02    0.261E-02
DAV:   3    -0.822982762355E+03    0.57350E-05   -0.17923E-05  5740   0.837E-03    0.206E-02
DAV:   4    -0.822982758245E+03    0.41108E-05   -0.15187E-05  4260   0.901E-03    0.767E-03
DAV:   5    -0.822982758725E+03   -0.47999E-06   -0.53273E-06  3980   0.413E-03
   6 F= -.83052298E+03 E0= -.83052298E+03  d E =-.227794E-03  mag=     0.0000
quench:  g(F)=  0.376E-03 g(S)=  0.000E+00 dE (1.order)=-0.964E-03
 bond charge predicted
       N       E                     dE             d eps       ncg     rms          rms(c)
DAV:   1    -0.822982913147E+03   -0.15490E-03   -0.44381E-02  4280   0.438E-01    0.407E-02
DAV:   2    -0.822982997040E+03   -0.83892E-04   -0.10894E-03  4720   0.628E-02    0.361E-02
DAV:   3    -0.822982986083E+03    0.10956E-04   -0.34953E-05  5700   0.116E-02    0.286E-02
DAV:   4    -0.822982977719E+03    0.83646E-05   -0.28140E-05  4400   0.123E-02    0.111E-02
DAV:   5    -0.822982978614E+03   -0.89569E-06   -0.10278E-05  4500   0.571E-03    0.483E-03
DAV:   6    -0.822982978832E+03   -0.21733E-06   -0.80983E-07  2680   0.181E-03
   7 F= -.83052319E+03 E0= -.83052319E+03  d E =-.216696E-03  mag=     0.0000
quench:  g(F)=  0.680E-03 g(S)=  0.000E+00 dE (1.order)=-0.131E-02
 bond charge predicted
       N       E                     dE             d eps       ncg     rms          rms(c)
DAV:   1    -0.822983121369E+03   -0.14275E-03   -0.45010E-02  4285   0.446E-01    0.441E-02
DAV:   2    -0.822983209816E+03   -0.88447E-04   -0.11663E-03  5180   0.653E-02    0.395E-02
DAV:   3    -0.822983194869E+03    0.14947E-04   -0.43067E-05  5560   0.127E-02    0.311E-02
DAV:   4    -0.822983179858E+03    0.15011E-04   -0.34292E-05  4300   0.132E-02    0.127E-02
DAV:   5    -0.822983179782E+03    0.75597E-07   -0.11607E-05  4440   0.628E-03    0.531E-03
DAV:   6    -0.822983179896E+03   -0.11331E-06   -0.10061E-06  2920   0.205E-03
   8 F= -.83052340E+03 E0= -.83052340E+03  d E =-.210202E-03  mag=     0.0000
quench:  g(F)=  0.758E-03 g(S)=  0.000E+00 dE (1.order)=-0.102E-02
 bond charge predicted
       N       E                     dE             d eps       ncg     rms          rms(c)
DAV:   1    -0.822983445349E+03   -0.26557E-03   -0.23693E-02  4280   0.324E-01    0.323E-02
DAV:   2    -0.822983491009E+03   -0.45659E-04   -0.61157E-04  5260   0.473E-02    0.290E-02
DAV:   3    -0.822983482769E+03    0.82401E-05   -0.23221E-05  5500   0.931E-03    0.227E-02
DAV:   4    -0.822983474433E+03    0.83361E-05   -0.18066E-05  4240   0.961E-03    0.942E-03
DAV:   5    -0.822983474331E+03    0.10125E-06   -0.63856E-06  4100   0.466E-03
   9 F= -.83052369E+03 E0= -.83052369E+03  d E =-.289686E-03  mag=     0.0000
quench:  g(F)=  0.345E-03 g(S)=  0.000E+00 dE (1.order)=-0.662E-03
 bond charge predicted
       N       E                     dE             d eps       ncg     rms          rms(c)
DAV:   1    -0.822983656198E+03   -0.18177E-03   -0.23093E-02  4260   0.314E-01    0.288E-02
DAV:   2    -0.822983699076E+03   -0.42878E-04   -0.55828E-04  4560   0.448E-02    0.255E-02
DAV:   3    -0.822983693642E+03    0.54344E-05   -0.17078E-05  5740   0.818E-03    0.202E-02
DAV:   4    -0.822983689705E+03    0.39375E-05   -0.14394E-05  4240   0.880E-03    0.756E-03
DAV:   5    -0.822983690177E+03   -0.47266E-06   -0.50955E-06  3880   0.406E-03
  10 F= -.83052392E+03 E0= -.83052392E+03  d E =-.220864E-03  mag=     0.0000
quench:  g(F)=  0.362E-03 g(S)=  0.000E+00 dE (1.order)=-0.913E-03
 bond charge predicted
       N       E                     dE             d eps       ncg     rms          rms(c)
DAV:   1    -0.822983836407E+03   -0.14670E-03   -0.40484E-02  4250   0.418E-01    0.392E-02
DAV:   2    -0.822983909830E+03   -0.73424E-04   -0.97478E-04  4720   0.596E-02    0.352E-02
DAV:   3    -0.822983899126E+03    0.10704E-04   -0.33264E-05  5700   0.113E-02    0.279E-02
DAV:   4    -0.822983890983E+03    0.81429E-05   -0.26635E-05  4300   0.119E-02    0.109E-02
DAV:   5    -0.822983891776E+03   -0.79247E-06   -0.97524E-06  4480   0.553E-03
  11 F= -.83052411E+03 E0= -.83052411E+03  d E =-.199025E-03  mag=     0.0000
quench:  g(F)=  0.649E-03 g(S)=  0.000E+00 dE (1.order)=-0.124E-02
 bond charge predicted
       N       E                     dE             d eps       ncg     rms          rms(c)
DAV:   1    -0.822984035155E+03   -0.14417E-03   -0.41098E-02  4250   0.425E-01    0.427E-02
DAV:   2    -0.822984113165E+03   -0.78010E-04   -0.10561E-03  5260   0.621E-02    0.384E-02
DAV:   3    -0.822984098567E+03    0.14598E-04   -0.41405E-05  5560   0.124E-02    0.301E-02
DAV:   4    -0.822984084429E+03    0.14138E-04   -0.31196E-05  4280   0.126E-02    0.126E-02
DAV:   5    -0.822984084256E+03    0.17342E-06   -0.10997E-05  4440   0.614E-03    0.516E-03
DAV:   6    -0.822984084371E+03   -0.11548E-06   -0.95373E-07  2800   0.204E-03
  12 F= -.83052432E+03 E0= -.83052432E+03  d E =-.202771E-03  mag=     0.0000
quench:  g(F)=  0.709E-03 g(S)=  0.000E+00 dE (1.order)=-0.970E-03
 bond charge predicted
       N       E                     dE             d eps       ncg     rms          rms(c)
DAV:   1    -0.822984337413E+03   -0.25316E-03   -0.21806E-02  4250   0.310E-01    0.310E-02
DAV:   2    -0.822984379184E+03   -0.41770E-04   -0.56231E-04  5200   0.454E-02    0.280E-02
DAV:   3    -0.822984371506E+03    0.76779E-05   -0.21778E-05  5520   0.901E-03    0.219E-02
DAV:   4    -0.822984363851E+03    0.76549E-05   -0.16545E-05  4240   0.921E-03    0.920E-03
DAV:   5    -0.822984363775E+03    0.76136E-07   -0.59270E-06  3980   0.449E-03
  13 F= -.83052459E+03 E0= -.83052459E+03  d E =-.274487E-03  mag=     0.0000
quench:  g(F)=  0.342E-03 g(S)=  0.000E+00 dE (1.order)=-0.644E-03
 bond charge predicted
       N       E                     dE             d eps       ncg     rms          rms(c)
DAV:   1    -0.822984537957E+03   -0.17411E-03   -0.21325E-02  4250   0.301E-01    0.279E-02
DAV:   2    -0.822984575562E+03   -0.37605E-04   -0.50227E-04  4595   0.426E-02    0.250E-02
DAV:   3    -0.822984570215E+03    0.53470E-05   -0.16479E-05  5660   0.803E-03    0.198E-02
DAV:   4    -0.822984566575E+03    0.36395E-05   -0.13426E-05  4170   0.850E-03    0.754E-03
DAV:   5    -0.822984567030E+03   -0.45459E-06   -0.47767E-06  3480   0.397E-03
  14 F= -.83052480E+03 E0= -.83052480E+03  d E =-.209799E-03  mag=     0.0000
quench:  g(F)=  0.357E-03 g(S)=  0.000E+00 dE (1.order)=-0.883E-03
 bond charge predicted
       N       E                     dE             d eps       ncg     rms          rms(c)
DAV:   1    -0.822984704130E+03   -0.13755E-03   -0.39320E-02  4240   0.412E-01    0.388E-02
DAV:   2    -0.822984775624E+03   -0.71494E-04   -0.95144E-04  4750   0.588E-02    0.350E-02
DAV:   3    -0.822984764908E+03    0.10716E-04   -0.32614E-05  5720   0.112E-02    0.277E-02
DAV:   4    -0.822984756850E+03    0.80578E-05   -0.25926E-05  4280   0.117E-02    0.110E-02
DAV:   5    -0.822984757622E+03   -0.77183E-06   -0.96239E-06  4500   0.551E-03
  15 F= -.83052499E+03 E0= -.83052499E+03  d E =-.190268E-03  mag=     0.0000
quench:  g(F)=  0.628E-03 g(S)=  0.000E+00 dE (1.order)=-0.118E-02
 bond charge predicted
       N       E                     dE             d eps       ncg     rms          rms(c)
DAV:   1    -0.822984899943E+03   -0.14309E-03   -0.38617E-02  4240   0.412E-01    0.415E-02
DAV:   2    -0.822984972328E+03   -0.72385E-04   -0.98754E-04  5240   0.598E-02    0.375E-02
DAV:   3    -0.822984958188E+03    0.14139E-04   -0.39537E-05  5560   0.121E-02    0.293E-02
DAV:   4    -0.822984944830E+03    0.13359E-04   -0.29472E-05  4255   0.122E-02    0.124E-02
DAV:   5    -0.822984944640E+03    0.18955E-06   -0.10463E-05  4380   0.598E-03    0.500E-03
DAV:   6    -0.822984944781E+03   -0.14066E-06   -0.88731E-07  2900   0.200E-03
  16 F= -.83052519E+03 E0= -.83052519E+03  d E =-.196463E-03  mag=     0.0000
quench:  g(F)=  0.657E-03 g(S)=  0.000E+00 dE (1.order)=-0.912E-03
 bond charge predicted
       N       E                     dE             d eps       ncg     rms          rms(c)
DAV:   1    -0.822985179773E+03   -0.23513E-03   -0.20017E-02  4240   0.297E-01    0.298E-02
DAV:   2    -0.822985217345E+03   -0.37572E-04   -0.51062E-04  5240   0.430E-02    0.270E-02
DAV:   3    -0.822985210026E+03    0.73195E-05   -0.20013E-05  5460   0.860E-03    0.212E-02
DAV:   4    -0.822985202931E+03    0.70950E-05   -0.15340E-05  4205   0.885E-03    0.893E-03
DAV:   5    -0.822985202835E+03    0.96028E-07   -0.54857E-06  3840   0.432E-03
  17 F= -.83052544E+03 E0= -.83052544E+03  d E =-.255616E-03  mag=     0.0000
quench:  g(F)=  0.338E-03 g(S)=  0.000E+00 dE (1.order)=-0.629E-03
 bond charge predicted
       N       E                     dE             d eps       ncg     rms          rms(c)
DAV:   1    -0.822985371411E+03   -0.16848E-03   -0.20289E-02  4240   0.293E-01    0.270E-02
DAV:   2    -0.822985405228E+03   -0.33817E-04   -0.46048E-04  4600   0.410E-02    0.246E-02
DAV:   3    -0.822985399913E+03    0.53154E-05   -0.15388E-05  5740   0.771E-03    0.195E-02
DAV:   4    -0.822985396503E+03    0.34095E-05   -0.13352E-05  4180   0.845E-03    0.729E-03
DAV:   5    -0.822985396945E+03   -0.44108E-06   -0.46171E-06  3460   0.385E-03
  18 F= -.83052565E+03 E0= -.83052565E+03  d E =-.202287E-03  mag=     0.0000
quench:  g(F)=  0.340E-03 g(S)=  0.000E+00 dE (1.order)=-0.840E-03
 bond charge predicted
       N       E                     dE             d eps       ncg     rms          rms(c)
DAV:   1    -0.822985526913E+03   -0.13041E-03   -0.37944E-02  4240   0.404E-01    0.380E-02
DAV:   2    -0.822985593148E+03   -0.66235E-04   -0.89426E-04  4655   0.571E-02    0.345E-02
DAV:   3    -0.822985582623E+03    0.10525E-04   -0.31854E-05  5740   0.110E-02    0.273E-02
DAV:   4    -0.822985574828E+03    0.77943E-05   -0.25541E-05  4240   0.116E-02    0.107E-02
DAV:   5    -0.822985575566E+03   -0.73725E-06   -0.91993E-06  4540   0.536E-03
  19 F= -.83052583E+03 E0= -.83052583E+03  d E =-.181237E-03  mag=     0.0000
quench:  g(F)=  0.592E-03 g(S)=  0.000E+00 dE (1.order)=-0.111E-02
 bond charge predicted
       N       E                     dE             d eps       ncg     rms          rms(c)
DAV:   1    -0.822985719175E+03   -0.14435E-03   -0.36880E-02  4240   0.402E-01    0.404E-02
DAV:   2    -0.822985787877E+03   -0.68702E-04   -0.93775E-04  5260   0.583E-02    0.366E-02
DAV:   3    -0.822985774301E+03    0.13575E-04   -0.37273E-05  5580   0.117E-02    0.286E-02
DAV:   4    -0.822985761512E+03    0.12789E-04   -0.28888E-05  4240   0.120E-02    0.120E-02
DAV:   5    -0.822985761381E+03    0.13091E-06   -0.98039E-06  4320   0.574E-03
  20 F= -.83052602E+03 E0= -.83052602E+03  d E =-.193421E-03  mag=     0.0000
quench:  g(F)=  0.599E-03 g(S)=  0.000E+00 dE (1.order)=-0.850E-03
 bond charge predicted
       N       E                     dE             d eps       ncg     rms          rms(c)
DAV:   1    -0.822985979868E+03   -0.21836E-03   -0.18620E-02  4240   0.286E-01    0.286E-02
DAV:   2    -0.822986014680E+03   -0.34812E-04   -0.47807E-04  5280   0.416E-02    0.260E-02
DAV:   3    -0.822986007756E+03    0.69242E-05   -0.18837E-05  5540   0.831E-03    0.203E-02
DAV:   4    -0.822986001090E+03    0.66661E-05   -0.14220E-05  4195   0.850E-03    0.865E-03
DAV:   5    -0.822986000988E+03    0.10178E-06   -0.51149E-06  3740   0.418E-03
  21 F= -.83052626E+03 E0= -.83052626E+03  d E =-.238698E-03  mag=     0.0000
quench:  g(F)=  0.325E-03 g(S)=  0.000E+00 dE (1.order)=-0.614E-03
 bond charge predicted
       N       E                     dE             d eps       ncg     rms          rms(c)
DAV:   1    -0.822986160694E+03   -0.15960E-03   -0.19779E-02  4240   0.289E-01    0.266E-02
DAV:   2    -0.822986194489E+03   -0.33796E-04   -0.45495E-04  4450   0.407E-02    0.241E-02
DAV:   3    -0.822986189493E+03    0.49963E-05   -0.14920E-05  5760   0.762E-03    0.190E-02
DAV:   4    -0.822986186372E+03    0.31213E-05   -0.12743E-05  4140   0.827E-03    0.710E-03
DAV:   5    -0.822986186821E+03   -0.44929E-06   -0.44319E-06  3460   0.378E-03
  22 F= -.83052645E+03 E0= -.83052645E+03  d E =-.192868E-03  mag=     0.0000
quench:  g(F)=  0.318E-03 g(S)=  0.000E+00 dE (1.order)=-0.800E-03
 bond charge predicted
       N       E                     dE             d eps       ncg     rms          rms(c)
DAV:   1    -0.822986309789E+03   -0.12342E-03   -0.36348E-02  4240   0.396E-01    0.372E-02
DAV:   2    -0.822986373795E+03   -0.64006E-04   -0.86078E-04  4600   0.561E-02    0.337E-02
DAV:   3    -0.822986363858E+03    0.99365E-05   -0.30581E-05  5820   0.108E-02    0.267E-02
DAV:   4    -0.822986356412E+03    0.74464E-05   -0.24315E-05  4220   0.114E-02    0.105E-02
DAV:   5    -0.822986357172E+03   -0.75966E-06   -0.89226E-06  4470   0.530E-03
  23 F= -.83052662E+03 E0= -.83052662E+03  d E =-.170486E-03  mag=     0.0000
quench:  g(F)=  0.555E-03 g(S)=  0.000E+00 dE (1.order)=-0.106E-02
 bond charge predicted
       N       E                     dE             d eps       ncg     rms          rms(c)
DAV:   1    -0.822986494869E+03   -0.13846E-03   -0.35664E-02  4240   0.396E-01    0.398E-02
DAV:   2    -0.822986562489E+03   -0.67620E-04   -0.91706E-04  5280   0.577E-02    0.360E-02
DAV:   3    -0.822986549443E+03    0.13046E-04   -0.35943E-05  5620   0.115E-02    0.283E-02
DAV:   4    -0.822986536894E+03    0.12549E-04   -0.27947E-05  4245   0.119E-02    0.119E-02
DAV:   5    -0.822986536763E+03    0.13111E-06   -0.97465E-06  4280   0.578E-03
  24 F= -.83052681E+03 E0= -.83052681E+03  d E =-.187160E-03  mag=     0.0000
quench:  g(F)=  0.578E-03 g(S)=  0.000E+00 dE (1.order)=-0.828E-03
 bond charge predicted
       N       E                     dE             d eps       ncg     rms          rms(c)
DAV:   1    -0.822986747986E+03   -0.21109E-03   -0.18179E-02  4240   0.284E-01    0.283E-02
DAV:   2    -0.822986782688E+03   -0.34702E-04   -0.47333E-04  5290   0.415E-02    0.257E-02
DAV:   3    -0.822986776097E+03    0.65911E-05   -0.18485E-05  5620   0.826E-03    0.202E-02
DAV:   4    -0.822986769557E+03    0.65403E-05   -0.13620E-05  4180   0.838E-03    0.870E-03
DAV:   5    -0.822986769454E+03    0.10271E-06   -0.51858E-06  3720   0.427E-03
  25 F= -.83052704E+03 E0= -.83052704E+03  d E =-.231716E-03  mag=     0.0000
quench:  g(F)=  0.319E-03 g(S)=  0.000E+00 dE (1.order)=-0.597E-03
 bond charge predicted
       N       E                     dE             d eps       ncg     rms          rms(c)
DAV:   1    -0.822986927891E+03   -0.15833E-03   -0.19067E-02  4240   0.284E-01    0.261E-02
DAV:   2    -0.822986961262E+03   -0.33371E-04   -0.44455E-04  4430   0.402E-02    0.236E-02
DAV:   3    -0.822986956555E+03    0.47069E-05   -0.14484E-05  5840   0.748E-03    0.187E-02
DAV:   4    -0.822986953389E+03    0.31657E-05   -0.12170E-05  4140   0.808E-03    0.708E-03
DAV:   5    -0.822986953838E+03   -0.44909E-06   -0.43168E-06  3460   0.374E-03
  26 F= -.83052723E+03 E0= -.83052723E+03  d E =-.189199E-03  mag=     0.0000
quench:  g(F)=  0.311E-03 g(S)=  0.000E+00 dE (1.order)=-0.776E-03
 bond charge predicted
       N       E                     dE             d eps       ncg     rms          rms(c)
DAV:   1    -0.822987073248E+03   -0.11986E-03   -0.35734E-02  4240   0.394E-01    0.369E-02
DAV:   2    -0.822987138891E+03   -0.65643E-04   -0.86883E-04  4620   0.565E-02    0.332E-02
DAV:   3    -0.822987129553E+03    0.93383E-05   -0.30323E-05  5820   0.108E-02    0.263E-02
DAV:   4    -0.822987122287E+03    0.72657E-05   -0.22860E-05  4200   0.111E-02    0.107E-02
DAV:   5    -0.822987123044E+03   -0.75699E-06   -0.88217E-06  4480   0.533E-03
  27 F= -.83052740E+03 E0= -.83052740E+03  d E =-.170213E-03  mag=     0.0000
quench:  g(F)=  0.541E-03 g(S)=  0.000E+00 dE (1.order)=-0.103E-02
 bond charge predicted
       N       E                     dE             d eps       ncg     rms          rms(c)
DAV:   1    -0.822987254704E+03   -0.13242E-03   -0.34801E-02  4240   0.393E-01    0.394E-02
DAV:   2    -0.822987322681E+03   -0.67977E-04   -0.91161E-04  5250   0.579E-02    0.354E-02
DAV:   3    -0.822987310372E+03    0.12309E-04   -0.35471E-05  5660   0.115E-02    0.278E-02
DAV:   4    -0.822987298213E+03    0.12158E-04   -0.26466E-05  4255   0.116E-02    0.119E-02
DAV:   5    -0.822987298042E+03    0.17149E-06   -0.96155E-06  4320   0.581E-03
  28 F= -.83052758E+03 E0= -.83052758E+03  d E =-.182512E-03  mag=     0.0000
quench:  g(F)=  0.569E-03 g(S)=  0.000E+00 dE (1.order)=-0.815E-03
 bond charge predicted
       N       E                     dE             d eps       ncg     rms          rms(c)
DAV:   1    -0.822987504791E+03   -0.20658E-03   -0.17981E-02  4240   0.283E-01    0.281E-02
DAV:   2    -0.822987539946E+03   -0.35155E-04   -0.47468E-04  5250   0.418E-02    0.253E-02
DAV:   3    -0.822987533688E+03    0.62582E-05   -0.18372E-05  5580   0.826E-03    0.200E-02
DAV:   4    -0.822987527317E+03    0.63705E-05   -0.13161E-05  4160   0.828E-03    0.868E-03
DAV:   5    -0.822987527225E+03    0.92274E-07   -0.51213E-06  3720   0.429E-03
  29 F= -.83052781E+03 E0= -.83052781E+03  d E =-.227924E-03  mag=     0.0000
quench:  g(F)=  0.314E-03 g(S)=  0.000E+00 dE (1.order)=-0.582E-03
 bond charge predicted
       N       E                     dE             d eps       ncg     rms          rms(c)
DAV:   1    -0.822987681321E+03   -0.15400E-03   -0.18559E-02  4240   0.281E-01    0.257E-02
DAV:   2    -0.822987714545E+03   -0.33224E-04   -0.43851E-04  4490   0.401E-02    0.231E-02
DAV:   3    -0.822987710113E+03    0.44311E-05   -0.13876E-05  5760   0.736E-03    0.183E-02
DAV:   4    -0.822987707196E+03    0.29176E-05   -0.11663E-05  4160   0.794E-03    0.689E-03
DAV:   5    -0.822987707624E+03   -0.42863E-06   -0.41070E-06  3420   0.367E-03
  30 F= -.83052800E+03 E0= -.83052800E+03  d E =-.185112E-03  mag=     0.0000
quench:  g(F)=  0.310E-03 g(S)=  0.000E+00 dE (1.order)=-0.753E-03
 bond charge predicted
       N       E                     dE             d eps       ncg     rms          rms(c)
DAV:   1    -0.822987829578E+03   -0.12238E-03   -0.34938E-02  4240   0.390E-01    0.365E-02
DAV:   2    -0.822987894406E+03   -0.64827E-04   -0.85308E-04  4710   0.560E-02    0.326E-02
DAV:   3    -0.822987885364E+03    0.90420E-05   -0.28277E-05  5780   0.105E-02    0.258E-02
DAV:   4    -0.822987878499E+03    0.68642E-05   -0.23173E-05  4240   0.112E-02    0.101E-02
DAV:   5    -0.822987879266E+03   -0.76672E-06   -0.84932E-06  4510   0.521E-03
  31 F= -.83052817E+03 E0= -.83052817E+03  d E =-.172273E-03  mag=     0.0000
quench:  g(F)=  0.528E-03 g(S)=  0.000E+00 dE (1.order)=-0.993E-03
 bond charge predicted
       N       E                     dE             d eps       ncg     rms          rms(c)
DAV:   1    -0.822988010309E+03   -0.13181E-03   -0.33939E-02  4240   0.388E-01    0.388E-02
DAV:   2    -0.822988076295E+03   -0.65986E-04   -0.88473E-04  5230   0.571E-02    0.348E-02
DAV:   3    -0.822988064332E+03    0.11963E-04   -0.33662E-05  5580   0.112E-02    0.273E-02
DAV:   4    -0.822988052682E+03    0.11650E-04   -0.26402E-05  4270   0.116E-02    0.114E-02
DAV:   5    -0.822988052583E+03    0.99149E-07   -0.90027E-06  4440   0.562E-03
  32 F= -.83052835E+03 E0= -.83052835E+03  d E =-.181434E-03  mag=     0.0000
quench:  g(F)=  0.546E-03 g(S)=  0.000E+00 dE (1.order)=-0.777E-03
 bond charge predicted
       N       E                     dE             d eps       ncg     rms          rms(c)
DAV:   1    -0.822988258933E+03   -0.20625E-03   -0.17151E-02  4240   0.276E-01    0.275E-02
DAV:   2    -0.822988291796E+03   -0.32863E-04   -0.44756E-04  5220   0.406E-02    0.248E-02
DAV:   3    -0.822988285682E+03    0.61138E-05   -0.17354E-05  5600   0.806E-03    0.195E-02
DAV:   4    -0.822988279568E+03    0.61142E-05   -0.13002E-05  4190   0.820E-03    0.826E-03
DAV:   5    -0.822988279514E+03    0.53893E-07   -0.47207E-06  3460   0.411E-03
  33 F= -.83052857E+03 E0= -.83052857E+03  d E =-.223318E-03  mag=     0.0000
quench:  g(F)=  0.305E-03 g(S)=  0.000E+00 dE (1.order)=-0.567E-03
 bond charge predicted
       N       E                     dE             d eps       ncg     rms          rms(c)
DAV:   1    -0.822988429701E+03   -0.15013E-03   -0.17114E-02  4240   0.270E-01    0.249E-02
DAV:   2    -0.822988459797E+03   -0.30096E-04   -0.40121E-04  4570   0.384E-02    0.224E-02
DAV:   3    -0.822988455570E+03    0.42271E-05   -0.12955E-05  5700   0.715E-03    0.177E-02
DAV:   4    -0.822988452771E+03    0.27995E-05   -0.10785E-05  4160   0.764E-03    0.664E-03
DAV:   5    -0.822988453142E+03   -0.37133E-06   -0.37967E-06  3340   0.354E-03
  34 F= -.83052875E+03 E0= -.83052875E+03  d E =-.180391E-03  mag=     0.0000
quench:  g(F)=  0.301E-03 g(S)=  0.000E+00 dE (1.order)=-0.720E-03
 bond charge predicted
       N       E                     dE             d eps       ncg     rms          rms(c)
DAV:   1    -0.822988580278E+03   -0.12751E-03   -0.32340E-02  4240   0.375E-01    0.352E-02
DAV:   2    -0.822988639628E+03   -0.59350E-04   -0.78683E-04  4710   0.540E-02    0.315E-02
DAV:   3    -0.822988631272E+03    0.83561E-05   -0.26566E-05  5840   0.102E-02    0.250E-02
DAV:   4    -0.822988624880E+03    0.63925E-05   -0.20915E-05  4340   0.107E-02    0.974E-03
DAV:   5    -0.822988625610E+03   -0.73078E-06   -0.78369E-06  4520   0.502E-03
  35 F= -.83052892E+03 E0= -.83052892E+03  d E =-.166217E-03  mag=     0.0000
quench:  g(F)=  0.504E-03 g(S)=  0.000E+00 dE (1.order)=-0.950E-03
 bond charge predicted
       N       E                     dE             d eps       ncg     rms          rms(c)
DAV:   1    -0.822988742591E+03   -0.11771E-03   -0.32044E-02  4280   0.377E-01    0.378E-02
DAV:   2    -0.822988804465E+03   -0.61874E-04   -0.83323E-04  5140   0.556E-02    0.340E-02
DAV:   3    -0.822988793231E+03    0.11234E-04   -0.32342E-05  5560   0.111E-02    0.266E-02
DAV:   4    -0.822988782110E+03    0.11121E-04   -0.24311E-05  4380   0.112E-02    0.112E-02
DAV:   5    -0.822988781980E+03    0.12970E-06   -0.84550E-06  4400   0.551E-03
  36 F= -.83052909E+03 E0= -.83052909E+03  d E =-.169680E-03  mag=     0.0000
quench:  g(F)=  0.540E-03 g(S)=  0.000E+00 dE (1.order)=-0.769E-03
 bond charge predicted
       N       E                     dE             d eps       ncg     rms          rms(c)
DAV:   1    -0.822988989389E+03   -0.20728E-03   -0.16704E-02  4300   0.273E-01    0.271E-02
DAV:   2    -0.822989021554E+03   -0.32164E-04   -0.43692E-04  5100   0.403E-02    0.245E-02
DAV:   3    -0.822989015675E+03    0.58786E-05   -0.17153E-05  5620   0.805E-03    0.192E-02
DAV:   4    -0.822989009776E+03    0.58986E-05   -0.12213E-05  4190   0.800E-03    0.820E-03
DAV:   5    -0.822989009722E+03    0.53842E-07   -0.45955E-06  3620   0.410E-03
  37 F= -.83052931E+03 E0= -.83052931E+03  d E =-.220740E-03  mag=     0.0000
quench:  g(F)=  0.304E-03 g(S)=  0.000E+00 dE (1.order)=-0.557E-03
 bond charge predicted
       N       E                     dE             d eps       ncg     rms          rms(c)
DAV:   1    -0.822989153629E+03   -0.14385E-03   -0.16470E-02  4240   0.265E-01    0.247E-02
DAV:   2    -0.822989182787E+03   -0.29158E-04   -0.38781E-04  4650   0.379E-02    0.221E-02
DAV:   3    -0.822989178699E+03    0.40880E-05   -0.12456E-05  5660   0.704E-03    0.174E-02
DAV:   4    -0.822989176023E+03    0.26760E-05   -0.10170E-05  4180   0.744E-03    0.661E-03
DAV:   5    -0.822989176400E+03   -0.37699E-06   -0.36611E-06  3360   0.351E-03
  38 F= -.83052948E+03 E0= -.83052948E+03  d E =-.173343E-03  mag=     0.0000
quench:  g(F)=  0.297E-03 g(S)=  0.000E+00 dE (1.order)=-0.700E-03
 bond charge predicted
       N       E                     dE             d eps       ncg     rms          rms(c)
DAV:   1    -0.822989301862E+03   -0.12584E-03   -0.30165E-02  4240   0.361E-01    0.342E-02
DAV:   2    -0.822989355194E+03   -0.53332E-04   -0.71908E-04  4770   0.518E-02    0.309E-02
DAV:   3    -0.822989346972E+03    0.82217E-05   -0.25282E-05  5660   0.994E-03    0.245E-02
DAV:   4    -0.822989340770E+03    0.62026E-05   -0.19877E-05  4350   0.104E-02    0.962E-03
DAV:   5    -0.822989341431E+03   -0.66107E-06   -0.73707E-06  4400   0.493E-03
  39 F= -.83052964E+03 E0= -.83052964E+03  d E =-.160560E-03  mag=     0.0000
quench:  g(F)=  0.494E-03 g(S)=  0.000E+00 dE (1.order)=-0.919E-03
 bond charge predicted
       N       E                     dE             d eps       ncg     rms          rms(c)
DAV:   1    -0.822989459483E+03   -0.11871E-03   -0.30203E-02  4280   0.365E-01    0.368E-02
DAV:   2    -0.822989517098E+03   -0.57615E-04   -0.78092E-04  5100   0.537E-02    0.332E-02
DAV:   3    -0.822989506332E+03    0.10767E-04   -0.31060E-05  5580   0.108E-02    0.261E-02
DAV:   4    -0.822989495664E+03    0.10668E-04   -0.22955E-05  4380   0.109E-02    0.110E-02
DAV:   5    -0.822989495516E+03    0.14836E-06   -0.81270E-06  4340   0.541E-03
  40 F= -.83052981E+03 E0= -.83052981E+03  d E =-.163955E-03  mag=     0.0000
quench:  g(F)=  0.503E-03 g(S)=  0.000E+00 dE (1.order)=-0.722E-03
 bond charge predicted
       N       E                     dE             d eps       ncg     rms          rms(c)
DAV:   1    -0.822989692179E+03   -0.19652E-03   -0.15255E-02  4280   0.260E-01    0.259E-02
DAV:   2    -0.822989721340E+03   -0.29160E-04   -0.39791E-04  5120   0.383E-02    0.235E-02
DAV:   3    -0.822989715945E+03    0.53942E-05   -0.15821E-05  5580   0.771E-03    0.185E-02
DAV:   4    -0.822989710464E+03    0.54811E-05   -0.11103E-05  4180   0.762E-03    0.796E-03
DAV:   5    -0.822989710395E+03    0.68925E-07   -0.42648E-06  3500   0.397E-03
  41 F= -.83053002E+03 E0= -.83053002E+03  d E =-.208952E-03  mag=     0.0000
quench:  g(F)=  0.290E-03 g(S)=  0.000E+00 dE (1.order)=-0.542E-03
 bond charge predicted
       N       E                     dE             d eps       ncg     rms          rms(c)
DAV:   1    -0.822989857023E+03   -0.14656E-03   -0.15426E-02  4240   0.255E-01    0.237E-02
DAV:   2    -0.822989882588E+03   -0.25565E-04   -0.34871E-04  4690   0.359E-02    0.216E-02
DAV:   3    -0.822989878512E+03    0.40760E-05   -0.11658E-05  5640   0.676E-03    0.171E-02
DAV:   4    -0.822989876028E+03    0.24841E-05   -0.97690E-06  4140   0.727E-03    0.646E-03
DAV:   5    -0.822989876393E+03   -0.36458E-06   -0.35295E-06  3280   0.341E-03
  42 F= -.83053019E+03 E0= -.83053019E+03  d E =-.173902E-03  mag=     0.0000
quench:  g(F)=  0.287E-03 g(S)=  0.000E+00 dE (1.order)=-0.684E-03
 bond charge predicted
       N       E                     dE             d eps       ncg     rms          rms(c)
DAV:   1    -0.822990005660E+03   -0.12963E-03   -0.30171E-02  4240   0.361E-01    0.344E-02
DAV:   2    -0.822990059484E+03   -0.53824E-04   -0.72272E-04  4790   0.519E-02    0.310E-02
DAV:   3    -0.822990051277E+03    0.82069E-05   -0.24812E-05  5700   0.985E-03    0.246E-02
DAV:   4    -0.822990045234E+03    0.60436E-05   -0.19539E-05  4340   0.103E-02    0.969E-03
DAV:   5    -0.822990045954E+03   -0.72080E-06   -0.75881E-06  4520   0.501E-03
  43 F= -.83053035E+03 E0= -.83053035E+03  d E =-.161628E-03  mag=     0.0000
quench:  g(F)=  0.478E-03 g(S)=  0.000E+00 dE (1.order)=-0.889E-03
 bond charge predicted
       N       E                     dE             d eps       ncg     rms          rms(c)
DAV:   1    -0.822990159758E+03   -0.11452E-03   -0.29967E-02  4330   0.365E-01    0.369E-02
DAV:   2    -0.822990218522E+03   -0.58764E-04   -0.79145E-04  5040   0.543E-02    0.331E-02
DAV:   3    -0.822990208043E+03    0.10479E-04   -0.31171E-05  5620   0.109E-02    0.261E-02
DAV:   4    -0.822990197547E+03    0.10496E-04   -0.22093E-05  4440   0.107E-02    0.112E-02
DAV:   5    -0.822990197346E+03    0.20078E-06   -0.83132E-06  4420   0.555E-03
  44 F= -.83053052E+03 E0= -.83053052E+03  d E =-.166714E-03  mag=     0.0000
quench:  g(F)=  0.486E-03 g(S)=  0.000E+00 dE (1.order)=-0.693E-03
 bond charge predicted
       N       E                     dE             d eps       ncg     rms          rms(c)
DAV:   1    -0.822990390010E+03   -0.19246E-03   -0.14971E-02  4320   0.258E-01    0.257E-02
DAV:   2    -0.822990419105E+03   -0.29095E-04   -0.39647E-04  5060   0.384E-02    0.232E-02
DAV:   3    -0.822990413883E+03    0.52214E-05   -0.15718E-05  5620   0.772E-03    0.183E-02
DAV:   4    -0.822990408550E+03    0.53331E-05   -0.10637E-05  4240   0.748E-03    0.802E-03
DAV:   5    -0.822990408466E+03    0.84277E-07   -0.42710E-06  3480   0.402E-03
  45 F= -.83053072E+03 E0= -.83053072E+03  d E =-.203281E-03  mag=     0.0000
quench:  g(F)=  0.282E-03 g(S)=  0.000E+00 dE (1.order)=-0.522E-03
 bond charge predicted
       N       E                     dE             d eps       ncg     rms          rms(c)
DAV:   1    -0.822990549568E+03   -0.14102E-03   -0.14684E-02  4240   0.250E-01    0.232E-02
DAV:   2    -0.822990574445E+03   -0.24878E-04   -0.33713E-04  4710   0.353E-02    0.211E-02
DAV:   3    -0.822990570617E+03    0.38284E-05   -0.11134E-05  5660   0.662E-03    0.167E-02
DAV:   4    -0.822990568254E+03    0.23634E-05   -0.90839E-06  4140   0.705E-03    0.639E-03
DAV:   5    -0.822990568606E+03   -0.35277E-06   -0.33911E-06  3220   0.336E-03
  46 F= -.83053089E+03 E0= -.83053089E+03  d E =-.167236E-03  mag=     0.0000
quench:  g(F)=  0.280E-03 g(S)=  0.000E+00 dE (1.order)=-0.655E-03
 bond charge predicted
       N       E                     dE             d eps       ncg     rms          rms(c)
DAV:   1    -0.822990693641E+03   -0.12539E-03   -0.27823E-02  4240   0.346E-01    0.329E-02
DAV:   2    -0.822990742361E+03   -0.48720E-04   -0.66292E-04  4760   0.496E-02    0.299E-02
DAV:   3    -0.822990734609E+03    0.77523E-05   -0.23442E-05  5740   0.957E-03    0.237E-02
DAV:   4    -0.822990729014E+03    0.55947E-05   -0.18059E-05  4360   0.987E-03    0.947E-03
DAV:   5    -0.822990729690E+03   -0.67589E-06   -0.69381E-06  4280   0.480E-03
  47 F= -.83053104E+03 E0= -.83053104E+03  d E =-.153786E-03  mag=     0.0000
quench:  g(F)=  0.458E-03 g(S)=  0.000E+00 dE (1.order)=-0.844E-03
 bond charge predicted
       N       E                     dE             d eps       ncg     rms          rms(c)
DAV:   1    -0.822990840481E+03   -0.11147E-03   -0.28197E-02  4320   0.354E-01    0.357E-02
DAV:   2    -0.822990895337E+03   -0.54856E-04   -0.74118E-04  5080   0.525E-02    0.321E-02
DAV:   3    -0.822990885402E+03    0.99345E-05   -0.29166E-05  5560   0.106E-02    0.253E-02
DAV:   4    -0.822990875543E+03    0.98592E-05   -0.20929E-05  4400   0.104E-02    0.108E-02
DAV:   5    -0.822990875377E+03    0.16551E-06   -0.77785E-06  4280   0.533E-03
  48 F= -.83053120E+03 E0= -.83053120E+03  d E =-.157731E-03  mag=     0.0000
quench:  g(F)=  0.457E-03 g(S)=  0.000E+00 dE (1.order)=-0.659E-03
 bond charge predicted
       N       E                     dE             d eps       ncg     rms          rms(c)
DAV:   1    -0.822991055686E+03   -0.18014E-03   -0.14369E-02  4320   0.253E-01    0.252E-02
DAV:   2    -0.822991083634E+03   -0.27948E-04   -0.38059E-04  5060   0.376E-02    0.228E-02
DAV:   3    -0.822991078568E+03    0.50661E-05   -0.14892E-05  5600   0.753E-03    0.180E-02
DAV:   4    -0.822991073437E+03    0.51302E-05   -0.10406E-05  4210   0.741E-03    0.780E-03
DAV:   5    -0.822991073381E+03    0.56476E-07   -0.40840E-06  3500   0.393E-03
  49 F= -.83053139E+03 E0= -.83053139E+03  d E =-.192922E-03  mag=     0.0000
quench:  g(F)=  0.275E-03 g(S)=  0.000E+00 dE (1.order)=-0.515E-03
 bond charge predicted
       N       E                     dE             d eps       ncg     rms          rms(c)
DAV:   1    -0.822991207173E+03   -0.13374E-03   -0.13875E-02  4240   0.243E-01    0.225E-02
DAV:   2    -0.822991230636E+03   -0.23463E-04   -0.31946E-04  4680   0.344E-02    0.205E-02
DAV:   3    -0.822991226985E+03    0.36510E-05   -0.10775E-05  5660   0.650E-03    0.163E-02
DAV:   4    -0.822991224770E+03    0.22146E-05   -0.88104E-06  4160   0.693E-03    0.621E-03
DAV:   5    -0.822991225114E+03   -0.34321E-06   -0.31967E-06  3240   0.327E-03
  50 F= -.83053155E+03 E0= -.83053155E+03  d E =-.157443E-03  mag=     0.0000
quench:  g(F)=  0.277E-03 g(S)=  0.000E+00 dE (1.order)=-0.638E-03
 bond charge predicted
       N       E                     dE             d eps       ncg     rms          rms(c)
DAV:   1    -0.822991341565E+03   -0.11679E-03   -0.26841E-02  4260   0.341E-01    0.325E-02
DAV:   2    -0.822991389568E+03   -0.48004E-04   -0.64777E-04  4740   0.492E-02    0.293E-02
DAV:   3    -0.822991382222E+03    0.73460E-05   -0.22563E-05  5740   0.942E-03    0.232E-02
DAV:   4    -0.822991376821E+03    0.54009E-05   -0.18001E-05  4330   0.988E-03    0.907E-03
DAV:   5    -0.822991377487E+03   -0.66527E-06   -0.66253E-06  4180   0.471E-03
  51 F= -.83053170E+03 E0= -.83053170E+03  d E =-.145624E-03  mag=     0.0000
quench:  g(F)=  0.438E-03 g(S)=  0.000E+00 dE (1.order)=-0.800E-03
 bond charge predicted
       N       E                     dE             d eps       ncg     rms          rms(c)
DAV:   1    -0.822991491516E+03   -0.11469E-03   -0.26601E-02  4330   0.344E-01    0.346E-02
DAV:   2    -0.822991543744E+03   -0.52228E-04   -0.70266E-04  5040   0.512E-02    0.310E-02
DAV:   3    -0.822991534581E+03    0.91629E-05   -0.26821E-05  5560   0.101E-02    0.244E-02
DAV:   4    -0.822991525519E+03    0.90621E-05   -0.19893E-05  4340   0.102E-02    0.103E-02
DAV:   5    -0.822991525440E+03    0.79199E-07   -0.71977E-06  4240   0.516E-03
  52 F= -.83053186E+03 E0= -.83053186E+03  d E =-.158352E-03  mag=     0.0000
quench:  g(F)=  0.419E-03 g(S)=  0.000E+00 dE (1.order)=-0.617E-03
 bond charge predicted
       N       E                     dE             d eps       ncg     rms          rms(c)
DAV:   1    -0.822991696083E+03   -0.17056E-03   -0.13651E-02  4320   0.246E-01    0.245E-02
DAV:   2    -0.822991722482E+03   -0.26399E-04   -0.36022E-04  5060   0.367E-02    0.221E-02
DAV:   3    -0.822991717798E+03    0.46847E-05   -0.13974E-05  5600   0.731E-03    0.174E-02
DAV:   4    -0.822991713104E+03    0.46932E-05   -0.97344E-06  4270   0.716E-03    0.755E-03
DAV:   5    -0.822991713077E+03    0.27707E-07   -0.37753E-06  3400   0.381E-03
  53 F= -.83053204E+03 E0= -.83053204E+03  d E =-.181625E-03  mag=     0.0000
quench:  g(F)=  0.265E-03 g(S)=  0.000E+00 dE (1.order)=-0.508E-03
 bond charge predicted
       N       E                     dE             d eps       ncg     rms          rms(c)
DAV:   1    -0.822991845989E+03   -0.13288E-03   -0.13880E-02  4240   0.243E-01    0.225E-02
DAV:   2    -0.822991869642E+03   -0.23654E-04   -0.32051E-04  4630   0.345E-02    0.203E-02
DAV:   3    -0.822991866094E+03    0.35486E-05   -0.10638E-05  5660   0.649E-03    0.161E-02
DAV:   4    -0.822991864028E+03    0.20663E-05   -0.87810E-06  4120   0.695E-03    0.601E-03
DAV:   5    -0.822991864372E+03   -0.34457E-06   -0.31317E-06  3300   0.319E-03
  54 F= -.83053219E+03 E0= -.83053219E+03  d E =-.155930E-03  mag=     0.0000
quench:  g(F)=  0.272E-03 g(S)=  0.000E+00 dE (1.order)=-0.613E-03
 bond charge predicted
       N       E                     dE             d eps       ncg     rms          rms(c)
DAV:   1    -0.822991987119E+03   -0.12309E-03   -0.25166E-02  4240   0.329E-01    0.313E-02
DAV:   2    -0.822992030137E+03   -0.43018E-04   -0.59080E-04  4740   0.469E-02    0.284E-02
DAV:   3    -0.822992023136E+03    0.70012E-05   -0.20976E-05  5700   0.907E-03    0.225E-02
DAV:   4    -0.822992018187E+03    0.49492E-05   -0.16894E-05  4340   0.958E-03    0.879E-03
DAV:   5    -0.822992018846E+03   -0.65943E-06   -0.61541E-06  3940   0.454E-03
  55 F= -.83053234E+03 E0= -.83053234E+03  d E =-.148428E-03  mag=     0.0000
quench:  g(F)=  0.413E-03 g(S)=  0.000E+00 dE (1.order)=-0.760E-03
 bond charge predicted
       N       E                     dE             d eps       ncg     rms          rms(c)
DAV:   1    -0.822992124711E+03   -0.10652E-03   -0.25139E-02  4320   0.334E-01    0.335E-02
DAV:   2    -0.822992173082E+03   -0.48372E-04   -0.65653E-04  5060   0.494E-02    0.303E-02
DAV:   3    -0.822992164312E+03    0.87708E-05   -0.25470E-05  5540   0.990E-03    0.238E-02
DAV:   4    -0.822992155693E+03    0.86183E-05   -0.18670E-05  4335   0.989E-03    0.101E-02
DAV:   5    -0.822992155641E+03    0.51943E-07   -0.68410E-06  4200   0.502E-03
  56 F= -.83053249E+03 E0= -.83053249E+03  d E =-.148651E-03  mag=     0.0000
quench:  g(F)=  0.402E-03 g(S)=  0.000E+00 dE (1.order)=-0.599E-03
 bond charge predicted
       N       E                     dE             d eps       ncg     rms          rms(c)
DAV:   1    -0.822992321728E+03   -0.16603E-03   -0.13056E-02  4320   0.241E-01    0.240E-02
DAV:   2    -0.822992346576E+03   -0.24848E-04   -0.34223E-04  5040   0.357E-02    0.217E-02
DAV:   3    -0.822992342015E+03    0.45616E-05   -0.13470E-05  5620   0.719E-03    0.172E-02
DAV:   4    -0.822992337476E+03    0.45390E-05   -0.93997E-06  4210   0.705E-03    0.743E-03
DAV:   5    -0.822992337458E+03    0.17644E-07   -0.36539E-06  3420   0.374E-03
  57 F= -.83053267E+03 E0= -.83053267E+03  d E =-.176346E-03  mag=     0.0000
quench:  g(F)=  0.246E-03 g(S)=  0.000E+00 dE (1.order)=-0.486E-03
 bond charge predicted
       N       E                     dE             d eps       ncg     rms          rms(c)
DAV:   1    -0.822992468048E+03   -0.13057E-03   -0.12693E-02  4240   0.232E-01    0.215E-02
DAV:   2    -0.822992488893E+03   -0.20845E-04   -0.28745E-04  4650   0.326E-02    0.196E-02
DAV:   3    -0.822992485507E+03    0.33867E-05   -0.97579E-06  5590   0.621E-03    0.155E-02
DAV:   4    -0.822992483520E+03    0.19867E-05   -0.83589E-06  4100   0.674E-03    0.578E-03
DAV:   5    -0.822992483844E+03   -0.32468E-06   -0.29105E-06  3280   0.308E-03
  58 F= -.83053282E+03 E0= -.83053282E+03  d E =-.152562E-03  mag=     0.0000
quench:  g(F)=  0.271E-03 g(S)=  0.000E+00 dE (1.order)=-0.596E-03
 bond charge predicted
       N       E                     dE             d eps       ncg     rms          rms(c)
DAV:   1    -0.822992606793E+03   -0.12327E-03   -0.23787E-02  4240   0.320E-01    0.301E-02
DAV:   2    -0.822992647035E+03   -0.40242E-04   -0.55447E-04  4710   0.453E-02    0.275E-02
DAV:   3    -0.822992640501E+03    0.65339E-05   -0.19660E-05  5760   0.877E-03    0.218E-02
DAV:   4    -0.822992635946E+03    0.45556E-05   -0.16187E-05  4220   0.933E-03    0.844E-03
DAV:   5    -0.822992636578E+03   -0.63226E-06   -0.57624E-06  3880   0.434E-03
  59 F= -.83053297E+03 E0= -.83053297E+03  d E =-.149293E-03  mag=     0.0000
quench:  g(F)=  0.387E-03 g(S)=  0.000E+00 dE (1.order)=-0.718E-03
 bond charge predicted
       N       E                     dE             d eps       ncg     rms          rms(c)
DAV:   1    -0.822992737494E+03   -0.10155E-03   -0.24515E-02  4300   0.329E-01    0.330E-02
DAV:   2    -0.822992784045E+03   -0.46551E-04   -0.63356E-04  5020   0.484E-02    0.298E-02
DAV:   3    -0.822992775419E+03    0.86261E-05   -0.24554E-05  5600   0.969E-03    0.234E-02
DAV:   4    -0.822992767106E+03    0.83131E-05   -0.18388E-05  4270   0.977E-03    0.981E-03
DAV:   5    -0.822992767107E+03   -0.12587E-08   -0.66130E-06  4120   0.486E-03
  60 F= -.83053311E+03 E0= -.83053311E+03  d E =-.141026E-03  mag=     0.0000
quench:  g(F)=  0.387E-03 g(S)=  0.000E+00 dE (1.order)=-0.581E-03
 bond charge predicted
       N       E                     dE             d eps       ncg     rms          rms(c)
DAV:   1    -0.822992931594E+03   -0.16449E-03   -0.13272E-02  4320   0.243E-01    0.242E-02
DAV:   2    -0.822992957059E+03   -0.25464E-04   -0.34837E-04  5020   0.360E-02    0.219E-02
DAV:   3    -0.822992952390E+03    0.46691E-05   -0.13457E-05  5620   0.718E-03    0.172E-02
DAV:   4    -0.822992947798E+03    0.45917E-05   -0.97218E-06  4200   0.717E-03    0.735E-03
DAV:   5    -0.822992947810E+03   -0.11634E-07   -0.36703E-06  3420   0.371E-03
  61 F= -.83053329E+03 E0= -.83053329E+03  d E =-.175740E-03  mag=     0.0000
quench:  g(F)=  0.239E-03 g(S)=  0.000E+00 dE (1.order)=-0.470E-03
 bond charge predicted
       N       E                     dE             d eps       ncg     rms          rms(c)
DAV:   1    -0.822993068621E+03   -0.12082E-03   -0.11982E-02  4240   0.226E-01    0.211E-02
DAV:   2    -0.822993088902E+03   -0.20281E-04   -0.27729E-04  4610   0.321E-02    0.191E-02
DAV:   3    -0.822993085660E+03    0.32427E-05   -0.92752E-06  5560   0.608E-03    0.151E-02
DAV:   4    -0.822993083606E+03    0.20540E-05   -0.80398E-06  4100   0.662E-03    0.562E-03
DAV:   5    -0.822993083911E+03   -0.30525E-06   -0.27878E-06  3260   0.303E-03
  62 F= -.83053343E+03 E0= -.83053343E+03  d E =-.143199E-03  mag=     0.0000
quench:  g(F)=  0.262E-03 g(S)=  0.000E+00 dE (1.order)=-0.572E-03
 bond charge predicted
       N       E                     dE             d eps       ncg     rms          rms(c)
DAV:   1    -0.822993202807E+03   -0.11920E-03   -0.21874E-02  4240   0.307E-01    0.291E-02
DAV:   2    -0.822993240249E+03   -0.37442E-04   -0.51454E-04  4660   0.437E-02    0.264E-02
DAV:   3    -0.822993234245E+03    0.60046E-05   -0.18254E-05  5800   0.847E-03    0.209E-02
DAV:   4    -0.822993229937E+03    0.43082E-05   -0.14909E-05  4220   0.898E-03    0.805E-03
DAV:   5    -0.822993230524E+03   -0.58755E-06   -0.52658E-06  3610   0.418E-03
  63 F= -.83053357E+03 E0= -.83053357E+03  d E =-.141836E-03  mag=     0.0000
quench:  g(F)=  0.369E-03 g(S)=  0.000E+00 dE (1.order)=-0.681E-03
 bond charge predicted
       N       E                     dE             d eps       ncg     rms          rms(c)
DAV:   1    -0.822993326233E+03   -0.96297E-04   -0.22835E-02  4280   0.318E-01    0.318E-02
DAV:   2    -0.822993369053E+03   -0.42820E-04   -0.58497E-04  5100   0.465E-02    0.287E-02
DAV:   3    -0.822993360915E+03    0.81387E-05   -0.22668E-05  5580   0.933E-03    0.225E-02
DAV:   4    -0.822993353211E+03    0.77040E-05   -0.17200E-05  4270   0.944E-03    0.934E-03
DAV:   5    -0.822993353235E+03   -0.24243E-07   -0.60881E-06  4020   0.464E-03
  64 F= -.83053371E+03 E0= -.83053370E+03  d E =-.134427E-03  mag=     0.0000
quench:  g(F)=  0.370E-03 g(S)=  0.000E+00 dE (1.order)=-0.559E-03
 bond charge predicted
       N       E                     dE             d eps       ncg     rms          rms(c)
DAV:   1    -0.822993508976E+03   -0.15576E-03   -0.12699E-02  4300   0.237E-01    0.237E-02
DAV:   2    -0.822993532863E+03   -0.23887E-04   -0.32889E-04  5120   0.349E-02    0.214E-02
DAV:   3    -0.822993528310E+03    0.45534E-05   -0.12720E-05  5580   0.697E-03    0.168E-02
DAV:   4    -0.822993523918E+03    0.43920E-05   -0.94743E-06  4200   0.707E-03    0.709E-03
DAV:   5    -0.822993523946E+03   -0.28653E-07   -0.34832E-06  3360   0.358E-03
  65 F= -.83053387E+03 E0= -.83053387E+03  d E =-.165280E-03  mag=     0.0000
quench:  g(F)=  0.238E-03 g(S)=  0.000E+00 dE (1.order)=-0.455E-03
 bond charge predicted
       N       E                     dE             d eps       ncg     rms          rms(c)
DAV:   1    -0.822993639566E+03   -0.11565E-03   -0.11261E-02  4240   0.219E-01    0.205E-02
DAV:   2    -0.822993658282E+03   -0.18716E-04   -0.25805E-04  4650   0.309E-02    0.187E-02
DAV:   3    -0.822993655128E+03    0.31540E-05   -0.88317E-06  5480   0.591E-03    0.148E-02
DAV:   4    -0.822993653066E+03    0.20615E-05   -0.76797E-06  4100   0.643E-03    0.559E-03
DAV:   5    -0.822993653334E+03   -0.26762E-06   -0.26424E-06  3260   0.297E-03
  66 F= -.83053401E+03 E0= -.83053401E+03  d E =-.136708E-03  mag=     0.0000
quench:  g(F)=  0.252E-03 g(S)=  0.000E+00 dE (1.order)=-0.546E-03
 bond charge predicted
       N       E                     dE             d eps       ncg     rms          rms(c)
DAV:   1    -0.822993759266E+03   -0.10620E-03   -0.20202E-02  4240   0.296E-01    0.281E-02
DAV:   2    -0.822993794030E+03   -0.34764E-04   -0.47696E-04  4710   0.420E-02    0.255E-02
DAV:   3    -0.822993788303E+03    0.57267E-05   -0.17006E-05  5720   0.815E-03    0.202E-02
DAV:   4    -0.822993784171E+03    0.41325E-05   -0.13964E-05  4200   0.871E-03    0.778E-03
DAV:   5    -0.822993784687E+03   -0.51635E-06   -0.49282E-06  3540   0.405E-03
  67 F= -.83053414E+03 E0= -.83053413E+03  d E =-.127987E-03  mag=     0.0000
quench:  g(F)=  0.351E-03 g(S)=  0.000E+00 dE (1.order)=-0.645E-03
 bond charge predicted
       N       E                     dE             d eps       ncg     rms          rms(c)
DAV:   1    -0.822993873754E+03   -0.89584E-04   -0.20657E-02  4260   0.302E-01    0.303E-02
DAV:   2    -0.822993912824E+03   -0.39070E-04   -0.53160E-04  5100   0.442E-02    0.274E-02
DAV:   3    -0.822993905419E+03    0.74053E-05   -0.20370E-05  5500   0.879E-03    0.216E-02
DAV:   4    -0.822993898186E+03    0.72326E-05   -0.16068E-05  4220   0.913E-03    0.884E-03
DAV:   5    -0.822993898203E+03   -0.17179E-07   -0.56182E-06  3840   0.446E-03
  68 F= -.83053426E+03 E0= -.83053426E+03  d E =-.127973E-03  mag=     0.0000
quench:  g(F)=  0.344E-03 g(S)=  0.000E+00 dE (1.order)=-0.536E-03
 bond charge predicted
       N       E                     dE             d eps       ncg     rms          rms(c)
DAV:   1    -0.822994041123E+03   -0.14294E-03   -0.11629E-02  4280   0.227E-01    0.227E-02
DAV:   2    -0.822994063175E+03   -0.22052E-04   -0.30275E-04  5080   0.333E-02    0.206E-02
DAV:   3    -0.822994059025E+03    0.41501E-05   -0.11712E-05  5540   0.666E-03    0.162E-02
DAV:   4    -0.822994054938E+03    0.40870E-05   -0.87274E-06  4150   0.679E-03    0.680E-03
DAV:   5    -0.822994054971E+03   -0.33426E-07   -0.32619E-06  3260   0.343E-03
  69 F= -.83053441E+03 E0= -.83053441E+03  d E =-.151536E-03  mag=     0.0000
quench:  g(F)=  0.237E-03 g(S)=  0.000E+00 dE (1.order)=-0.453E-03
 bond charge predicted
       N       E                     dE             d eps       ncg     rms          rms(c)
DAV:   1    -0.822994159680E+03   -0.10474E-03   -0.11064E-02  4240   0.217E-01    0.203E-02
DAV:   2    -0.822994178404E+03   -0.18724E-04   -0.25720E-04  4710   0.308E-02    0.185E-02
DAV:   3    -0.822994175335E+03    0.30693E-05   -0.86642E-06  5480   0.585E-03    0.147E-02
DAV:   4    -0.822994173326E+03    0.20087E-05   -0.76892E-06  4100   0.642E-03    0.552E-03
DAV:   5    -0.822994173605E+03   -0.27855E-06   -0.26110E-06  3140   0.296E-03
  70 F= -.83053454E+03 E0= -.83053454E+03  d E =-.128579E-03  mag=     0.0000
quench:  g(F)=  0.247E-03 g(S)=  0.000E+00 dE (1.order)=-0.527E-03
 bond charge predicted
       N       E                     dE             d eps       ncg     rms          rms(c)
DAV:   1    -0.822994278109E+03   -0.10478E-03   -0.19234E-02  4240   0.288E-01    0.276E-02
DAV:   2    -0.822994311225E+03   -0.33116E-04   -0.45578E-04  4760   0.410E-02    0.250E-02
DAV:   3    -0.822994305697E+03    0.55282E-05   -0.16178E-05  5720   0.797E-03    0.197E-02
DAV:   4    -0.822994301886E+03    0.38101E-05   -0.12999E-05  4200   0.843E-03    0.762E-03
DAV:   5    -0.822994302413E+03   -0.52701E-06   -0.47180E-06  3480   0.394E-03
  71 F= -.83053467E+03 E0= -.83053467E+03  d E =-.122949E-03  mag=     0.0000
quench:  g(F)=  0.331E-03 g(S)=  0.000E+00 dE (1.order)=-0.611E-03
 bond charge predicted
       N       E                     dE             d eps       ncg     rms          rms(c)
DAV:   1    -0.822994387735E+03   -0.85848E-04   -0.19570E-02  4280   0.294E-01    0.294E-02
DAV:   2    -0.822994424480E+03   -0.36745E-04   -0.50279E-04  5100   0.430E-02    0.267E-02
DAV:   3    -0.822994417435E+03    0.70446E-05   -0.19235E-05  5520   0.859E-03    0.210E-02
DAV:   4    -0.822994410713E+03    0.67224E-05   -0.15110E-05  4230   0.886E-03    0.860E-03
DAV:   5    -0.822994410729E+03   -0.15643E-07   -0.52716E-06  3760   0.434E-03
  72 F= -.83053479E+03 E0= -.83053479E+03  d E =-.123525E-03  mag=     0.0000
quench:  g(F)=  0.326E-03 g(S)=  0.000E+00 dE (1.order)=-0.511E-03
 bond charge predicted
       N       E                     dE             d eps       ncg     rms          rms(c)
DAV:   1    -0.822994546309E+03   -0.13560E-03   -0.11169E-02  4300   0.222E-01    0.222E-02
DAV:   2    -0.822994567279E+03   -0.20970E-04   -0.28935E-04  5140   0.326E-02    0.201E-02
DAV:   3    -0.822994563259E+03    0.40206E-05   -0.11045E-05  5480   0.651E-03    0.159E-02
DAV:   4    -0.822994559418E+03    0.38409E-05   -0.84548E-06  4160   0.669E-03    0.661E-03
DAV:   5    -0.822994559458E+03   -0.39850E-07   -0.30978E-06  3400   0.335E-03
  73 F= -.83053493E+03 E0= -.83053493E+03  d E =-.142213E-03  mag=     0.0000
quench:  g(F)=  0.229E-03 g(S)=  0.000E+00 dE (1.order)=-0.430E-03
 bond charge predicted
       N       E                     dE             d eps       ncg     rms          rms(c)
DAV:   1    -0.822994661008E+03   -0.10159E-03   -0.10312E-02  4240   0.210E-01    0.197E-02
DAV:   2    -0.822994678308E+03   -0.17300E-04   -0.23929E-04  4690   0.297E-02    0.180E-02
DAV:   3    -0.822994675369E+03    0.29386E-05   -0.82233E-06  5370   0.569E-03    0.143E-02
DAV:   4    -0.822994673456E+03    0.19131E-05   -0.74020E-06  4100   0.628E-03    0.535E-03
DAV:   5    -0.822994673694E+03   -0.23766E-06   -0.24345E-06  3120   0.285E-03
  74 F= -.83053505E+03 E0= -.83053505E+03  d E =-.123033E-03  mag=     0.0000
quench:  g(F)=  0.233E-03 g(S)=  0.000E+00 dE (1.order)=-0.497E-03
 bond charge predicted
       N       E                     dE             d eps       ncg     rms          rms(c)
DAV:   1    -0.822994770051E+03   -0.96595E-04   -0.17836E-02  4240   0.277E-01    0.264E-02
DAV:   2    -0.822994800248E+03   -0.30197E-04   -0.41826E-04  4780   0.392E-02    0.242E-02
DAV:   3    -0.822994794986E+03    0.52623E-05   -0.14876E-05  5720   0.762E-03    0.192E-02
DAV:   4    -0.822994791217E+03    0.37689E-05   -0.12833E-05  4200   0.832E-03    0.732E-03
DAV:   5    -0.822994791678E+03   -0.46094E-06   -0.44305E-06  3400   0.381E-03
  75 F= -.83053517E+03 E0= -.83053517E+03  d E =-.113431E-03  mag=     0.0000
quench:  g(F)=  0.316E-03 g(S)=  0.000E+00 dE (1.order)=-0.581E-03
 bond charge predicted
       N       E                     dE             d eps       ncg     rms          rms(c)
DAV:   1    -0.822994874586E+03   -0.83369E-04   -0.18194E-02  4280   0.282E-01    0.284E-02
DAV:   2    -0.822994908023E+03   -0.33437E-04   -0.46057E-04  5200   0.410E-02    0.259E-02
DAV:   3    -0.822994901213E+03    0.68096E-05   -0.17720E-05  5500   0.821E-03    0.203E-02
DAV:   4    -0.822994894840E+03    0.63729E-05   -0.14830E-05  4220   0.874E-03    0.814E-03
DAV:   5    -0.822994894864E+03   -0.23894E-07   -0.48360E-06  3520   0.411E-03
  76 F= -.83053529E+03 E0= -.83053529E+03  d E =-.117589E-03  mag=     0.0000
quench:  g(F)=  0.312E-03 g(S)=  0.000E+00 dE (1.order)=-0.488E-03
 bond charge predicted
       N       E                     dE             d eps       ncg     rms          rms(c)
DAV:   1    -0.822995023055E+03   -0.12821E-03   -0.10375E-02  4260   0.213E-01    0.213E-02
DAV:   2    -0.822995041912E+03   -0.18857E-04   -0.26277E-04  5260   0.309E-02    0.195E-02
DAV:   3    -0.822995038077E+03    0.38356E-05   -0.99836E-06  5460   0.614E-03    0.154E-02
DAV:   4    -0.822995034356E+03    0.37205E-05   -0.83195E-06  4130   0.657E-03    0.628E-03
DAV:   5    -0.822995034397E+03   -0.40629E-07   -0.28628E-06  3260   0.317E-03
  77 F= -.83053542E+03 E0= -.83053542E+03  d E =-.132147E-03  mag=     0.0000
quench:  g(F)=  0.219E-03 g(S)=  0.000E+00 dE (1.order)=-0.410E-03
 bond charge predicted
       N       E                     dE             d eps       ncg     rms          rms(c)
DAV:   1    -0.822995128489E+03   -0.94132E-04   -0.97854E-03  4240   0.204E-01    0.192E-02
DAV:   2    -0.822995144480E+03   -0.15991E-04   -0.22306E-04  4730   0.285E-02    0.177E-02
DAV:   3    -0.822995141567E+03    0.29124E-05   -0.78209E-06  5360   0.553E-03    0.141E-02
DAV:   4    -0.822995139607E+03    0.19602E-05   -0.76977E-06  4140   0.635E-03    0.513E-03
DAV:   5    -0.822995139808E+03   -0.20058E-06   -0.23686E-06  3220   0.279E-03
  78 F= -.83053553E+03 E0= -.83053553E+03  d E =-.113696E-03  mag=     0.0000
quench:  g(F)=  0.225E-03 g(S)=  0.000E+00 dE (1.order)=-0.480E-03
 bond charge predicted
       N       E                     dE             d eps       ncg     rms          rms(c)
DAV:   1    -0.822995237057E+03   -0.97450E-04   -0.16522E-02  4240   0.266E-01    0.254E-02
DAV:   2    -0.822995264770E+03   -0.27713E-04   -0.38380E-04  4750   0.373E-02    0.233E-02
DAV:   3    -0.822995259806E+03    0.49639E-05   -0.13879E-05  5700   0.730E-03    0.185E-02
DAV:   4    -0.822995256110E+03    0.36953E-05   -0.12470E-05  4200   0.812E-03    0.695E-03
DAV:   5    -0.822995256474E+03   -0.36311E-06   -0.40818E-06  3400   0.363E-03
  79 F= -.83053564E+03 E0= -.83053564E+03  d E =-.111425E-03  mag=     0.0000
quench:  g(F)=  0.301E-03 g(S)=  0.000E+00 dE (1.order)=-0.553E-03
 bond charge predicted
       N       E                     dE             d eps       ncg     rms          rms(c)
DAV:   1    -0.822995337765E+03   -0.81654E-04   -0.16844E-02  4240   0.271E-01    0.271E-02
DAV:   2    -0.822995368209E+03   -0.30444E-04   -0.41924E-04  5210   0.389E-02    0.248E-02
DAV:   3    -0.822995361938E+03    0.62708E-05   -0.15645E-05  5460   0.767E-03    0.195E-02
DAV:   4    -0.822995356050E+03    0.58878E-05   -0.14146E-05  4140   0.851E-03    0.761E-03
DAV:   5    -0.822995356115E+03   -0.64538E-07   -0.44360E-06  3340   0.388E-03
  80 F= -.83053576E+03 E0= -.83053576E+03  d E =-.113167E-03  mag=     0.0000
quench:  g(F)=  0.296E-03 g(S)=  0.000E+00 dE (1.order)=-0.467E-03
 bond charge predicted
       N       E                     dE             d eps       ncg     rms          rms(c)
DAV:   1    -0.822995478505E+03   -0.12245E-03   -0.10152E-02  4280   0.211E-01    0.211E-02
DAV:   2    -0.822995496941E+03   -0.18436E-04   -0.25569E-04  5180   0.304E-02    0.193E-02
DAV:   3    -0.822995493237E+03    0.37042E-05   -0.96555E-06  5440   0.605E-03    0.151E-02
DAV:   4    -0.822995489702E+03    0.35344E-05   -0.81235E-06  4180   0.652E-03    0.605E-03
DAV:   5    -0.822995489778E+03   -0.75634E-07   -0.27543E-06  3320   0.308E-03
  81 F= -.83053588E+03 E0= -.83053588E+03  d E =-.126851E-03  mag=     0.0000
quench:  g(F)=  0.210E-03 g(S)=  0.000E+00 dE (1.order)=-0.394E-03
 bond charge predicted
       N       E                     dE             d eps       ncg     rms          rms(c)
DAV:   1    -0.822995578634E+03   -0.88932E-04   -0.97422E-03  4240   0.204E-01    0.193E-02
DAV:   2    -0.822995594981E+03   -0.16347E-04   -0.22561E-04  4700   0.287E-02    0.177E-02
DAV:   3    -0.822995592110E+03    0.28714E-05   -0.77689E-06  5360   0.552E-03    0.141E-02
DAV:   4    -0.822995590098E+03    0.20119E-05   -0.73606E-06  4100   0.626E-03    0.515E-03
DAV:   5    -0.822995590305E+03   -0.20636E-06   -0.23592E-06  3220   0.279E-03
  82 F= -.83053599E+03 E0= -.83053599E+03  d E =-.109017E-03  mag=     0.0000
quench:  g(F)=  0.217E-03 g(S)=  0.000E+00 dE (1.order)=-0.461E-03
 bond charge predicted
       N       E                     dE             d eps       ncg     rms          rms(c)
DAV:   1    -0.822995681746E+03   -0.91648E-04   -0.15481E-02  4240   0.258E-01    0.250E-02
DAV:   2    -0.822995708119E+03   -0.26372E-04   -0.36538E-04  4960   0.365E-02    0.228E-02
DAV:   3    -0.822995703320E+03    0.47992E-05   -0.12792E-05  5600   0.707E-03    0.180E-02
DAV:   4    -0.822995699810E+03    0.35095E-05   -0.11192E-05  4270   0.777E-03    0.689E-03
DAV:   5    -0.822995700179E+03   -0.36869E-06   -0.38997E-06  3500   0.360E-03
  83 F= -.83053610E+03 E0= -.83053610E+03  d E =-.103917E-03  mag=     0.0000
quench:  g(F)=  0.288E-03 g(S)=  0.000E+00 dE (1.order)=-0.525E-03
 bond charge predicted
       N       E                     dE             d eps       ncg     rms          rms(c)
DAV:   1    -0.822995779774E+03   -0.79964E-04   -0.15368E-02  4280   0.260E-01    0.261E-02
DAV:   2    -0.822995807977E+03   -0.28202E-04   -0.38746E-04  5140   0.376E-02    0.237E-02
DAV:   3    -0.822995802340E+03    0.56371E-05   -0.14681E-05  5460   0.747E-03    0.186E-02
DAV:   4    -0.822995796990E+03    0.53497E-05   -0.12511E-05  4320   0.803E-03    0.738E-03
DAV:   5    -0.822995797020E+03   -0.29824E-07   -0.40451E-06  3360   0.378E-03
  84 F= -.83053621E+03 E0= -.83053621E+03  d E =-.110005E-03  mag=     0.0000
quench:  g(F)=  0.277E-03 g(S)=  0.000E+00 dE (1.order)=-0.442E-03
 bond charge predicted
       N       E                     dE             d eps       ncg     rms          rms(c)
DAV:   1    -0.822995908848E+03   -0.11186E-03   -0.95130E-03  4300   0.204E-01    0.203E-02
DAV:   2    -0.822995926107E+03   -0.17259E-04   -0.23954E-04  5120   0.294E-02    0.186E-02
DAV:   3    -0.822995922683E+03    0.34243E-05   -0.89888E-06  5480   0.585E-03    0.147E-02
DAV:   4    -0.822995919433E+03    0.32502E-05   -0.76335E-06  4210   0.632E-03    0.586E-03
DAV:   5    -0.822995919506E+03   -0.73429E-07   -0.25741E-06  3260   0.300E-03
  85 F= -.83053632E+03 E0= -.83053632E+03  d E =-.116288E-03  mag=     0.0000
quench:  g(F)=  0.200E-03 g(S)=  0.000E+00 dE (1.order)=-0.378E-03
 bond charge predicted
       N       E                     dE             d eps       ncg     rms          rms(c)
DAV:   1    -0.822996005305E+03   -0.85872E-04   -0.92776E-03  4240   0.198E-01    0.188E-02
DAV:   2    -0.822996020371E+03   -0.15066E-04   -0.21197E-04  4790   0.276E-02    0.174E-02
DAV:   3    -0.822996017519E+03    0.28520E-05   -0.75778E-06  5360   0.543E-03    0.139E-02
DAV:   4    -0.822996015461E+03    0.20584E-05   -0.71577E-06  4100   0.611E-03    0.518E-03
DAV:   5    -0.822996015648E+03   -0.18767E-06   -0.22648E-06  3060   0.274E-03
  86 F= -.83053643E+03 E0= -.83053643E+03  d E =-.103632E-03  mag=     0.0000
quench:  g(F)=  0.212E-03 g(S)=  0.000E+00 dE (1.order)=-0.445E-03
 bond charge predicted
       N       E                     dE             d eps       ncg     rms          rms(c)
DAV:   1    -0.822996100793E+03   -0.85332E-04   -0.14400E-02  4240   0.249E-01    0.240E-02
DAV:   2    -0.822996125059E+03   -0.24266E-04   -0.33771E-04  4980   0.349E-02    0.221E-02
DAV:   3    -0.822996120445E+03    0.46144E-05   -0.12044E-05  5580   0.681E-03    0.175E-02
DAV:   4    -0.822996116884E+03    0.35609E-05   -0.11087E-05  4220   0.762E-03    0.664E-03
DAV:   5    -0.822996117170E+03   -0.28580E-06   -0.36483E-06  3320   0.349E-03
  87 F= -.83053652E+03 E0= -.83053652E+03  d E =-.971273E-04  mag=     0.0000
quench:  g(F)=  0.279E-03 g(S)=  0.000E+00 dE (1.order)=-0.504E-03
 bond charge predicted
       N       E                     dE             d eps       ncg     rms          rms(c)
DAV:   1    -0.822996195117E+03   -0.78233E-04   -0.14150E-02  4240   0.248E-01    0.249E-02
DAV:   2    -0.822996220562E+03   -0.25445E-04   -0.35241E-04  5220   0.356E-02    0.228E-02
DAV:   3    -0.822996215297E+03    0.52655E-05   -0.13615E-05  5500   0.714E-03    0.179E-02
DAV:   4    -0.822996210279E+03    0.50180E-05   -0.11555E-05  4160   0.770E-03    0.711E-03
DAV:   5    -0.822996210322E+03   -0.43350E-07   -0.37944E-06  3320   0.362E-03
  88 F= -.83053662E+03 E0= -.83053662E+03  d E =-.101694E-03  mag=     0.0000
quench:  g(F)=  0.265E-03 g(S)=  0.000E+00 dE (1.order)=-0.424E-03
 bond charge predicted
       N       E                     dE             d eps       ncg     rms          rms(c)
DAV:   1    -0.822996316154E+03   -0.10588E-03   -0.89194E-03  4300   0.197E-01    0.197E-02
DAV:   2    -0.822996331665E+03   -0.15511E-04   -0.21828E-04  5210   0.280E-02    0.181E-02
DAV:   3    -0.822996328253E+03    0.34120E-05   -0.82975E-06  5440   0.560E-03    0.142E-02
DAV:   4    -0.822996325153E+03    0.30994E-05   -0.75326E-06  4140   0.623E-03    0.555E-03
DAV:   5    -0.822996325209E+03   -0.55748E-07   -0.23987E-06  3140   0.286E-03
  89 F= -.83053674E+03 E0= -.83053674E+03  d E =-.111833E-03  mag=     0.0000
quench:  g(F)=  0.190E-03 g(S)=  0.000E+00 dE (1.order)=-0.368E-03
 bond charge predicted
       N       E                     dE             d eps       ncg     rms          rms(c)
DAV:   1    -0.822996404773E+03   -0.79620E-04   -0.89668E-03  4320   0.195E-01    0.186E-02
DAV:   2    -0.822996418591E+03   -0.13818E-04   -0.19744E-04  4730   0.268E-02    0.172E-02
DAV:   3    -0.822996415661E+03    0.29295E-05   -0.69939E-06  5220   0.524E-03    0.135E-02
DAV:   4    -0.822996413756E+03    0.19053E-05   -0.75822E-06  4120   0.624E-03    0.483E-03
DAV:   5    -0.822996413921E+03   -0.16548E-06   -0.22207E-06  3080   0.268E-03
  90 F= -.83053683E+03 E0= -.83053683E+03  d E =-.961758E-04  mag=     0.0000
quench:  g(F)=  0.209E-03 g(S)=  0.000E+00 dE (1.order)=-0.443E-03
 bond charge predicted
       N       E                     dE             d eps       ncg     rms          rms(c)
DAV:   1    -0.822996494181E+03   -0.80425E-04   -0.13931E-02  4320   0.244E-01    0.238E-02
DAV:   2    -0.822996516967E+03   -0.22786E-04   -0.32001E-04  5000   0.342E-02    0.219E-02
DAV:   3    -0.822996512171E+03    0.47960E-05   -0.11527E-05  5600   0.669E-03    0.172E-02
DAV:   4    -0.822996508631E+03    0.35396E-05   -0.11203E-05  4220   0.763E-03    0.646E-03
DAV:   5    -0.822996508872E+03   -0.24048E-06   -0.35743E-06  3280   0.343E-03
  91 F= -.83053692E+03 E0= -.83053692E+03  d E =-.919342E-04  mag=     0.0000
quench:  g(F)=  0.277E-03 g(S)=  0.000E+00 dE (1.order)=-0.497E-03
 bond charge predicted
       N       E                     dE             d eps       ncg     rms          rms(c)
DAV:   1    -0.822996583951E+03   -0.75320E-04   -0.13455E-02  4240   0.243E-01    0.245E-02
DAV:   2    -0.822996608410E+03   -0.24459E-04   -0.33805E-04  5300   0.348E-02    0.224E-02
DAV:   3    -0.822996603306E+03    0.51039E-05   -0.12870E-05  5460   0.695E-03    0.176E-02
DAV:   4    -0.822996598477E+03    0.48292E-05   -0.11340E-05  4230   0.763E-03    0.700E-03
DAV:   5    -0.822996598514E+03   -0.36933E-07   -0.36826E-06  3320   0.359E-03
  92 F= -.83053702E+03 E0= -.83053702E+03  d E =-.989057E-04  mag=     0.0000
quench:  g(F)=  0.254E-03 g(S)=  0.000E+00 dE (1.order)=-0.408E-03
 bond charge predicted
       N       E                     dE             d eps       ncg     rms          rms(c)
DAV:   1    -0.822996697564E+03   -0.99086E-04   -0.83983E-03  4240   0.192E-01    0.191E-02
DAV:   2    -0.822996712743E+03   -0.15180E-04   -0.21056E-04  5180   0.275E-02    0.175E-02
DAV:   3    -0.822996709680E+03    0.30629E-05   -0.79531E-06  5440   0.548E-03    0.139E-02
DAV:   4    -0.822996706765E+03    0.29154E-05   -0.69384E-06  4170   0.598E-03    0.558E-03
DAV:   5    -0.822996706802E+03   -0.36998E-07   -0.22813E-06  3200   0.283E-03
  93 F= -.83053713E+03 E0= -.83053713E+03  d E =-.104587E-03  mag=     0.0000
quench:  g(F)=  0.187E-03 g(S)=  0.000E+00 dE (1.order)=-0.364E-03
 bond charge predicted
       N       E                     dE             d eps       ncg     rms          rms(c)
DAV:   1    -0.822996785542E+03   -0.78777E-04   -0.90311E-03  4240   0.196E-01    0.187E-02
DAV:   2    -0.822996800391E+03   -0.14849E-04   -0.20691E-04  4760   0.273E-02    0.172E-02
DAV:   3    -0.822996797666E+03    0.27254E-05   -0.73953E-06  5220   0.535E-03    0.137E-02
DAV:   4    -0.822996795707E+03    0.19594E-05   -0.73863E-06  4100   0.619E-03    0.504E-03
DAV:   5    -0.822996795886E+03   -0.17909E-06   -0.22098E-06  3180   0.271E-03
  94 F= -.83053722E+03 E0= -.83053722E+03  d E =-.964360E-04  mag=     0.0000
quench:  g(F)=  0.205E-03 g(S)=  0.000E+00 dE (1.order)=-0.433E-03
 bond charge predicted
       N       E                     dE             d eps       ncg     rms          rms(c)
DAV:   1    -0.822996873880E+03   -0.78173E-04   -0.13615E-02  4240   0.242E-01    0.237E-02
DAV:   2    -0.822996897631E+03   -0.23752E-04   -0.32736E-04  4980   0.344E-02    0.216E-02
DAV:   3    -0.822996893281E+03    0.43508E-05   -0.11704E-05  5640   0.670E-03    0.172E-02
DAV:   4    -0.822996889783E+03    0.34975E-05   -0.10119E-05  4300   0.733E-03    0.675E-03
DAV:   5    -0.822996890043E+03   -0.25972E-06   -0.35389E-06  3360   0.347E-03
  95 F= -.83053731E+03 E0= -.83053731E+03  d E =-.899651E-04  mag=     0.0000
quench:  g(F)=  0.268E-03 g(S)=  0.000E+00 dE (1.order)=-0.482E-03
 bond charge predicted
       N       E                     dE             d eps       ncg     rms          rms(c)
DAV:   1    -0.822996962868E+03   -0.73085E-04   -0.13073E-02  4280   0.240E-01    0.243E-02
DAV:   2    -0.822996987342E+03   -0.24474E-04   -0.33500E-04  5180   0.348E-02    0.220E-02
DAV:   3    -0.822996982557E+03    0.47848E-05   -0.12787E-05  5580   0.695E-03    0.172E-02
DAV:   4    -0.822996977995E+03    0.45618E-05   -0.10425E-05  4300   0.736E-03    0.701E-03
DAV:   5    -0.822996978013E+03   -0.17972E-07   -0.35812E-06  3380   0.359E-03
  96 F= -.83053741E+03 E0= -.83053741E+03  d E =-.984695E-04  mag=     0.0000
quench:  g(F)=  0.248E-03 g(S)=  0.000E+00 dE (1.order)=-0.399E-03
 bond charge predicted
       N       E                     dE             d eps       ncg     rms          rms(c)
DAV:   1    -0.822997072469E+03   -0.94474E-04   -0.80670E-03  4300   0.188E-01    0.188E-02
DAV:   2    -0.822997087428E+03   -0.14959E-04   -0.20619E-04  5140   0.273E-02    0.171E-02
DAV:   3    -0.822997084580E+03    0.28489E-05   -0.76278E-06  5380   0.540E-03    0.135E-02
DAV:   4    -0.822997081914E+03    0.26653E-05   -0.64619E-06  4200   0.579E-03    0.556E-03
DAV:   5    -0.822997081970E+03   -0.56098E-07   -0.21824E-06  3180   0.281E-03
  97 F= -.83053751E+03 E0= -.83053751E+03  d E =-.988104E-04  mag=     0.0000
quench:  g(F)=  0.181E-03 g(S)=  0.000E+00 dE (1.order)=-0.354E-03
 bond charge predicted
       N       E                     dE             d eps       ncg     rms          rms(c)
DAV:   1    -0.822997154982E+03   -0.73068E-04   -0.87066E-03  4240   0.193E-01    0.186E-02
DAV:   2    -0.822997169749E+03   -0.14766E-04   -0.20363E-04  4890   0.272E-02    0.169E-02
DAV:   3    -0.822997167136E+03    0.26130E-05   -0.70890E-06  5120   0.527E-03    0.134E-02
DAV:   4    -0.822997165258E+03    0.18779E-05   -0.69482E-06  4110   0.601E-03    0.506E-03
DAV:   5    -0.822997165420E+03   -0.16200E-06   -0.21155E-06  3180   0.268E-03
  98 F= -.83053760E+03 E0= -.83053760E+03  d E =-.918308E-04  mag=     0.0000
quench:  g(F)=  0.197E-03 g(S)=  0.000E+00 dE (1.order)=-0.415E-03
 bond charge predicted
       N       E                     dE             d eps       ncg     rms          rms(c)
DAV:   1    -0.822997241762E+03   -0.76504E-04   -0.12992E-02  4320   0.238E-01    0.234E-02
DAV:   2    -0.822997265515E+03   -0.23754E-04   -0.32288E-04  4960   0.344E-02    0.210E-02
DAV:   3    -0.822997261599E+03    0.39169E-05   -0.11085E-05  5580   0.660E-03    0.166E-02
DAV:   4    -0.822997258555E+03    0.30434E-05   -0.90870E-06  4440   0.698E-03    0.672E-03
DAV:   5    -0.822997258835E+03   -0.27945E-06   -0.33308E-06  3360   0.345E-03
  99 F= -.83053769E+03 E0= -.83053769E+03  d E =-.872764E-04  mag=     0.0000
quench:  g(F)=  0.250E-03 g(S)=  0.000E+00 dE (1.order)=-0.457E-03
 reached required accuracy - stopping structural energy minimisation
