<?xml version="1.0" encoding="ISO-8859-1"?>
<modeling>
 <generator>
  <i name="program" type="string">vasp </i>
  <i name="version" type="string">6.4.2  </i>
  <i name="subversion" type="string">20Jul23 (build Jan 24 2024 13:44:02) complex                          parallel </i>
  <i name="platform" type="string">LinuxNV </i>
  <i name="date" type="string">2025 11 16 </i>
  <i name="time" type="string">23:47:19 </i>
 </generator>
 <incar>
  <i type="int" name="ISTART">     0</i>
  <i type="string" name="ALGO">Normal</i>
  <i type="logical" name="ADDGRID"> T  </i>
  <i type="int" name="ISPIN">     2</i>
  <i type="int" name="IMIX">     4</i>
  <i name="AMIX">      0.20000000</i>
  <i name="BMIX">      0.00010000</i>
  <i name="AMIX_MAG">      0.80000000</i>
  <i name="BMIX_MAG">      0.00010000</i>
  <i type="int" name="ICHARG">     2</i>
  <i type="int" name="NELM">   200</i>
  <i type="int" name="IBRION">     3</i>
  <i name="EDIFF">      0.00000100</i>
  <i name="EDIFFG">     -0.03000000</i>
  <i type="int" name="NSW">   300</i>
  <i type="int" name="ISIF">     2</i>
  <i type="int" name="ISYM">     0</i>
  <i name="ENCUT">    520.00000000</i>
  <i name="POTIM">      0.10000000</i>
  <v name="MAGMOM">      0.60000000      0.60000000      0.60000000      0.60000000      0.60000000      0.60000000      0.60000000      0.60000000      0.60000000      0.60000000      0.60000000      0.60000000      0.60000000      0.60000000      0.60000000      0.60000000      0.60000000      0.60000000      0.60000000      0.60000000
      0.60000000      0.60000000      0.60000000      0.60000000      0.60000000      0.60000000      0.60000000      0.60000000      0.60000000      0.60000000      0.60000000      0.60000000      0.60000000      0.60000000      0.60000000      0.60000000      0.60000000      0.60000000      0.60000000      0.60000000
      0.60000000      0.60000000      0.60000000      0.60000000      0.60000000      0.60000000      0.60000000      0.60000000      0.60000000      0.60000000      0.60000000      0.60000000      0.60000000      0.60000000      0.60000000      0.60000000      0.60000000      0.60000000      0.60000000      0.60000000
      0.60000000      0.60000000      0.60000000      0.60000000      0.60000000      0.60000000      0.60000000      0.60000000      0.60000000      0.60000000      0.60000000      0.60000000      0.60000000      0.60000000      0.60000000      0.60000000      0.60000000      0.60000000      0.60000000      0.60000000
      0.60000000      0.60000000      0.60000000      0.60000000      0.60000000      0.60000000      0.60000000      0.60000000      0.60000000      0.60000000      0.60000000      0.60000000      0.60000000</v>
  <i type="string" name="LREAL">Auto</i>
  <i type="int" name="ISMEAR">     0</i>
  <i name="SIGMA">      0.05000000</i>
  <i type="logical" name="LWAVE"> F  </i>
  <i type="logical" name="LCHARG"> F  </i>
  <i type="logical" name="LASPH"> T  </i>
  <i type="int" name="IVDW">    12</i>
  <i name="SPRING">     -5.00000000</i>
 </incar>
 <primitive_cell>
  <structure name="primitive_cell" >
   <crystal>
    <varray name="basis" >
     <v>      17.27103806       0.00000000       0.00000000 </v>
     <v>      -8.63551903      14.95715771       0.00000000 </v>
     <v>       0.00000000       0.00000000      15.00000000 </v>
    </varray>
    <i name="volume">   3874.88459904 </i>
    <varray name="rec_basis" >
     <v>       0.05790040       0.03342881      -0.00000000 </v>
     <v>       0.00000000       0.06685762       0.00000000 </v>
     <v>       0.00000000      -0.00000000       0.06666667 </v>
    </varray>
   </crystal>
   <varray name="positions" >
    <v>       0.99888234       0.00151788       0.50258923 </v>
    <v>       0.99908722       0.14452403       0.50262829 </v>
    <v>       0.99992605       0.28818810       0.50267922 </v>
    <v>       0.00046828       0.43128815       0.50295949 </v>
    <v>       0.00093800       0.57409194       0.50294179 </v>
    <v>       0.00131455       0.71702809       0.50270617 </v>
    <v>       0.99981449       0.85956758       0.50264596 </v>
    <v>       0.14313140       0.00308833       0.50221600 </v>
    <v>       0.14273147       0.14535762       0.50291020 </v>
    <v>       0.14215738       0.28716033       0.50300745 </v>
    <v>       0.14383893       0.43135608       0.50323470 </v>
    <v>       0.14482776       0.57408119       0.50309461 </v>
    <v>       0.14429275       0.71699020       0.50253531 </v>
    <v>       0.14347128       0.86013115       0.50205439 </v>
    <v>       0.28621709       0.00339657       0.50274613 </v>
    <v>       0.28663016       0.14688432       0.50303630 </v>
    <v>       0.28745410       0.29220589       0.50374246 </v>
    <v>       0.28498719       0.42631767       0.50451206 </v>
    <v>       0.29012556       0.57428377       0.50511337 </v>
    <v>       0.28762553       0.71764494       0.50380256 </v>
    <v>       0.28647193       0.86051264       0.50292905 </v>
    <v>       0.42918459       0.00382005       0.50363520 </v>
    <v>       0.42920962       0.14767758       0.50389445 </v>
    <v>       0.42945231       0.86016830       0.50407290 </v>
    <v>       0.57141035       0.00325047       0.50386569 </v>
    <v>       0.57141553       0.14678814       0.50415781 </v>
    <v>       0.57363946       0.29366524       0.50517397 </v>
    <v>       0.57343618       0.85880510       0.50498710 </v>
    <v>       0.71357309       0.00233144       0.50378325 </v>
    <v>       0.71415555       0.14604309       0.50338558 </v>
    <v>       0.71389315       0.28923881       0.50445261 </v>
    <v>       0.71014419       0.42933004       0.50651556 </v>
    <v>       0.70861402       0.85776368       0.50682002 </v>
    <v>       0.85572853       0.00134760       0.50362332 </v>
    <v>       0.85658091       0.14519190       0.50285423 </v>
    <v>       0.85687370       0.28846252       0.50322012 </v>
    <v>       0.85704499       0.43145260       0.50417301 </v>
    <v>       0.85739920       0.57397773       0.50510734 </v>
    <v>       0.85826676       0.71636623       0.50583355 </v>
    <v>       0.85458021       0.85748273       0.50489005 </v>
    <v>       0.04705779       0.09713771       0.50262456 </v>
    <v>       0.04667926       0.23968712       0.50262631 </v>
    <v>       0.04805955       0.38370559       0.50286452 </v>
    <v>       0.04902837       0.52660817       0.50286333 </v>
    <v>       0.04885875       0.66944155       0.50252222 </v>
    <v>       0.04800719       0.81223313       0.50226271 </v>
    <v>       0.04742511       0.95471663       0.50232684 </v>
    <v>       0.19089447       0.09829249       0.50265009 </v>
    <v>       0.19079759       0.24068647       0.50332736 </v>
    <v>       0.18964363       0.38206050       0.50341608 </v>
    <v>       0.19323481       0.52686059       0.50359075 </v>
    <v>       0.19217962       0.66961142       0.50309655 </v>
    <v>       0.19138234       0.81256573       0.50237609 </v>
    <v>       0.19104617       0.95548922       0.50219840 </v>
    <v>       0.33401855       0.09920703       0.50319270 </v>
    <v>       0.33784851       0.24298358       0.50381511 </v>
    <v>       0.33929124       0.67318836       0.50484808 </v>
    <v>       0.33438885       0.81274593       0.50365813 </v>
    <v>       0.33378428       0.95579358       0.50310066 </v>
    <v>       0.47649955       0.09928121       0.50391358 </v>
    <v>       0.47415764       0.24387980       0.50458488 </v>
    <v>       0.47452048       0.80936597       0.50465200 </v>
    <v>       0.47654578       0.95580720       0.50390782 </v>
    <v>       0.61875407       0.09864209       0.50373973 </v>
    <v>       0.61869522       0.24252509       0.50465225 </v>
    <v>       0.61848559       0.95468298       0.50416141 </v>
    <v>       0.76146240       0.09806188       0.50313183 </v>
    <v>       0.76169764       0.24120383       0.50363501 </v>
    <v>       0.76121536       0.38431078       0.50509781 </v>
    <v>       0.76078253       0.52901157       0.50812461 </v>
    <v>       0.76301805       0.66504419       0.51105747 </v>
    <v>       0.75773104       0.80796578       0.50859763 </v>
    <v>       0.76025473       0.95391321       0.50456241 </v>
    <v>       0.90363557       0.09667366       0.50284926 </v>
    <v>       0.90445163       0.24067323       0.50278114 </v>
    <v>       0.90474822       0.38395364       0.50340139 </v>
    <v>       0.90532065       0.52667182       0.50384125 </v>
    <v>       0.90583031       0.66903735       0.50432728 </v>
    <v>       0.90407124       0.81142483       0.50427643 </v>
    <v>       0.90305119       0.95314579       0.50336075 </v>
    <v>       0.71564020       0.71397875       0.51469024 </v>
    <v>       0.33216746       0.52237431       0.50667348 </v>
    <v>       0.62785310       0.66582611       0.52497422 </v>
    <v>       0.42080416       0.56204099       0.51087921 </v>
    <v>       0.42784688       0.28788627       0.50492413 </v>
    <v>       0.42918803       0.71922114       0.50517930 </v>
    <v>       0.71705413       0.57434632       0.51285824 </v>
    <v>       0.33136755       0.38170961       0.50407329 </v>
    <v>       0.61999432       0.38413237       0.50597283 </v>
    <v>       0.61869327       0.81393972       0.50652902 </v>
    <v>       0.46315979       0.45025129       0.47476452 </v>
    <v>       0.55401709       0.45363229       0.48054900 </v>
    <v>       0.52712696       0.49001550       0.46511203 </v>
   </varray>
  </structure>
  <varray name="primitive_index" >
   <v type="int" >        1 </v>
   <v type="int" >        2 </v>
   <v type="int" >        3 </v>
   <v type="int" >        4 </v>
   <v type="int" >        5 </v>
   <v type="int" >        6 </v>
   <v type="int" >        7 </v>
   <v type="int" >        8 </v>
   <v type="int" >        9 </v>
   <v type="int" >       10 </v>
   <v type="int" >       11 </v>
   <v type="int" >       12 </v>
   <v type="int" >       13 </v>
   <v type="int" >       14 </v>
   <v type="int" >       15 </v>
   <v type="int" >       16 </v>
   <v type="int" >       17 </v>
   <v type="int" >       18 </v>
   <v type="int" >       19 </v>
   <v type="int" >       20 </v>
   <v type="int" >       21 </v>
   <v type="int" >       22 </v>
   <v type="int" >       23 </v>
   <v type="int" >       24 </v>
   <v type="int" >       25 </v>
   <v type="int" >       26 </v>
   <v type="int" >       27 </v>
   <v type="int" >       28 </v>
   <v type="int" >       29 </v>
   <v type="int" >       30 </v>
   <v type="int" >       31 </v>
   <v type="int" >       32 </v>
   <v type="int" >       33 </v>
   <v type="int" >       34 </v>
   <v type="int" >       35 </v>
   <v type="int" >       36 </v>
   <v type="int" >       37 </v>
   <v type="int" >       38 </v>
   <v type="int" >       39 </v>
   <v type="int" >       40 </v>
   <v type="int" >       41 </v>
   <v type="int" >       42 </v>
   <v type="int" >       43 </v>
   <v type="int" >       44 </v>
   <v type="int" >       45 </v>
   <v type="int" >       46 </v>
   <v type="int" >       47 </v>
   <v type="int" >       48 </v>
   <v type="int" >       49 </v>
   <v type="int" >       50 </v>
   <v type="int" >       51 </v>
   <v type="int" >       52 </v>
   <v type="int" >       53 </v>
   <v type="int" >       54 </v>
   <v type="int" >       55 </v>
   <v type="int" >       56 </v>
   <v type="int" >       57 </v>
   <v type="int" >       58 </v>
   <v type="int" >       59 </v>
   <v type="int" >       60 </v>
   <v type="int" >       61 </v>
   <v type="int" >       62 </v>
   <v type="int" >       63 </v>
   <v type="int" >       64 </v>
   <v type="int" >       65 </v>
   <v type="int" >       66 </v>
   <v type="int" >       67 </v>
   <v type="int" >       68 </v>
   <v type="int" >       69 </v>
   <v type="int" >       70 </v>
   <v type="int" >       71 </v>
   <v type="int" >       72 </v>
   <v type="int" >       73 </v>
   <v type="int" >       74 </v>
   <v type="int" >       75 </v>
   <v type="int" >       76 </v>
   <v type="int" >       77 </v>
   <v type="int" >       78 </v>
   <v type="int" >       79 </v>
   <v type="int" >       80 </v>
   <v type="int" >       81 </v>
   <v type="int" >       82 </v>
   <v type="int" >       83 </v>
   <v type="int" >       84 </v>
   <v type="int" >       85 </v>
   <v type="int" >       86 </v>
   <v type="int" >       87 </v>
   <v type="int" >       88 </v>
   <v type="int" >       89 </v>
   <v type="int" >       90 </v>
   <v type="int" >       91 </v>
   <v type="int" >       92 </v>
   <v type="int" >       93 </v>
  </varray>
 </primitive_cell>
 <kpoints>
  <generation param="Gamma">
   <v type="int" name="divisions">       2        2        1 </v>
   <v name="usershift">      0.00000000       0.00000000       0.00000000 </v>
   <v name="genvec1">      0.50000000       0.00000000       0.00000000 </v>
   <v name="genvec2">      0.00000000       0.50000000       0.00000000 </v>
   <v name="genvec3">      0.00000000       0.00000000       1.00000000 </v>
   <v name="shift">      0.00000000       0.00000000       0.00000000 </v>
  </generation>
  <varray name="kpointlist" >
   <v>       0.00000000       0.00000000       0.00000000 </v>
   <v>       0.50000000       0.00000000       0.00000000 </v>
   <v>       0.00000000       0.50000000       0.00000000 </v>
   <v>       0.50000000       0.50000000       0.00000000 </v>
  </varray>
  <varray name="weights" >
   <v>       0.25000000 </v>
   <v>       0.25000000 </v>
   <v>       0.25000000 </v>
   <v>       0.25000000 </v>
  </varray>
 </kpoints>
 <parameters>
  <separator name="general" >
   <i type="string" name="SYSTEM">unknown system</i>
   <i type="logical" name="LCOMPAT"> F  </i>
  </separator>
  <separator name="electronic" >
   <i type="string" name="PREC">normal</i>
   <i name="ENMAX">    520.00000000</i>
   <i name="ENAUG">    644.87300000</i>
   <i name="EDIFF">      0.00000100</i>
   <i type="int" name="IALGO">    38</i>
   <i type="int" name="IWAVPR">    11</i>
   <i type="int" name="NBANDS">   265</i>
   <i type="int" name="NBANDSLOW">    -1</i>
   <i type="int" name="NBANDSHIGH">    -1</i>
   <i name="NELECT">    380.00000000</i>
   <i type="int" name="TURBO">     0</i>
   <i type="int" name="IRESTART">     0</i>
   <i type="int" name="NREBOOT">     0</i>
   <i type="int" name="NMIN">     0</i>
   <i name="EREF">      0.00000000</i>
   <separator name="electronic smearing" >
    <i type="int" name="ISMEAR">     0</i>
    <i name="SIGMA">      0.05000000</i>
    <i name="KSPACING">      0.50000000</i>
    <i type="logical" name="KGAMMA"> T  </i>
    <i type="logical" name="KBLOWUP"> T  </i>
   </separator>
   <separator name="electronic projectors" >
    <i type="logical" name="LREAL"> T  </i>
    <v name="ROPT">     -0.00050000     -0.00050000     -0.00050000     -0.00050000     -0.00050000</v>
    <i type="int" name="LMAXPAW">  -100</i>
    <i type="int" name="LMAXMIX">     2</i>
    <i type="logical" name="NLSPLINE"> F  </i>
   </separator>
   <separator name="electronic startup" >
    <i type="int" name="ISTART">     0</i>
    <i type="int" name="ICHARG">     2</i>
    <i type="int" name="INIWAV">     1</i>
   </separator>
   <separator name="electronic spin" >
    <i type="int" name="ISPIN">     2</i>
    <i type="logical" name="LNONCOLLINEAR"> F  </i>
    <v name="MAGMOM">      0.60000000      0.60000000      0.60000000      0.60000000      0.60000000      0.60000000      0.60000000      0.60000000      0.60000000      0.60000000      0.60000000      0.60000000      0.60000000      0.60000000      0.60000000      0.60000000      0.60000000      0.60000000      0.60000000      0.60000000
      0.60000000      0.60000000      0.60000000      0.60000000      0.60000000      0.60000000      0.60000000      0.60000000      0.60000000      0.60000000      0.60000000      0.60000000      0.60000000      0.60000000      0.60000000      0.60000000      0.60000000      0.60000000      0.60000000      0.60000000
      0.60000000      0.60000000      0.60000000      0.60000000      0.60000000      0.60000000      0.60000000      0.60000000      0.60000000      0.60000000      0.60000000      0.60000000      0.60000000      0.60000000      0.60000000      0.60000000      0.60000000      0.60000000      0.60000000      0.60000000
      0.60000000      0.60000000      0.60000000      0.60000000      0.60000000      0.60000000      0.60000000      0.60000000      0.60000000      0.60000000      0.60000000      0.60000000      0.60000000      0.60000000      0.60000000      0.60000000      0.60000000      0.60000000      0.60000000      0.60000000
      0.60000000      0.60000000      0.60000000      0.60000000      0.60000000      0.60000000      0.60000000      0.60000000      0.60000000      0.60000000      0.60000000      0.60000000      0.60000000</v>
    <i name="NUPDOWN">     -1.00000000</i>
    <i type="logical" name="LSORBIT"> F  </i>
    <v name="SAXIS">      0.00000000      0.00000000      1.00000000</v>
    <i type="logical" name="LSPIRAL"> F  </i>
    <v name="QSPIRAL">      0.00000000      0.00000000      0.00000000</v>
    <i type="logical" name="LZEROZ"> F  </i>
   </separator>
   <separator name="electronic exchange-correlation" >
    <i type="logical" name="LASPH"> T  </i>
    <i type="logical" name="LMETAGGA"> F  </i>
   </separator>
   <separator name="electronic convergence" >
    <i type="int" name="NELM">   200</i>
    <i type="int" name="NELMDL">    -5</i>
    <i type="int" name="NELMIN">     2</i>
    <i name="ENINI">    520.00000000</i>
    <separator name="electronic convergence detail" >
     <i type="logical" name="LDIAG"> T  </i>
     <i type="logical" name="LSUBROT"> F  </i>
     <i name="WEIMIN">      0.00100000</i>
     <i name="EBREAK">      0.00000000</i>
     <i name="DEPER">      0.30000000</i>
     <i type="int" name="NRMM">     4</i>
     <i name="TIME">      0.40000000</i>
    </separator>
   </separator>
   <separator name="electronic mixer" >
    <i name="AMIX">      0.20000000</i>
    <i name="BMIX">      0.00010000</i>
    <i name="AMIN">      0.10000000</i>
    <i name="AMIX_MAG">      0.80000000</i>
    <i name="BMIX_MAG">      0.00010000</i>
    <separator name="electronic mixer details" >
     <i type="int" name="IMIX">     4</i>
     <i type="logical" name="MIXFIRST"> F  </i>
     <i type="int" name="MAXMIX">   -45</i>
     <i name="WC">    100.00000000</i>
     <i type="int" name="INIMIX">     1</i>
     <i type="int" name="MIXPRE">     1</i>
     <i type="int" name="MREMOVE">     5</i>
    </separator>
   </separator>
   <separator name="electronic dipolcorrection" >
    <i type="logical" name="LDIPOL"> F  </i>
    <i type="logical" name="LMONO"> F  </i>
    <i type="int" name="IDIPOL">     0</i>
    <i name="EPSILON">      1.00000000</i>
    <v name="DIPOL">   -100.00000000   -100.00000000   -100.00000000</v>
    <i name="EFIELD">      0.00000000</i>
   </separator>
  </separator>
  <separator name="grids" >
   <i type="int" name="NGX">    96</i>
   <i type="int" name="NGY">    96</i>
   <i type="int" name="NGZ">    84</i>
   <i type="int" name="NGXF">   192</i>
   <i type="int" name="NGYF">   192</i>
   <i type="int" name="NGZF">   168</i>
   <i type="logical" name="ADDGRID"> T  </i>
  </separator>
  <separator name="ionic" >
   <i type="int" name="NSW">   300</i>
   <i type="int" name="IBRION">     3</i>
   <i type="int" name="MDALGO">     0</i>
   <i type="int" name="ISIF">     2</i>
   <i name="PSTRESS">      0.00000000</i>
   <i name="EDIFFG">     -0.03000000</i>
   <i type="int" name="NFREE">     0</i>
   <i name="POTIM">      0.10000000</i>
   <i name="SMASS">     -3.00000000</i>
   <i name="SCALEE">      1.00000000</i>
  </separator>
  <separator name="ionic md" >
   <i name="TEBEG">      0.00010000</i>
   <i name="TEEND">      0.00010000</i>
   <i type="int" name="NBLOCK">     1</i>
   <i type="int" name="KBLOCK">   300</i>
   <i type="int" name="NPACO">   256</i>
   <i name="APACO">     10.00000000</i>
  </separator>
  <separator name="symmetry" >
   <i type="int" name="ISYM">     0</i>
   <i name="SYMPREC">      0.00001000</i>
  </separator>
  <separator name="dos" >
   <i type="int" name="LORBIT">     0</i>
   <v name="RWIGS">     -1.00000000     -1.00000000     -1.00000000     -1.00000000     -1.00000000</v>
   <i type="int" name="NEDOS">   301</i>
   <i name="EMIN">     10.00000000</i>
   <i name="EMAX">    -10.00000000</i>
   <i name="EFERMI">      0.00000000</i>
  </separator>
  <separator name="writing" >
   <i type="int" name="NWRITE">     2</i>
   <i type="logical" name="LWAVE"> F  </i>
   <i type="logical" name="LDOWNSAMPLE"> F  </i>
   <i type="logical" name="LCHARG"> F  </i>
   <i type="logical" name="LPARD"> F  </i>
   <i type="logical" name="LVTOT"> F  </i>
   <i type="logical" name="LVHAR"> F  </i>
   <i type="logical" name="LELF"> F  </i>
   <i type="logical" name="LOPTICS"> F  </i>
   <v name="STM">      0.00000000      0.00000000      0.00000000      0.00000000      0.00000000      0.00000000      0.00000000</v>
  </separator>
  <separator name="performance" >
   <i type="int" name="NPAR">     5</i>
   <i type="int" name="NSIM">     4</i>
   <i type="int" name="NBLK">    -1</i>
   <i type="logical" name="LPLANE"> T  </i>
   <i type="logical" name="LSCALAPACK"> T  </i>
   <i type="logical" name="LSCAAWARE"> F  </i>
   <i type="logical" name="LSCALU"> F  </i>
   <i type="logical" name="LASYNC"> F  </i>
   <i type="logical" name="LORBITALREAL"> F  </i>
  </separator>
  <separator name="miscellaneous" >
   <i type="int" name="IDIOT">     3</i>
   <i type="int" name="PHON_NSTRUCT">    -1</i>
   <i type="logical" name="LMUSIC"> F  </i>
   <v name="POMASS">     12.01100000     18.99800000     14.00100000      1.00000000     16.00000000</v>
   <v name="DARWINR">      0.00000000      0.00000000      0.00000000      0.00000000      0.00000000</v>
   <v name="DARWINV">      1.00000000      1.00000000      1.00000000      1.00000000      1.00000000</v>
   <i type="logical" name="LCORR"> T  </i>
  </separator>
  <i type="logical" name="GGA_COMPAT"> T  </i>
  <i type="logical" name="LBERRY"> F  </i>
  <i type="int" name="ICORELEVEL">     0</i>
  <i type="logical" name="LDAU"> F  </i>
  <i type="int" name="I_CONSTRAINED_M">     0</i>
  <separator name="electronic exchange-correlation" >
   <i type="string" name="GGA">--</i>
   <i type="int" name="VOSKOWN">     0</i>
   <i type="logical" name="LHFCALC"> F  </i>
   <i type="string" name="PRECFOCK"></i>
   <i type="logical" name="LSYMGRAD"> F  </i>
   <i type="logical" name="LHFONE"> F  </i>
   <i type="logical" name="LRHFCALC"> F  </i>
   <i type="logical" name="LTHOMAS"> F  </i>
   <i type="logical" name="LMODELHF"> F  </i>
   <i type="logical" name="LFOCKACE"> F  </i>
   <i name="ENCUT4O">     -1.00000000</i>
   <i type="int" name="EXXOEP">     0</i>
   <i type="int" name="FOURORBIT">     0</i>
   <i name="AEXX">      0.00000000</i>
   <i name="HFALPHA">      0.00000000</i>
   <i name="MCALPHA">      0.00000000</i>
   <i name="ALDAX">      1.00000000</i>
   <i name="AGGAX">      1.00000000</i>
   <i name="ALDAC">      1.00000000</i>
   <i name="AGGAC">      1.00000000</i>
   <i type="int" name="NKREDX">     1</i>
   <i type="int" name="NKREDY">     1</i>
   <i type="int" name="NKREDZ">     1</i>
   <i type="logical" name="SHIFTRED"> F  </i>
   <i type="logical" name="ODDONLY"> F  </i>
   <i type="logical" name="EVENONLY"> F  </i>
   <i type="int" name="LMAXFOCK">     0</i>
   <i type="int" name="NMAXFOCKAE">     0</i>
   <i type="logical" name="LFOCKAEDFT"> F  </i>
   <i name="HFSCREEN">      0.00000000</i>
   <i name="HFSCREENC">      0.00000000</i>
   <i type="int" name="NBANDSGWLOW">     0</i>
  </separator>
  <separator name="vdW DFT" >
   <i type="logical" name="LUSE_VDW"> F  </i>
   <i type="int" name="IVDW_NL">     1</i>
   <i type="logical" name="LSPIN_VDW"> F  </i>
   <i name="Zab_VDW">     -0.84910000</i>
   <i name="PARAM1">      0.12340000</i>
   <i name="PARAM2">      1.00000000</i>
   <i name="PARAM3">      0.00000000</i>
  </separator>
  <separator name="model GW" >
   <i type="int" name="MODEL_GW">     0</i>
   <i name="MODEL_EPS0">     24.99925548</i>
   <i name="MODEL_ALPHA">      1.00000000</i>
  </separator>
  <separator name="linear response parameters" >
   <i type="logical" name="LEPSILON"> F  </i>
   <i type="logical" name="LRPA"> F  </i>
   <i type="logical" name="LNABLA"> F  </i>
   <i type="logical" name="LVEL"> F  </i>
   <i name="CSHIFT">      0.10000000</i>
   <i name="OMEGAMAX">     -1.00000000</i>
   <i name="DEG_THRESHOLD">      0.00200000</i>
   <i name="RTIME">     -0.10000000</i>
   <i name="WPLASMAI">      0.00000000</i>
   <v name="DFIELD">      0.00000000      0.00000000      0.00000000</v>
   <v name="WPLASMA">      0.00000000      0.00000000      0.00000000      0.00000000      0.00000000      0.00000000      0.00000000      0.00000000      0.00000000</v>
  </separator>
  <separator name="orbital magnetization" >
   <i type="logical" name="NUCIND"> F  </i>
   <v name="MAGPOS">      0.00000000      0.00000000      0.00000000</v>
   <i type="logical" name="LNICSALL"> T  </i>
   <i type="logical" name="ORBITALMAG"> F  </i>
   <i type="logical" name="LMAGBLOCH"> F  </i>
   <i type="logical" name="LCHIMAG"> F  </i>
   <i type="logical" name="LGAUGE"> T  </i>
   <i type="int" name="MAGATOM">     0</i>
   <v name="MAGDIPOL">      0.00000000      0.00000000      0.00000000</v>
   <v name="AVECCONST">      0.00000000      0.00000000      0.00000000</v>
  </separator>
  <separator name="response functions" >
   <i type="logical" name="LALL_IN_ONE"> F  </i>
   <i type="int" name="IALL_IN_ONE">    -1</i>
   <i type="int" name="NBANDS_WAVE">    -1</i>
   <i type="logical" name="LFINITE_TEMPERATURE"> F  </i>
   <i type="logical" name="LADDER"> F  </i>
   <i type="logical" name="LRPAFORCE"> F  </i>
   <i type="logical" name="LFXC"> F  </i>
   <i type="logical" name="LHARTREE"> T  </i>
   <i type="int" name="IBSE">     0</i>
   <v type="int" name="KPOINT">    -1     0     0     0</v>
   <i type="logical" name="LTCTC"> F  </i>
   <i type="logical" name="LTCTE"> F  </i>
   <i type="logical" name="LTETE"> F  </i>
   <i type="logical" name="LTRIPLET"> F  </i>
   <i type="logical" name="LFXCEPS"> F  </i>
   <i type="logical" name="LFXHEG"> F  </i>
   <i type="int" name="NATURALO">     2</i>
   <i type="logical" name="LHOLEGF"> F  </i>
   <i type="logical" name="L2ORDER"> F  </i>
   <i type="logical" name="LDMP1"> F  </i>
   <i type="logical" name="LMP2LT"> F  </i>
   <i type="logical" name="LSMP2LT"> F  </i>
   <i type="logical" name="LGWLF"> F  </i>
   <i name="ENCUTGW">     -1.60000002</i>
   <i name="ENCUTGWSOFT">     -1.60000002</i>
   <i name="ENCUTLF">     -1.00000000</i>
   <i type="logical" name="LESF_SPLINES"> F  </i>
   <i type="int" name="LMAXMP2">    -1</i>
   <i name="SCISSOR">      0.00000000</i>
   <i type="int" name="NOMEGA">     0</i>
   <i type="int" name="NOMEGAR">     0</i>
   <i type="int" name="NBANDSGW">    -1</i>
   <i type="int" name="NBANDSO">    -1</i>
   <i type="int" name="NBANDSV">    -1</i>
   <i type="int" name="NELMGW">     1</i>
   <i type="int" name="NELMHF">     1</i>
   <i type="int" name="DIM">     3</i>
   <i type="int" name="IESPILON">     4</i>
   <i type="int" name="ANTIRES">     0</i>
   <i name="OMEGAMAX">    -30.00000000</i>
   <i name="OMEGAMIN">    -30.00000000</i>
   <i name="OMEGATL">   -200.00000000</i>
   <i type="int" name="OMEGAGRID">     0</i>
   <i name="CSHIFT">     -0.10000000</i>
   <i type="logical" name="LSELFENERGY"> F  </i>
   <i type="logical" name="LSPECTRAL"> F  </i>
   <i type="logical" name="LSPECTRALGW"> F  </i>
   <i type="logical" name="LSINGLES"> F  </i>
   <i type="logical" name="LFERMIGW"> F  </i>
   <i type="logical" name="ODDONLYGW"> F  </i>
   <i type="logical" name="EVENONLYGW"> F  </i>
   <i type="int" name="NKREDLFX">     1</i>
   <i type="int" name="NKREDLFY">     1</i>
   <i type="int" name="NKREDLFZ">     1</i>
   <i type="int" name="MAXMEM">  2800</i>
   <i type="int" name="TELESCOPE">     0</i>
   <i type="int" name="NTAUPAR">    -1</i>
   <i type="int" name="NOMEGAPAR">    -1</i>
   <i name="DAMP_NEWTON">      0.80000001</i>
   <i name="LAMBDA">      1.00000000</i>
  </separator>
  <separator name="External order field" >
   <i name="OFIELD_KAPPA">      0.00000000</i>
   <v name="OFIELD_K">      0.00000000      0.00000000      0.00000000</v>
   <i name="OFIELD_Q6_NEAR">      0.00000000</i>
   <i name="OFIELD_Q6_FAR">      0.00000000</i>
   <i name="OFIELD_A">      0.00000000</i>
  </separator>
  <separator name="optional k-points parameters" >
   <i type="int" name="KPOINTS_OPT_MODE">     1</i>
   <i type="logical" name="LKPOINTS_OPT"> F  </i>
  </separator>
 </parameters>
 <atominfo>
  <atoms>      93 </atoms>
  <types>       5 </types>
  <array name="atoms" >
   <dimension dim="1">ion</dimension>
   <field type="string">element</field>
   <field type="int">atomtype</field>
   <set>
    <rc><c>C </c><c>   1</c></rc>
    <rc><c>C </c><c>   1</c></rc>
    <rc><c>C </c><c>   1</c></rc>
    <rc><c>C </c><c>   1</c></rc>
    <rc><c>C </c><c>   1</c></rc>
    <rc><c>C </c><c>   1</c></rc>
    <rc><c>C </c><c>   1</c></rc>
    <rc><c>C </c><c>   1</c></rc>
    <rc><c>C </c><c>   1</c></rc>
    <rc><c>C </c><c>   1</c></rc>
    <rc><c>C </c><c>   1</c></rc>
    <rc><c>C </c><c>   1</c></rc>
    <rc><c>C </c><c>   1</c></rc>
    <rc><c>C </c><c>   1</c></rc>
    <rc><c>C </c><c>   1</c></rc>
    <rc><c>C </c><c>   1</c></rc>
    <rc><c>C </c><c>   1</c></rc>
    <rc><c>C </c><c>   1</c></rc>
    <rc><c>C </c><c>   1</c></rc>
    <rc><c>C </c><c>   1</c></rc>
    <rc><c>C </c><c>   1</c></rc>
    <rc><c>C </c><c>   1</c></rc>
    <rc><c>C </c><c>   1</c></rc>
    <rc><c>C </c><c>   1</c></rc>
    <rc><c>C </c><c>   1</c></rc>
    <rc><c>C </c><c>   1</c></rc>
    <rc><c>C </c><c>   1</c></rc>
    <rc><c>C </c><c>   1</c></rc>
    <rc><c>C </c><c>   1</c></rc>
    <rc><c>C </c><c>   1</c></rc>
    <rc><c>C </c><c>   1</c></rc>
    <rc><c>C </c><c>   1</c></rc>
    <rc><c>C </c><c>   1</c></rc>
    <rc><c>C </c><c>   1</c></rc>
    <rc><c>C </c><c>   1</c></rc>
    <rc><c>C </c><c>   1</c></rc>
    <rc><c>C </c><c>   1</c></rc>
    <rc><c>C </c><c>   1</c></rc>
    <rc><c>C </c><c>   1</c></rc>
    <rc><c>C </c><c>   1</c></rc>
    <rc><c>C </c><c>   1</c></rc>
    <rc><c>C </c><c>   1</c></rc>
    <rc><c>C </c><c>   1</c></rc>
    <rc><c>C </c><c>   1</c></rc>
    <rc><c>C </c><c>   1</c></rc>
    <rc><c>C </c><c>   1</c></rc>
    <rc><c>C </c><c>   1</c></rc>
    <rc><c>C </c><c>   1</c></rc>
    <rc><c>C </c><c>   1</c></rc>
    <rc><c>C </c><c>   1</c></rc>
    <rc><c>C </c><c>   1</c></rc>
    <rc><c>C </c><c>   1</c></rc>
    <rc><c>C </c><c>   1</c></rc>
    <rc><c>C </c><c>   1</c></rc>
    <rc><c>C </c><c>   1</c></rc>
    <rc><c>C </c><c>   1</c></rc>
    <rc><c>C </c><c>   1</c></rc>
    <rc><c>C </c><c>   1</c></rc>
    <rc><c>C </c><c>   1</c></rc>
    <rc><c>C </c><c>   1</c></rc>
    <rc><c>C </c><c>   1</c></rc>
    <rc><c>C </c><c>   1</c></rc>
    <rc><c>C </c><c>   1</c></rc>
    <rc><c>C </c><c>   1</c></rc>
    <rc><c>C </c><c>   1</c></rc>
    <rc><c>C </c><c>   1</c></rc>
    <rc><c>C </c><c>   1</c></rc>
    <rc><c>C </c><c>   1</c></rc>
    <rc><c>C </c><c>   1</c></rc>
    <rc><c>C </c><c>   1</c></rc>
    <rc><c>C </c><c>   1</c></rc>
    <rc><c>C </c><c>   1</c></rc>
    <rc><c>C </c><c>   1</c></rc>
    <rc><c>C </c><c>   1</c></rc>
    <rc><c>C </c><c>   1</c></rc>
    <rc><c>C </c><c>   1</c></rc>
    <rc><c>C </c><c>   1</c></rc>
    <rc><c>C </c><c>   1</c></rc>
    <rc><c>C </c><c>   1</c></rc>
    <rc><c>C </c><c>   1</c></rc>
    <rc><c>C </c><c>   1</c></rc>
    <rc><c>C </c><c>   1</c></rc>
    <rc><c>F </c><c>   2</c></rc>
    <rc><c>F </c><c>   2</c></rc>
    <rc><c>N </c><c>   3</c></rc>
    <rc><c>N </c><c>   3</c></rc>
    <rc><c>N </c><c>   3</c></rc>
    <rc><c>N </c><c>   3</c></rc>
    <rc><c>N </c><c>   3</c></rc>
    <rc><c>N </c><c>   3</c></rc>
    <rc><c>H </c><c>   4</c></rc>
    <rc><c>H </c><c>   4</c></rc>
    <rc><c>O </c><c>   5</c></rc>
   </set>
  </array>
  <array name="atomtypes" >
   <dimension dim="1">type</dimension>
   <field type="int">atomspertype</field>
   <field type="string">element</field>
   <field>mass</field>
   <field>valence</field>
   <field type="string">pseudopotential</field>
   <set>
    <rc><c>  82</c><c>C </c><c>     12.01100000</c><c>      4.00000000</c><c>  PAW_PBE C 08Apr2002                   </c></rc>
    <rc><c>   2</c><c>F </c><c>     18.99800000</c><c>      7.00000000</c><c>  PAW_PBE F 08Apr2002                   </c></rc>
    <rc><c>   6</c><c>N </c><c>     14.00100000</c><c>      5.00000000</c><c>  PAW_PBE N 08Apr2002                   </c></rc>
    <rc><c>   2</c><c>H </c><c>      1.00000000</c><c>      1.00000000</c><c>  PAW_PBE H 15Jun2001                   </c></rc>
    <rc><c>   1</c><c>O </c><c>     16.00000000</c><c>      6.00000000</c><c>  PAW_PBE O 08Apr2002                   </c></rc>
   </set>
  </array>
 </atominfo>
 <structure name="initialpos" >
  <crystal>
   <varray name="basis" >
    <v>      17.27103806       0.00000000       0.00000000 </v>
    <v>      -8.63551903      14.95715771       0.00000000 </v>
    <v>       0.00000000       0.00000000      15.00000000 </v>
   </varray>
   <i name="volume">   3874.88459904 </i>
   <varray name="rec_basis" >
    <v>       0.05790040       0.03342881      -0.00000000 </v>
    <v>       0.00000000       0.06685762       0.00000000 </v>
    <v>       0.00000000      -0.00000000       0.06666667 </v>
   </varray>
  </crystal>
  <varray name="positions" >
   <v>       0.99888234       0.00151788       0.50258923 </v>
   <v>       0.99908722       0.14452403       0.50262829 </v>
   <v>       0.99992605       0.28818810       0.50267922 </v>
   <v>       0.00046828       0.43128815       0.50295949 </v>
   <v>       0.00093800       0.57409194       0.50294179 </v>
   <v>       0.00131455       0.71702809       0.50270617 </v>
   <v>       0.99981449       0.85956758       0.50264596 </v>
   <v>       0.14313140       0.00308833       0.50221600 </v>
   <v>       0.14273147       0.14535762       0.50291020 </v>
   <v>       0.14215738       0.28716033       0.50300745 </v>
   <v>       0.14383893       0.43135608       0.50323470 </v>
   <v>       0.14482776       0.57408119       0.50309461 </v>
   <v>       0.14429275       0.71699020       0.50253531 </v>
   <v>       0.14347128       0.86013115       0.50205439 </v>
   <v>       0.28621709       0.00339657       0.50274613 </v>
   <v>       0.28663016       0.14688432       0.50303630 </v>
   <v>       0.28745410       0.29220589       0.50374246 </v>
   <v>       0.28498719       0.42631767       0.50451206 </v>
   <v>       0.29012556       0.57428377       0.50511337 </v>
   <v>       0.28762553       0.71764494       0.50380256 </v>
   <v>       0.28647193       0.86051264       0.50292905 </v>
   <v>       0.42918459       0.00382005       0.50363520 </v>
   <v>       0.42920962       0.14767758       0.50389445 </v>
   <v>       0.42945231       0.86016830       0.50407290 </v>
   <v>       0.57141035       0.00325047       0.50386569 </v>
   <v>       0.57141553       0.14678814       0.50415781 </v>
   <v>       0.57363946       0.29366524       0.50517397 </v>
   <v>       0.57343618       0.85880510       0.50498710 </v>
   <v>       0.71357309       0.00233144       0.50378325 </v>
   <v>       0.71415555       0.14604309       0.50338558 </v>
   <v>       0.71389315       0.28923881       0.50445261 </v>
   <v>       0.71014419       0.42933004       0.50651556 </v>
   <v>       0.70861402       0.85776368       0.50682002 </v>
   <v>       0.85572853       0.00134760       0.50362332 </v>
   <v>       0.85658091       0.14519190       0.50285423 </v>
   <v>       0.85687370       0.28846252       0.50322012 </v>
   <v>       0.85704499       0.43145260       0.50417301 </v>
   <v>       0.85739920       0.57397773       0.50510734 </v>
   <v>       0.85826676       0.71636623       0.50583355 </v>
   <v>       0.85458021       0.85748273       0.50489005 </v>
   <v>       0.04705779       0.09713771       0.50262456 </v>
   <v>       0.04667926       0.23968712       0.50262631 </v>
   <v>       0.04805955       0.38370559       0.50286452 </v>
   <v>       0.04902837       0.52660817       0.50286333 </v>
   <v>       0.04885875       0.66944155       0.50252222 </v>
   <v>       0.04800719       0.81223313       0.50226271 </v>
   <v>       0.04742511       0.95471663       0.50232684 </v>
   <v>       0.19089447       0.09829249       0.50265009 </v>
   <v>       0.19079759       0.24068647       0.50332736 </v>
   <v>       0.18964363       0.38206050       0.50341608 </v>
   <v>       0.19323481       0.52686059       0.50359075 </v>
   <v>       0.19217962       0.66961142       0.50309655 </v>
   <v>       0.19138234       0.81256573       0.50237609 </v>
   <v>       0.19104617       0.95548922       0.50219840 </v>
   <v>       0.33401855       0.09920703       0.50319270 </v>
   <v>       0.33784851       0.24298358       0.50381511 </v>
   <v>       0.33929124       0.67318836       0.50484808 </v>
   <v>       0.33438885       0.81274593       0.50365813 </v>
   <v>       0.33378428       0.95579358       0.50310066 </v>
   <v>       0.47649955       0.09928121       0.50391358 </v>
   <v>       0.47415764       0.24387980       0.50458488 </v>
   <v>       0.47452048       0.80936597       0.50465200 </v>
   <v>       0.47654578       0.95580720       0.50390782 </v>
   <v>       0.61875407       0.09864209       0.50373973 </v>
   <v>       0.61869522       0.24252509       0.50465225 </v>
   <v>       0.61848559       0.95468298       0.50416141 </v>
   <v>       0.76146240       0.09806188       0.50313183 </v>
   <v>       0.76169764       0.24120383       0.50363501 </v>
   <v>       0.76121536       0.38431078       0.50509781 </v>
   <v>       0.76078253       0.52901157       0.50812461 </v>
   <v>       0.76301805       0.66504419       0.51105747 </v>
   <v>       0.75773104       0.80796578       0.50859763 </v>
   <v>       0.76025473       0.95391321       0.50456241 </v>
   <v>       0.90363557       0.09667366       0.50284926 </v>
   <v>       0.90445163       0.24067323       0.50278114 </v>
   <v>       0.90474822       0.38395364       0.50340139 </v>
   <v>       0.90532065       0.52667182       0.50384125 </v>
   <v>       0.90583031       0.66903735       0.50432728 </v>
   <v>       0.90407124       0.81142483       0.50427643 </v>
   <v>       0.90305119       0.95314579       0.50336075 </v>
   <v>       0.71564020       0.71397875       0.51469024 </v>
   <v>       0.33216746       0.52237431       0.50667348 </v>
   <v>       0.62785310       0.66582611       0.52497422 </v>
   <v>       0.42080416       0.56204099       0.51087921 </v>
   <v>       0.42784688       0.28788627       0.50492413 </v>
   <v>       0.42918803       0.71922114       0.50517930 </v>
   <v>       0.71705413       0.57434632       0.51285824 </v>
   <v>       0.33136755       0.38170961       0.50407329 </v>
   <v>       0.61999432       0.38413237       0.50597283 </v>
   <v>       0.61869327       0.81393972       0.50652902 </v>
   <v>       0.46315979       0.45025129       0.47476452 </v>
   <v>       0.55401709       0.45363229       0.48054900 </v>
   <v>       0.52712696       0.49001550       0.46511203 </v>
  </varray>
  <varray name="selective"  type="logical" >
   <v type="logical" >  T  T  T </v>
   <v type="logical" >  T  T  T </v>
   <v type="logical" >  T  T  T </v>
   <v type="logical" >  T  T  T </v>
   <v type="logical" >  T  T  T </v>
   <v type="logical" >  T  T  T </v>
   <v type="logical" >  T  T  T </v>
   <v type="logical" >  T  T  T </v>
   <v type="logical" >  T  T  T </v>
   <v type="logical" >  T  T  T </v>
   <v type="logical" >  T  T  T </v>
   <v type="logical" >  T  T  T </v>
   <v type="logical" >  T  T  T </v>
   <v type="logical" >  T  T  T </v>
   <v type="logical" >  T  T  T </v>
   <v type="logical" >  T  T  T </v>
   <v type="logical" >  T  T  T </v>
   <v type="logical" >  T  T  T </v>
   <v type="logical" >  T  T  T </v>
   <v type="logical" >  T  T  T </v>
   <v type="logical" >  T  T  T </v>
   <v type="logical" >  T  T  T </v>
   <v type="logical" >  T  T  T </v>
   <v type="logical" >  T  T  T </v>
   <v type="logical" >  T  T  T </v>
   <v type="logical" >  T  T  T </v>
   <v type="logical" >  T  T  T </v>
   <v type="logical" >  T  T  T </v>
   <v type="logical" >  T  T  T </v>
   <v type="logical" >  T  T  T </v>
   <v type="logical" >  T  T  T </v>
   <v type="logical" >  T  T  T </v>
   <v type="logical" >  T  T  T </v>
   <v type="logical" >  T  T  T </v>
   <v type="logical" >  T  T  T </v>
   <v type="logical" >  T  T  T </v>
   <v type="logical" >  T  T  T </v>
   <v type="logical" >  T  T  T </v>
   <v type="logical" >  T  T  T </v>
   <v type="logical" >  T  T  T </v>
   <v type="logical" >  T  T  T </v>
   <v type="logical" >  T  T  T </v>
   <v type="logical" >  T  T  T </v>
   <v type="logical" >  T  T  T </v>
   <v type="logical" >  T  T  T </v>
   <v type="logical" >  T  T  T </v>
   <v type="logical" >  T  T  T </v>
   <v type="logical" >  T  T  T </v>
   <v type="logical" >  T  T  T </v>
   <v type="logical" >  T  T  T </v>
   <v type="logical" >  T  T  T </v>
   <v type="logical" >  T  T  T </v>
   <v type="logical" >  T  T  T </v>
   <v type="logical" >  T  T  T </v>
   <v type="logical" >  T  T  T </v>
   <v type="logical" >  T  T  T </v>
   <v type="logical" >  T  T  T </v>
   <v type="logical" >  T  T  T </v>
   <v type="logical" >  T  T  T </v>
   <v type="logical" >  T  T  T </v>
   <v type="logical" >  T  T  T </v>
   <v type="logical" >  T  T  T </v>
   <v type="logical" >  T  T  T </v>
   <v type="logical" >  T  T  T </v>
   <v type="logical" >  T  T  T </v>
   <v type="logical" >  T  T  T </v>
   <v type="logical" >  T  T  T </v>
   <v type="logical" >  T  T  T </v>
   <v type="logical" >  T  T  T </v>
   <v type="logical" >  T  T  T </v>
   <v type="logical" >  T  T  T </v>
   <v type="logical" >  T  T  T </v>
   <v type="logical" >  T  T  T </v>
   <v type="logical" >  T  T  T </v>
   <v type="logical" >  T  T  T </v>
   <v type="logical" >  T  T  T </v>
   <v type="logical" >  T  T  T </v>
   <v type="logical" >  T  T  T </v>
   <v type="logical" >  T  T  T </v>
   <v type="logical" >  T  T  T </v>
   <v type="logical" >  T  T  T </v>
   <v type="logical" >  T  T  T </v>
   <v type="logical" >  T  T  T </v>
   <v type="logical" >  T  T  T </v>
   <v type="logical" >  T  T  T </v>
   <v type="logical" >  T  T  T </v>
   <v type="logical" >  T  T  T </v>
   <v type="logical" >  T  T  T </v>
   <v type="logical" >  T  T  T </v>
   <v type="logical" >  T  T  T </v>
   <v type="logical" >  T  T  T </v>
   <v type="logical" >  T  T  T </v>
   <v type="logical" >  T  T  F </v>
  </varray>
  <nose>
   <v>      -3.00000000       0.00000000       0.00010000       0.00010000 </v>
  </nose>
 </structure>
 <calculation>
  <scstep>
   <time name="dav">   73.21   73.71</time>
   <time name="total">   80.10   80.68</time>
   <energy>
    <i name="alphaZ">    185.49599500 </i>
    <i name="ewald">  38090.05789278 </i>
    <i name="hartreedc"> -49866.80736733 </i>
    <i name="XCdc">   1308.90698711 </i>
    <i name="pawpsdc">  11553.19479004 </i>
    <i name="pawaedc"> -11618.78033184 </i>
    <i name="eentropy">     -0.04019522 </i>
    <i name="bandstr">  -1587.50633466 </i>
    <i name="atom">  15429.98794498 </i>
    <i name="e_fr_energy">   3494.50938085 </i>
    <i name="e_wo_entrp">   3494.54957607 </i>
    <i name="e_0_energy">   3494.52947846 </i>
   </energy>
  </scstep>
  <scstep>
   <time name="dav">   93.91   94.59</time>
   <time name="total">   93.91   94.59</time>
   <energy>
    <i name="e_fr_energy">   -184.45808739 </i>
    <i name="e_wo_entrp">   -184.45199372 </i>
    <i name="e_0_energy">   -184.45504055 </i>
   </energy>
  </scstep>
  <scstep>
   <time name="dav">   80.15   80.65</time>
   <time name="total">   80.15   80.65</time>
   <energy>
    <i name="e_fr_energy">   -840.83766518 </i>
    <i name="e_wo_entrp">   -840.83488936 </i>
    <i name="e_0_energy">   -840.83627727 </i>
   </energy>
  </scstep>
  <scstep>
   <time name="dav">   79.33   79.87</time>
   <time name="total">   79.34   79.87</time>
   <energy>
    <i name="e_fr_energy">   -863.47338894 </i>
    <i name="e_wo_entrp">   -863.47047997 </i>
    <i name="e_0_energy">   -863.47193445 </i>
   </energy>
  </scstep>
  <scstep>
   <time name="dav">   89.37   89.91</time>
   <time name="total">   95.16   95.74</time>
   <energy>
    <i name="e_fr_energy">   -864.19258379 </i>
    <i name="e_wo_entrp">   -864.18963140 </i>
    <i name="e_0_energy">   -864.19110760 </i>
   </energy>
  </scstep>
  <scstep>
   <time name="dav">   78.23   78.71</time>
   <time name="total">   91.54   92.11</time>
   <energy>
    <i name="e_fr_energy">   -847.75200089 </i>
    <i name="e_wo_entrp">   -847.74863801 </i>
    <i name="e_0_energy">   -847.75031945 </i>
   </energy>
  </scstep>
  <scstep>
   <time name="dav">   77.08   77.57</time>
   <time name="total">   90.23   90.80</time>
   <energy>
    <i name="e_fr_energy">   -827.76634325 </i>
    <i name="e_wo_entrp">   -827.76633315 </i>
    <i name="e_0_energy">   -827.76633820 </i>
   </energy>
  </scstep>
  <scstep>
   <time name="dav">   76.36   76.86</time>
   <time name="total">   89.36   89.93</time>
   <energy>
    <i name="e_fr_energy">   -823.09213076 </i>
    <i name="e_wo_entrp">   -823.09155610 </i>
    <i name="e_0_energy">   -823.09184343 </i>
   </energy>
  </scstep>
  <scstep>
   <time name="dav">   77.54   78.04</time>
   <time name="total">   90.25   90.85</time>
   <energy>
    <i name="e_fr_energy">   -823.13610487 </i>
    <i name="e_wo_entrp">   -823.13610478 </i>
    <i name="e_0_energy">   -823.13610483 </i>
   </energy>
  </scstep>
  <scstep>
   <time name="dav">   75.46   75.94</time>
   <time name="total">   88.33   88.88</time>
   <energy>
    <i name="e_fr_energy">   -822.99827570 </i>
    <i name="e_wo_entrp">   -822.99827564 </i>
    <i name="e_0_energy">   -822.99827567 </i>
   </energy>
  </scstep>
  <scstep>
   <time name="dav">   74.99   75.47</time>
   <time name="total">   87.72   88.26</time>
   <energy>
    <i name="e_fr_energy">   -822.98178840 </i>
    <i name="e_wo_entrp">   -822.98173203 </i>
    <i name="e_0_energy">   -822.98176022 </i>
   </energy>
  </scstep>
  <scstep>
   <time name="dav">   81.00   81.50</time>
   <time name="total">   93.98   94.56</time>
   <energy>
    <i name="e_fr_energy">   -822.98129390 </i>
    <i name="e_wo_entrp">   -822.98129366 </i>
    <i name="e_0_energy">   -822.98129378 </i>
   </energy>
  </scstep>
  <scstep>
   <time name="dav">   77.17   77.65</time>
   <time name="total">   89.87   90.45</time>
   <energy>
    <i name="e_fr_energy">   -822.98145013 </i>
    <i name="e_wo_entrp">   -822.98144986 </i>
    <i name="e_0_energy">   -822.98145000 </i>
   </energy>
  </scstep>
  <scstep>
   <time name="dav">   77.76   78.25</time>
   <time name="total">   91.03   91.59</time>
   <energy>
    <i name="e_fr_energy">   -822.98146360 </i>
    <i name="e_wo_entrp">   -822.98146328 </i>
    <i name="e_0_energy">   -822.98146344 </i>
   </energy>
  </scstep>
  <scstep>
   <time name="dav">   73.32   73.78</time>
   <time name="total">   86.04   86.57</time>
   <energy>
    <i name="e_fr_energy">   -822.98152454 </i>
    <i name="e_wo_entrp">   -822.98152421 </i>
    <i name="e_0_energy">   -822.98152438 </i>
   </energy>
  </scstep>
  <scstep>
   <time name="dav">   75.57   76.05</time>
   <time name="total">   88.39   88.94</time>
   <energy>
    <i name="e_fr_energy">   -822.98154771 </i>
    <i name="e_wo_entrp">   -822.98154741 </i>
    <i name="e_0_energy">   -822.98154756 </i>
   </energy>
  </scstep>
  <scstep>
   <time name="dav">   77.87   78.38</time>
   <time name="total">   91.09   91.70</time>
   <energy>
    <i name="e_fr_energy">   -822.98154484 </i>
    <i name="e_wo_entrp">   -822.98154454 </i>
    <i name="e_0_energy">   -822.98154469 </i>
   </energy>
  </scstep>
  <scstep>
   <time name="dav">   73.78   74.25</time>
   <time name="total">   81.19   81.70</time>
   <energy>
    <i name="alphaZ">    185.49599500 </i>
    <i name="ewald">  38090.05789278 </i>
    <i name="hartreedc"> -51299.40213760 </i>
    <i name="XCdc">   1356.82858593 </i>
    <i name="pawpsdc">  38418.94687778 </i>
    <i name="pawaedc"> -38495.49839261 </i>
    <i name="eentropy">     -0.00000031 </i>
    <i name="bandstr">  -4509.39831001 </i>
    <i name="atom">  15429.98794498 </i>
    <i name="e_fr_energy">   -822.98154406 </i>
    <i name="e_wo_entrp">   -822.98154374 </i>
    <i name="e_0_energy">   -822.98154390 </i>
   </energy>
  </scstep>
  <structure>
   <crystal>
    <varray name="basis" >
     <v>      17.27103806       0.00000000       0.00000000 </v>
     <v>      -8.63551903      14.95715771       0.00000000 </v>
     <v>       0.00000000       0.00000000      15.00000000 </v>
    </varray>
    <i name="volume">   3874.88459904 </i>
    <varray name="rec_basis" >
     <v>       0.05790040       0.03342881      -0.00000000 </v>
     <v>       0.00000000       0.06685762       0.00000000 </v>
     <v>       0.00000000      -0.00000000       0.06666667 </v>
    </varray>
   </crystal>
   <varray name="positions" >
    <v>       0.99888234       0.00151788       0.50258923 </v>
    <v>       0.99908722       0.14452403       0.50262829 </v>
    <v>       0.99992605       0.28818810       0.50267922 </v>
    <v>       0.00046828       0.43128815       0.50295949 </v>
    <v>       0.00093800       0.57409194       0.50294179 </v>
    <v>       0.00131455       0.71702809       0.50270617 </v>
    <v>       0.99981449       0.85956758       0.50264596 </v>
    <v>       0.14313140       0.00308833       0.50221600 </v>
    <v>       0.14273147       0.14535762       0.50291020 </v>
    <v>       0.14215738       0.28716033       0.50300745 </v>
    <v>       0.14383893       0.43135608       0.50323470 </v>
    <v>       0.14482776       0.57408119       0.50309461 </v>
    <v>       0.14429275       0.71699020       0.50253531 </v>
    <v>       0.14347128       0.86013115       0.50205439 </v>
    <v>       0.28621709       0.00339657       0.50274613 </v>
    <v>       0.28663016       0.14688432       0.50303630 </v>
    <v>       0.28745410       0.29220589       0.50374246 </v>
    <v>       0.28498719       0.42631767       0.50451206 </v>
    <v>       0.29012556       0.57428377       0.50511337 </v>
    <v>       0.28762553       0.71764494       0.50380256 </v>
    <v>       0.28647193       0.86051264       0.50292905 </v>
    <v>       0.42918459       0.00382005       0.50363520 </v>
    <v>       0.42920962       0.14767758       0.50389445 </v>
    <v>       0.42945231       0.86016830       0.50407290 </v>
    <v>       0.57141035       0.00325047       0.50386569 </v>
    <v>       0.57141553       0.14678814       0.50415781 </v>
    <v>       0.57363946       0.29366524       0.50517397 </v>
    <v>       0.57343618       0.85880510       0.50498710 </v>
    <v>       0.71357309       0.00233144       0.50378325 </v>
    <v>       0.71415555       0.14604309       0.50338558 </v>
    <v>       0.71389315       0.28923881       0.50445261 </v>
    <v>       0.71014419       0.42933004       0.50651556 </v>
    <v>       0.70861402       0.85776368       0.50682002 </v>
    <v>       0.85572853       0.00134760       0.50362332 </v>
    <v>       0.85658091       0.14519190       0.50285423 </v>
    <v>       0.85687370       0.28846252       0.50322012 </v>
    <v>       0.85704499       0.43145260       0.50417301 </v>
    <v>       0.85739920       0.57397773       0.50510734 </v>
    <v>       0.85826676       0.71636623       0.50583355 </v>
    <v>       0.85458021       0.85748273       0.50489005 </v>
    <v>       0.04705779       0.09713771       0.50262456 </v>
    <v>       0.04667926       0.23968712       0.50262631 </v>
    <v>       0.04805955       0.38370559       0.50286452 </v>
    <v>       0.04902837       0.52660817       0.50286333 </v>
    <v>       0.04885875       0.66944155       0.50252222 </v>
    <v>       0.04800719       0.81223313       0.50226271 </v>
    <v>       0.04742511       0.95471663       0.50232684 </v>
    <v>       0.19089447       0.09829249       0.50265009 </v>
    <v>       0.19079759       0.24068647       0.50332736 </v>
    <v>       0.18964363       0.38206050       0.50341608 </v>
    <v>       0.19323481       0.52686059       0.50359075 </v>
    <v>       0.19217962       0.66961142       0.50309655 </v>
    <v>       0.19138234       0.81256573       0.50237609 </v>
    <v>       0.19104617       0.95548922       0.50219840 </v>
    <v>       0.33401855       0.09920703       0.50319270 </v>
    <v>       0.33784851       0.24298358       0.50381511 </v>
    <v>       0.33929124       0.67318836       0.50484808 </v>
    <v>       0.33438885       0.81274593       0.50365813 </v>
    <v>       0.33378428       0.95579358       0.50310066 </v>
    <v>       0.47649955       0.09928121       0.50391358 </v>
    <v>       0.47415764       0.24387980       0.50458488 </v>
    <v>       0.47452048       0.80936597       0.50465200 </v>
    <v>       0.47654578       0.95580720       0.50390782 </v>
    <v>       0.61875407       0.09864209       0.50373973 </v>
    <v>       0.61869522       0.24252509       0.50465225 </v>
    <v>       0.61848559       0.95468298       0.50416141 </v>
    <v>       0.76146240       0.09806188       0.50313183 </v>
    <v>       0.76169764       0.24120383       0.50363501 </v>
    <v>       0.76121536       0.38431078       0.50509781 </v>
    <v>       0.76078253       0.52901157       0.50812461 </v>
    <v>       0.76301805       0.66504419       0.51105747 </v>
    <v>       0.75773104       0.80796578       0.50859763 </v>
    <v>       0.76025473       0.95391321       0.50456241 </v>
    <v>       0.90363557       0.09667366       0.50284926 </v>
    <v>       0.90445163       0.24067323       0.50278114 </v>
    <v>       0.90474822       0.38395364       0.50340139 </v>
    <v>       0.90532065       0.52667182       0.50384125 </v>
    <v>       0.90583031       0.66903735       0.50432728 </v>
    <v>       0.90407124       0.81142483       0.50427643 </v>
    <v>       0.90305119       0.95314579       0.50336075 </v>
    <v>       0.71564020       0.71397875       0.51469024 </v>
    <v>       0.33216746       0.52237431       0.50667348 </v>
    <v>       0.62785310       0.66582611       0.52497422 </v>
    <v>       0.42080416       0.56204099       0.51087921 </v>
    <v>       0.42784688       0.28788627       0.50492413 </v>
    <v>       0.42918803       0.71922114       0.50517930 </v>
    <v>       0.71705413       0.57434632       0.51285824 </v>
    <v>       0.33136755       0.38170961       0.50407329 </v>
    <v>       0.61999432       0.38413237       0.50597283 </v>
    <v>       0.61869327       0.81393972       0.50652902 </v>
    <v>       0.46315979       0.45025129       0.47476452 </v>
    <v>       0.55401709       0.45363229       0.48054900 </v>
    <v>       0.52712696       0.49001550       0.46511203 </v>
   </varray>
  </structure>
  <varray name="forces" >
   <v>      -0.00051161      -0.00298736       0.00470523 </v>
   <v>      -0.00581440       0.00842101       0.00538176 </v>
   <v>      -0.00608918       0.00923280       0.00563673 </v>
   <v>      -0.00315496       0.00444984       0.00454573 </v>
   <v>      -0.00034369       0.00196110       0.00687568 </v>
   <v>       0.00498440      -0.01106890       0.00380975 </v>
   <v>       0.00463658      -0.02284286       0.00388005 </v>
   <v>       0.00905639      -0.00597583       0.00166596 </v>
   <v>       0.00120809       0.00449569      -0.00027002 </v>
   <v>      -0.00557484       0.01273180      -0.00045786 </v>
   <v>      -0.00528628       0.00526460       0.00130325 </v>
   <v>      -0.00590636       0.00039825       0.00288258 </v>
   <v>      -0.00516445      -0.00378964       0.00238734 </v>
   <v>       0.00856560      -0.01655880       0.00234702 </v>
   <v>       0.01148666      -0.00480236      -0.00305684 </v>
   <v>       0.01165152       0.00051175      -0.00250501 </v>
   <v>      -0.00001472       0.00521033      -0.00181188 </v>
   <v>      -0.00285309       0.00391818      -0.00515613 </v>
   <v>      -0.00335530       0.00085958      -0.00390225 </v>
   <v>      -0.00701817       0.00054772       0.00288759 </v>
   <v>       0.00087923      -0.00139689       0.00097499 </v>
   <v>       0.00318051      -0.00021488      -0.00209015 </v>
   <v>       0.00849708       0.00005691      -0.00306760 </v>
   <v>      -0.00065781       0.00936089      -0.00068406 </v>
   <v>      -0.01182883      -0.00208940      -0.00239264 </v>
   <v>      -0.00114926      -0.00330577      -0.00294119 </v>
   <v>       0.00012069      -0.00055924      -0.00066859 </v>
   <v>      -0.00643380       0.00096615       0.00343610 </v>
   <v>      -0.01570769       0.00085246       0.00492642 </v>
   <v>      -0.00769372       0.00660024       0.00075641 </v>
   <v>       0.00002012       0.00130577       0.00214052 </v>
   <v>       0.00338919       0.00291749       0.00026847 </v>
   <v>      -0.00516596      -0.00628368       0.00504436 </v>
   <v>      -0.00211727       0.00156784       0.00396398 </v>
   <v>      -0.00499411       0.01270058       0.00426895 </v>
   <v>      -0.00236798       0.00647912       0.00714451 </v>
   <v>       0.00037082       0.00373039       0.00255071 </v>
   <v>       0.00125518      -0.00014819      -0.00108572 </v>
   <v>       0.00724153      -0.01596838       0.00257290 </v>
   <v>       0.00324261      -0.01276122       0.00176971 </v>
   <v>       0.00246617      -0.00286030       0.00389801 </v>
   <v>       0.00472710      -0.00850699       0.00397667 </v>
   <v>       0.00695663      -0.00389412       0.00439198 </v>
   <v>       0.00316985      -0.00062243       0.00601235 </v>
   <v>      -0.00136535       0.00466999       0.00485700 </v>
   <v>      -0.00666906       0.01951378       0.00209637 </v>
   <v>      -0.00447049       0.01498239       0.00404523 </v>
   <v>      -0.00957326       0.00030563      -0.00074236 </v>
   <v>       0.00300460      -0.00735640      -0.00454259 </v>
   <v>       0.00344761      -0.00786774      -0.00210425 </v>
   <v>       0.00453347      -0.00025947       0.00000624 </v>
   <v>       0.01025164       0.00497808       0.00417966 </v>
   <v>      -0.00413333       0.00968497       0.00314462 </v>
   <v>      -0.01166754       0.01505981       0.00055843 </v>
   <v>      -0.01497453       0.00491219      -0.00395982 </v>
   <v>      -0.00669564      -0.00328630      -0.00090847 </v>
   <v>       0.00041608      -0.00129759      -0.00149968 </v>
   <v>      -0.00172119      -0.00406800       0.00095977 </v>
   <v>      -0.00884294       0.00464576      -0.00208982 </v>
   <v>      -0.00223494       0.00595915      -0.00223276 </v>
   <v>      -0.00389284       0.00314771      -0.00240823 </v>
   <v>       0.00222819      -0.00177262      -0.00026509 </v>
   <v>       0.00192295      -0.00095837      -0.00121214 </v>
   <v>       0.00600550       0.00387111       0.00007163 </v>
   <v>       0.00062104       0.00465962      -0.00068115 </v>
   <v>       0.01792315       0.00825762       0.00116485 </v>
   <v>       0.00993229      -0.00585984       0.00492132 </v>
   <v>       0.00109126      -0.00239215       0.00455920 </v>
   <v>      -0.00235051      -0.00122762       0.00180525 </v>
   <v>       0.00027688      -0.00086821      -0.00232218 </v>
   <v>      -0.00466898       0.00493749       0.00027630 </v>
   <v>       0.00010854       0.00948226       0.00251734 </v>
   <v>       0.00936018      -0.00143849       0.00499170 </v>
   <v>       0.00758381      -0.01145399       0.00579783 </v>
   <v>       0.00410376      -0.00784571       0.00689400 </v>
   <v>      -0.00116763      -0.00246387       0.00584455 </v>
   <v>      -0.00155474      -0.00120746       0.00488321 </v>
   <v>      -0.00441806       0.00756419       0.00368270 </v>
   <v>       0.00188820       0.02292326       0.00121915 </v>
   <v>       0.00290346       0.00484519       0.00302552 </v>
   <v>       0.00484020      -0.01209450       0.00088197 </v>
   <v>      -0.00183290      -0.00059087      -0.00831059 </v>
   <v>       0.00166188      -0.00010902       0.00230070 </v>
   <v>      -0.00298407       0.00274530      -0.01557212 </v>
   <v>       0.00476996       0.00105620       0.00074574 </v>
   <v>      -0.00035427       0.00349594      -0.00225227 </v>
   <v>       0.00252951       0.00072221      -0.00584052 </v>
   <v>       0.00048371      -0.00531943      -0.00143515 </v>
   <v>       0.00047248       0.00195730       0.00245647 </v>
   <v>       0.00861266       0.00157697       0.00366230 </v>
   <v>       0.00488818      -0.08500830       0.11588803 </v>
   <v>       0.02095911       0.03710508       0.08104874 </v>
   <v>      -0.02915053      -0.01621652      -0.29642243 </v>
  </varray>
  <varray name="stress" >
   <v>      -9.34207613       0.06652354       0.00084150 </v>
   <v>       0.06652350      -9.51107481       0.01931889 </v>
   <v>       0.00084137       0.01931889      -0.26846340 </v>
  </varray>
  <energy>
   <i name="e_fr_energy">   -830.52175055 </i>
   <i name="e_wo_entrp">   -830.52175023 </i>
   <i name="e_0_energy">   -830.52175039 </i>
  </energy>
  <time name="totalsc"> 1902.69 1914.87</time>
 </calculation>
 <calculation>
  <scstep>
   <time name="dav">   72.22   72.72</time>
   <time name="total">   85.09   85.66</time>
   <energy>
    <i name="alphaZ">    185.49599500 </i>
    <i name="ewald">  38089.98405439 </i>
    <i name="hartreedc"> -51299.31198694 </i>
    <i name="XCdc">   1356.82855303 </i>
    <i name="pawpsdc">  38418.06672283 </i>
    <i name="pawaedc"> -38494.61819220 </i>
    <i name="eentropy">     -0.00000031 </i>
    <i name="bandstr">  -4509.41483276 </i>
    <i name="atom">  15429.98794498 </i>
    <i name="e_fr_energy">   -822.98174199 </i>
    <i name="e_wo_entrp">   -822.98174167 </i>
    <i name="e_0_energy">   -822.98174183 </i>
   </energy>
  </scstep>
  <scstep>
   <time name="dav">   73.54   73.99</time>
   <time name="total">   86.18   86.69</time>
   <energy>
    <i name="e_fr_energy">   -822.98179040 </i>
    <i name="e_wo_entrp">   -822.98179009 </i>
    <i name="e_0_energy">   -822.98179024 </i>
   </energy>
  </scstep>
  <scstep>
   <time name="dav">   80.64   81.15</time>
   <time name="total">   91.61   92.17</time>
   <energy>
    <i name="e_fr_energy">   -822.98178452 </i>
    <i name="e_wo_entrp">   -822.98178421 </i>
    <i name="e_0_energy">   -822.98178436 </i>
   </energy>
  </scstep>
  <scstep>
   <time name="dav">   47.13   47.35</time>
   <time name="total">   56.69   56.96</time>
   <energy>
    <i name="e_fr_energy">   -822.98178027 </i>
    <i name="e_wo_entrp">   -822.98177996 </i>
    <i name="e_0_energy">   -822.98178012 </i>
   </energy>
  </scstep>
  <scstep>
   <time name="dav">   46.03   46.24</time>
   <time name="total">   51.91   52.15</time>
   <energy>
    <i name="alphaZ">    185.49599500 </i>
    <i name="ewald">  38089.98405439 </i>
    <i name="hartreedc"> -51299.29520794 </i>
    <i name="XCdc">   1356.82841271 </i>
    <i name="pawpsdc">  38417.71375548 </i>
    <i name="pawaedc"> -38494.26527604 </i>
    <i name="eentropy">     -0.00000031 </i>
    <i name="bandstr">  -4509.43145900 </i>
    <i name="atom">  15429.98794498 </i>
    <i name="e_fr_energy">   -822.98178073 </i>
    <i name="e_wo_entrp">   -822.98178042 </i>
    <i name="e_0_energy">   -822.98178057 </i>
   </energy>
  </scstep>
  <structure>
   <crystal>
    <varray name="basis" >
     <v>      17.27103806       0.00000000       0.00000000 </v>
     <v>      -8.63551903      14.95715771       0.00000000 </v>
     <v>       0.00000000       0.00000000      15.00000000 </v>
    </varray>
    <i name="volume">   3874.88459904 </i>
    <varray name="rec_basis" >
     <v>       0.05790040       0.03342881      -0.00000000 </v>
     <v>       0.00000000       0.06685762       0.00000000 </v>
     <v>       0.00000000      -0.00000000       0.06666667 </v>
    </varray>
   </crystal>
   <varray name="positions" >
    <v>       0.99888055       0.00151533       0.50260485 </v>
    <v>       0.99908699       0.14453622       0.50264413 </v>
    <v>       0.99992595       0.28820125       0.50269473 </v>
    <v>       0.00046813       0.43129501       0.50297410 </v>
    <v>       0.00093909       0.57409545       0.50296022 </v>
    <v>       0.00131320       0.71701483       0.50272122 </v>
    <v>       0.99980543       0.85953936       0.50266104 </v>
    <v>       0.14313846       0.00308212       0.50222674 </v>
    <v>       0.14273697       0.14536517       0.50291807 </v>
    <v>       0.14216038       0.28717817       0.50301530 </v>
    <v>       0.14383713       0.43136408       0.50324577 </v>
    <v>       0.14482198       0.57408276       0.50310850 </v>
    <v>       0.14428496       0.71698642       0.50254821 </v>
    <v>       0.14347062       0.86011101       0.50206670 </v>
    <v>       0.28622737       0.00339157       0.50275191 </v>
    <v>       0.28664482       0.14688691       0.50304196 </v>
    <v>       0.28745956       0.29221531       0.50374993 </v>
    <v>       0.28498740       0.42632402       0.50451730 </v>
    <v>       0.29012343       0.57428615       0.50512174 </v>
    <v>       0.28761853       0.71764668       0.50381840 </v>
    <v>       0.28647239       0.86051189       0.50294104 </v>
    <v>       0.42918847       0.00382064       0.50364425 </v>
    <v>       0.42921976       0.14767858       0.50390161 </v>
    <v>       0.42945809       0.86018135       0.50408495 </v>
    <v>       0.57139634       0.00324861       0.50387570 </v>
    <v>       0.57141269       0.14678456       0.50416623 </v>
    <v>       0.57363992       0.29366504       0.50518677 </v>
    <v>       0.57343013       0.85880724       0.50500708 </v>
    <v>       0.71355666       0.00233345       0.50380252 </v>
    <v>       0.71415186       0.14605254       0.50339781 </v>
    <v>       0.71389455       0.28924141       0.50446724 </v>
    <v>       0.71014953       0.42933451       0.50653335 </v>
    <v>       0.70860457       0.85775634       0.50684475 </v>
    <v>       0.85572769       0.00135060       0.50364042 </v>
    <v>       0.85658418       0.14520935       0.50286965 </v>
    <v>       0.85687587       0.28847192       0.50323886 </v>
    <v>       0.85704800       0.43145837       0.50418748 </v>
    <v>       0.85740038       0.57397840       0.50511976 </v>
    <v>       0.85826485       0.71634660       0.50585308 </v>
    <v>       0.85457588       0.85746711       0.50490700 </v>
    <v>       0.04705970       0.09713549       0.50263826 </v>
    <v>       0.04667993       0.23967749       0.50263956 </v>
    <v>       0.04806545       0.38370181       0.50287857 </v>
    <v>       0.04903197       0.52660849       0.50288034 </v>
    <v>       0.04886058       0.66944862       0.50253800 </v>
    <v>       0.04801272       0.81225942       0.50227501 </v>
    <v>       0.04743050       0.95473733       0.50234130 </v>
    <v>       0.19088511       0.09829456       0.50265741 </v>
    <v>       0.19079780       0.24067896       0.50333014 </v>
    <v>       0.18964321       0.38205167       0.50342295 </v>
    <v>       0.19324047       0.52686142       0.50360152 </v>
    <v>       0.19219471       0.66961890       0.50311267 </v>
    <v>       0.19138435       0.81257937       0.50239005 </v>
    <v>       0.19104342       0.95550990       0.50220815 </v>
    <v>       0.33400571       0.09921470       0.50319741 </v>
    <v>       0.33784074       0.24298165       0.50382384 </v>
    <v>       0.33929151       0.67318790       0.50485999 </v>
    <v>       0.33438466       0.81274169       0.50367111 </v>
    <v>       0.33377788       0.95580069       0.50310870 </v>
    <v>       0.47650142       0.09928975       0.50392251 </v>
    <v>       0.47415616       0.24388477       0.50459387 </v>
    <v>       0.47452240       0.80936475       0.50466626 </v>
    <v>       0.47654785       0.95580692       0.50391895 </v>
    <v>       0.61876391       0.09864789       0.50375209 </v>
    <v>       0.61869955       0.24253170       0.50466396 </v>
    <v>       0.61851150       0.95469450       0.50417686 </v>
    <v>       0.76147037       0.09805526       0.50314929 </v>
    <v>       0.76169792       0.24120168       0.50365150 </v>
    <v>       0.76121205       0.38431015       0.50511323 </v>
    <v>       0.76078205       0.52901128       0.50814317 </v>
    <v>       0.76301654       0.66505150       0.51108521 </v>
    <v>       0.75773738       0.80797856       0.50862214 </v>
    <v>       0.76026475       0.95391219       0.50458304 </v>
    <v>       0.90363734       0.09666001       0.50286670 </v>
    <v>       0.90445187       0.24066423       0.50279900 </v>
    <v>       0.90474578       0.38395157       0.50341845 </v>
    <v>       0.90531822       0.52667125       0.50385845 </v>
    <v>       0.90583043       0.66904801       0.50434511 </v>
    <v>       0.90408853       0.81145541       0.50429103 </v>
    <v>       0.90305808       0.95315307       0.50337630 </v>
    <v>       0.71563849       0.71396391       0.51472370 </v>
    <v>       0.33216545       0.52237441       0.50667789 </v>
    <v>       0.62785558       0.66582607       0.52502600 </v>
    <v>       0.42080428       0.56204480       0.51087924 </v>
    <v>       0.42785489       0.28788971       0.50493707 </v>
    <v>       0.42919048       0.71922671       0.50519152 </v>
    <v>       0.71705780       0.57434827       0.51288442 </v>
    <v>       0.33136696       0.38170557       0.50408293 </v>
    <v>       0.61999582       0.38413516       0.50599243 </v>
    <v>       0.61870429       0.81394250       0.50655183 </v>
    <v>       0.46315656       0.45023339       0.47481806 </v>
    <v>       0.55403652       0.45365982       0.48058980 </v>
    <v>       0.52711684       0.49000419       0.46511203 </v>
   </varray>
  </structure>
  <varray name="forces" >
   <v>      -0.00019314       0.00545754       0.00338910 </v>
   <v>       0.00595867      -0.00941902       0.00564623 </v>
   <v>       0.00660544      -0.00753504       0.00602282 </v>
   <v>       0.00223887      -0.00493054       0.00402248 </v>
   <v>       0.00026733      -0.00023311       0.00721344 </v>
   <v>      -0.00411328       0.01404569       0.00263521 </v>
   <v>      -0.00350987       0.02883724       0.00280696 </v>
   <v>      -0.01059308       0.00951633       0.00196292 </v>
   <v>      -0.00241797      -0.00597453      -0.00170974 </v>
   <v>       0.00608391      -0.01437329      -0.00142454 </v>
   <v>       0.00652008      -0.00250876       0.00149554 </v>
   <v>       0.00653428       0.00235848       0.00357190 </v>
   <v>       0.00492736       0.00628762       0.00333682 </v>
   <v>      -0.00912783       0.02147540       0.00218160 </v>
   <v>      -0.01357385       0.00807671      -0.00269866 </v>
   <v>      -0.01428203       0.00090214      -0.00245598 </v>
   <v>       0.00028466      -0.00846122      -0.00353703 </v>
   <v>       0.00267597      -0.00371060      -0.00621347 </v>
   <v>       0.00107351       0.00121815      -0.00355956 </v>
   <v>       0.00651189       0.00058056       0.00311584 </v>
   <v>      -0.00146744       0.00348302       0.00126181 </v>
   <v>      -0.00440827       0.00327140      -0.00184516 </v>
   <v>      -0.00975751       0.00284702      -0.00307167 </v>
   <v>      -0.00085112      -0.00883844       0.00069922 </v>
   <v>       0.01066623       0.00348027      -0.00152007 </v>
   <v>       0.00270888       0.00555130      -0.00214819 </v>
   <v>      -0.00042344       0.00424683      -0.00013329 </v>
   <v>       0.01026315      -0.00096177       0.00228752 </v>
   <v>       0.01905177       0.00131005       0.00518565 </v>
   <v>       0.01130300      -0.00494068       0.00268035 </v>
   <v>      -0.00016936       0.00021029      -0.00049821 </v>
   <v>      -0.00101624      -0.00048164       0.00071562 </v>
   <v>       0.00719104       0.00613799       0.00520741 </v>
   <v>       0.00530291      -0.00410532       0.00464778 </v>
   <v>       0.00907012      -0.01123620       0.00530217 </v>
   <v>       0.00236916      -0.00496400       0.00737778 </v>
   <v>      -0.00211448      -0.00235468       0.00346995 </v>
   <v>      -0.00141945       0.00163551       0.00036179 </v>
   <v>      -0.00564329       0.01815180       0.00291472 </v>
   <v>      -0.00128098       0.01284483       0.00196333 </v>
   <v>      -0.00370443       0.00526293       0.00419865 </v>
   <v>      -0.00698513       0.01245231       0.00433254 </v>
   <v>      -0.00862124       0.00768305       0.00508231 </v>
   <v>      -0.00478263       0.00161494       0.00488350 </v>
   <v>       0.00080004      -0.00409226       0.00514057 </v>
   <v>       0.00960915      -0.02289247       0.00063134 </v>
   <v>       0.00555533      -0.01617668       0.00233775 </v>
   <v>       0.01005177       0.00190686      -0.00195079 </v>
   <v>      -0.00383692       0.01003183      -0.00370490 </v>
   <v>      -0.00458304       0.01083047      -0.00175094 </v>
   <v>      -0.00703290       0.00432476      -0.00100457 </v>
   <v>      -0.01288359      -0.00307330       0.00358038 </v>
   <v>       0.00439049      -0.00905550       0.00319441 </v>
   <v>       0.01335442      -0.01463981       0.00012442 </v>
   <v>       0.01660260      -0.00352163      -0.00360368 </v>
   <v>       0.00607588       0.00441733      -0.00053252 </v>
   <v>      -0.00126898       0.00232940      -0.00115286 </v>
   <v>       0.00020784       0.00527038       0.00145481 </v>
   <v>       0.00978433      -0.00285819      -0.00165687 </v>
   <v>       0.00334752      -0.00364467      -0.00226736 </v>
   <v>       0.00372260      -0.00087465      -0.00176798 </v>
   <v>      -0.00261463       0.00620843       0.00021026 </v>
   <v>      -0.00426589       0.00242977      -0.00117189 </v>
   <v>      -0.00654254      -0.00208717      -0.00019522 </v>
   <v>      -0.00004033      -0.00178089      -0.00055448 </v>
   <v>      -0.02159283      -0.00590374       0.00245086 </v>
   <v>      -0.00852380       0.00837486       0.00489342 </v>
   <v>      -0.00108435       0.00582506       0.00474267 </v>
   <v>       0.00261317       0.00263798       0.00213339 </v>
   <v>       0.00248609       0.00288808      -0.00195006 </v>
   <v>       0.00746895      -0.00694761      -0.00084949 </v>
   <v>       0.00197444      -0.01479761       0.00308126 </v>
   <v>      -0.00997508       0.00171539       0.00392689 </v>
   <v>      -0.00881788       0.01304893       0.00479953 </v>
   <v>      -0.00470824       0.01202803       0.00715198 </v>
   <v>      -0.00032995       0.00538101       0.00458951 </v>
   <v>       0.00161987       0.00371667       0.00474760 </v>
   <v>       0.00888195      -0.00712530       0.00077924 </v>
   <v>       0.00037332      -0.02589096       0.00381962 </v>
   <v>      -0.00139234      -0.00757528       0.00373779 </v>
   <v>      -0.00417920       0.01183401       0.00081684 </v>
   <v>      -0.00119936       0.00197796      -0.00811289 </v>
   <v>      -0.00062276      -0.00001126       0.00207964 </v>
   <v>       0.00199355       0.00107517      -0.01450247 </v>
   <v>      -0.00748026      -0.00039029       0.00048680 </v>
   <v>      -0.00178358      -0.00184332      -0.00219888 </v>
   <v>       0.00002958       0.00004518      -0.00560708 </v>
   <v>      -0.00271035       0.00551312      -0.00137373 </v>
   <v>       0.00194801       0.00189054       0.00230519 </v>
   <v>      -0.00944670      -0.00140206       0.00366234 </v>
   <v>       0.00636718      -0.08359901       0.11495125 </v>
   <v>       0.02242148       0.03606600       0.08086311 </v>
   <v>      -0.03191623      -0.01549416      -0.29594164 </v>
  </varray>
  <varray name="stress" >
   <v>      -9.33166755       0.07156914       0.00188856 </v>
   <v>       0.07156910      -9.51682576       0.02043307 </v>
   <v>       0.00188843       0.02043306      -0.26509327 </v>
  </varray>
  <energy>
   <i name="e_fr_energy">   -830.52199387 </i>
   <i name="e_wo_entrp">   -830.52199356 </i>
   <i name="e_0_energy">   -830.52199372 </i>
  </energy>
  <time name="totalsc">  513.60  516.89</time>
 </calculation>
 <calculation>
  <scstep>
   <time name="dav">   70.33   70.85</time>
   <time name="total">   83.28   83.87</time>
   <energy>
    <i name="alphaZ">    185.49599500 </i>
    <i name="ewald">  38089.82369250 </i>
    <i name="hartreedc"> -51299.14747178 </i>
    <i name="XCdc">   1356.82773962 </i>
    <i name="pawpsdc">  38417.66960542 </i>
    <i name="pawaedc"> -38494.22113408 </i>
    <i name="eentropy">     -0.00000031 </i>
    <i name="bandstr">  -4509.41831525 </i>
    <i name="atom">  15429.98794498 </i>
    <i name="e_fr_energy">   -822.98194390 </i>
    <i name="e_wo_entrp">   -822.98194359 </i>
    <i name="e_0_energy">   -822.98194374 </i>
   </energy>
  </scstep>
  <scstep>
   <time name="dav">   74.27   74.74</time>
   <time name="total">   87.19   87.73</time>
   <energy>
    <i name="e_fr_energy">   -822.98203304 </i>
    <i name="e_wo_entrp">   -822.98203272 </i>
    <i name="e_0_energy">   -822.98203288 </i>
   </energy>
  </scstep>
  <scstep>
   <time name="dav">   86.43   86.99</time>
   <time name="total">   99.25   99.88</time>
   <energy>
    <i name="e_fr_energy">   -822.98202135 </i>
    <i name="e_wo_entrp">   -822.98202103 </i>
    <i name="e_0_energy">   -822.98202119 </i>
   </energy>
  </scstep>
  <scstep>
   <time name="dav">   64.85   65.28</time>
   <time name="total">   74.94   75.42</time>
   <energy>
    <i name="e_fr_energy">   -822.98201233 </i>
    <i name="e_wo_entrp">   -822.98201202 </i>
    <i name="e_0_energy">   -822.98201218 </i>
   </energy>
  </scstep>
  <scstep>
   <time name="dav">   47.97   48.24</time>
   <time name="total">   57.55   57.87</time>
   <energy>
    <i name="e_fr_energy">   -822.98201324 </i>
    <i name="e_wo_entrp">   -822.98201293 </i>
    <i name="e_0_energy">   -822.98201308 </i>
   </energy>
  </scstep>
  <scstep>
   <time name="dav">   33.72   33.89</time>
   <time name="total">   39.57   39.78</time>
   <energy>
    <i name="alphaZ">    185.49599500 </i>
    <i name="ewald">  38089.82369250 </i>
    <i name="hartreedc"> -51299.13098183 </i>
    <i name="XCdc">   1356.82734211 </i>
    <i name="pawpsdc">  38417.44060233 </i>
    <i name="pawaedc"> -38493.99188903 </i>
    <i name="eentropy">     -0.00000031 </i>
    <i name="bandstr">  -4509.43471923 </i>
    <i name="atom">  15429.98794498 </i>
    <i name="e_fr_energy">   -822.98201350 </i>
    <i name="e_wo_entrp">   -822.98201318 </i>
    <i name="e_0_energy">   -822.98201334 </i>
   </energy>
  </scstep>
  <structure>
   <crystal>
    <varray name="basis" >
     <v>      17.27103806       0.00000000       0.00000000 </v>
     <v>      -8.63551903      14.95715771       0.00000000 </v>
[...]
       <r>   -18.4964     9.0325    30.7293 </r>
       <r>   -18.3746     4.8513    31.3203 </r>
       <r>   -18.2528     6.0469    32.0569 </r>
       <r>   -18.1309     5.7278    32.7547 </r>
       <r>   -18.0091     7.8170    33.7070 </r>
       <r>   -17.8873     3.2675    34.1050 </r>
       <r>   -17.7655    12.8282    35.6677 </r>
       <r>   -17.6437    13.4755    37.3093 </r>
       <r>   -17.5218     3.3123    37.7128 </r>
       <r>   -17.4000     5.4596    38.3779 </r>
       <r>   -17.2782    11.1229    39.7329 </r>
       <r>   -17.1564     8.5134    40.7700 </r>
       <r>   -17.0346     5.1355    41.3956 </r>
       <r>   -16.9127     6.2786    42.1605 </r>
       <r>   -16.7909     6.6640    42.9723 </r>
       <r>   -16.6691    15.9283    44.9127 </r>
       <r>   -16.5473     6.2371    45.6725 </r>
       <r>   -16.4255     4.2496    46.1902 </r>
       <r>   -16.3036     0.4910    46.2500 </r>
       <r>   -16.1818     0.0056    46.2507 </r>
       <r>   -16.0600     1.6584    46.4527 </r>
       <r>   -15.9382     6.6851    47.2671 </r>
       <r>   -15.8164     8.6801    48.3245 </r>
       <r>   -15.6945     4.9044    48.9220 </r>
       <r>   -15.5727     2.6016    49.2389 </r>
       <r>   -15.4509     9.5335    50.4003 </r>
       <r>   -15.3291    13.4634    52.0404 </r>
       <r>   -15.2073     7.5453    52.9595 </r>
       <r>   -15.0854     6.9833    53.8103 </r>
       <r>   -14.9636     8.3331    54.8254 </r>
       <r>   -14.8418     9.3778    55.9678 </r>
       <r>   -14.7200     7.7846    56.9161 </r>
       <r>   -14.5982    13.3070    58.5372 </r>
       <r>   -14.4763     9.5018    59.6947 </r>
       <r>   -14.3545     3.6788    60.1429 </r>
       <r>   -14.2327     5.0863    60.7625 </r>
       <r>   -14.1109     3.5369    61.1933 </r>
       <r>   -13.9890     7.2766    62.0798 </r>
       <r>   -13.8672     9.0759    63.1854 </r>
       <r>   -13.7454    11.7520    64.6170 </r>
       <r>   -13.6236     7.4298    65.5221 </r>
       <r>   -13.5018     6.0556    66.2598 </r>
       <r>   -13.3799     1.9528    66.4977 </r>
       <r>   -13.2581     3.6554    66.9430 </r>
       <r>   -13.1363     5.8291    67.6531 </r>
       <r>   -13.0145     7.0353    68.5102 </r>
       <r>   -12.8927     9.3235    69.6460 </r>
       <r>   -12.7708    17.8174    71.8165 </r>
       <r>   -12.6490     5.1359    72.4421 </r>
       <r>   -12.5272     9.8151    73.6378 </r>
       <r>   -12.4054     8.6880    74.6962 </r>
       <r>   -12.2836     6.1333    75.4433 </r>
       <r>   -12.1617     2.4081    75.7367 </r>
       <r>   -12.0399     9.2980    76.8694 </r>
       <r>   -11.9181     7.0710    77.7308 </r>
       <r>   -11.7963    11.5576    79.1387 </r>
       <r>   -11.6745    13.8035    80.8203 </r>
       <r>   -11.5526    12.2306    82.3102 </r>
       <r>   -11.4308     9.9837    83.5264 </r>
       <r>   -11.3090    13.0571    85.1170 </r>
       <r>   -11.1872    10.0743    86.3443 </r>
       <r>   -11.0654     6.8626    87.1803 </r>
       <r>   -10.9435     4.6460    87.7463 </r>
       <r>   -10.8217     4.2070    88.2588 </r>
       <r>   -10.6999     9.9678    89.4731 </r>
       <r>   -10.5781    15.2245    91.3277 </r>
       <r>   -10.4563    11.9384    92.7820 </r>
       <r>   -10.3344    13.7885    94.4618 </r>
       <r>   -10.2126    14.8238    96.2676 </r>
       <r>   -10.0908    16.8483    98.3201 </r>
       <r>    -9.9690    17.6785   100.4737 </r>
       <r>    -9.8472    18.0962   102.6782 </r>
       <r>    -9.7253    19.8731   105.0991 </r>
       <r>    -9.6035    18.3805   107.3382 </r>
       <r>    -9.4817    23.5031   110.2014 </r>
       <r>    -9.3599    16.4403   112.2041 </r>
       <r>    -9.2381    22.7269   114.9727 </r>
       <r>    -9.1162    26.5989   118.2130 </r>
       <r>    -8.9944    24.2554   121.1678 </r>
       <r>    -8.8726    17.5259   123.3028 </r>
       <r>    -8.7508    14.7913   125.1047 </r>
       <r>    -8.6290    17.7857   127.2714 </r>
       <r>    -8.5071    19.2733   129.6192 </r>
       <r>    -8.3853    28.1996   133.0545 </r>
       <r>    -8.2635    17.3812   135.1719 </r>
       <r>    -8.1417    13.3370   136.7966 </r>
       <r>    -8.0199     9.5849   137.9643 </r>
       <r>    -7.8980    12.2248   139.4535 </r>
       <r>    -7.7762     7.8184   140.4059 </r>
       <r>    -7.6544    10.6413   141.7022 </r>
       <r>    -7.5326    22.1965   144.4062 </r>
       <r>    -7.4108    23.5485   147.2749 </r>
       <r>    -7.2889    14.0100   148.9816 </r>
       <r>    -7.1671     8.6478   150.0351 </r>
       <r>    -7.0453    12.3701   151.5420 </r>
       <r>    -6.9235    15.8344   153.4710 </r>
       <r>    -6.8017    11.4255   154.8628 </r>
       <r>    -6.6798    12.6104   156.3990 </r>
       <r>    -6.5580     9.0549   157.5021 </r>
       <r>    -6.4362    24.7574   160.5180 </r>
       <r>    -6.3144     9.0091   161.6155 </r>
       <r>    -6.1926     9.9659   162.8296 </r>
       <r>    -6.0707    13.2586   164.4447 </r>
       <r>    -5.9489     5.2155   165.0801 </r>
       <r>    -5.8271    10.0060   166.2990 </r>
       <r>    -5.7053     3.4185   166.7155 </r>
       <r>    -5.5834     7.7183   167.6557 </r>
       <r>    -5.4616    12.6652   169.1986 </r>
       <r>    -5.3398    10.7062   170.5028 </r>
       <r>    -5.2180    20.8260   173.0398 </r>
       <r>    -5.0962    15.8562   174.9714 </r>
       <r>    -4.9743     8.5548   176.0136 </r>
       <r>    -4.8525     1.9332   176.2491 </r>
       <r>    -4.7307     1.0801   176.3807 </r>
       <r>    -4.6089     7.3125   177.2715 </r>
       <r>    -4.4871    17.1312   179.3584 </r>
       <r>    -4.3652    17.2503   181.4598 </r>
       <r>    -4.2434    22.7620   184.2327 </r>
       <r>    -4.1216    11.2508   185.6033 </r>
       <r>    -3.9998    10.8175   186.9211 </r>
       <r>    -3.8780     1.4731   187.1005 </r>
       <r>    -3.7561     1.6411   187.3005 </r>
       <r>    -3.6343     6.1197   188.0460 </r>
       <r>    -3.5125     1.6785   188.2504 </r>
       <r>    -3.3907     1.6242   188.4483 </r>
       <r>    -3.2689     0.4243   188.5000 </r>
       <r>    -3.1470     0.0037   188.5005 </r>
       <r>    -3.0252     4.5370   189.0532 </r>
       <r>    -2.9034     7.7460   189.9968 </r>
       <r>    -2.7816     0.0282   190.0002 </r>
       <r>    -2.6598     2.1836   190.2662 </r>
       <r>    -2.5379     1.9182   190.4999 </r>
       <r>    -2.4161     0.0010   190.5000 </r>
       <r>    -2.2943     0.5617   190.5684 </r>
       <r>    -2.1725     3.1690   190.9545 </r>
       <r>    -2.0507     1.8318   191.1776 </r>
       <r>    -1.9288     6.6355   191.9860 </r>
       <r>    -1.8070     0.3691   192.0309 </r>
       <r>    -1.6852     4.4292   192.5705 </r>
       <r>    -1.5634     5.3237   193.2190 </r>
       <r>    -1.4416     2.3041   193.4997 </r>
       <r>    -1.3197     0.8440   193.6026 </r>
       <r>    -1.1979    11.1051   194.9554 </r>
       <r>    -1.0761    15.0683   196.7910 </r>
       <r>    -0.9543     7.2651   197.6760 </r>
       <r>    -0.8325     9.0545   198.7791 </r>
       <r>    -0.7106     7.9156   199.7433 </r>
       <r>    -0.5888     4.4754   200.2885 </r>
       <r>    -0.4670     8.5241   201.3269 </r>
       <r>    -0.3452     7.7601   202.2723 </r>
       <r>    -0.2234    11.2127   203.6382 </r>
       <r>    -0.1015    12.6720   205.1819 </r>
       <r>     0.0203     5.1130   205.8048 </r>
       <r>     0.1421     2.0326   206.0524 </r>
       <r>     0.2639     4.3112   206.5776 </r>
       <r>     0.3857     5.8662   207.2922 </r>
       <r>     0.5076     8.7402   208.3570 </r>
       <r>     0.6294     4.2540   208.8752 </r>
       <r>     0.7512     4.4077   209.4121 </r>
       <r>     0.8730     9.8166   210.6080 </r>
       <r>     0.9948     8.2526   211.6133 </r>
       <r>     1.1167     7.5662   212.5350 </r>
       <r>     1.2385    14.0501   214.2466 </r>
       <r>     1.3603    16.7058   216.2817 </r>
       <r>     1.4821    11.8264   217.7224 </r>
       <r>     1.6039     6.1043   218.4661 </r>
       <r>     1.7258     6.1915   219.2203 </r>
       <r>     1.8476    10.0036   220.4389 </r>
       <r>     1.9694    29.2306   223.9998 </r>
       <r>     2.0912    11.6820   225.4229 </r>
       <r>     2.2130     8.1606   226.4171 </r>
       <r>     2.3349    18.8718   228.7160 </r>
       <r>     2.4567    21.5412   231.3402 </r>
       <r>     2.5785    14.8831   233.1532 </r>
       <r>     2.7003     7.7381   234.0959 </r>
       <r>     2.8221    35.1801   238.3816 </r>
       <r>     2.9440    45.7567   243.9556 </r>
       <r>     3.0658    13.1178   245.5537 </r>
       <r>     3.1876     9.3053   246.6872 </r>
       <r>     3.3094    15.7987   248.6118 </r>
       <r>     3.4313    28.3599   252.0666 </r>
       <r>     3.5531    13.8657   253.7558 </r>
       <r>     3.6749    10.5783   255.0444 </r>
       <r>     3.7967    30.7306   258.7880 </r>
       <r>     3.9185    28.2700   262.2319 </r>
       <r>     4.0404    19.1647   264.5665 </r>
       <r>     4.1622     3.5290   264.9964 </r>
       <r>     4.2840     0.0292   265.0000 </r>
       <r>     4.4058     0.0000   265.0000 </r>
       <r>     4.5276     0.0000   265.0000 </r>
       <r>     4.6495     0.0000   265.0000 </r>
       <r>     4.7713     0.0000   265.0000 </r>
       <r>     4.8931     0.0000   265.0000 </r>
       <r>     5.0149     0.0000   265.0000 </r>
       <r>     5.1367     0.0000   265.0000 </r>
       <r>     5.2586     0.0000   265.0000 </r>
       <r>     5.3804     0.0000   265.0000 </r>
       <r>     5.5022     0.0000   265.0000 </r>
       <r>     5.6240     0.0000   265.0000 </r>
       <r>     5.7458     0.0000   265.0000 </r>
      </set>
     </set>
    </array>
   </total>
  </dos>
 </calculation>
 <structure name="finalpos" >
  <crystal>
   <varray name="basis" >
    <v>      17.27103806       0.00000000       0.00000000 </v>
    <v>      -8.63551903      14.95715771       0.00000000 </v>
    <v>       0.00000000       0.00000000      15.00000000 </v>
   </varray>
   <i name="volume">   3874.88459904 </i>
   <varray name="rec_basis" >
    <v>       0.05790040       0.03342881      -0.00000000 </v>
    <v>       0.00000000       0.06685762       0.00000000 </v>
    <v>       0.00000000      -0.00000000       0.06666667 </v>
   </varray>
  </crystal>
  <varray name="positions" >
   <v>       0.99894705       0.00164956       0.50363292 </v>
   <v>       0.99918555       0.14468170       0.50362114 </v>
   <v>       1.00003409       0.28833775       0.50353247 </v>
   <v>       0.00054937       0.43142695       0.50394252 </v>
   <v>       0.00099770       0.57425434       0.50423426 </v>
   <v>       0.00134052       0.71717905       0.50403675 </v>
   <v>       0.99986072       0.85969480       0.50373699 </v>
   <v>       0.14319887       0.00324991       0.50285453 </v>
   <v>       0.14281049       0.14551937       0.50332862 </v>
   <v>       0.14226424       0.28732437       0.50349172 </v>
   <v>       0.14393441       0.43149829       0.50387397 </v>
   <v>       0.14490218       0.57423755       0.50404427 </v>
   <v>       0.14436435       0.71717903       0.50371984 </v>
   <v>       0.14352995       0.86030661       0.50303709 </v>
   <v>       0.28629367       0.00356817       0.50326649 </v>
   <v>       0.28671387       0.14703768       0.50342535 </v>
   <v>       0.28753642       0.29233169       0.50443068 </v>
   <v>       0.28509863       0.42648064       0.50511703 </v>
   <v>       0.29022096       0.57444917       0.50569185 </v>
   <v>       0.28771018       0.71784560       0.50474645 </v>
   <v>       0.28654880       0.86071643       0.50382773 </v>
   <v>       0.42928252       0.00400278       0.50425785 </v>
   <v>       0.42931103       0.14784929       0.50446974 </v>
   <v>       0.42953541       0.86035128       0.50501385 </v>
   <v>       0.57149517       0.00340406       0.50475180 </v>
   <v>       0.57152664       0.14695857       0.50497763 </v>
   <v>       0.57375400       0.29384770       0.50633014 </v>
   <v>       0.57352823       0.85896941       0.50640917 </v>
   <v>       0.71367232       0.00249815       0.50516039 </v>
   <v>       0.71425133       0.14617871       0.50442711 </v>
   <v>       0.71400986       0.28938326       0.50545408 </v>
   <v>       0.71028021       0.42947843       0.50784920 </v>
   <v>       0.70870023       0.85792854       0.50854149 </v>
   <v>       0.85581096       0.00148000       0.50508615 </v>
   <v>       0.85668041       0.14533126       0.50406118 </v>
   <v>       0.85699536       0.28858163       0.50436122 </v>
   <v>       0.85713342       0.43157245       0.50533761 </v>
   <v>       0.85744026       0.57409947       0.50640015 </v>
   <v>       0.85829243       0.71647454       0.50730570 </v>
   <v>       0.85462911       0.85757609       0.50641047 </v>
   <v>       0.04713758       0.09728458       0.50341469 </v>
   <v>       0.04678793       0.23985800       0.50333000 </v>
   <v>       0.04816415       0.38386849       0.50363196 </v>
   <v>       0.04910782       0.52678207       0.50393819 </v>
   <v>       0.04890939       0.66961586       0.50385382 </v>
   <v>       0.04806161       0.81239254       0.50341740 </v>
   <v>       0.04749121       0.95485818       0.50321521 </v>
   <v>       0.19096719       0.09844491       0.50304062 </v>
   <v>       0.19088803       0.24084469       0.50372428 </v>
   <v>       0.18975546       0.38222531       0.50395853 </v>
   <v>       0.19332188       0.52701796       0.50430691 </v>
   <v>       0.19225334       0.66978754       0.50411506 </v>
   <v>       0.19145247       0.81276162       0.50343911 </v>
   <v>       0.19111624       0.95566765       0.50289166 </v>
   <v>       0.33411347       0.09937550       0.50359810 </v>
   <v>       0.33793078       0.24312198       0.50458529 </v>
   <v>       0.33936933       0.67337292       0.50572156 </v>
   <v>       0.33446250       0.81294332       0.50462035 </v>
   <v>       0.33387734       0.95599447       0.50375125 </v>
   <v>       0.47661050       0.09946673       0.50456296 </v>
   <v>       0.47425779       0.24405576       0.50560739 </v>
   <v>       0.47460269       0.80954372       0.50585165 </v>
   <v>       0.47664251       0.95598686       0.50468179 </v>
   <v>       0.61883620       0.09878739       0.50461970 </v>
   <v>       0.61880372       0.24268754       0.50561341 </v>
   <v>       0.61858266       0.95485111       0.50534897 </v>
   <v>       0.76155350       0.09819925       0.50434531 </v>
   <v>       0.76178841       0.24132700       0.50470824 </v>
   <v>       0.76133072       0.38445114       0.50617528 </v>
   <v>       0.76085498       0.52912930       0.50956036 </v>
   <v>       0.76303602       0.66515829       0.51278159 </v>
   <v>       0.75776252       0.80806840       0.51038704 </v>
   <v>       0.76034043       0.95407752       0.50615478 </v>
   <v>       0.90372154       0.09680614       0.50413970 </v>
   <v>       0.90457030       0.24079835       0.50388009 </v>
   <v>       0.90485196       0.38408726       0.50453089 </v>
   <v>       0.90538441       0.52681171       0.50509937 </v>
   <v>       0.90586052       0.66916471       0.50567934 </v>
   <v>       0.90413128       0.81154683       0.50561804 </v>
   <v>       0.90310656       0.95324929       0.50473955 </v>
   <v>       0.71566295       0.71408116       0.51660095 </v>
   <v>       0.33228306       0.52255431       0.50704518 </v>
   <v>       0.62781975       0.66581657       0.52715104 </v>
   <v>       0.42092352       0.56218597       0.51079787 </v>
   <v>       0.42791260       0.28803119       0.50620375 </v>
   <v>       0.42926428       0.71940247       0.50627994 </v>
   <v>       0.71709516       0.57444055       0.51455100 </v>
   <v>       0.33145428       0.38183746       0.50501483 </v>
   <v>       0.62013476       0.38431268       0.50752118 </v>
   <v>       0.61877482       0.81410243       0.50822821 </v>
   <v>       0.46294892       0.44844283       0.47891044 </v>
   <v>       0.55575144       0.45596357       0.48334840 </v>
   <v>       0.52600077       0.48895072       0.46511203 </v>
  </varray>
  <varray name="selective"  type="logical" >
   <v type="logical" >  T  T  T </v>
   <v type="logical" >  T  T  T </v>
   <v type="logical" >  T  T  T </v>
   <v type="logical" >  T  T  T </v>
   <v type="logical" >  T  T  T </v>
   <v type="logical" >  T  T  T </v>
   <v type="logical" >  T  T  T </v>
   <v type="logical" >  T  T  T </v>
   <v type="logical" >  T  T  T </v>
   <v type="logical" >  T  T  T </v>
   <v type="logical" >  T  T  T </v>
   <v type="logical" >  T  T  T </v>
   <v type="logical" >  T  T  T </v>
   <v type="logical" >  T  T  T </v>
   <v type="logical" >  T  T  T </v>
   <v type="logical" >  T  T  T </v>
   <v type="logical" >  T  T  T </v>
   <v type="logical" >  T  T  T </v>
   <v type="logical" >  T  T  T </v>
   <v type="logical" >  T  T  T </v>
   <v type="logical" >  T  T  T </v>
   <v type="logical" >  T  T  T </v>
   <v type="logical" >  T  T  T </v>
   <v type="logical" >  T  T  T </v>
   <v type="logical" >  T  T  T </v>
   <v type="logical" >  T  T  T </v>
   <v type="logical" >  T  T  T </v>
   <v type="logical" >  T  T  T </v>
   <v type="logical" >  T  T  T </v>
   <v type="logical" >  T  T  T </v>
   <v type="logical" >  T  T  T </v>
   <v type="logical" >  T  T  T </v>
   <v type="logical" >  T  T  T </v>
   <v type="logical" >  T  T  T </v>
   <v type="logical" >  T  T  T </v>
   <v type="logical" >  T  T  T </v>
   <v type="logical" >  T  T  T </v>
   <v type="logical" >  T  T  T </v>
   <v type="logical" >  T  T  T </v>
   <v type="logical" >  T  T  T </v>
   <v type="logical" >  T  T  T </v>
   <v type="logical" >  T  T  T </v>
   <v type="logical" >  T  T  T </v>
   <v type="logical" >  T  T  T </v>
   <v type="logical" >  T  T  T </v>
   <v type="logical" >  T  T  T </v>
   <v type="logical" >  T  T  T </v>
   <v type="logical" >  T  T  T </v>
   <v type="logical" >  T  T  T </v>
   <v type="logical" >  T  T  T </v>
   <v type="logical" >  T  T  T </v>
   <v type="logical" >  T  T  T </v>
   <v type="logical" >  T  T  T </v>
   <v type="logical" >  T  T  T </v>
   <v type="logical" >  T  T  T </v>
   <v type="logical" >  T  T  T </v>
   <v type="logical" >  T  T  T </v>
   <v type="logical" >  T  T  T </v>
   <v type="logical" >  T  T  T </v>
   <v type="logical" >  T  T  T </v>
   <v type="logical" >  T  T  T </v>
   <v type="logical" >  T  T  T </v>
   <v type="logical" >  T  T  T </v>
   <v type="logical" >  T  T  T </v>
   <v type="logical" >  T  T  T </v>
   <v type="logical" >  T  T  T </v>
   <v type="logical" >  T  T  T </v>
   <v type="logical" >  T  T  T </v>
   <v type="logical" >  T  T  T </v>
   <v type="logical" >  T  T  T </v>
   <v type="logical" >  T  T  T </v>
   <v type="logical" >  T  T  T </v>
   <v type="logical" >  T  T  T </v>
   <v type="logical" >  T  T  T </v>
   <v type="logical" >  T  T  T </v>
   <v type="logical" >  T  T  T </v>
   <v type="logical" >  T  T  T </v>
   <v type="logical" >  T  T  T </v>
   <v type="logical" >  T  T  T </v>
   <v type="logical" >  T  T  T </v>
   <v type="logical" >  T  T  T </v>
   <v type="logical" >  T  T  T </v>
   <v type="logical" >  T  T  T </v>
   <v type="logical" >  T  T  T </v>
   <v type="logical" >  T  T  T </v>
   <v type="logical" >  T  T  T </v>
   <v type="logical" >  T  T  T </v>
   <v type="logical" >  T  T  T </v>
   <v type="logical" >  T  T  T </v>
   <v type="logical" >  T  T  T </v>
   <v type="logical" >  T  T  T </v>
   <v type="logical" >  T  T  T </v>
   <v type="logical" >  T  T  F </v>
  </varray>
  <nose>
   <v>      -3.00000000       0.00000000       0.00010000       0.00010000 </v>
  </nose>
 </structure>
</modeling>
