unknown system                          
            1
    17.271038    0.000000    0.000000
    -8.635519   14.957158    0.000000
     0.000000    0.000000   15.000000
   C    F    N    H    O 
    82     2     6     2     1
Direct configuration=     1
   0.99888234  0.00151788  0.50258923
   0.99908722  0.14452403  0.50262829
   0.99992605  0.28818810  0.50267922
   0.00046828  0.43128815  0.50295949
   0.00093800  0.57409194  0.50294179
   0.00131455  0.71702809  0.50270617
   0.99981449  0.85956758  0.50264596
   0.14313140  0.00308833  0.50221600
   0.14273147  0.14535762  0.50291020
   0.14215738  0.28716033  0.50300745
   0.14383893  0.43135608  0.50323470
   0.14482776  0.57408119  0.50309461
   0.14429275  0.71699020  0.50253531
   0.14347128  0.86013115  0.50205439
   0.28621709  0.00339657  0.50274613
   0.28663016  0.14688432  0.50303630
   0.28745410  0.29220589  0.50374246
   0.28498719  0.42631767  0.50451206
   0.29012556  0.57428377  0.50511337
   0.28762553  0.71764494  0.50380256
   0.28647193  0.86051264  0.50292905
   0.42918459  0.00382005  0.50363520
   0.42920962  0.14767758  0.50389445
   0.42945231  0.86016830  0.50407290
   0.57141035  0.00325047  0.50386569
   0.57141553  0.14678814  0.50415781
   0.57363946  0.29366524  0.50517397
   0.57343618  0.85880510  0.50498710
   0.71357309  0.00233144  0.50378325
   0.71415555  0.14604309  0.50338558
   0.71389315  0.28923881  0.50445261
   0.71014419  0.42933004  0.50651556
   0.70861402  0.85776368  0.50682002
   0.85572853  0.00134760  0.50362332
   0.85658091  0.14519190  0.50285423
   0.85687370  0.28846252  0.50322012
   0.85704499  0.43145260  0.50417301
   0.85739920  0.57397773  0.50510734
   0.85826676  0.71636623  0.50583355
   0.85458021  0.85748273  0.50489005
   0.04705779  0.09713771  0.50262456
   0.04667926  0.23968712  0.50262631
   0.04805955  0.38370559  0.50286452
   0.04902837  0.52660817  0.50286333
   0.04885875  0.66944155  0.50252222
   0.04800719  0.81223313  0.50226271
   0.04742511  0.95471663  0.50232684
   0.19089447  0.09829249  0.50265009
   0.19079759  0.24068647  0.50332736
   0.18964363  0.38206050  0.50341608
   0.19323481  0.52686059  0.50359075
   0.19217962  0.66961142  0.50309655
   0.19138234  0.81256573  0.50237609
   0.19104617  0.95548922  0.50219840
   0.33401855  0.09920703  0.50319270
   0.33784851  0.24298358  0.50381511
   0.33929124  0.67318836  0.50484808
   0.33438885  0.81274593  0.50365813
   0.33378428  0.95579358  0.50310066
   0.47649955  0.09928121  0.50391358
   0.47415764  0.24387980  0.50458488
   0.47452048  0.80936597  0.50465200
   0.47654578  0.95580720  0.50390782
   0.61875407  0.09864209  0.50373973
   0.61869522  0.24252509  0.50465225
   0.61848559  0.95468298  0.50416141
   0.76146240  0.09806188  0.50313183
   0.76169764  0.24120383  0.50363501
   0.76121536  0.38431078  0.50509781
   0.76078253  0.52901157  0.50812461
   0.76301805  0.66504419  0.51105747
   0.75773104  0.80796578  0.50859763
   0.76025473  0.95391321  0.50456241
   0.90363557  0.09667366  0.50284926
   0.90445163  0.24067323  0.50278114
   0.90474822  0.38395364  0.50340139
   0.90532065  0.52667182  0.50384125
   0.90583031  0.66903735  0.50432728
   0.90407124  0.81142483  0.50427643
   0.90305119  0.95314579  0.50336075
   0.71564020  0.71397875  0.51469024
   0.33216746  0.52237431  0.50667348
   0.62785310  0.66582611  0.52497422
   0.42080416  0.56204099  0.51087921
   0.42784688  0.28788627  0.50492413
   0.42918803  0.71922114  0.50517930
   0.71705413  0.57434632  0.51285824
   0.33136755  0.38170961  0.50407329
   0.61999432  0.38413237  0.50597283
   0.61869327  0.81393972  0.50652902
   0.46315979  0.45025129  0.47476452
   0.55401709  0.45363229  0.48054900
   0.52712696  0.49001550  0.46511203
Direct configuration=     2
   0.99888055  0.00151533  0.50260485
   0.99908699  0.14453622  0.50264413
   0.99992595  0.28820125  0.50269473
   0.00046813  0.43129501  0.50297410
   0.00093909  0.57409545  0.50296022
   0.00131320  0.71701483  0.50272122
   0.99980543  0.85953936  0.50266104
   0.14313846  0.00308212  0.50222674
   0.14273697  0.14536517  0.50291807
   0.14216038  0.28717817  0.50301530
   0.14383713  0.43136408  0.50324577
   0.14482198  0.57408276  0.50310850
   0.14428496  0.71698642  0.50254821
   0.14347062  0.86011101  0.50206670
   0.28622737  0.00339157  0.50275191
   0.28664482  0.14688691  0.50304196
   0.28745956  0.29221531  0.50374993
   0.28498740  0.42632402  0.50451730
   0.29012343  0.57428615  0.50512174
   0.28761853  0.71764668  0.50381840
   0.28647239  0.86051189  0.50294104
   0.42918847  0.00382064  0.50364425
   0.42921976  0.14767858  0.50390161
   0.42945809  0.86018135  0.50408495
   0.57139634  0.00324861  0.50387570
   0.57141269  0.14678456  0.50416623
   0.57363992  0.29366504  0.50518677
   0.57343013  0.85880724  0.50500708
   0.71355666  0.00233345  0.50380252
   0.71415186  0.14605254  0.50339781
   0.71389455  0.28924141  0.50446724
   0.71014953  0.42933451  0.50653335
   0.70860457  0.85775634  0.50684475
   0.85572769  0.00135060  0.50364042
   0.85658418  0.14520935  0.50286965
   0.85687587  0.28847192  0.50323886
   0.85704800  0.43145837  0.50418748
   0.85740038  0.57397840  0.50511976
   0.85826485  0.71634660  0.50585308
   0.85457588  0.85746711  0.50490700
   0.04705970  0.09713549  0.50263826
   0.04667993  0.23967749  0.50263956
   0.04806545  0.38370181  0.50287857
   0.04903197  0.52660849  0.50288034
   0.04886058  0.66944862  0.50253800
   0.04801272  0.81225942  0.50227501
   0.04743050  0.95473733  0.50234130
   0.19088511  0.09829456  0.50265741
   0.19079780  0.24067896  0.50333014
   0.18964321  0.38205167  0.50342295
   0.19324047  0.52686142  0.50360152
   0.19219471  0.66961890  0.50311267
   0.19138435  0.81257937  0.50239005
   0.19104342  0.95550990  0.50220815
   0.33400571  0.09921470  0.50319741
   0.33784074  0.24298165  0.50382384
   0.33929151  0.67318790  0.50485999
   0.33438466  0.81274169  0.50367111
   0.33377788  0.95580069  0.50310870
   0.47650142  0.09928975  0.50392251
   0.47415616  0.24388477  0.50459387
   0.47452240  0.80936475  0.50466626
   0.47654785  0.95580692  0.50391895
   0.61876391  0.09864789  0.50375209
   0.61869955  0.24253170  0.50466396
   0.61851150  0.95469450  0.50417686
   0.76147037  0.09805526  0.50314929
   0.76169792  0.24120168  0.50365150
   0.76121205  0.38431015  0.50511323
   0.76078205  0.52901128  0.50814317
   0.76301654  0.66505150  0.51108521
   0.75773738  0.80797856  0.50862214
   0.76026475  0.95391219  0.50458304
   0.90363734  0.09666001  0.50286670
   0.90445187  0.24066423  0.50279900
   0.90474578  0.38395157  0.50341845
   0.90531822  0.52667125  0.50385845
   0.90583043  0.66904801  0.50434511
   0.90408853  0.81145541  0.50429103
   0.90305808  0.95315307  0.50337630
   0.71563849  0.71396391  0.51472370
   0.33216545  0.52237441  0.50667789
   0.62785558  0.66582607  0.52502600
   0.42080428  0.56204480  0.51087924
   0.42785489  0.28788971  0.50493707
   0.42919048  0.71922671  0.50519152
   0.71705780  0.57434827  0.51288442
   0.33136696  0.38170557  0.50408293
   0.61999582  0.38413516  0.50599243
   0.61870429  0.81394250  0.50655183
   0.46315656  0.45023339  0.47481806
   0.55403652  0.45365982  0.48058980
   0.52711684  0.49000419  0.46511203
Direct configuration=     3
   0.99888567  0.00152603  0.50262262
   0.99908879  0.14452232  0.50266479
   0.99993014  0.28819037  0.50271518
   0.00046790  0.43128829  0.50299188
   0.00093957  0.57409632  0.50298432
   0.00131924  0.71703938  0.50273847
   0.99982489  0.85958868  0.50267850
   0.14313217  0.00309980  0.50224090
   0.14273016  0.14535752  0.50292571
   0.14215848  0.28715618  0.50302369
   0.14384529  0.43136147  0.50326019
   0.14483401  0.57408801  0.50312733
   0.14429778  0.71699824  0.50256622
   0.14347590  0.86014814  0.50208212
   0.28621529  0.00340646  0.50275980
   0.28662677  0.14689087  0.50304921
   0.28745567  0.29220474  0.50375657
   0.28498926  0.42631953  0.50452214
   0.29012733  0.57428979  0.50513288
   0.28762896  0.71764896  0.50383896
   0.28647363  0.86051899  0.50295677
   0.42918545  0.00382716  0.50365614
   0.42920889  0.14768447  0.50391067
   0.42945013  0.86016795  0.50410254
   0.57141522  0.00325544  0.50388983
   0.57142190  0.14679462  0.50417820
   0.57364372  0.29367275  0.50520393
   0.57344470  0.85880679  0.50503065
   0.71358581  0.00233679  0.50382754
   0.71416483  0.14604557  0.50341654
   0.71389519  0.28924295  0.50448154
   0.71014726  0.42933462  0.50655672
   0.70862045  0.85776749  0.50687654
   0.85573257  0.00134505  0.50366334
   0.85658872  0.14519211  0.50289105
   0.85687596  0.28846505  0.50326318
   0.85704327  0.43145570  0.50420743
   0.85739954  0.57398221  0.50513793
   0.85827218  0.71637790  0.50587853
   0.85458504  0.85748946  0.50492890
   0.04706003  0.09714607  0.50265624
   0.04668135  0.23969982  0.50265707
   0.04806027  0.38371612  0.50289763
   0.04902703  0.52661259  0.50290020
   0.04885875  0.66944318  0.50255860
   0.04800803  0.81222294  0.50228828
   0.04742599  0.95471230  0.50235693
   0.19090255  0.09829985  0.50266471
   0.19080265  0.24069807  0.50333499
   0.18964663  0.38207129  0.50343223
   0.19323493  0.52687008  0.50361354
   0.19217424  0.66961517  0.50313223
   0.19138363  0.81256584  0.50240792
   0.19105116  0.95548726  0.50221985
   0.33402753  0.09921056  0.50320392
   0.33785544  0.24299190  0.50383558
   0.33929245  0.67319331  0.50487568
   0.33438981  0.81275172  0.50368845
   0.33379017  0.95579739  0.50311961
   0.47650389  0.09928479  0.50393378
   0.47416183  0.24388448  0.50460634
   0.47452454  0.80937640  0.50468516
   0.47654444  0.95581216  0.50393316
   0.61875360  0.09864545  0.50376736
   0.61869881  0.24252951  0.50467906
   0.61847635  0.95468583  0.50419865
   0.76146590  0.09807032  0.50317154
   0.76170195  0.24121252  0.50367285
   0.76121812  0.38431572  0.50513342
   0.76078770  0.52901713  0.50816736
   0.76302217  0.66504118  0.51111865
   0.75772808  0.80795476  0.50865427
   0.76025249  0.95391608  0.50460761
   0.90363638  0.09668305  0.50288733
   0.90445599  0.24068556  0.50282226
   0.90475034  0.38396190  0.50343816
   0.90532372  0.52667867  0.50388019
   0.90583748  0.66903738  0.50436305
   0.90406816  0.81141384  0.50431391
   0.90305048  0.95314185  0.50339729
   0.71564318  0.71398451  0.51476616
   0.33216589  0.52237879  0.50668369
   0.62785554  0.66582618  0.52509152
   0.42081017  0.56204693  0.51088081
   0.42784638  0.28789170  0.50495313
   0.42918713  0.71922499  0.50520712
   0.71705838  0.57434964  0.51291804
   0.33137057  0.38171827  0.50409529
   0.61999981  0.38413863  0.50601716
   0.61869005  0.81394112  0.50658090
   0.46315527  0.45021188  0.47488639
   0.55406291  0.45369362  0.48064262
   0.52710010  0.48999073  0.46511203
Direct configuration=     4
   0.99888256  0.00151809  0.50263653
   0.99908886  0.14454724  0.50268038
   0.99992941  0.28821494  0.50272926
   0.00046648  0.43130099  0.50300609
   0.00094016  0.57410017  0.50300224
   0.00131451  0.71701102  0.50275170
   0.99980499  0.85952428  0.50269023
   0.14314401  0.00308421  0.50225101
   0.14274118  0.14537217  0.50293217
   0.14216360  0.28719092  0.50303028
   0.14383784  0.43137325  0.50327100
   0.14481876  0.57408785  0.50314137
   0.14428249  0.71698925  0.50258057
   0.14347203  0.86010796  0.50209427
   0.28623429  0.00339458  0.50276625
   0.28665515  0.14689389  0.50305330
   0.28746557  0.29222460  0.50376288
   0.28498913  0.42632911  0.50452688
   0.29012406  0.57429201  0.50514125
   0.28761648  0.71765131  0.50385406
   0.28647416  0.86051619  0.50296886
   0.42919183  0.00382601  0.50366523
   0.42922691  0.14768391  0.50391766
   0.42946108  0.86018974  0.50411294
   0.57139272  0.00325250  0.50390133
   0.57141526  0.14678896  0.50418778
   0.57364152  0.29367137  0.50521453
   0.57342915  0.85880993  0.50504844
   0.71355209  0.00233767  0.50384437
   0.71415332  0.14605910  0.50343034
   0.71389741  0.28924679  0.50449201
   0.71015521  0.42934032  0.50657146
   0.70860199  0.85775434  0.50689881
   0.85572835  0.00135407  0.50368079
   0.85658746  0.14522205  0.50290603
   0.85687997  0.28848173  0.50327964
   0.85705118  0.43146579  0.50422298
   0.85740462  0.57398326  0.50515237
   0.85826502  0.71633575  0.50589548
   0.85457497  0.85745955  0.50494704
   0.04706083  0.09713665  0.50266776
   0.04668162  0.23967594  0.50267039
   0.04807102  0.38370570  0.50290973
   0.04903316  0.52661035  0.50291571
   0.04886435  0.66945560  0.50257420
   0.04801808  0.81227515  0.50230209
   0.04743442  0.95475102  0.50237013
   0.19088463  0.09830034  0.50267065
   0.19079926  0.24067739  0.50333870
   0.18964246  0.38204911  0.50343776
   0.19324437  0.52686748  0.50362532
   0.19219926  0.66962537  0.50314822
   0.19138815  0.81259205  0.50241932
   0.19104155  0.95552005  0.50222729
   0.33400338  0.09922268  0.50320919
   0.33784064  0.24298531  0.50384400
   0.33929333  0.67319318  0.50488789
   0.33438680  0.81274435  0.50369894
   0.33377680  0.95580858  0.50312801
   0.47650485  0.09929818  0.50394225
   0.47415815  0.24389256  0.50461470
   0.47452363  0.80936412  0.50469953
   0.47654945  0.95581161  0.50394225
   0.61877177  0.09865398  0.50377876
   0.61870297  0.24253775  0.50469015
   0.61852116  0.95470003  0.50421462
   0.76147701  0.09805665  0.50318494
   0.76170103  0.24120449  0.50368677
   0.76121251  0.38431416  0.50514665
   0.76078425  0.52901405  0.50818627
   0.76302033  0.66505572  0.51114467
   0.75773986  0.80798203  0.50867692
   0.76027291  0.95391502  0.50462570
   0.90363954  0.09665815  0.50290281
   0.90446001  0.24066434  0.50283553
   0.90474660  0.38395511  0.50345008
   0.90531783  0.52667416  0.50389672
   0.90583493  0.66905617  0.50437756
   0.90409820  0.81147056  0.50432381
   0.90306055  0.95315696  0.50341169
   0.71563758  0.71395991  0.51480029
   0.33217003  0.52238038  0.50668823
   0.62785932  0.66583066  0.52514276
   0.42080611  0.56204647  0.51087731
   0.42786076  0.28789564  0.50496539
   0.42919330  0.71923503  0.50521878
   0.71706144  0.57435015  0.51294247
   0.33136797  0.38170581  0.50410401
   0.61999967  0.38414128  0.50603560
   0.61871154  0.81394450  0.50660282
   0.46315121  0.45019414  0.47493711
   0.55408043  0.45372019  0.48068040
   0.52709126  0.48997963  0.46511203
Direct configuration=     5
   0.99888489  0.00152468  0.50264526
   0.99908938  0.14453107  0.50269145
   0.99993387  0.28820171  0.50273929
   0.00047053  0.43129494  0.50301431
   0.00094076  0.57409979  0.50301507
   0.00131935  0.71703566  0.50276019
   0.99982246  0.85957436  0.50269616
   0.14313640  0.00309866  0.50225818
   0.14273411  0.14536390  0.50293681
   0.14216079  0.28716779  0.50303549
   0.14384485  0.43136822  0.50327873
   0.14482960  0.57409057  0.50315193
   0.14429506  0.71700013  0.50259111
   0.14347639  0.86013938  0.50210250
   0.28622101  0.00340606  0.50277081
   0.28663670  0.14689528  0.50305741
   0.28745882  0.29221177  0.50376729
   0.28499021  0.42632507  0.50453036
   0.29012840  0.57429391  0.50514763
   0.28762605  0.71765319  0.50386376
   0.28647561  0.86052186  0.50297720
   0.42918839  0.00383038  0.50367163
   0.42921320  0.14768757  0.50392290
   0.42945663  0.86017899  0.50412010
   0.57141201  0.00325886  0.50390623
   0.57142251  0.14679693  0.50419386
   0.57364330  0.29367638  0.50522271
   0.57344151  0.85880902  0.50506167
   0.71357786  0.00233840  0.50385650
   0.71416375  0.14605409  0.50344013
   0.71389795  0.28924688  0.50450006
   0.71015214  0.42933879  0.50658266
   0.70861710  0.85776536  0.50691466
   0.85573238  0.00134836  0.50369229
   0.85659134  0.14520329  0.50291804
   0.85688050  0.28847203  0.50329086
   0.85704613  0.43146107  0.50423408
   0.85740234  0.57398499  0.50516340
   0.85826912  0.71636684  0.50590821
   0.85458417  0.85748210  0.50495769
   0.04706083  0.09714575  0.50267630
   0.04668146  0.23969699  0.50267959
   0.04806610  0.38371829  0.50291907
   0.04902854  0.52661464  0.50292709
   0.04886097  0.66944848  0.50258553
   0.04801303  0.81223872  0.50230997
   0.04743021  0.95472314  0.50237764
   0.19089995  0.09830237  0.50267444
   0.19080348  0.24069591  0.50334159
   0.18964692  0.38206913  0.50344293
   0.19323863  0.52687287  0.50363257
   0.19218236  0.66962274  0.50315829
   0.19138614  0.81257647  0.50242932
   0.19105018  0.95550004  0.50223305
   0.33402278  0.09921791  0.50321306
   0.33785349  0.24299355  0.50385013
   0.33929283  0.67319629  0.50489659
   0.33439125  0.81275246  0.50370700
   0.33378773  0.95580391  0.50313436
   0.47650612  0.09929185  0.50394702
   0.47416255  0.24389017  0.50462104
   0.47452588  0.80937637  0.50470993
   0.47654718  0.95581534  0.50394901
   0.61876079  0.09865105  0.50378712
   0.61870167  0.24253586  0.50469776
   0.61849219  0.95469300  0.50422672
   0.76146875  0.09806772  0.50319506
   0.76170409  0.24121330  0.50369699
   0.76121863  0.38431916  0.50515382
   0.76078936  0.52901828  0.50819969
   0.76302174  0.66504603  0.51116309
   0.75773174  0.80796255  0.50869556
   0.76025857  0.95391652  0.50463760
   0.90363803  0.09667738  0.50291492
   0.90446206  0.24068448  0.50284696
   0.90475029  0.38396365  0.50345951
   0.90532334  0.52668030  0.50390869
   0.90583843  0.66904361  0.50438788
   0.90408124  0.81143128  0.50433441
   0.90305196  0.95314631  0.50342284
   0.71564421  0.71397897  0.51482219
   0.33216812  0.52238214  0.50669009
   0.62785893  0.66582597  0.52517694
   0.42081031  0.56204842  0.51087813
   0.42785188  0.28789618  0.50497394
   0.42918883  0.71922933  0.50522722
   0.71706078  0.57435106  0.51296032
   0.33137116  0.38171779  0.50411029
   0.62000219  0.38414326  0.50604839
   0.61869702  0.81394315  0.50661807
   0.46315088  0.45018283  0.47497246
   0.55409418  0.45373713  0.48070769
   0.52708146  0.48997344  0.46511203
Direct configuration=     6
   0.99888440  0.00152088  0.50265886
   0.99908980  0.14454462  0.50270833
   0.99993393  0.28821704  0.50275319
   0.00047039  0.43130448  0.50302587
   0.00093982  0.57410072  0.50303366
   0.00131584  0.71702189  0.50277376
   0.99981435  0.85954377  0.50270954
   0.14314340  0.00309199  0.50226877
   0.14274048  0.14537207  0.50294411
   0.14216209  0.28718372  0.50303997
   0.14384253  0.43137609  0.50329052
   0.14482345  0.57409304  0.50316792
   0.14428602  0.71699658  0.50260558
   0.14347571  0.86012152  0.50211579
   0.28623144  0.00340245  0.50277812
   0.28665139  0.14689832  0.50306222
   0.28746578  0.29222246  0.50377444
   0.28499081  0.42633089  0.50453601
   0.29012658  0.57429611  0.50515719
   0.28762193  0.71765767  0.50387450
   0.28647676  0.86052155  0.50299004
   0.42919446  0.00383338  0.50367979
   0.42922572  0.14768922  0.50393033
   0.42946243  0.86019069  0.50413026
   0.57140249  0.00325797  0.50391630
   0.57141943  0.14679511  0.50420494
   0.57364391  0.29367742  0.50523550
   0.57343553  0.85881201  0.50508155
   0.71356297  0.00234017  0.50387492
   0.71415887  0.14606015  0.50345538
   0.71389984  0.28925070  0.50451256
   0.71015575  0.42934103  0.50659836
   0.70860818  0.85775906  0.50693928
   0.85572851  0.00135206  0.50370812
   0.85659014  0.14521883  0.50293449
   0.85688333  0.28848229  0.50330799
   0.85705133  0.43146783  0.50425066
   0.85740590  0.57398623  0.50518045
   0.85826882  0.71634684  0.50592665
   0.85458071  0.85746790  0.50497538
   0.04706160  0.09714138  0.50268943
   0.04668236  0.23968409  0.50269209
   0.04807203  0.38371315  0.50293082
   0.04903291  0.52661481  0.50294444
   0.04886454  0.66945670  0.50260277
   0.04801761  0.81226291  0.50232195
   0.04743484  0.95474410  0.50239105
   0.19089026  0.09830476  0.50268155
   0.19080154  0.24068597  0.50334634
   0.18964444  0.38205786  0.50344952
   0.19324365  0.52687483  0.50364422
   0.19218926  0.66962719  0.50317418
   0.19139000  0.81259145  0.50244245
   0.19104540  0.95551610  0.50224223
   0.33401125  0.09922283  0.50321914
   0.33784660  0.24299137  0.50385934
   0.33929383  0.67319747  0.50490989
   0.33439082  0.81275164  0.50371958
   0.33378173  0.95581066  0.50314408
   0.47650637  0.09929971  0.50395471
   0.47416067  0.24389553  0.50463119
   0.47452578  0.80937017  0.50472544
   0.47655167  0.95581784  0.50395917
   0.61877051  0.09865749  0.50379944
   0.61870448  0.24254140  0.50470932
   0.61851491  0.95470128  0.50424409
   0.76147681  0.09806421  0.50321098
   0.76170544  0.24121160  0.50371264
   0.76121683  0.38431936  0.50516562
   0.76078821  0.52901696  0.50821868
   0.76302185  0.66505384  0.51119123
   0.75773864  0.80797589  0.50872153
   0.76027006  0.95391801  0.50465453
   0.90363935  0.09666357  0.50292881
   0.90446435  0.24067401  0.50286268
   0.90475015  0.38396095  0.50347424
   0.90532091  0.52667764  0.50392527
   0.90583667  0.66905469  0.50440401
   0.90409133  0.81145619  0.50434749
   0.90305854  0.95315405  0.50343941
   0.71564270  0.71396994  0.51485613
   0.33217177  0.52238519  0.50669372
   0.62786177  0.66582889  0.52522155
   0.42080614  0.56205108  0.51087805
   0.42785951  0.28789988  0.50498692
   0.42919229  0.71923644  0.50524007
   0.71706258  0.57435092  0.51298667
   0.33136970  0.38171199  0.50411966
   0.62000286  0.38414625  0.50606753
   0.61870779  0.81394538  0.50664131
   0.46314769  0.45016464  0.47502559
   0.55411285  0.45376485  0.48074727
   0.52707322  0.48996275  0.46511203
Direct configuration=     7
   0.99888695  0.00152951  0.50267723
   0.99908985  0.14452680  0.50272964
   0.99993964  0.28820151  0.50277364
   0.00047492  0.43129910  0.50304234
   0.00094225  0.57410239  0.50305819
   0.00132169  0.71704590  0.50279198
   0.99983129  0.85959631  0.50272236
   0.14313513  0.00310740  0.50228013
   0.14273244  0.14536502  0.50295403
   0.14216052  0.28716406  0.50304704
   0.14385045  0.43137279  0.50330556
   0.14483371  0.57409769  0.50318923
   0.14429684  0.71700877  0.50262289
   0.14348039  0.86015522  0.50213206
   0.28621829  0.00341372  0.50278795
   0.28663413  0.14690050  0.50306898
   0.28745788  0.29221091  0.50378416
   0.28499191  0.42632784  0.50454345
   0.29013110  0.57430023  0.50516988
   0.28762829  0.71765928  0.50389021
   0.28647934  0.86053006  0.50300677
   0.42918954  0.00383800  0.50368841
   0.42921424  0.14769472  0.50393996
   0.42945790  0.86017958  0.50414623
   0.57142377  0.00326804  0.50392900
   0.57142912  0.14680652  0.50421490
   0.57364611  0.29368416  0.50525280
   0.57344851  0.85881236  0.50510776
   0.71359068  0.00234371  0.50389875
   0.71417003  0.14605779  0.50347297
   0.71390165  0.28925208  0.50452924
   0.71015393  0.42934080  0.50661933
   0.70862440  0.85777148  0.50697084
   0.85573566  0.00134767  0.50372904
   0.85659409  0.14519886  0.50295457
   0.85688663  0.28847259  0.50332757
   0.85704796  0.43146105  0.50427049
   0.85740364  0.57398870  0.50520317
   0.85827146  0.71637518  0.50595100
   0.85458874  0.85749009  0.50499850
   0.04706217  0.09715163  0.50270677
   0.04668168  0.23970769  0.50270608
   0.04807017  0.38372942  0.50294651
   0.04902902  0.52662143  0.50296436
   0.04885825  0.66944899  0.50262520
   0.04801424  0.81223069  0.50233836
   0.04743199  0.95471606  0.50240617
   0.19090634  0.09830677  0.50268969
   0.19080736  0.24070575  0.50335262
   0.18964811  0.38207763  0.50345836
   0.19323918  0.52688117  0.50366002
   0.19217858  0.66962908  0.50319449
   0.19138952  0.81257914  0.50246013
   0.19105512  0.95549822  0.50225490
   0.33403286  0.09922255  0.50322730
   0.33786039  0.24300086  0.50387143
   0.33929319  0.67320282  0.50492638
   0.33439694  0.81276193  0.50373565
   0.33379523  0.95580876  0.50315698
   0.47651082  0.09929666  0.50396518
   0.47416682  0.24389552  0.50464501
   0.47452973  0.80938692  0.50474571
   0.47655136  0.95582350  0.50397217
   0.61876039  0.09865532  0.50381565
   0.61870400  0.24254099  0.50472450
   0.61848262  0.95469244  0.50426779
   0.76146874  0.09807555  0.50323242
   0.76170169  0.24121695  0.50372915
   0.76122551  0.38432595  0.50517977
   0.76079345  0.52901717  0.50823964
   0.76302376  0.66504552  0.51122496
   0.75773134  0.80796009  0.50875015
   0.76025474  0.95391888  0.50467551
   0.90363621  0.09668045  0.50294827
   0.90446163  0.24069360  0.50288213
   0.90475617  0.38397423  0.50349142
   0.90532655  0.52668396  0.50394506
   0.90584145  0.66904158  0.50442513
   0.90408144  0.81142167  0.50436656
   0.90305035  0.95314362  0.50346128
   0.71564969  0.71398737  0.51489721
   0.33216693  0.52238673  0.50669872
   0.62786275  0.66582893  0.52528273
   0.42081623  0.56205603  0.51087970
   0.42785136  0.28790202  0.50500363
   0.42918828  0.71923136  0.50525730
   0.71706277  0.57435314  0.51302077
   0.33137432  0.38172554  0.50413184
   0.62000584  0.38414940  0.50609184
   0.61869427  0.81394480  0.50667127
   0.46314803  0.45014346  0.47509349
   0.55413945  0.45379744  0.48079959
   0.52705482  0.48994897  0.46511203
Direct configuration=     8
   0.99888564  0.00152078  0.50269123
   0.99909009  0.14455651  0.50274227
   0.99993489  0.28822751  0.50278653
   0.00047401  0.43131321  0.50305514
   0.00094394  0.57410504  0.50307285
   0.00131406  0.71701533  0.50280507
   0.99981319  0.85952825  0.50273359
   0.14314781  0.00309194  0.50228875
   0.14274534  0.14538323  0.50295848
   0.14216508  0.28719561  0.50305252
   0.14384459  0.43138490  0.50331644
   0.14482278  0.57410004  0.50320493
   0.14428277  0.71699982  0.50263690
   0.14347728  0.86011752  0.50214322
   0.28623882  0.00340605  0.50279569
   0.28665933  0.14690339  0.50307445
   0.28747019  0.29223060  0.50379164
   0.28499190  0.42633654  0.50454915
   0.29012902  0.57430224  0.50517799
   0.28762158  0.71766373  0.50390107
   0.28647863  0.86052721  0.50301774
   0.42919917  0.00383881  0.50369562
   0.42923291  0.14769533  0.50394728
   0.42946785  0.86020063  0.50415718
   0.57140099  0.00326249  0.50394111
   0.57142297  0.14680189  0.50422326
   0.57364704  0.29368276  0.50526447
   0.57343560  0.85881617  0.50512549
   0.71355673  0.00234312  0.50391649
   0.71415671  0.14606498  0.50348673
   0.71390198  0.28925639  0.50454144
   0.71016051  0.42934465  0.50663464
   0.70860562  0.85775950  0.50699213
   0.85572671  0.00135249  0.50374492
   0.85659049  0.14522609  0.50297075
   0.85688466  0.28848951  0.50334206
   0.85705694  0.43147327  0.50428461
   0.85740873  0.57398683  0.50521950
   0.85827030  0.71634186  0.50596936
   0.85458118  0.85746243  0.50501635
   0.04706238  0.09714178  0.50271985
   0.04668219  0.23968010  0.50271743
   0.04807875  0.38371351  0.50295518
   0.04903702  0.52661973  0.50297989
   0.04886570  0.66946277  0.50264171
   0.04802150  0.81227727  0.50235039
   0.04743990  0.95475799  0.50241592
   0.19088691  0.09830905  0.50269544
   0.19080140  0.24068499  0.50335736
   0.18964549  0.38205743  0.50346488
   0.19324717  0.52688118  0.50367236
   0.19219200  0.66963482  0.50320953
   0.19139276  0.81260194  0.50247321
   0.19104514  0.95552804  0.50226434
   0.33400953  0.09922952  0.50323313
   0.33784526  0.24299434  0.50388010
   0.33929481  0.67320311  0.50493841
   0.33439073  0.81275519  0.50374588
   0.33378134  0.95581887  0.50316626
   0.47651036  0.09930872  0.50397244
   0.47416263  0.24390349  0.50465566
   0.47452778  0.80937156  0.50476074
   0.47655649  0.95582425  0.50398157
   0.61877987  0.09866756  0.50382523
   0.61870859  0.24254982  0.50473559
   0.61852614  0.95470775  0.50428459
   0.76148616  0.09806708  0.50324691
   0.76170522  0.24121268  0.50374201
   0.76122028  0.38432259  0.50519164
   0.76078808  0.52901629  0.50825731
   0.76302284  0.66505827  0.51125061
   0.75774278  0.80798347  0.50877121
   0.76027618  0.95392112  0.50469271
   0.90364193  0.09666107  0.50296183
   0.90446858  0.24067240  0.50289855
   0.90475297  0.38396169  0.50350312
   0.90532128  0.52667843  0.50396098
   0.90583822  0.66906480  0.50444028
   0.90410148  0.81147084  0.50437836
   0.90306232  0.95315804  0.50347559
   0.71564216  0.71396742  0.51492806
   0.33217605  0.52239130  0.50670333
   0.62786802  0.66583361  0.52533045
   0.42080893  0.56205454  0.51087558
   0.42786460  0.28790579  0.50501618
   0.42919484  0.71924416  0.50527015
   0.71706616  0.57435051  0.51304476
   0.33137058  0.38171290  0.50414071
   0.62000580  0.38415198  0.50610969
   0.61871438  0.81394824  0.50669395
   0.46314259  0.45012433  0.47514437
   0.55415642  0.45382467  0.48083645
   0.52704817  0.48993772  0.46511203
Direct configuration=     9
   0.99888790  0.00152944  0.50270100
   0.99909049  0.14453665  0.50275332
   0.99993950  0.28821223  0.50279562
   0.00047629  0.43130386  0.50306378
   0.00094640  0.57410573  0.50308383
   0.00132040  0.71704026  0.50281553
   0.99982814  0.85957825  0.50273961
   0.14314008  0.00310692  0.50229488
   0.14273617  0.14537209  0.50296432
   0.14216207  0.28717554  0.50305695
   0.14384992  0.43137877  0.50332274
   0.14483257  0.57410040  0.50321612
   0.14429324  0.71701027  0.50264727
   0.14348069  0.86014868  0.50215087
   0.28622564  0.00341556  0.50280119
   0.28664223  0.14690425  0.50307825
   0.28746251  0.29221736  0.50379603
   0.28499368  0.42633368  0.50455328
   0.29013285  0.57430333  0.50518323
   0.28762674  0.71766330  0.50390932
   0.28647851  0.86053301  0.50302560
   0.42919517  0.00384303  0.50369951
   0.42922209  0.14769910  0.50395243
   0.42945982  0.86018825  0.50416523
   0.57142086  0.00326834  0.50394803
   0.57142966  0.14680942  0.50422935
   0.57364869  0.29368779  0.50527324
   0.57344740  0.85881572  0.50513870
   0.71358424  0.00234672  0.50392773
   0.71416865  0.14606143  0.50349502
   0.71390376  0.28925470  0.50454949
   0.71015779  0.42934350  0.50664573