 running   48 mpi-ranks, on    1 nodes
 distrk:  each k-point on   48 cores,    1 groups
 distr:  one band on    1 cores,   48 groups
 vasp.6.4.2 20Jul23 (build Aug 26 2025 15:10:52) complex                        
  
 POSCAR found type information on POSCAR C N H O 
 POSCAR found :  4 types and      91 ions
 Reading from existing POTCAR
 scaLAPACK will be used
 -----------------------------------------------------------------------------
|                                                                             |
|           W    W    AA    RRRRR   N    N  II  N    N   GGGG   !!!           |
|           W    W   A  A   R    R  NN   N  II  NN   N  G    G  !!!           |
|           W    W  A    A  R    R  N N  N  II  N N  N  G       !!!           |
|           W WW W  AAAAAA  RRRRR   N  N N  II  N  N N  G  GGG   !            |
|           WW  WW  A    A  R   R   N   NN  II  N   NN  G    G                |
|           W    W  A    A  R    R  N    N  II  N    N   GGGG   !!!           |
|                                                                             |
|     For optimal performance we recommend to set                             |
|       NCORE = 2 up to number-of-cores-per-socket                            |
|     NCORE specifies how many cores store one orbital (NPAR=cpu/NCORE).      |
|     This setting can greatly improve the performance of VASP for DFT.       |
|     The default, NCORE=1 might be grossly inefficient on modern             |
|     multi-core architectures or massively parallel machines. Do your        |
|     own testing! More info at https://www.vasp.at/wiki/index.php/NCORE      |
|     Unfortunately you need to use the default for GW and RPA                |
|     calculations (for HF NCORE is supported but not extensively tested      |
|     yet).                                                                   |
|                                                                             |
 -----------------------------------------------------------------------------

 Reading from existing POTCAR
 -----------------------------------------------------------------------------
|                                                                             |
|               ----> ADVICE to this user running VASP <----                  |
|                                                                             |
|     You have a (more or less) 'large supercell' and for larger cells it     |
|     might be more efficient to use real-space projection operators.         |
|     Therefore, try LREAL= Auto in the INCAR file.                           |
|     Mind: For very accurate calculation, you might also keep the            |
|     reciprocal projection scheme (i.e. LREAL=.FALSE.).                      |
|                                                                             |
 -----------------------------------------------------------------------------

 LDA part: xc-table for Pade appr. of Perdew
 POSCAR found type information on POSCAR C N H O 
 POSCAR found :  4 types and      91 ions
 POSCAR, INCAR and KPOINTS ok, starting setup
 FFT: planning ... GRIDC
 FFT: planning ... GRID_SOFT
 FFT: planning ... GRID
 WAVECAR not read
 entering main loop
       N       E                     dE             d eps       ncg     rms          rms(c)
DAV:   1     0.349884634484E+04    0.34988E+04   -0.13814E+05  9792   0.116E+03
DAV:   2    -0.220275846867E+03   -0.37191E+04   -0.35966E+04 15312   0.276E+02
DAV:   3    -0.845140429517E+03   -0.62486E+03   -0.62241E+03 11520   0.124E+02
DAV:   4    -0.865666079765E+03   -0.20526E+02   -0.20432E+02 12336   0.294E+01
DAV:   5    -0.866289431053E+03   -0.62335E+00   -0.62262E+00 13920   0.418E+00    0.428E+01
DAV:   6    -0.837619861971E+03    0.28670E+02   -0.20831E+01 10368   0.772E+00    0.323E+01
DAV:   7    -0.813435930897E+03    0.24184E+02   -0.78397E+01 11520   0.143E+01    0.146E+01
DAV:   8    -0.813337253352E+03    0.98678E-01   -0.21473E+01 11472   0.479E+00    0.826E+00
DAV:   9    -0.813358870301E+03   -0.21617E-01   -0.13396E+00 11376   0.230E+00    0.529E+00
DAV:  10    -0.812868625196E+03    0.49025E+00   -0.17968E+00 11328   0.201E+00    0.180E+00
DAV:  11    -0.812825766711E+03    0.42858E-01   -0.27673E-01 11616   0.923E-01    0.702E-01
DAV:  12    -0.812818175936E+03    0.75908E-02   -0.52116E-02 11520   0.408E-01    0.322E-01
DAV:  13    -0.812815201091E+03    0.29748E-02   -0.11278E-02 12288   0.216E-01    0.174E-01
DAV:  14    -0.812814658420E+03    0.54267E-03   -0.14134E-03 11808   0.779E-02    0.126E-01
DAV:  15    -0.812814135311E+03    0.52311E-03   -0.14568E-03 12576   0.675E-02    0.500E-02
DAV:  16    -0.812814112727E+03    0.22584E-04   -0.65161E-04 11568   0.325E-02    0.267E-02
DAV:  17    -0.812814118653E+03   -0.59265E-05   -0.59933E-05 11520   0.139E-02    0.131E-02
DAV:  18    -0.812814114924E+03    0.37296E-05   -0.90329E-06 12336   0.616E-03    0.739E-03
DAV:  19    -0.812814114141E+03    0.78302E-06   -0.35940E-06 10656   0.339E-03
   1 F= -.82016344E+03 E0= -.82016327E+03  d E =-.820163E+03  mag=     0.0000
 curvature:   0.00 expect dE= 0.000E+00 dE for cont linesearch  0.000E+00
 trial: gam= 0.00000 g(F)=  0.794E-03 g(S)=  0.000E+00 ort = 0.000E+00 (trialstep = 0.100E+01)
 search vector abs. value=  0.794E-03
 bond charge predicted
       N       E                     dE             d eps       ncg     rms          rms(c)
DAV:   1    -0.812814691791E+03   -0.57687E-03   -0.21691E-02 11088   0.322E-01    0.356E-02
DAV:   2    -0.812814718590E+03   -0.26799E-04   -0.46801E-04 11856   0.463E-02    0.294E-02
DAV:   3    -0.812814704347E+03    0.14244E-04   -0.27087E-05 12480   0.125E-02    0.205E-02
DAV:   4    -0.812814697087E+03    0.72598E-05   -0.33908E-05 11520   0.129E-02    0.722E-03
DAV:   5    -0.812814697090E+03   -0.28667E-08   -0.70130E-06  9984   0.576E-03
   2 F= -.82016400E+03 E0= -.82016383E+03  d E =-.560868E-03  mag=    -0.0000
 trial-energy change:   -0.000561  1 .order   -0.000560   -0.000794   -0.000326
 step:   1.6945(harm=  1.6945)  dis= 0.00099  next Energy=  -820.164112 (dE=-0.673E-03)
 bond charge predicted
       N       E                     dE             d eps       ncg     rms          rms(c)
DAV:   1    -0.812814824372E+03   -0.12728E-03   -0.10444E-02 10848   0.223E-01    0.252E-02
DAV:   2    -0.812814838586E+03   -0.14214E-04   -0.22397E-04 11664   0.320E-02    0.204E-02
DAV:   3    -0.812814832537E+03    0.60487E-05   -0.12936E-05 12480   0.872E-03    0.142E-02
DAV:   4    -0.812814829859E+03    0.26778E-05   -0.15526E-05 11520   0.877E-03    0.520E-03
DAV:   5    -0.812814829845E+03    0.14443E-07   -0.33133E-06  9504   0.407E-03
   3 F= -.82016412E+03 E0= -.82016395E+03  d E =-.677250E-03  mag=    -0.0000
 curvature:  -0.85 expect dE=-0.169E-03 dE for cont linesearch -0.566E-08
 trial: gam= 0.24789 g(F)=  0.199E-03 g(S)=  0.000E+00 ort = 0.230E-05 (trialstep = 0.114E+01)
 search vector abs. value=  0.249E-03
 bond charge predicted
       N       E                     dE             d eps       ncg     rms          rms(c)
DAV:   1    -0.812815017849E+03   -0.18799E-03   -0.75729E-03 10560   0.197E-01    0.181E-02
DAV:   2    -0.812815028604E+03   -0.10756E-04   -0.14217E-04 12096   0.254E-02    0.153E-02
DAV:   3    -0.812815026665E+03    0.19398E-05   -0.58285E-06 11808   0.630E-03    0.118E-02
DAV:   4    -0.812815025820E+03    0.84462E-06   -0.65297E-06 11136   0.593E-03
   4 F= -.82016431E+03 E0= -.82016414E+03  d E =-.191694E-03  mag=    -0.0000
 trial-energy change:   -0.000192  1 .order   -0.000190   -0.000228   -0.000152
 step:   3.4282(harm=  3.4282)  dis= 0.00102  next Energy=  -820.164459 (dE=-0.342E-03)
 bond charge predicted
       N       E                     dE             d eps       ncg     rms          rms(c)
DAV:   1    -0.812815165141E+03   -0.13848E-03   -0.30600E-02 10368   0.396E-01    0.370E-02
DAV:   2    -0.812815209019E+03   -0.43879E-04   -0.56985E-04 12192   0.509E-02    0.313E-02
DAV:   3    -0.812815201420E+03    0.75994E-05   -0.22874E-05 12480   0.125E-02    0.242E-02
DAV:   4    -0.812815198158E+03    0.32622E-05   -0.25038E-05 11232   0.118E-02    0.102E-02
DAV:   5    -0.812815198857E+03   -0.69913E-06   -0.67435E-06 10944   0.583E-03
   5 F= -.82016447E+03 E0= -.82016430E+03  d E =-.354888E-03  mag=     0.0000
 curvature:  -2.14 expect dE=-0.373E-03 dE for cont linesearch -0.126E-06
 trial: gam= 0.86565 g(F)=  0.174E-03 g(S)=  0.000E+00 ort = 0.384E-05 (trialstep = 0.108E+01)
 search vector abs. value=  0.368E-03
 bond charge predicted
       N       E                     dE             d eps       ncg     rms          rms(c)
DAV:   1    -0.812815322578E+03   -0.12442E-03   -0.10086E-02 10368   0.226E-01    0.207E-02
DAV:   2    -0.812815336332E+03   -0.13754E-04   -0.18421E-04 12480   0.280E-02    0.172E-02
DAV:   3    -0.812815334203E+03    0.21291E-05   -0.67248E-06 12000   0.674E-03    0.129E-02
DAV:   4    -0.812815333688E+03    0.51532E-06   -0.60531E-06 10848   0.550E-03
   6 F= -.82016462E+03 E0= -.82016446E+03  d E =-.153558E-03  mag=    -0.0000
 trial-energy change:   -0.000154  1 .order   -0.000152   -0.000192   -0.000112
 step:   2.5966(harm=  2.5966)  dis= 0.00090  next Energy=  -820.164702 (dE=-0.231E-03)
 bond charge predicted
       N       E                     dE             d eps       ncg     rms          rms(c)
DAV:   1    -0.812815368848E+03   -0.34645E-04   -0.19747E-02 10080   0.316E-01    0.294E-02
DAV:   2    -0.812815395022E+03   -0.26174E-04   -0.35150E-04 12480   0.388E-02    0.246E-02
DAV:   3    -0.812815390786E+03    0.42363E-05   -0.12793E-05 12480   0.939E-03    0.186E-02
DAV:   4    -0.812815389790E+03    0.99590E-06   -0.12145E-05 11232   0.783E-03    0.769E-03
DAV:   5    -0.812815390525E+03   -0.73521E-06   -0.30084E-06  8160   0.377E-03
   7 F= -.82016471E+03 E0= -.82016454E+03  d E =-.236130E-03  mag=     0.0000
 curvature:  -2.69 expect dE=-0.300E-03 dE for cont linesearch -0.660E-09
 trial: gam= 0.67895 g(F)=  0.112E-03 g(S)=  0.000E+00 ort = 0.301E-06 (trialstep = 0.138E+01)
 search vector abs. value=  0.282E-03
 bond charge predicted
       N       E                     dE             d eps       ncg     rms          rms(c)
DAV:   1    -0.812815502433E+03   -0.11264E-03   -0.13474E-02 10080   0.255E-01    0.232E-02
DAV:   2    -0.812815520796E+03   -0.18363E-04   -0.24455E-04 12000   0.320E-02    0.194E-02
DAV:   3    -0.812815518041E+03    0.27550E-05   -0.83148E-06 13440   0.729E-03    0.149E-02
DAV:   4    -0.812815517839E+03    0.20247E-06   -0.64582E-06 10656   0.576E-03
   8 F= -.82016484E+03 E0= -.82016468E+03  d E =-.133747E-03  mag=    -0.0000
 trial-energy change:   -0.000134  1 .order   -0.000132   -0.000155   -0.000109
 step:   4.7015(harm=  4.7015)  dis= 0.00147  next Energy=  -820.164971 (dE=-0.263E-03)
 bond charge predicted
       N       E                     dE             d eps       ncg     rms          rms(c)
DAV:   1    -0.812815552145E+03   -0.34103E-04   -0.76957E-02  9792   0.611E-01    0.561E-02
DAV:   2    -0.812815653549E+03   -0.10140E-03   -0.13675E-03 12000   0.758E-02    0.469E-02
DAV:   3    -0.812815637356E+03    0.16194E-04   -0.47802E-05 13152   0.176E-02    0.355E-02
DAV:   4    -0.812815636064E+03    0.12917E-05   -0.37948E-05 10560   0.140E-02    0.152E-02
DAV:   5    -0.812815640117E+03   -0.40528E-05   -0.12837E-05 11520   0.723E-03    0.660E-03
DAV:   6    -0.812815640071E+03    0.46195E-07   -0.19340E-06  8352   0.315E-03
   9 F= -.82016498E+03 E0= -.82016481E+03  d E =-.270438E-03  mag=     0.0000
 curvature:  -5.91 expect dE=-0.732E-03 dE for cont linesearch -0.518E-08
 trial: gam= 1.09798 g(F)=  0.124E-03 g(S)=  0.000E+00 ort =-0.497E-06 (trialstep = 0.125E+01)
 search vector abs. value=  0.462E-03
 bond charge predicted
       N       E                     dE             d eps       ncg     rms          rms(c)
DAV:   1    -0.812815753453E+03   -0.11334E-03   -0.17610E-02  9984   0.289E-01    0.254E-02
DAV:   2    -0.812815777013E+03   -0.23561E-04   -0.32268E-04 10944   0.367E-02    0.219E-02
DAV:   3    -0.812815773271E+03    0.37420E-05   -0.12526E-05 13440   0.847E-03    0.167E-02
DAV:   4    -0.812815772977E+03    0.29449E-06   -0.97101E-06 10752   0.726E-03
  10 F= -.82016510E+03 E0= -.82016494E+03  d E =-.126447E-03  mag=    -0.0000
 trial-energy change:   -0.000126  1 .order   -0.000124   -0.000154   -0.000094
 step:   3.1938(harm=  3.1938)  dis= 0.00121  next Energy=  -820.165175 (dE=-0.197E-03)
 bond charge predicted
       N       E                     dE             d eps       ncg     rms          rms(c)
DAV:   1    -0.812815818510E+03   -0.45238E-04   -0.42578E-02  9792   0.449E-01    0.410E-02
DAV:   2    -0.812815872765E+03   -0.54256E-04   -0.74913E-04 10848   0.562E-02    0.353E-02
DAV:   3    -0.812815864268E+03    0.84975E-05   -0.29659E-05 13440   0.131E-02    0.266E-02
DAV:   4    -0.812815865092E+03   -0.82448E-06   -0.23836E-05 10560   0.114E-02    0.998E-03
DAV:   5    -0.812815867218E+03   -0.21260E-05   -0.70721E-06 10944   0.540E-03    0.497E-03
DAV:   6    -0.812815867349E+03   -0.13061E-06   -0.88258E-07  7296   0.210E-03
  11 F= -.82016519E+03 E0= -.82016502E+03  d E =-.210294E-03  mag=     0.0000
 curvature:  -5.99 expect dE=-0.694E-03 dE for cont linesearch -0.196E-06
 trial: gam= 0.90103 g(F)=  0.116E-03 g(S)=  0.000E+00 ort = 0.389E-05 (trialstep = 0.152E+01)
 search vector abs. value=  0.498E-03
 bond charge predicted
       N       E                     dE             d eps       ncg     rms          rms(c)
DAV:   1    -0.812815980844E+03   -0.11363E-03   -0.29149E-02  9792   0.364E-01    0.323E-02
DAV:   2    -0.812816019280E+03   -0.38436E-04   -0.52690E-04 10464   0.462E-02    0.279E-02
DAV:   3    -0.812816013078E+03    0.62020E-05   -0.19671E-05 13440   0.103E-02    0.211E-02
DAV:   4    -0.812816012820E+03    0.25781E-06   -0.14553E-05 10560   0.892E-03    0.815E-03
DAV:   5    -0.812816014380E+03   -0.15606E-05   -0.50134E-06 11520   0.441E-03    0.382E-03
DAV:   6    -0.812816014459E+03   -0.79090E-07   -0.62144E-07  7296   0.178E-03
  12 F= -.82016534E+03 E0= -.82016518E+03  d E =-.155671E-03  mag=    -0.0000
 trial-energy change:   -0.000156  1 .order   -0.000153   -0.000181   -0.000124
 step:   4.8388(harm=  4.8388)  dis= 0.00200  next Energy=  -820.165477 (dE=-0.289E-03)
 bond charge predicted
       N       E                     dE             d eps       ncg     rms          rms(c)
DAV:   1    -0.812815981397E+03    0.32984E-04   -0.13886E-01  9600   0.796E-01    0.705E-02
DAV:   2    -0.812816163347E+03   -0.18195E-03   -0.24949E-03  9984   0.101E-01    0.610E-02
DAV:   3    -0.812816133390E+03    0.29957E-04   -0.93665E-05 13440   0.224E-02    0.460E-02
DAV:   4    -0.812816130899E+03    0.24901E-05   -0.69760E-05 10368   0.195E-02    0.176E-02
DAV:   5    -0.812816137805E+03   -0.69057E-05   -0.23785E-05 11520   0.960E-03    0.829E-03
DAV:   6    -0.812816138128E+03   -0.32294E-06   -0.32242E-06  9984   0.386E-03
  13 F= -.82016549E+03 E0= -.82016532E+03  d E =-.297150E-03  mag=     0.0000
 curvature: -10.10 expect dE=-0.151E-02 dE for cont linesearch -0.471E-08
 trial: gam= 1.37495 g(F)=  0.149E-03 g(S)=  0.000E+00 ort =-0.482E-06 (trialstep = 0.998E+00)
 search vector abs. value=  0.109E-02
 bond charge predicted
       N       E                     dE             d eps       ncg     rms          rms(c)
DAV:   1    -0.812816217994E+03   -0.80189E-04   -0.26492E-02  9600   0.347E-01    0.307E-02
DAV:   2    -0.812816253378E+03   -0.35383E-04   -0.48083E-04 10176   0.442E-02    0.266E-02
DAV:   3    -0.812816248123E+03    0.52550E-05   -0.17259E-05 13440   0.938E-03    0.202E-02
DAV:   4    -0.812816248547E+03   -0.42389E-06   -0.13310E-05 10560   0.860E-03    0.726E-03
DAV:   5    -0.812816249832E+03   -0.12855E-05   -0.41726E-06 10752   0.399E-03    0.347E-03
DAV:   6    -0.812816249902E+03   -0.69849E-07   -0.52624E-07  7104   0.163E-03
  14 F= -.82016561E+03 E0= -.82016545E+03  d E =-.128416E-03  mag=    -0.0000
 trial-energy change:   -0.000128  1 .order   -0.000126   -0.000148   -0.000104
 step:   3.3648(harm=  3.3648)  dis= 0.00228  next Energy=  -820.165735 (dE=-0.250E-03)
 bond charge predicted
       N       E                     dE             d eps       ncg     rms          rms(c)
DAV:   1    -0.812816172292E+03    0.77540E-04   -0.14837E-01  9600   0.821E-01    0.729E-02
DAV:   2    -0.812816364750E+03   -0.19246E-03   -0.26506E-03  9696   0.104E-01    0.632E-02
DAV:   3    -0.812816332898E+03    0.31852E-04   -0.97005E-05 13440   0.223E-02    0.473E-02
DAV:   4    -0.812816332958E+03   -0.60980E-07   -0.74915E-05 10176   0.204E-02    0.169E-02
DAV:   5    -0.812816339622E+03   -0.66638E-05   -0.23819E-05 11520   0.945E-03    0.813E-03
DAV:   6    -0.812816339889E+03   -0.26715E-06   -0.32337E-06  9984   0.384E-03
  15 F= -.82016574E+03 E0= -.82016558E+03  d E =-.257221E-03  mag=    -0.0000
 curvature: -12.35 expect dE=-0.185E-02 dE for cont linesearch -0.150E-08
 trial: gam= 0.96657 g(F)=  0.150E-03 g(S)=  0.000E+00 ort = 0.364E-06 (trialstep = 0.137E+01)
 search vector abs. value=  0.117E-02
 bond charge predicted
       N       E                     dE             d eps       ncg     rms          rms(c)
DAV:   1    -0.812816437022E+03   -0.97400E-04   -0.55231E-02  9600   0.492E-01    0.433E-02
DAV:   2    -0.812816510130E+03   -0.73108E-04   -0.99160E-04  9888   0.630E-02    0.382E-02
DAV:   3    -0.812816498517E+03    0.11614E-04   -0.33199E-05 13440   0.130E-02    0.291E-02
DAV:   4    -0.812816500011E+03   -0.14948E-05   -0.36037E-05 11040   0.139E-02    0.879E-03
DAV:   5    -0.812816501842E+03   -0.18307E-05   -0.88627E-06 11712   0.595E-03    0.501E-03
DAV:   6    -0.812816502102E+03   -0.26033E-06   -0.83458E-07  7104   0.212E-03
  16 F= -.82016592E+03 E0= -.82016576E+03  d E =-.178285E-03  mag=    -0.0000
 trial-energy change:   -0.000178  1 .order   -0.000175   -0.000206   -0.000143
 step:   4.4854(harm=  4.4854)  dis= 0.00315  next Energy=  -820.166080 (dE=-0.337E-03)
 bond charge predicted
       N       E                     dE             d eps       ncg     rms          rms(c)
DAV:   1    -0.812816324455E+03    0.17739E-03   -0.28389E-01  9600   0.112E+00    0.983E-02
DAV:   2    -0.812816695381E+03   -0.37093E-03   -0.50466E-03  9696   0.142E-01    0.868E-02
DAV:   3    -0.812816633649E+03    0.61732E-04   -0.17028E-04 13440   0.296E-02    0.657E-02
DAV:   4    -0.812816634957E+03   -0.13071E-05   -0.18639E-04 10560   0.316E-02    0.198E-02
DAV:   5    -0.812816644207E+03   -0.92508E-05   -0.45722E-05 12000   0.135E-02    0.113E-02
DAV:   6    -0.812816645488E+03   -0.12804E-05   -0.46949E-06 10560   0.473E-03    0.603E-03
DAV:   7    -0.812816645638E+03   -0.15002E-06   -0.19376E-06  9216   0.299E-03
  17 F= -.82016610E+03 E0= -.82016594E+03  d E =-.357092E-03  mag=     0.0000
 curvature: -17.45 expect dE=-0.313E-02 dE for cont linesearch -0.573E-06
 trial: gam= 1.17521 g(F)=  0.179E-03 g(S)=  0.000E+00 ort = 0.619E-05 (trialstep = 0.129E+01)
 search vector abs. value=  0.181E-02
 bond charge predicted
       N       E                     dE             d eps       ncg     rms          rms(c)
DAV:   1    -0.812816737670E+03   -0.92183E-04   -0.72142E-02  9600   0.563E-01    0.490E-02
DAV:   2    -0.812816829259E+03   -0.91589E-04   -0.12664E-03  9696   0.716E-02    0.437E-02
DAV:   3    -0.812816813134E+03    0.16125E-04   -0.43377E-05 13440   0.148E-02    0.327E-02
DAV:   4    -0.812816816391E+03   -0.32571E-05   -0.51952E-05 10848   0.165E-02    0.875E-03
DAV:   5    -0.812816817491E+03   -0.11004E-05   -0.11280E-05 11328   0.692E-03    0.532E-03
DAV:   6    -0.812816817966E+03   -0.47506E-06   -0.11838E-06  6720   0.236E-03
  18 F= -.82016630E+03 E0= -.82016614E+03  d E =-.203598E-03  mag=     0.0000
 trial-energy change:   -0.000204  1 .order   -0.000201   -0.000241   -0.000160
 step:   3.8598(harm=  3.8598)  dis= 0.00372  next Energy=  -820.166460 (dE=-0.360E-03)
 bond charge predicted
       N       E                     dE             d eps       ncg     rms          rms(c)
DAV:   1    -0.812816618467E+03    0.19902E-03   -0.28684E-01  9600   0.112E+00    0.977E-02
DAV:   2    -0.812816983903E+03   -0.36544E-03   -0.50103E-03  9600   0.143E-01    0.872E-02
DAV:   3    -0.812816921762E+03    0.62142E-04   -0.17198E-04 13440   0.295E-02    0.653E-02
DAV:   4    -0.812816928437E+03   -0.66756E-05   -0.20486E-04 10656   0.329E-02    0.174E-02
DAV:   5    -0.812816933016E+03   -0.45791E-05   -0.44921E-05 11520   0.138E-02    0.105E-02
DAV:   6    -0.812816935241E+03   -0.22246E-05   -0.52667E-06 11040   0.470E-03    0.467E-03
DAV:   7    -0.812816935275E+03   -0.33899E-07   -0.10648E-06  8640   0.235E-03
  19 F= -.82016648E+03 E0= -.82016632E+03  d E =-.382308E-03  mag=     0.0000
 curvature: -18.69 expect dE=-0.394E-02 dE for cont linesearch -0.853E-06
 trial: gam= 1.18968 g(F)=  0.211E-03 g(S)=  0.000E+00 ort = 0.908E-05 (trialstep = 0.117E+01)
 search vector abs. value=  0.279E-02
 bond charge predicted
       N       E                     dE             d eps       ncg     rms          rms(c)
DAV:   1    -0.812817022700E+03   -0.87459E-04   -0.93632E-02  9600   0.633E-01    0.556E-02
DAV:   2    -0.812817142796E+03   -0.12010E-03   -0.16399E-03  9696   0.808E-02    0.496E-02
DAV:   3    -0.812817122517E+03    0.20279E-04   -0.53716E-05 13440   0.164E-02    0.374E-02
DAV:   4    -0.812817125347E+03   -0.28299E-05   -0.70868E-05 10656   0.190E-02    0.989E-03
DAV:   5    -0.812817126878E+03   -0.15308E-05   -0.14980E-05 11712   0.791E-03    0.610E-03
DAV:   6    -0.812817127606E+03   -0.72795E-06   -0.14449E-06  7488   0.264E-03
  20 F= -.82016671E+03 E0= -.82016654E+03  d E =-.225927E-03  mag=    -0.0000
 trial-energy change:   -0.000226  1 .order   -0.000222   -0.000259   -0.000185
 step:   4.1189(harm=  4.1189)  dis= 0.00489  next Energy=  -820.166938 (dE=-0.456E-03)
 bond charge predicted
       N       E                     dE             d eps       ncg     rms          rms(c)
DAV:   1    -0.812816636734E+03    0.49014E-03   -0.59767E-01  9600   0.160E+00    0.141E-01
DAV:   2    -0.812817412256E+03   -0.77552E-03   -0.10456E-02  9600   0.204E-01    0.125E-01
DAV:   3    -0.812817285126E+03    0.12713E-03   -0.34242E-04 13440   0.414E-02    0.948E-02
DAV:   4    -0.812817291278E+03   -0.61525E-05   -0.44689E-04 10560   0.478E-02    0.252E-02
DAV:   5    -0.812817301262E+03   -0.99835E-05   -0.95322E-05 11808   0.199E-02    0.153E-02
DAV:   6    -0.812817305461E+03   -0.41991E-05   -0.97836E-06 10656   0.657E-03    0.722E-03
DAV:   7    -0.812817305429E+03    0.31774E-07   -0.30158E-06  9600   0.378E-03
  21 F= -.82016697E+03 E0= -.82016681E+03  d E =-.487362E-03  mag=     0.0000
 curvature: -25.94 expect dE=-0.612E-02 dE for cont linesearch -0.155E-05
 trial: gam= 1.13946 g(F)=  0.236E-03 g(S)=  0.000E+00 ort = 0.129E-04 (trialstep = 0.126E+01)
 search vector abs. value=  0.389E-02
 bond charge predicted
       N       E                     dE             d eps       ncg     rms          rms(c)
DAV:   1    -0.812817369694E+03   -0.64233E-04   -0.14670E-01  9600   0.794E-01    0.709E-02
DAV:   2    -0.812817558345E+03   -0.18865E-03   -0.25675E-03  9696   0.101E-01    0.624E-02
DAV:   3    -0.812817527411E+03    0.30934E-04   -0.86551E-05 13440   0.207E-02    0.466E-02
DAV:   4    -0.812817530529E+03   -0.31174E-05   -0.93497E-05 10752   0.221E-02    0.137E-02
DAV:   5    -0.812817534518E+03   -0.39889E-05   -0.21796E-05 11904   0.929E-03    0.752E-03
DAV:   6    -0.812817535270E+03   -0.75206E-06   -0.23962E-06  8448   0.329E-03
  22 F= -.82016724E+03 E0= -.82016708E+03  d E =-.268605E-03  mag=     0.0000
 trial-energy change:   -0.000269  1 .order   -0.000265   -0.000316   -0.000214
 step:   3.8849(harm=  3.8849)  dis= 0.00575  next Energy=  -820.167456 (dE=-0.487E-03)
 bond charge predicted
       N       E                     dE             d eps       ncg     rms          rms(c)
DAV:   1    -0.812816992976E+03    0.54154E-03   -0.63448E-01  9600   0.165E+00    0.148E-01
DAV:   2    -0.812817813536E+03   -0.82056E-03   -0.11083E-02  9600   0.211E-01    0.130E-01
DAV:   3    -0.812817679891E+03    0.13365E-03   -0.37410E-04 13440   0.430E-02    0.973E-02
DAV:   4    -0.812817685420E+03   -0.55295E-05   -0.39893E-04 10656   0.457E-02    0.288E-02
DAV:   5    -0.812817702689E+03   -0.17269E-04   -0.94377E-05 12288   0.193E-02    0.155E-02
DAV:   6    -0.812817705528E+03   -0.28390E-05   -0.10607E-05  9792   0.680E-03    0.733E-03
DAV:   7    -0.812817705633E+03   -0.10464E-06   -0.37122E-06 10656   0.408E-03
  23 F= -.82016749E+03 E0= -.82016733E+03  d E =-.518515E-03  mag=     0.0000
 curvature: -30.14 expect dE=-0.722E-02 dE for cont linesearch -0.208E-05
 trial: gam= 1.01432 g(F)=  0.240E-03 g(S)=  0.000E+00 ort = 0.164E-04 (trialstep = 0.163E+01)
 search vector abs. value=  0.427E-02
 bond charge predicted
       N       E                     dE             d eps       ncg     rms          rms(c)
DAV:   1    -0.812817678346E+03    0.27182E-04   -0.27045E-01  9600   0.107E+00    0.967E-02
DAV:   2    -0.812818028341E+03   -0.34999E-03   -0.47323E-03  9600   0.136E-01    0.847E-02
DAV:   3    -0.812817971980E+03    0.56360E-04   -0.16009E-04 13440   0.279E-02    0.633E-02
DAV:   4    -0.812817974854E+03   -0.28732E-05   -0.15949E-04 10464   0.286E-02    0.196E-02
DAV:   5    -0.812817983732E+03   -0.88787E-05   -0.39050E-05 11712   0.123E-02    0.102E-02
DAV:   6    -0.812817984622E+03   -0.89008E-06   -0.54502E-06 10656   0.497E-03
  24 F= -.82016782E+03 E0= -.82016766E+03  d E =-.328631E-03  mag=    -0.0000
 trial-energy change:   -0.000329  1 .order   -0.000325   -0.000417   -0.000234
 step:   3.7107(harm=  3.7107)  dis= 0.00569  next Energy=  -820.167963 (dE=-0.475E-03)
 bond charge predicted
       N       E                     dE             d eps       ncg     rms          rms(c)
DAV:   1    -0.812817581533E+03    0.40220E-03   -0.44567E-01  9600   0.137E+00    0.124E-01
DAV:   2    -0.812818162328E+03   -0.58080E-03   -0.78137E-03  9600   0.175E-01    0.109E-01
DAV:   3    -0.812818070781E+03    0.91547E-04   -0.26375E-04 13440   0.357E-02    0.814E-02
DAV:   4    -0.812818074377E+03   -0.35963E-05   -0.26105E-04 10560   0.366E-02    0.253E-02
DAV:   5    -0.812818089033E+03   -0.14656E-04   -0.64115E-05 11760   0.158E-02    0.131E-02
DAV:   6    -0.812818090434E+03   -0.14007E-05   -0.89917E-06 10464   0.638E-03    0.626E-03
DAV:   7    -0.812818090801E+03   -0.36730E-06   -0.26063E-06 10368   0.342E-03
  25 F= -.82016799E+03 E0= -.82016782E+03  d E =-.497631E-03  mag=    -0.0000
 curvature: -30.95 expect dE=-0.659E-02 dE for cont linesearch -0.100E-05
 trial: gam= 0.91064 g(F)=  0.213E-03 g(S)=  0.000E+00 ort = 0.118E-04 (trialstep = 0.204E+01)
 search vector abs. value=  0.378E-02
 bond charge predicted
       N       E                     dE             d eps       ncg     rms          rms(c)
DAV:   1    -0.812817932803E+03    0.15763E-03   -0.36125E-01  9600   0.124E+00    0.112E-01
DAV:   2    -0.812818399327E+03   -0.46652E-03   -0.63152E-03  9696   0.159E-01    0.990E-02
DAV:   3    -0.812818323604E+03    0.75723E-04   -0.21693E-04 13344   0.328E-02    0.737E-02
DAV:   4    -0.812818328031E+03   -0.44271E-05   -0.22177E-04 10272   0.339E-02    0.223E-02
DAV:   5    -0.812818338364E+03   -0.10333E-04   -0.54214E-05 12288   0.146E-02    0.121E-02
DAV:   6    -0.812818339790E+03   -0.14267E-05   -0.69781E-06 10368   0.554E-03    0.593E-03
DAV:   7    -0.812818340017E+03   -0.22645E-06   -0.21484E-06  9408   0.312E-03
  26 F= -.82016831E+03 E0= -.82016814E+03  d E =-.321248E-03  mag=     0.0000
 trial-energy change:   -0.000321  1 .order   -0.000322   -0.000457   -0.000186
 step:   3.4501(harm=  3.4501)  dis= 0.00525  next Energy=  -820.168371 (dE=-0.386E-03)
 bond charge predicted
       N       E                     dE             d eps       ncg     rms          rms(c)
DAV:   1    -0.812818161539E+03    0.17825E-03   -0.17157E-01  9600   0.855E-01    0.772E-02
DAV:   2    -0.812818382861E+03   -0.22132E-03   -0.30021E-03  9696   0.109E-01    0.681E-02
DAV:   3    -0.812818346923E+03    0.35938E-04   -0.10295E-04 13344   0.226E-02    0.508E-02
DAV:   4    -0.812818350038E+03   -0.31147E-05   -0.10538E-04 10176   0.234E-02    0.153E-02
DAV:   5    -0.812818354966E+03   -0.49285E-05   -0.25732E-05 12096   0.101E-02    0.834E-03
DAV:   6    -0.812818355619E+03   -0.65301E-06   -0.32746E-06  9600   0.381E-03
  27 F= -.82016837E+03 E0= -.82016821E+03  d E =-.386055E-03  mag=     0.0000
 curvature: -29.14 expect dE=-0.571E-02 dE for cont linesearch -0.198E-06
 trial: gam= 0.95998 g(F)=  0.196E-03 g(S)=  0.000E+00 ort =-0.507E-05 (trialstep = 0.232E+01)
 search vector abs. value=  0.367E-02
 bond charge predicted
       N       E                     dE             d eps       ncg     rms          rms(c)
DAV:   1    -0.812818105616E+03    0.24935E-03   -0.45171E-01  9600   0.137E+00    0.125E-01
DAV:   2    -0.812818699219E+03   -0.59360E-03   -0.79415E-03 10464   0.175E-01    0.111E-01
DAV:   3    -0.812818599920E+03    0.99299E-04   -0.22955E-04 12480   0.345E-02    0.833E-02
DAV:   4    -0.812818605653E+03   -0.57323E-05   -0.28566E-04  9600   0.376E-02    0.251E-02
DAV:   5    -0.812818620160E+03   -0.14507E-04   -0.70652E-05 12384   0.162E-02    0.131E-02
DAV:   6    -0.812818621588E+03   -0.14285E-05   -0.74278E-06 10080   0.563E-03    0.658E-03
DAV:   7    -0.812818621670E+03   -0.81767E-07   -0.27900E-06 10368   0.344E-03
  28 F= -.82016870E+03 E0= -.82016854E+03  d E =-.329463E-03  mag=    -0.0000
 trial-energy change:   -0.000329  1 .order   -0.000324   -0.000444   -0.000204
 step:   3.9323(harm=  4.2972)  dis= 0.00597  next Energy=  -820.168773 (dE=-0.402E-03)
 bond charge predicted
       N       E                     dE             d eps       ncg     rms          rms(c)
DAV:   1    -0.812818411842E+03    0.20975E-03   -0.21608E-01  9600   0.950E-01    0.863E-02
DAV:   2    -0.812818695262E+03   -0.28342E-03   -0.38020E-03 10368   0.121E-01    0.769E-02
DAV:   3    -0.812818647544E+03    0.47717E-04   -0.11084E-04 12480   0.240E-02    0.575E-02
DAV:   4    -0.812818651474E+03   -0.39302E-05   -0.13668E-04  9600   0.260E-02    0.174E-02
DAV:   5    -0.812818658228E+03   -0.67537E-05   -0.33712E-05 11904   0.112E-02    0.907E-03
DAV:   6    -0.812818658930E+03   -0.70169E-06   -0.35391E-06 10560   0.390E-03
  29 F= -.82016878E+03 E0= -.82016862E+03  d E =-.410086E-03  mag=    -0.0000
 curvature: -39.83 expect dE=-0.860E-02 dE for cont linesearch -0.348E-06
 trial: gam= 0.98040 g(F)=  0.216E-03 g(S)=  0.000E+00 ort = 0.567E-05 (trialstep = 0.259E+01)
 search vector abs. value=  0.375E-02
 bond charge predicted
       N       E                     dE             d eps       ncg     rms          rms(c)
DAV:   1    -0.812818333318E+03    0.32491E-03   -0.54931E-01  9600   0.152E+00    0.140E-01
DAV:   2    -0.812819069381E+03   -0.73606E-03   -0.97717E-03 10464   0.195E-01    0.124E-01
DAV:   3    -0.812818948948E+03    0.12043E-03   -0.28507E-04 12480   0.386E-02    0.931E-02
DAV:   4    -0.812818955852E+03   -0.69046E-05   -0.36076E-04  9600   0.424E-02    0.283E-02
DAV:   5    -0.812818972639E+03   -0.16786E-04   -0.89399E-05 12096   0.182E-02    0.148E-02
DAV:   6    -0.812818974388E+03   -0.17491E-05   -0.93189E-06 10080   0.637E-03    0.739E-03
DAV:   7    -0.812818974299E+03    0.88949E-07   -0.32990E-06 10368   0.379E-03
  30 F= -.82016916E+03 E0= -.82016900E+03  d E =-.378329E-03  mag=    -0.0000
 trial-energy change:   -0.000378  1 .order   -0.000369   -0.000573   -0.000166
 step:   3.4790(harm=  3.6409)  dis= 0.00554  next Energy=  -820.169189 (dE=-0.407E-03)
 bond charge predicted
       N       E                     dE             d eps       ncg     rms          rms(c)
DAV:   1    -0.812818907210E+03    0.67178E-04   -0.65438E-02  9600   0.524E-01    0.482E-02
DAV:   2    -0.812818996008E+03   -0.88799E-04   -0.11746E-03 10464   0.674E-02    0.427E-02
DAV:   3    -0.812818981879E+03    0.14129E-04   -0.34237E-05 12480   0.134E-02    0.320E-02
DAV:   4    -0.812818983272E+03   -0.13926E-05   -0.42562E-05  9696   0.146E-02    0.989E-03
DAV:   5    -0.812818985297E+03   -0.20253E-05   -0.10580E-05 12000   0.624E-03    0.518E-03
DAV:   6    -0.812818985499E+03   -0.20240E-06   -0.10187E-06  6720   0.222E-03
  31 F= -.82016919E+03 E0= -.82016903E+03  d E =-.410909E-03  mag=    -0.0000
 curvature: -30.14 expect dE=-0.558E-02 dE for cont linesearch -0.207E-08
 trial: gam= 0.93032 g(F)=  0.185E-03 g(S)=  0.000E+00 ort = 0.508E-06 (trialstep = 0.276E+01)
 search vector abs. value=  0.343E-02
 bond charge predicted
       N       E                     dE             d eps       ncg     rms          rms(c)
DAV:   1    -0.812818606726E+03    0.37857E-03   -0.56041E-01  9600   0.152E+00    0.141E-01
DAV:   2    -0.812819356369E+03   -0.74964E-03   -0.98977E-03 10464   0.194E-01    0.126E-01
DAV:   3    -0.812819234093E+03    0.12228E-03   -0.27975E-04 12480   0.380E-02    0.946E-02
DAV:   4    -0.812819242057E+03   -0.79648E-05   -0.38694E-04  9600   0.434E-02    0.270E-02
DAV:   5    -0.812819256679E+03   -0.14621E-04   -0.91639E-05 12096   0.185E-02    0.143E-02
DAV:   6    -0.812819258263E+03   -0.15850E-05   -0.87604E-06 10080   0.615E-03    0.749E-03
DAV:   7    -0.812819258225E+03    0.38279E-07   -0.30708E-06 10368   0.366E-03
  32 F= -.82016954E+03 E0= -.82016937E+03  d E =-.343229E-03  mag=    -0.0000
 trial-energy change:   -0.000343  1 .order   -0.000333   -0.000514   -0.000152
 step:   3.7098(harm=  3.9281)  dis= 0.00575  next Energy=  -820.169562 (dE=-0.370E-03)
 bond charge predicted
       N       E                     dE             d eps       ncg     rms          rms(c)
DAV:   1    -0.812819186386E+03    0.71878E-04   -0.65469E-02  9600   0.520E-01    0.482E-02
DAV:   2    -0.812819275594E+03   -0.89209E-04   -0.11696E-03 10464   0.667E-02    0.428E-02
DAV:   3    -0.812819261664E+03    0.13931E-04   -0.32811E-05 12480   0.130E-02    0.322E-02
DAV:   4    -0.812819263109E+03   -0.14448E-05   -0.44714E-05  9696   0.148E-02    0.933E-03
DAV:   5    -0.812819264839E+03   -0.17305E-05   -0.10555E-05 11904   0.627E-03    0.498E-03
DAV:   6    -0.812819265022E+03   -0.18314E-06   -0.94601E-07  6912   0.212E-03
  33 F= -.82016957E+03 E0= -.82016940E+03  d E =-.373824E-03  mag=    -0.0000
 curvature: -35.04 expect dE=-0.683E-02 dE for cont linesearch -0.383E-07
 trial: gam= 1.02649 g(F)=  0.195E-03 g(S)=  0.000E+00 ort = 0.194E-05 (trialstep = 0.266E+01)
 search vector abs. value=  0.382E-02
 bond charge predicted
       N       E                     dE             d eps       ncg     rms          rms(c)
DAV:   1    -0.812818942326E+03    0.32251E-03   -0.55423E-01  9600   0.150E+00    0.141E-01
DAV:   2    -0.812819682008E+03   -0.73968E-03   -0.97341E-03 10464   0.192E-01    0.126E-01
DAV:   3    -0.812819564064E+03    0.11794E-03   -0.27263E-04 12480   0.368E-02    0.943E-02
DAV:   4    -0.812819578718E+03   -0.14655E-04   -0.40148E-04  9792   0.438E-02    0.252E-02
DAV:   5    -0.812819588764E+03   -0.10045E-04   -0.89458E-05 11808   0.186E-02    0.134E-02
DAV:   6    -0.812819590803E+03   -0.20390E-05   -0.87270E-06 10176   0.621E-03    0.657E-03
DAV:   7    -0.812819590639E+03    0.16361E-06   -0.23782E-06 10368   0.327E-03
  34 F= -.82016996E+03 E0= -.82016980E+03  d E =-.397991E-03  mag=    -0.0000
 trial-energy change:   -0.000398  1 .order   -0.000388   -0.000523   -0.000253
 step:   4.4886(harm=  5.1549)  dis= 0.00755  next Energy=  -820.170055 (dE=-0.489E-03)
 bond charge predicted
       N       E                     dE             d eps       ncg     rms          rms(c)
DAV:   1    -0.812819334501E+03    0.25630E-03   -0.26312E-01  9600   0.104E+00    0.971E-02
DAV:   2    -0.812819690801E+03   -0.35630E-03   -0.46680E-03 10464   0.132E-01    0.866E-02
DAV:   3    -0.812819635188E+03    0.55613E-04   -0.12940E-04 12384   0.253E-02    0.650E-02
DAV:   4    -0.812819643232E+03   -0.80443E-05   -0.19094E-04  9792   0.302E-02    0.174E-02
DAV:   5    -0.812819648017E+03   -0.47848E-05   -0.41994E-05 12384   0.128E-02    0.927E-03
DAV:   6    -0.812819649021E+03   -0.10039E-05   -0.41789E-06  9984   0.429E-03    0.452E-03
DAV:   7    -0.812819648949E+03    0.71828E-07   -0.11174E-06  9408   0.226E-03
  35 F= -.82017007E+03 E0= -.82016991E+03  d E =-.505826E-03  mag=    -0.0000
 curvature: -46.43 expect dE=-0.115E-01 dE for cont linesearch -0.540E-05
 trial: gam= 1.22274 g(F)=  0.249E-03 g(S)=  0.000E+00 ort = 0.211E-04 (trialstep = 0.192E+01)
 search vector abs. value=  0.601E-02
 bond charge predicted
       N       E                     dE             d eps       ncg     rms          rms(c)
DAV:   1    -0.812819480019E+03    0.16900E-03   -0.44399E-01  9600   0.134E+00    0.127E-01
DAV:   2    -0.812820075946E+03   -0.59593E-03   -0.78135E-03 10464   0.171E-01    0.113E-01
DAV:   3    -0.812819982164E+03    0.93781E-04   -0.21961E-04 12480   0.329E-02    0.845E-02
DAV:   4    -0.812819996226E+03   -0.14061E-04   -0.31680E-04  9648   0.387E-02    0.221E-02
DAV:   5    -0.812820004097E+03   -0.78719E-05   -0.71749E-05 11904   0.164E-02    0.116E-02
