<?xml version="1.0" encoding="ISO-8859-1"?>
<modeling>
 <generator>
  <i name="program" type="string">vasp </i>
  <i name="version" type="string">6.4.2  </i>
  <i name="subversion" type="string">20Jul23 (build Aug 26 2025 15:10:52) complex                          parallel </i>
  <i name="platform" type="string">LinuxIFC </i>
  <i name="date" type="string">2025 11 26 </i>
  <i name="time" type="string">07:47:42 </i>
 </generator>
 <incar>
  <i type="int" name="ISTART">     0</i>
  <i type="string" name="ALGO">Normal</i>
  <i type="logical" name="ADDGRID"> T  </i>
  <i type="int" name="ISPIN">     2</i>
  <i type="int" name="IMIX">     4</i>
  <i name="AMIX">      0.20000000</i>
  <i name="BMIX">      0.00010000</i>
  <i name="AMIX_MAG">      0.80000000</i>
  <i name="BMIX_MAG">      0.00010000</i>
  <i type="int" name="ICHARG">     2</i>
  <i type="int" name="NELM">   200</i>
  <i type="int" name="IBRION">     2</i>
  <i name="EDIFF">      0.00000100</i>
  <i name="EDIFFG">     -0.01000000</i>
  <i type="int" name="NSW">   300</i>
  <i type="int" name="ISIF">     2</i>
  <i type="int" name="ISYM">     0</i>
  <i name="ENCUT">    520.00000000</i>
  <i name="POTIM">      0.10000000</i>
  <v name="MAGMOM">      0.00000000      0.00000000      0.00000000      0.00000000      0.00000000      0.00000000      0.00000000      0.00000000      0.00000000      0.00000000      0.00000000      0.00000000      0.00000000      0.00000000      0.00000000      0.00000000      0.00000000      0.00000000      0.00000000      0.00000000
      0.00000000      0.00000000      0.00000000      0.00000000      0.00000000      0.00000000      0.00000000      0.00000000      0.00000000      0.00000000      0.00000000      0.00000000      0.00000000      0.00000000      0.00000000      0.00000000      0.00000000      0.00000000      0.00000000      0.00000000
      0.00000000      0.00000000      0.00000000      0.00000000      0.00000000      0.00000000      0.00000000      0.00000000      0.00000000      0.00000000      0.00000000      0.00000000      0.00000000      0.00000000      0.00000000      0.00000000      0.00000000      0.00000000      0.00000000      0.00000000
      0.00000000      0.00000000      0.00000000      0.00000000      0.00000000      0.00000000      0.00000000      0.00000000      0.00000000      0.00000000      0.00000000      0.00000000      0.00000000      0.00000000      0.00000000      0.00000000      0.00000000      0.00000000      0.00000000      0.00000000
      0.00000000      0.00000000      0.00000000      0.00000000      0.00000000      0.00000000      0.00000000      0.00000000      0.00000000      0.00000000      0.00000000</v>
  <i type="logical" name="LREAL"> F  </i>
  <i type="int" name="ISMEAR">     0</i>
  <i name="SIGMA">      0.05000000</i>
  <i type="logical" name="LWAVE"> F  </i>
  <i type="logical" name="LCHARG"> F  </i>
  <i type="logical" name="LASPH"> T  </i>
  <i type="int" name="IVDW">    12</i>
 </incar>
 <primitive_cell>
  <structure name="primitive_cell" >
   <crystal>
    <varray name="basis" >
     <v>      17.27103806       0.00000000       0.00000000 </v>
     <v>      -8.63551903      14.95715771       0.00000000 </v>
     <v>       0.00000000       0.00000000      15.00000000 </v>
    </varray>
    <i name="volume">   3874.88459904 </i>
    <varray name="rec_basis" >
     <v>       0.05790040       0.03342881       0.00000000 </v>
     <v>       0.00000000       0.06685762       0.00000000 </v>
     <v>       0.00000000       0.00000000       0.06666667 </v>
    </varray>
   </crystal>
   <varray name="positions" >
    <v>       0.99998542       0.00025783       0.49912750 </v>
    <v>       0.99939941       0.14272198       0.49995563 </v>
    <v>       0.99910798       0.28560904       0.50064995 </v>
    <v>       0.99930947       0.42878802       0.50037515 </v>
    <v>       0.99996640       0.57184645       0.49976821 </v>
    <v>       0.00148738       0.71524172       0.49928467 </v>
    <v>       0.00144959       0.85836567       0.49899861 </v>
    <v>       0.14438236       0.00194803       0.49937167 </v>
    <v>       0.14386092       0.14465867       0.49966581 </v>
    <v>       0.14232736       0.28587804       0.50118387 </v>
    <v>       0.14231517       0.42854065       0.50235986 </v>
    <v>       0.14384972       0.57129628       0.50214498 </v>
    <v>       0.14438064       0.71452452       0.50091567 </v>
    <v>       0.14436736       0.85822607       0.49984946 </v>
    <v>       0.28688674       0.00148843       0.50034996 </v>
    <v>       0.28765064       0.14631169       0.50037453 </v>
    <v>       0.28868853       0.29375529       0.50274177 </v>
    <v>       0.28515393       0.42860334       0.50480874 </v>
    <v>       0.28876946       0.56708255       0.50472092 </v>
    <v>       0.28760326       0.71346794       0.50334441 </v>
    <v>       0.28688701       0.85757275       0.50158784 </v>
    <v>       0.42939064       0.00082304       0.50146152 </v>
    <v>       0.42947619       0.14570175       0.50027822 </v>
    <v>       0.42947063       0.85606755       0.50303854 </v>
    <v>       0.57133934       0.99956949       0.50194110 </v>
    <v>       0.57130331       0.14404335       0.50066711 </v>
    <v>       0.57360519       0.29176834       0.49978434 </v>
    <v>       0.57360418       0.85415249       0.50334457 </v>
    <v>       0.71342458       0.99842940       0.50186627 </v>
    <v>       0.71374141       0.14300170       0.50066111 </v>
    <v>       0.71341085       0.28725563       0.49978205 </v>
    <v>       0.70906221       0.42829831       0.50028120 </v>
    <v>       0.70901796       0.85310831       0.50287526 </v>
    <v>       0.85601545       0.99881565       0.50084551 </v>
    <v>       0.85616041       0.14238691       0.50066170 </v>
    <v>       0.85613893       0.28594815       0.49980483 </v>
    <v>       0.85596873       0.42942183       0.49945105 </v>
    <v>       0.85632314       0.57267859       0.49957372 </v>
    <v>       0.85869462       0.71550157       0.49988770 </v>
    <v>       0.85629978       0.85592049       0.50043828 </v>
    <v>       0.04803852       0.09595958       0.49943021 </v>
    <v>       0.04664343       0.23782151       0.50048615 </v>
    <v>       0.04660035       0.38092183       0.50109297 </v>
    <v>       0.04799992       0.52419963       0.50067624 </v>
    <v>       0.04871633       0.66729039       0.49989080 </v>
    <v>       0.04900888       0.81056734       0.49928262 </v>
    <v>       0.04869263       0.95350979       0.49899779 </v>
    <v>       0.19193639       0.09735098       0.49972388 </v>
    <v>       0.19163977       0.24023041       0.50075492 </v>
    <v>       0.18930408       0.38070700       0.50259484 </v>
    <v>       0.19165676       0.52351503       0.50323341 </v>
    <v>       0.19195069       0.66670502       0.50221117 </v>
    <v>       0.19183293       0.81017778       0.50076107 </v>
    <v>       0.19184296       0.95376464       0.49981726 </v>
    <v>       0.33443591       0.09766369       0.50028411 </v>
    <v>       0.33892068       0.24307359       0.50145407 </v>
    <v>       0.33894581       0.66804900       0.50450994 </v>
    <v>       0.33443802       0.80894699       0.50281078 </v>
    <v>       0.33407211       0.95313378       0.50115159 </v>
    <v>       0.47645776       0.09660782       0.50077064 </v>
    <v>       0.47433293       0.24212460       0.50013477 </v>
    <v>       0.47432084       0.80452902       0.50386903 </v>
    <v>       0.47647740       0.95213217       0.50220971 </v>
    <v>       0.61836001       0.09532326       0.50109022 </v>
    <v>       0.61833383       0.24013612       0.50002660 </v>
    <v>       0.61834779       0.95050696       0.50238381 </v>
    <v>       0.76102722       0.09466804       0.50111486 </v>
    <v>       0.76100221       0.23855789       0.49989518 </v>
    <v>       0.76026751       0.38273619       0.49974902 </v>
    <v>       0.75927789       0.52922693       0.50098210 </v>
    <v>       0.76274139       0.66753006       0.50221126 </v>
    <v>       0.75923009       0.80234675       0.50244024 </v>
    <v>       0.76031449       0.94984261       0.50193777 </v>
    <v>       0.90369529       0.09421130       0.50043660 </v>
    <v>       0.90368845       0.23793415       0.50028504 </v>
    <v>       0.90361208       0.38165292       0.49958360 </v>
    <v>       0.90406979       0.52481373       0.49938098 </v>
    <v>       0.90573784       0.66766996       0.49935254 </v>
    <v>       0.90572242       0.81035961       0.49951212 </v>
    <v>       0.90410400       0.95150626       0.50002123 </v>
    <v>       0.42876068       0.28701639       0.50098449 </v>
    <v>       0.42875707       0.71407091       0.50475908 </v>
    <v>       0.71599589       0.57560711       0.50328254 </v>
    <v>       0.71599658       0.71265883       0.50392101 </v>
    <v>       0.33187736       0.38342521       0.50576770 </v>
    <v>       0.33200712       0.52056594       0.50596647 </v>
    <v>       0.61918479       0.38227478       0.49984529 </v>
    <v>       0.61921182       0.80929909       0.50369213 </v>
    <v>       0.52559639       0.47902601       0.43742598 </v>
    <v>       0.51066063       0.55902300       0.43377363 </v>
    <v>       0.52026898       0.51912918       0.39533618 </v>
   </varray>
  </structure>
  <varray name="primitive_index" >
   <v type="int" >        1 </v>
   <v type="int" >        2 </v>
   <v type="int" >        3 </v>
   <v type="int" >        4 </v>
   <v type="int" >        5 </v>
   <v type="int" >        6 </v>
   <v type="int" >        7 </v>
   <v type="int" >        8 </v>
   <v type="int" >        9 </v>
   <v type="int" >       10 </v>
   <v type="int" >       11 </v>
   <v type="int" >       12 </v>
   <v type="int" >       13 </v>
   <v type="int" >       14 </v>
   <v type="int" >       15 </v>
   <v type="int" >       16 </v>
   <v type="int" >       17 </v>
   <v type="int" >       18 </v>
   <v type="int" >       19 </v>
   <v type="int" >       20 </v>
   <v type="int" >       21 </v>
   <v type="int" >       22 </v>
   <v type="int" >       23 </v>
   <v type="int" >       24 </v>
   <v type="int" >       25 </v>
   <v type="int" >       26 </v>
   <v type="int" >       27 </v>
   <v type="int" >       28 </v>
   <v type="int" >       29 </v>
   <v type="int" >       30 </v>
   <v type="int" >       31 </v>
   <v type="int" >       32 </v>
   <v type="int" >       33 </v>
   <v type="int" >       34 </v>
   <v type="int" >       35 </v>
   <v type="int" >       36 </v>
   <v type="int" >       37 </v>
   <v type="int" >       38 </v>
   <v type="int" >       39 </v>
   <v type="int" >       40 </v>
   <v type="int" >       41 </v>
   <v type="int" >       42 </v>
   <v type="int" >       43 </v>
   <v type="int" >       44 </v>
   <v type="int" >       45 </v>
   <v type="int" >       46 </v>
   <v type="int" >       47 </v>
   <v type="int" >       48 </v>
   <v type="int" >       49 </v>
   <v type="int" >       50 </v>
   <v type="int" >       51 </v>
   <v type="int" >       52 </v>
   <v type="int" >       53 </v>
   <v type="int" >       54 </v>
   <v type="int" >       55 </v>
   <v type="int" >       56 </v>
   <v type="int" >       57 </v>
   <v type="int" >       58 </v>
   <v type="int" >       59 </v>
   <v type="int" >       60 </v>
   <v type="int" >       61 </v>
   <v type="int" >       62 </v>
   <v type="int" >       63 </v>
   <v type="int" >       64 </v>
   <v type="int" >       65 </v>
   <v type="int" >       66 </v>
   <v type="int" >       67 </v>
   <v type="int" >       68 </v>
   <v type="int" >       69 </v>
   <v type="int" >       70 </v>
   <v type="int" >       71 </v>
   <v type="int" >       72 </v>
   <v type="int" >       73 </v>
   <v type="int" >       74 </v>
   <v type="int" >       75 </v>
   <v type="int" >       76 </v>
   <v type="int" >       77 </v>
   <v type="int" >       78 </v>
   <v type="int" >       79 </v>
   <v type="int" >       80 </v>
   <v type="int" >       81 </v>
   <v type="int" >       82 </v>
   <v type="int" >       83 </v>
   <v type="int" >       84 </v>
   <v type="int" >       85 </v>
   <v type="int" >       86 </v>
   <v type="int" >       87 </v>
   <v type="int" >       88 </v>
   <v type="int" >       89 </v>
   <v type="int" >       90 </v>
   <v type="int" >       91 </v>
  </varray>
 </primitive_cell>
 <kpoints>
  <generation param="Gamma">
   <v type="int" name="divisions">       4        4        1 </v>
   <v name="usershift">      0.00000000       0.00000000       0.00000000 </v>
   <v name="genvec1">      0.25000000       0.00000000       0.00000000 </v>
   <v name="genvec2">      0.00000000       0.25000000       0.00000000 </v>
   <v name="genvec3">      0.00000000       0.00000000       1.00000000 </v>
   <v name="shift">      0.00000000       0.00000000       0.00000000 </v>
  </generation>
  <varray name="kpointlist" >
   <v>       0.00000000       0.00000000       0.00000000 </v>
   <v>       0.25000000       0.00000000       0.00000000 </v>
   <v>       0.00000000       0.25000000       0.00000000 </v>
   <v>      -0.25000000       0.25000000       0.00000000 </v>
   <v>       0.50000000       0.00000000       0.00000000 </v>
   <v>       0.00000000       0.50000000       0.00000000 </v>
   <v>       0.50000000       0.50000000       0.00000000 </v>
   <v>       0.25000000       0.25000000       0.00000000 </v>
   <v>      -0.25000000       0.50000000       0.00000000 </v>
   <v>       0.50000000       0.25000000       0.00000000 </v>
  </varray>
  <varray name="weights" >
   <v>       0.06250000 </v>
   <v>       0.12500000 </v>
   <v>       0.12500000 </v>
   <v>       0.12500000 </v>
   <v>       0.06250000 </v>
   <v>       0.06250000 </v>
   <v>       0.06250000 </v>
   <v>       0.12500000 </v>
   <v>       0.12500000 </v>
   <v>       0.12500000 </v>
  </varray>
 </kpoints>
 <parameters>
  <separator name="general" >
   <i type="string" name="SYSTEM">unknown system</i>
   <i type="logical" name="LCOMPAT"> F  </i>
  </separator>
  <separator name="electronic" >
   <i type="string" name="PREC">normal</i>
   <i name="ENMAX">    520.00000000</i>
   <i name="ENAUG">    644.87300000</i>
   <i name="EDIFF">      0.00000100</i>
   <i type="int" name="IALGO">    38</i>
   <i type="int" name="IWAVPR">    11</i>
   <i type="int" name="NBANDS">   240</i>
   <i type="int" name="NBANDSLOW">    -1</i>
   <i type="int" name="NBANDSHIGH">    -1</i>
   <i name="NELECT">    368.00000000</i>
   <i type="int" name="TURBO">     0</i>
   <i type="int" name="IRESTART">     0</i>
   <i type="int" name="NREBOOT">     0</i>
   <i type="int" name="NMIN">     0</i>
   <i name="EREF">      0.00000000</i>
   <separator name="electronic smearing" >
    <i type="int" name="ISMEAR">     0</i>
    <i name="SIGMA">      0.05000000</i>
    <i name="KSPACING">      0.50000000</i>
    <i type="logical" name="KGAMMA"> T  </i>
    <i type="logical" name="KBLOWUP"> T  </i>
   </separator>
   <separator name="electronic projectors" >
    <i type="logical" name="LREAL"> F  </i>
    <v name="ROPT">      0.00000000      0.00000000      0.00000000      0.00000000</v>
    <i type="int" name="LMAXPAW">  -100</i>
    <i type="int" name="LMAXMIX">     2</i>
    <i type="logical" name="NLSPLINE"> F  </i>
   </separator>
   <separator name="electronic startup" >
    <i type="int" name="ISTART">     0</i>
    <i type="int" name="ICHARG">     2</i>
    <i type="int" name="INIWAV">     1</i>
   </separator>
   <separator name="electronic spin" >
    <i type="int" name="ISPIN">     2</i>
    <i type="logical" name="LNONCOLLINEAR"> F  </i>
    <v name="MAGMOM">      0.00000000      0.00000000      0.00000000      0.00000000      0.00000000      0.00000000      0.00000000      0.00000000      0.00000000      0.00000000      0.00000000      0.00000000      0.00000000      0.00000000      0.00000000      0.00000000      0.00000000      0.00000000      0.00000000      0.00000000
      0.00000000      0.00000000      0.00000000      0.00000000      0.00000000      0.00000000      0.00000000      0.00000000      0.00000000      0.00000000      0.00000000      0.00000000      0.00000000      0.00000000      0.00000000      0.00000000      0.00000000      0.00000000      0.00000000      0.00000000
      0.00000000      0.00000000      0.00000000      0.00000000      0.00000000      0.00000000      0.00000000      0.00000000      0.00000000      0.00000000      0.00000000      0.00000000      0.00000000      0.00000000      0.00000000      0.00000000      0.00000000      0.00000000      0.00000000      0.00000000
      0.00000000      0.00000000      0.00000000      0.00000000      0.00000000      0.00000000      0.00000000      0.00000000      0.00000000      0.00000000      0.00000000      0.00000000      0.00000000      0.00000000      0.00000000      0.00000000      0.00000000      0.00000000      0.00000000      0.00000000
      0.00000000      0.00000000      0.00000000      0.00000000      0.00000000      0.00000000      0.00000000      0.00000000      0.00000000      0.00000000      0.00000000</v>
    <i name="NUPDOWN">     -1.00000000</i>
    <i type="logical" name="LSORBIT"> F  </i>
    <v name="SAXIS">      0.00000000      0.00000000      1.00000000</v>
    <i type="logical" name="LSPIRAL"> F  </i>
    <v name="QSPIRAL">      0.00000000      0.00000000      0.00000000</v>
    <i type="logical" name="LZEROZ"> F  </i>
   </separator>
   <separator name="electronic exchange-correlation" >
    <i type="logical" name="LASPH"> T  </i>
    <i type="logical" name="LMETAGGA"> F  </i>
   </separator>
   <separator name="electronic convergence" >
    <i type="int" name="NELM">   200</i>
    <i type="int" name="NELMDL">    -5</i>
    <i type="int" name="NELMIN">     2</i>
    <i name="ENINI">    520.00000000</i>
    <separator name="electronic convergence detail" >
     <i type="logical" name="LDIAG"> T  </i>
     <i type="logical" name="LSUBROT"> F  </i>
     <i name="WEIMIN">      0.00100000</i>
     <i name="EBREAK">      0.00000000</i>
     <i name="DEPER">      0.30000000</i>
     <i type="int" name="NRMM">     4</i>
     <i name="TIME">      0.40000000</i>
    </separator>
   </separator>
   <separator name="electronic mixer" >
    <i name="AMIX">      0.20000000</i>
    <i name="BMIX">      0.00010000</i>
    <i name="AMIN">      0.10000000</i>
    <i name="AMIX_MAG">      0.80000000</i>
    <i name="BMIX_MAG">      0.00010000</i>
    <separator name="electronic mixer details" >
     <i type="int" name="IMIX">     4</i>
     <i type="logical" name="MIXFIRST"> F  </i>
     <i type="int" name="MAXMIX">   -45</i>
     <i name="WC">    100.00000000</i>
     <i type="int" name="INIMIX">     1</i>
     <i type="int" name="MIXPRE">     1</i>
     <i type="int" name="MREMOVE">     5</i>
    </separator>
   </separator>
   <separator name="electronic dipolcorrection" >
    <i type="logical" name="LDIPOL"> F  </i>
    <i type="logical" name="LMONO"> F  </i>
    <i type="int" name="IDIPOL">     0</i>
    <i name="EPSILON">      1.00000000</i>
    <v name="DIPOL">   -100.00000000   -100.00000000   -100.00000000</v>
    <i name="EFIELD">      0.00000000</i>
   </separator>
  </separator>
  <separator name="grids" >
   <i type="int" name="NGX">    96</i>
   <i type="int" name="NGY">    96</i>
   <i type="int" name="NGZ">    84</i>
   <i type="int" name="NGXF">   192</i>
   <i type="int" name="NGYF">   192</i>
   <i type="int" name="NGZF">   168</i>
   <i type="logical" name="ADDGRID"> T  </i>
  </separator>
  <separator name="ionic" >
   <i type="int" name="NSW">   300</i>
   <i type="int" name="IBRION">     2</i>
   <i type="int" name="MDALGO">     0</i>
   <i type="int" name="ISIF">     2</i>
   <i name="PSTRESS">      0.00000000</i>
   <i name="EDIFFG">     -0.01000000</i>
   <i type="int" name="NFREE">     1</i>
   <i name="POTIM">      0.10000000</i>
   <i name="SMASS">     -3.00000000</i>
   <i name="SCALEE">      1.00000000</i>
  </separator>
  <separator name="ionic md" >
   <i name="TEBEG">      0.00010000</i>
   <i name="TEEND">      0.00010000</i>
   <i type="int" name="NBLOCK">     1</i>
   <i type="int" name="KBLOCK">   300</i>
   <i type="int" name="NPACO">   256</i>
   <i name="APACO">     10.00000000</i>
  </separator>
  <separator name="symmetry" >
   <i type="int" name="ISYM">     0</i>
   <i name="SYMPREC">      0.00001000</i>
  </separator>
  <separator name="dos" >
   <i type="int" name="LORBIT">     0</i>
   <v name="RWIGS">     -1.00000000     -1.00000000     -1.00000000     -1.00000000</v>
   <i type="int" name="NEDOS">   301</i>
   <i name="EMIN">     10.00000000</i>
   <i name="EMAX">    -10.00000000</i>
   <i name="EFERMI">      0.00000000</i>
  </separator>
  <separator name="writing" >
   <i type="int" name="NWRITE">     2</i>
   <i type="logical" name="LWAVE"> F  </i>
   <i type="logical" name="LDOWNSAMPLE"> F  </i>
   <i type="logical" name="LCHARG"> F  </i>
   <i type="logical" name="LPARD"> F  </i>
   <i type="logical" name="LVTOT"> F  </i>
   <i type="logical" name="LVHAR"> F  </i>
   <i type="logical" name="LELF"> F  </i>
   <i type="logical" name="LOPTICS"> F  </i>
   <v name="STM">      0.00000000      0.00000000      0.00000000      0.00000000      0.00000000      0.00000000      0.00000000</v>
  </separator>
  <separator name="performance" >
   <i type="int" name="NPAR">    48</i>
   <i type="int" name="NSIM">     4</i>
   <i type="int" name="NBLK">    -1</i>
   <i type="logical" name="LPLANE"> T  </i>
   <i type="logical" name="LSCALAPACK"> T  </i>
   <i type="logical" name="LSCAAWARE"> F  </i>
   <i type="logical" name="LSCALU"> F  </i>
   <i type="logical" name="LASYNC"> F  </i>
   <i type="logical" name="LORBITALREAL"> F  </i>
  </separator>
  <separator name="miscellaneous" >
   <i type="int" name="IDIOT">     3</i>
   <i type="int" name="PHON_NSTRUCT">    -1</i>
   <i type="logical" name="LMUSIC"> F  </i>
   <v name="POMASS">     12.01100000     14.00100000      1.00000000     16.00000000</v>
   <v name="DARWINR">      0.00000000      0.00000000      0.00000000      0.00000000</v>
   <v name="DARWINV">      1.00000000      1.00000000      1.00000000      1.00000000</v>
   <i type="logical" name="LCORR"> T  </i>
  </separator>
  <i type="logical" name="GGA_COMPAT"> T  </i>
  <i type="logical" name="LBERRY"> F  </i>
  <i type="int" name="ICORELEVEL">     0</i>
  <i type="logical" name="LDAU"> F  </i>
  <i type="int" name="I_CONSTRAINED_M">     0</i>
  <separator name="electronic exchange-correlation" >
   <i type="string" name="GGA">--</i>
   <i type="int" name="VOSKOWN">     0</i>
   <i type="logical" name="LHFCALC"> F  </i>
   <i type="string" name="PRECFOCK"></i>
   <i type="logical" name="LSYMGRAD"> F  </i>
   <i type="logical" name="LHFONE"> F  </i>
   <i type="logical" name="LRHFCALC"> F  </i>
   <i type="logical" name="LTHOMAS"> F  </i>
   <i type="logical" name="LMODELHF"> F  </i>
   <i type="logical" name="LFOCKACE"> F  </i>
   <i name="ENCUT4O">     -1.00000000</i>
   <i type="int" name="EXXOEP">     0</i>
   <i type="int" name="FOURORBIT">     0</i>
   <i name="AEXX">      0.00000000</i>
   <i name="HFALPHA">      0.00000000</i>
   <i name="MCALPHA">      0.00000000</i>
   <i name="ALDAX">      1.00000000</i>
   <i name="AGGAX">      1.00000000</i>
   <i name="ALDAC">      1.00000000</i>
   <i name="AGGAC">      1.00000000</i>
   <i type="int" name="NKREDX">     1</i>
   <i type="int" name="NKREDY">     1</i>
   <i type="int" name="NKREDZ">     1</i>
   <i type="logical" name="SHIFTRED"> F  </i>
   <i type="logical" name="ODDONLY"> F  </i>
   <i type="logical" name="EVENONLY"> F  </i>
   <i type="int" name="LMAXFOCK">     0</i>
   <i type="int" name="NMAXFOCKAE">     0</i>
   <i type="logical" name="LFOCKAEDFT"> F  </i>
   <i name="HFSCREEN">      0.00000000</i>
   <i name="HFSCREENC">      0.00000000</i>
   <i type="int" name="NBANDSGWLOW">     0</i>
  </separator>
  <separator name="vdW DFT" >
   <i type="logical" name="LUSE_VDW"> F  </i>
   <i type="int" name="IVDW_NL">     1</i>
   <i type="logical" name="LSPIN_VDW"> F  </i>
   <i name="Zab_VDW">     -0.84910000</i>
   <i name="PARAM1">      0.12340000</i>
   <i name="PARAM2">      1.00000000</i>
   <i name="PARAM3">      0.00000000</i>
  </separator>
  <separator name="model GW" >
   <i type="int" name="MODEL_GW">     0</i>
   <i name="MODEL_EPS0">     25.54868966</i>
   <i name="MODEL_ALPHA">      1.00000000</i>
  </separator>
  <separator name="linear response parameters" >
   <i type="logical" name="LEPSILON"> F  </i>
   <i type="logical" name="LRPA"> F  </i>
   <i type="logical" name="LNABLA"> F  </i>
   <i type="logical" name="LVEL"> F  </i>
   <i name="CSHIFT">      0.10000000</i>
   <i name="OMEGAMAX">     -1.00000000</i>
   <i name="DEG_THRESHOLD">      0.00200000</i>
   <i name="RTIME">     -0.10000000</i>
   <i name="WPLASMAI">      0.00000000</i>
   <v name="DFIELD">      0.00000000      0.00000000      0.00000000</v>
   <v name="WPLASMA">      0.00000000      0.00000000      0.00000000      0.00000000      0.00000000      0.00000000      0.00000000      0.00000000      0.00000000</v>
  </separator>
  <separator name="orbital magnetization" >
   <i type="logical" name="NUCIND"> F  </i>
   <v name="MAGPOS">      0.00000000      0.00000000      0.00000000</v>
   <i type="logical" name="LNICSALL"> T  </i>
   <i type="logical" name="ORBITALMAG"> F  </i>
   <i type="logical" name="LMAGBLOCH"> F  </i>
   <i type="logical" name="LCHIMAG"> F  </i>
   <i type="logical" name="LGAUGE"> T  </i>
   <i type="int" name="MAGATOM">     0</i>
   <v name="MAGDIPOL">      0.00000000      0.00000000      0.00000000</v>
   <v name="AVECCONST">      0.00000000      0.00000000      0.00000000</v>
  </separator>
  <separator name="response functions" >
   <i type="logical" name="LALL_IN_ONE"> F  </i>
   <i type="int" name="IALL_IN_ONE">    -1</i>
   <i type="int" name="NBANDS_WAVE">    -1</i>
   <i type="logical" name="LFINITE_TEMPERATURE"> F  </i>
   <i type="logical" name="LADDER"> F  </i>
   <i type="logical" name="LRPAFORCE"> F  </i>
   <i type="logical" name="LFXC"> F  </i>
   <i type="logical" name="LHARTREE"> T  </i>
   <i type="int" name="IBSE">     0</i>
   <v type="int" name="KPOINT">    -1     0     0     0</v>
   <i type="logical" name="LTCTC"> F  </i>
   <i type="logical" name="LTCTE"> F  </i>
   <i type="logical" name="LTETE"> F  </i>
   <i type="logical" name="LTRIPLET"> F  </i>
   <i type="logical" name="LFXCEPS"> F  </i>
   <i type="logical" name="LFXHEG"> F  </i>
   <i type="int" name="NATURALO">     2</i>
   <i type="logical" name="LHOLEGF"> F  </i>
   <i type="logical" name="L2ORDER"> F  </i>
   <i type="logical" name="LDMP1"> F  </i>
   <i type="logical" name="LMP2LT"> F  </i>
   <i type="logical" name="LSMP2LT"> F  </i>
   <i type="logical" name="LGWLF"> F  </i>
   <i name="ENCUTGW">     -1.60000002</i>
   <i name="ENCUTGWSOFT">     -1.60000002</i>
   <i name="ENCUTLF">     -1.00000000</i>
   <i type="logical" name="LESF_SPLINES"> F  </i>
   <i type="int" name="LMAXMP2">    -1</i>
   <i name="SCISSOR">      0.00000000</i>
   <i type="int" name="NOMEGA">     0</i>
   <i type="int" name="NOMEGAR">     0</i>
   <i type="int" name="NBANDSGW">    -1</i>
   <i type="int" name="NBANDSO">    -1</i>
   <i type="int" name="NBANDSV">    -1</i>
   <i type="int" name="NELMGW">     1</i>
   <i type="int" name="NELMHF">     1</i>
   <i type="int" name="DIM">     3</i>
   <i type="int" name="IESPILON">     4</i>
   <i type="int" name="ANTIRES">     0</i>
   <i name="OMEGAMAX">    -30.00000000</i>
   <i name="OMEGAMIN">    -30.00000000</i>
   <i name="OMEGATL">   -200.00000000</i>
   <i type="int" name="OMEGAGRID">     0</i>
   <i name="CSHIFT">     -0.10000000</i>
   <i type="logical" name="LSELFENERGY"> F  </i>
   <i type="logical" name="LSPECTRAL"> F  </i>
   <i type="logical" name="LSPECTRALGW"> F  </i>
   <i type="logical" name="LSINGLES"> F  </i>
   <i type="logical" name="LFERMIGW"> F  </i>
   <i type="logical" name="ODDONLYGW"> F  </i>
   <i type="logical" name="EVENONLYGW"> F  </i>
   <i type="int" name="NKREDLFX">     1</i>
   <i type="int" name="NKREDLFY">     1</i>
   <i type="int" name="NKREDLFZ">     1</i>
   <i type="int" name="MAXMEM">  2800</i>
   <i type="int" name="TELESCOPE">     0</i>
   <i type="int" name="NTAUPAR">    -1</i>
   <i type="int" name="NOMEGAPAR">    -1</i>
   <i name="DAMP_NEWTON">      0.80000001</i>
   <i name="LAMBDA">      1.00000000</i>
  </separator>
  <separator name="External order field" >
   <i name="OFIELD_KAPPA">      0.00000000</i>
   <v name="OFIELD_K">      0.00000000      0.00000000      0.00000000</v>
   <i name="OFIELD_Q6_NEAR">      0.00000000</i>
   <i name="OFIELD_Q6_FAR">      0.00000000</i>
   <i name="OFIELD_A">      0.00000000</i>
  </separator>
  <separator name="optional k-points parameters" >
   <i type="int" name="KPOINTS_OPT_MODE">     1</i>
   <i type="logical" name="LKPOINTS_OPT"> F  </i>
  </separator>
 </parameters>
 <atominfo>
  <atoms>      91 </atoms>
  <types>       4 </types>
  <array name="atoms" >
   <dimension dim="1">ion</dimension>
   <field type="string">element</field>
   <field type="int">atomtype</field>
   <set>
    <rc><c>C </c><c>   1</c></rc>
    <rc><c>C </c><c>   1</c></rc>
    <rc><c>C </c><c>   1</c></rc>
    <rc><c>C </c><c>   1</c></rc>
    <rc><c>C </c><c>   1</c></rc>
    <rc><c>C </c><c>   1</c></rc>
    <rc><c>C </c><c>   1</c></rc>
    <rc><c>C </c><c>   1</c></rc>
    <rc><c>C </c><c>   1</c></rc>
    <rc><c>C </c><c>   1</c></rc>
    <rc><c>C </c><c>   1</c></rc>
    <rc><c>C </c><c>   1</c></rc>
    <rc><c>C </c><c>   1</c></rc>
    <rc><c>C </c><c>   1</c></rc>
    <rc><c>C </c><c>   1</c></rc>
    <rc><c>C </c><c>   1</c></rc>
    <rc><c>C </c><c>   1</c></rc>
    <rc><c>C </c><c>   1</c></rc>
    <rc><c>C </c><c>   1</c></rc>
    <rc><c>C </c><c>   1</c></rc>
    <rc><c>C </c><c>   1</c></rc>
    <rc><c>C </c><c>   1</c></rc>
    <rc><c>C </c><c>   1</c></rc>
    <rc><c>C </c><c>   1</c></rc>
    <rc><c>C </c><c>   1</c></rc>
    <rc><c>C </c><c>   1</c></rc>
    <rc><c>C </c><c>   1</c></rc>
    <rc><c>C </c><c>   1</c></rc>
    <rc><c>C </c><c>   1</c></rc>
    <rc><c>C </c><c>   1</c></rc>
    <rc><c>C </c><c>   1</c></rc>
    <rc><c>C </c><c>   1</c></rc>
    <rc><c>C </c><c>   1</c></rc>
    <rc><c>C </c><c>   1</c></rc>
    <rc><c>C </c><c>   1</c></rc>
    <rc><c>C </c><c>   1</c></rc>
    <rc><c>C </c><c>   1</c></rc>
    <rc><c>C </c><c>   1</c></rc>
    <rc><c>C </c><c>   1</c></rc>
    <rc><c>C </c><c>   1</c></rc>
    <rc><c>C </c><c>   1</c></rc>
    <rc><c>C </c><c>   1</c></rc>
    <rc><c>C </c><c>   1</c></rc>
    <rc><c>C </c><c>   1</c></rc>
    <rc><c>C </c><c>   1</c></rc>
    <rc><c>C </c><c>   1</c></rc>
    <rc><c>C </c><c>   1</c></rc>
    <rc><c>C </c><c>   1</c></rc>
    <rc><c>C </c><c>   1</c></rc>
    <rc><c>C </c><c>   1</c></rc>
    <rc><c>C </c><c>   1</c></rc>
    <rc><c>C </c><c>   1</c></rc>
    <rc><c>C </c><c>   1</c></rc>
    <rc><c>C </c><c>   1</c></rc>
    <rc><c>C </c><c>   1</c></rc>
    <rc><c>C </c><c>   1</c></rc>
    <rc><c>C </c><c>   1</c></rc>
    <rc><c>C </c><c>   1</c></rc>
    <rc><c>C </c><c>   1</c></rc>
    <rc><c>C </c><c>   1</c></rc>
    <rc><c>C </c><c>   1</c></rc>
    <rc><c>C </c><c>   1</c></rc>
    <rc><c>C </c><c>   1</c></rc>
    <rc><c>C </c><c>   1</c></rc>
    <rc><c>C </c><c>   1</c></rc>
    <rc><c>C </c><c>   1</c></rc>
    <rc><c>C </c><c>   1</c></rc>
    <rc><c>C </c><c>   1</c></rc>
    <rc><c>C </c><c>   1</c></rc>
    <rc><c>C </c><c>   1</c></rc>
    <rc><c>C </c><c>   1</c></rc>
    <rc><c>C </c><c>   1</c></rc>
    <rc><c>C </c><c>   1</c></rc>
    <rc><c>C </c><c>   1</c></rc>
    <rc><c>C </c><c>   1</c></rc>
    <rc><c>C </c><c>   1</c></rc>
    <rc><c>C </c><c>   1</c></rc>
    <rc><c>C </c><c>   1</c></rc>
    <rc><c>C </c><c>   1</c></rc>
    <rc><c>C </c><c>   1</c></rc>
    <rc><c>N </c><c>   2</c></rc>
    <rc><c>N </c><c>   2</c></rc>
    <rc><c>N </c><c>   2</c></rc>
    <rc><c>N </c><c>   2</c></rc>
    <rc><c>N </c><c>   2</c></rc>
    <rc><c>N </c><c>   2</c></rc>
    <rc><c>N </c><c>   2</c></rc>
    <rc><c>N </c><c>   2</c></rc>
    <rc><c>H </c><c>   3</c></rc>
    <rc><c>H </c><c>   3</c></rc>
    <rc><c>O </c><c>   4</c></rc>
   </set>
  </array>
  <array name="atomtypes" >
   <dimension dim="1">type</dimension>
   <field type="int">atomspertype</field>
   <field type="string">element</field>
   <field>mass</field>
   <field>valence</field>
   <field type="string">pseudopotential</field>
   <set>
    <rc><c>  80</c><c>C </c><c>     12.01100000</c><c>      4.00000000</c><c>  PAW_PBE C 08Apr2002                   </c></rc>
    <rc><c>   8</c><c>N </c><c>     14.00100000</c><c>      5.00000000</c><c>  PAW_PBE N 08Apr2002                   </c></rc>
    <rc><c>   2</c><c>H </c><c>      1.00000000</c><c>      1.00000000</c><c>  PAW_PBE H 15Jun2001                   </c></rc>
    <rc><c>   1</c><c>O </c><c>     16.00000000</c><c>      6.00000000</c><c>  PAW_PBE O 08Apr2002                   </c></rc>
   </set>
  </array>
 </atominfo>
 <structure name="initialpos" >
  <crystal>
   <varray name="basis" >
    <v>      17.27103806       0.00000000       0.00000000 </v>
    <v>      -8.63551903      14.95715771       0.00000000 </v>
    <v>       0.00000000       0.00000000      15.00000000 </v>
   </varray>
   <i name="volume">   3874.88459904 </i>
   <varray name="rec_basis" >
    <v>       0.05790040       0.03342881       0.00000000 </v>
    <v>       0.00000000       0.06685762       0.00000000 </v>
    <v>       0.00000000       0.00000000       0.06666667 </v>
   </varray>
  </crystal>
  <varray name="positions" >
   <v>       0.99998542       0.00025783       0.49912750 </v>
   <v>       0.99939941       0.14272198       0.49995563 </v>
   <v>       0.99910798       0.28560904       0.50064995 </v>
   <v>       0.99930947       0.42878802       0.50037515 </v>
   <v>       0.99996640       0.57184645       0.49976821 </v>
   <v>       0.00148738       0.71524172       0.49928467 </v>
   <v>       0.00144959       0.85836567       0.49899861 </v>
   <v>       0.14438236       0.00194803       0.49937167 </v>
   <v>       0.14386092       0.14465867       0.49966581 </v>
   <v>       0.14232736       0.28587804       0.50118387 </v>
   <v>       0.14231517       0.42854065       0.50235986 </v>
   <v>       0.14384972       0.57129628       0.50214498 </v>
   <v>       0.14438064       0.71452452       0.50091567 </v>
   <v>       0.14436736       0.85822607       0.49984946 </v>
   <v>       0.28688674       0.00148843       0.50034996 </v>
   <v>       0.28765064       0.14631169       0.50037453 </v>
   <v>       0.28868853       0.29375529       0.50274177 </v>
   <v>       0.28515393       0.42860334       0.50480874 </v>
   <v>       0.28876946       0.56708255       0.50472092 </v>
   <v>       0.28760326       0.71346794       0.50334441 </v>
   <v>       0.28688701       0.85757275       0.50158784 </v>
   <v>       0.42939064       0.00082304       0.50146152 </v>
   <v>       0.42947619       0.14570175       0.50027822 </v>
   <v>       0.42947063       0.85606755       0.50303854 </v>
   <v>       0.57133934       0.99956949       0.50194110 </v>
   <v>       0.57130331       0.14404335       0.50066711 </v>
   <v>       0.57360519       0.29176834       0.49978434 </v>
   <v>       0.57360418       0.85415249       0.50334457 </v>
   <v>       0.71342458       0.99842940       0.50186627 </v>
   <v>       0.71374141       0.14300170       0.50066111 </v>
   <v>       0.71341085       0.28725563       0.49978205 </v>
   <v>       0.70906221       0.42829831       0.50028120 </v>
   <v>       0.70901796       0.85310831       0.50287526 </v>
   <v>       0.85601545       0.99881565       0.50084551 </v>
   <v>       0.85616041       0.14238691       0.50066170 </v>
   <v>       0.85613893       0.28594815       0.49980483 </v>
   <v>       0.85596873       0.42942183       0.49945105 </v>
   <v>       0.85632314       0.57267859       0.49957372 </v>
   <v>       0.85869462       0.71550157       0.49988770 </v>
   <v>       0.85629978       0.85592049       0.50043828 </v>
   <v>       0.04803852       0.09595958       0.49943021 </v>
   <v>       0.04664343       0.23782151       0.50048615 </v>
   <v>       0.04660035       0.38092183       0.50109297 </v>
   <v>       0.04799992       0.52419963       0.50067624 </v>
   <v>       0.04871633       0.66729039       0.49989080 </v>
   <v>       0.04900888       0.81056734       0.49928262 </v>
   <v>       0.04869263       0.95350979       0.49899779 </v>
   <v>       0.19193639       0.09735098       0.49972388 </v>
   <v>       0.19163977       0.24023041       0.50075492 </v>
   <v>       0.18930408       0.38070700       0.50259484 </v>
   <v>       0.19165676       0.52351503       0.50323341 </v>
   <v>       0.19195069       0.66670502       0.50221117 </v>
   <v>       0.19183293       0.81017778       0.50076107 </v>
   <v>       0.19184296       0.95376464       0.49981726 </v>
   <v>       0.33443591       0.09766369       0.50028411 </v>
   <v>       0.33892068       0.24307359       0.50145407 </v>
   <v>       0.33894581       0.66804900       0.50450994 </v>
   <v>       0.33443802       0.80894699       0.50281078 </v>
   <v>       0.33407211       0.95313378       0.50115159 </v>
   <v>       0.47645776       0.09660782       0.50077064 </v>
   <v>       0.47433293       0.24212460       0.50013477 </v>
   <v>       0.47432084       0.80452902       0.50386903 </v>
   <v>       0.47647740       0.95213217       0.50220971 </v>
   <v>       0.61836001       0.09532326       0.50109022 </v>
   <v>       0.61833383       0.24013612       0.50002660 </v>
   <v>       0.61834779       0.95050696       0.50238381 </v>
   <v>       0.76102722       0.09466804       0.50111486 </v>
   <v>       0.76100221       0.23855789       0.49989518 </v>
   <v>       0.76026751       0.38273619       0.49974902 </v>
   <v>       0.75927789       0.52922693       0.50098210 </v>
   <v>       0.76274139       0.66753006       0.50221126 </v>
   <v>       0.75923009       0.80234675       0.50244024 </v>
   <v>       0.76031449       0.94984261       0.50193777 </v>
   <v>       0.90369529       0.09421130       0.50043660 </v>
   <v>       0.90368845       0.23793415       0.50028504 </v>
   <v>       0.90361208       0.38165292       0.49958360 </v>
   <v>       0.90406979       0.52481373       0.49938098 </v>
   <v>       0.90573784       0.66766996       0.49935254 </v>
   <v>       0.90572242       0.81035961       0.49951212 </v>
   <v>       0.90410400       0.95150626       0.50002123 </v>
   <v>       0.42876068       0.28701639       0.50098449 </v>
   <v>       0.42875707       0.71407091       0.50475908 </v>
   <v>       0.71599589       0.57560711       0.50328254 </v>
   <v>       0.71599658       0.71265883       0.50392101 </v>
   <v>       0.33187736       0.38342521       0.50576770 </v>
   <v>       0.33200712       0.52056594       0.50596647 </v>
   <v>       0.61918479       0.38227478       0.49984529 </v>
   <v>       0.61921182       0.80929909       0.50369213 </v>
   <v>       0.52559639       0.47902601       0.43742598 </v>
   <v>       0.51066063       0.55902300       0.43377363 </v>
   <v>       0.52026898       0.51912918       0.39533618 </v>
  </varray>
  <varray name="selective"  type="logical" >
   <v type="logical" >  T  T  T </v>
   <v type="logical" >  T  T  T </v>
   <v type="logical" >  T  T  T </v>
   <v type="logical" >  T  T  T </v>
   <v type="logical" >  T  T  T </v>
   <v type="logical" >  T  T  T </v>
   <v type="logical" >  T  T  T </v>
   <v type="logical" >  T  T  T </v>
   <v type="logical" >  T  T  T </v>
   <v type="logical" >  T  T  T </v>
   <v type="logical" >  T  T  T </v>
   <v type="logical" >  T  T  T </v>
   <v type="logical" >  T  T  T </v>
   <v type="logical" >  T  T  T </v>
   <v type="logical" >  T  T  T </v>
   <v type="logical" >  T  T  T </v>
   <v type="logical" >  T  T  T </v>
   <v type="logical" >  T  T  T </v>
   <v type="logical" >  T  T  T </v>
   <v type="logical" >  T  T  T </v>
   <v type="logical" >  T  T  T </v>
   <v type="logical" >  T  T  T </v>
   <v type="logical" >  T  T  T </v>
   <v type="logical" >  T  T  T </v>
   <v type="logical" >  T  T  T </v>
   <v type="logical" >  T  T  T </v>
   <v type="logical" >  T  T  T </v>
   <v type="logical" >  T  T  T </v>
   <v type="logical" >  T  T  T </v>
   <v type="logical" >  T  T  T </v>
   <v type="logical" >  T  T  T </v>
   <v type="logical" >  T  T  T </v>
   <v type="logical" >  T  T  T </v>
   <v type="logical" >  T  T  T </v>
   <v type="logical" >  T  T  T </v>
   <v type="logical" >  T  T  T </v>
   <v type="logical" >  T  T  T </v>
   <v type="logical" >  T  T  T </v>
   <v type="logical" >  T  T  T </v>
   <v type="logical" >  T  T  T </v>
   <v type="logical" >  T  T  T </v>
   <v type="logical" >  T  T  T </v>
   <v type="logical" >  T  T  T </v>
   <v type="logical" >  T  T  T </v>
   <v type="logical" >  T  T  T </v>
   <v type="logical" >  T  T  T </v>
   <v type="logical" >  T  T  T </v>
   <v type="logical" >  T  T  T </v>
   <v type="logical" >  T  T  T </v>
   <v type="logical" >  T  T  T </v>
   <v type="logical" >  T  T  T </v>
   <v type="logical" >  T  T  T </v>
   <v type="logical" >  T  T  T </v>
   <v type="logical" >  T  T  T </v>
   <v type="logical" >  T  T  T </v>
   <v type="logical" >  T  T  T </v>
   <v type="logical" >  T  T  T </v>
   <v type="logical" >  T  T  T </v>
   <v type="logical" >  T  T  T </v>
   <v type="logical" >  T  T  T </v>
   <v type="logical" >  T  T  T </v>
   <v type="logical" >  T  T  T </v>
   <v type="logical" >  T  T  T </v>
   <v type="logical" >  T  T  T </v>
   <v type="logical" >  T  T  T </v>
   <v type="logical" >  T  T  T </v>
   <v type="logical" >  T  T  T </v>
   <v type="logical" >  T  T  T </v>
   <v type="logical" >  T  T  T </v>
   <v type="logical" >  T  T  T </v>
   <v type="logical" >  T  T  T </v>
   <v type="logical" >  T  T  T </v>
   <v type="logical" >  T  T  T </v>
   <v type="logical" >  T  T  T </v>
   <v type="logical" >  T  T  T </v>
   <v type="logical" >  T  T  T </v>
   <v type="logical" >  T  T  T </v>
   <v type="logical" >  T  T  T </v>
   <v type="logical" >  T  T  T </v>
   <v type="logical" >  T  T  T </v>
   <v type="logical" >  T  T  T </v>
   <v type="logical" >  T  T  T </v>
   <v type="logical" >  T  T  T </v>
   <v type="logical" >  T  T  T </v>
   <v type="logical" >  T  T  T </v>
   <v type="logical" >  T  T  T </v>
   <v type="logical" >  T  T  T </v>
   <v type="logical" >  T  T  T </v>
   <v type="logical" >  T  T  T </v>
   <v type="logical" >  T  T  T </v>
   <v type="logical" >  T  T  F </v>
  </varray>
  <nose>
   <v>      -3.00000000       0.00000000       0.00010000       0.00010000 </v>
  </nose>
 </structure>
 <calculation>
  <scstep>
   <time name="dav">  269.87  273.52</time>
   <time name="total">  270.51  274.18</time>
   <energy>
    <i name="alphaZ">    175.06488379 </i>
    <i name="ewald">  36229.21511255 </i>
    <i name="hartreedc"> -47054.99393225 </i>
    <i name="XCdc">   1240.21543768 </i>
    <i name="pawpsdc">  10672.04303313 </i>
    <i name="pawaedc"> -10728.93979680 </i>
    <i name="eentropy">     -0.03599291 </i>
    <i name="bandstr">  -1379.25435663 </i>
    <i name="atom">  14345.53195627 </i>
    <i name="e_fr_energy">   3498.84634484 </i>
    <i name="e_wo_entrp">   3498.88233775 </i>
    <i name="e_0_energy">   3498.86434130 </i>
   </energy>
  </scstep>
  <scstep>
   <time name="dav">  387.77  393.10</time>
   <time name="total">  387.78  393.11</time>
   <energy>
    <i name="e_fr_energy">   -220.27584687 </i>
    <i name="e_wo_entrp">   -220.27439765 </i>
    <i name="e_0_energy">   -220.27512226 </i>
   </energy>
  </scstep>
  <scstep>
   <time name="dav">  306.58  310.61</time>
   <time name="total">  306.58  310.61</time>
   <energy>
    <i name="e_fr_energy">   -845.14042952 </i>
    <i name="e_wo_entrp">   -845.13956042 </i>
    <i name="e_0_energy">   -845.13999497 </i>
   </energy>
  </scstep>
  <scstep>
   <time name="dav">  323.92  328.25</time>
   <time name="total">  323.92  328.26</time>
   <energy>
    <i name="e_fr_energy">   -865.66607977 </i>
    <i name="e_wo_entrp">   -865.66535664 </i>
    <i name="e_0_energy">   -865.66571820 </i>
   </energy>
  </scstep>
  <scstep>
   <time name="dav">  357.54  362.24</time>
   <time name="total">  360.28  365.01</time>
   <energy>
    <i name="e_fr_energy">   -866.28943105 </i>
    <i name="e_wo_entrp">   -866.28870893 </i>
    <i name="e_0_energy">   -866.28906999 </i>
   </energy>
  </scstep>
  <scstep>
   <time name="dav">  281.70  285.46</time>
   <time name="total">  285.06  288.86</time>
   <energy>
    <i name="e_fr_energy">   -837.61986197 </i>
    <i name="e_wo_entrp">   -837.61947936 </i>
    <i name="e_0_energy">   -837.61967067 </i>
   </energy>
  </scstep>
  <scstep>
   <time name="dav">  306.45  310.46</time>
   <time name="total">  309.82  313.88</time>
   <energy>
    <i name="e_fr_energy">   -813.43593090 </i>
    <i name="e_wo_entrp">   -813.41373614 </i>
    <i name="e_0_energy">   -813.42483352 </i>
   </energy>
  </scstep>
  <scstep>
   <time name="dav">  305.43  309.49</time>
   <time name="total">  308.81  312.92</time>
   <energy>
    <i name="e_fr_energy">   -813.33725335 </i>
    <i name="e_wo_entrp">   -813.33665392 </i>
    <i name="e_0_energy">   -813.33695363 </i>
   </energy>
  </scstep>
  <scstep>
   <time name="dav">  303.19  307.30</time>
   <time name="total">  306.55  310.71</time>
   <energy>
    <i name="e_fr_energy">   -813.35887030 </i>
    <i name="e_wo_entrp">   -813.35841612 </i>
    <i name="e_0_energy">   -813.35864321 </i>
   </energy>
  </scstep>
  <scstep>
   <time name="dav">  302.34  306.44</time>
   <time name="total">  305.72  309.86</time>
   <energy>
    <i name="e_fr_energy">   -812.86862520 </i>
    <i name="e_wo_entrp">   -812.86828891 </i>
    <i name="e_0_energy">   -812.86845705 </i>
   </energy>
  </scstep>
  <scstep>
   <time name="dav">  308.44  312.59</time>
   <time name="total">  311.82  316.00</time>
   <energy>
    <i name="e_fr_energy">   -812.82576671 </i>
    <i name="e_wo_entrp">   -812.82542436 </i>
    <i name="e_0_energy">   -812.82559554 </i>
   </energy>
  </scstep>
  <scstep>
   <time name="dav">  306.40  310.50</time>
   <time name="total">  309.77  313.91</time>
   <energy>
    <i name="e_fr_energy">   -812.81817594 </i>
    <i name="e_wo_entrp">   -812.81781258 </i>
    <i name="e_0_energy">   -812.81799426 </i>
   </energy>
  </scstep>
  <scstep>
   <time name="dav">  322.77  327.08</time>
   <time name="total">  326.15  330.50</time>
   <energy>
    <i name="e_fr_energy">   -812.81520109 </i>
    <i name="e_wo_entrp">   -812.81485253 </i>
    <i name="e_0_energy">   -812.81502681 </i>
   </energy>
  </scstep>
  <scstep>
   <time name="dav">  312.49  316.66</time>
   <time name="total">  315.85  320.06</time>
   <energy>
    <i name="e_fr_energy">   -812.81465842 </i>
    <i name="e_wo_entrp">   -812.81431236 </i>
    <i name="e_0_energy">   -812.81448539 </i>
   </energy>
  </scstep>
  <scstep>
   <time name="dav">  328.75  333.24</time>
   <time name="total">  332.12  336.65</time>
   <energy>
    <i name="e_fr_energy">   -812.81413531 </i>
    <i name="e_wo_entrp">   -812.81379534 </i>
    <i name="e_0_energy">   -812.81396532 </i>
   </energy>
  </scstep>
  <scstep>
   <time name="dav">  307.07  311.06</time>
   <time name="total">  310.51  314.54</time>
   <energy>
    <i name="e_fr_energy">   -812.81411273 </i>
    <i name="e_wo_entrp">   -812.81377650 </i>
    <i name="e_0_energy">   -812.81394461 </i>
   </energy>
  </scstep>
  <scstep>
   <time name="dav">  306.05  310.07</time>
   <time name="total">  309.50  313.56</time>
   <energy>
    <i name="e_fr_energy">   -812.81411865 </i>
    <i name="e_wo_entrp">   -812.81378224 </i>
    <i name="e_0_energy">   -812.81395045 </i>
   </energy>
  </scstep>
  <scstep>
   <time name="dav">  323.42  327.75</time>
   <time name="total">  326.86  331.26</time>
   <energy>
    <i name="e_fr_energy">   -812.81411492 </i>
    <i name="e_wo_entrp">   -812.81377801 </i>
    <i name="e_0_energy">   -812.81394647 </i>
   </energy>
  </scstep>
  <scstep>
   <time name="dav">  287.77  291.64</time>
   <time name="total">  288.43  292.30</time>
   <energy>
    <i name="alphaZ">    175.06488379 </i>
    <i name="ewald">  36229.21511255 </i>
    <i name="hartreedc"> -48424.69240752 </i>
    <i name="XCdc">   1292.66581005 </i>
    <i name="pawpsdc">  37031.76898663 </i>
    <i name="pawaedc"> -37099.22460150 </i>
    <i name="eentropy">     -0.00033714 </i>
    <i name="bandstr">  -4363.14351728 </i>
    <i name="atom">  14345.53195627 </i>
    <i name="e_fr_energy">   -812.81411414 </i>
    <i name="e_wo_entrp">   -812.81377700 </i>
    <i name="e_0_energy">   -812.81394557 </i>
   </energy>
  </scstep>
  <structure>
   <crystal>
    <varray name="basis" >
     <v>      17.27103806       0.00000000       0.00000000 </v>
     <v>      -8.63551903      14.95715771       0.00000000 </v>
     <v>       0.00000000       0.00000000      15.00000000 </v>
    </varray>
    <i name="volume">   3874.88459904 </i>
    <varray name="rec_basis" >
     <v>       0.05790040       0.03342881       0.00000000 </v>
     <v>       0.00000000       0.06685762       0.00000000 </v>
     <v>       0.00000000       0.00000000       0.06666667 </v>
    </varray>
   </crystal>
   <varray name="positions" >
    <v>       0.99998542       0.00025783       0.49912750 </v>
    <v>       0.99939941       0.14272198       0.49995563 </v>
    <v>       0.99910798       0.28560904       0.50064995 </v>
    <v>       0.99930947       0.42878802       0.50037515 </v>
    <v>       0.99996640       0.57184645       0.49976821 </v>
    <v>       0.00148738       0.71524172       0.49928467 </v>
    <v>       0.00144959       0.85836567       0.49899861 </v>
    <v>       0.14438236       0.00194803       0.49937167 </v>
    <v>       0.14386092       0.14465867       0.49966581 </v>
    <v>       0.14232736       0.28587804       0.50118387 </v>
    <v>       0.14231517       0.42854065       0.50235986 </v>
    <v>       0.14384972       0.57129628       0.50214498 </v>
    <v>       0.14438064       0.71452452       0.50091567 </v>
    <v>       0.14436736       0.85822607       0.49984946 </v>
    <v>       0.28688674       0.00148843       0.50034996 </v>
    <v>       0.28765064       0.14631169       0.50037453 </v>
    <v>       0.28868853       0.29375529       0.50274177 </v>
    <v>       0.28515393       0.42860334       0.50480874 </v>
    <v>       0.28876946       0.56708255       0.50472092 </v>
    <v>       0.28760326       0.71346794       0.50334441 </v>
    <v>       0.28688701       0.85757275       0.50158784 </v>
    <v>       0.42939064       0.00082304       0.50146152 </v>
    <v>       0.42947619       0.14570175       0.50027822 </v>
    <v>       0.42947063       0.85606755       0.50303854 </v>
    <v>       0.57133934       0.99956949       0.50194110 </v>
    <v>       0.57130331       0.14404335       0.50066711 </v>
    <v>       0.57360519       0.29176834       0.49978434 </v>
    <v>       0.57360418       0.85415249       0.50334457 </v>
    <v>       0.71342458       0.99842940       0.50186627 </v>
    <v>       0.71374141       0.14300170       0.50066111 </v>
    <v>       0.71341085       0.28725563       0.49978205 </v>
    <v>       0.70906221       0.42829831       0.50028120 </v>
    <v>       0.70901796       0.85310831       0.50287526 </v>
    <v>       0.85601545       0.99881565       0.50084551 </v>
    <v>       0.85616041       0.14238691       0.50066170 </v>
    <v>       0.85613893       0.28594815       0.49980483 </v>
    <v>       0.85596873       0.42942183       0.49945105 </v>
    <v>       0.85632314       0.57267859       0.49957372 </v>
    <v>       0.85869462       0.71550157       0.49988770 </v>
    <v>       0.85629978       0.85592049       0.50043828 </v>
    <v>       0.04803852       0.09595958       0.49943021 </v>
    <v>       0.04664343       0.23782151       0.50048615 </v>
    <v>       0.04660035       0.38092183       0.50109297 </v>
    <v>       0.04799992       0.52419963       0.50067624 </v>
    <v>       0.04871633       0.66729039       0.49989080 </v>
    <v>       0.04900888       0.81056734       0.49928262 </v>
    <v>       0.04869263       0.95350979       0.49899779 </v>
    <v>       0.19193639       0.09735098       0.49972388 </v>
    <v>       0.19163977       0.24023041       0.50075492 </v>
    <v>       0.18930408       0.38070700       0.50259484 </v>
    <v>       0.19165676       0.52351503       0.50323341 </v>
    <v>       0.19195069       0.66670502       0.50221117 </v>
    <v>       0.19183293       0.81017778       0.50076107 </v>
    <v>       0.19184296       0.95376464       0.49981726 </v>
    <v>       0.33443591       0.09766369       0.50028411 </v>
    <v>       0.33892068       0.24307359       0.50145407 </v>
    <v>       0.33894581       0.66804900       0.50450994 </v>
    <v>       0.33443802       0.80894699       0.50281078 </v>
    <v>       0.33407211       0.95313378       0.50115159 </v>
    <v>       0.47645776       0.09660782       0.50077064 </v>
    <v>       0.47433293       0.24212460       0.50013477 </v>
    <v>       0.47432084       0.80452902       0.50386903 </v>
    <v>       0.47647740       0.95213217       0.50220971 </v>
    <v>       0.61836001       0.09532326       0.50109022 </v>
    <v>       0.61833383       0.24013612       0.50002660 </v>
    <v>       0.61834779       0.95050696       0.50238381 </v>
    <v>       0.76102722       0.09466804       0.50111486 </v>
    <v>       0.76100221       0.23855789       0.49989518 </v>
    <v>       0.76026751       0.38273619       0.49974902 </v>
    <v>       0.75927789       0.52922693       0.50098210 </v>
    <v>       0.76274139       0.66753006       0.50221126 </v>
    <v>       0.75923009       0.80234675       0.50244024 </v>
    <v>       0.76031449       0.94984261       0.50193777 </v>
    <v>       0.90369529       0.09421130       0.50043660 </v>
    <v>       0.90368845       0.23793415       0.50028504 </v>
    <v>       0.90361208       0.38165292       0.49958360 </v>
    <v>       0.90406979       0.52481373       0.49938098 </v>
    <v>       0.90573784       0.66766996       0.49935254 </v>
    <v>       0.90572242       0.81035961       0.49951212 </v>
    <v>       0.90410400       0.95150626       0.50002123 </v>
    <v>       0.42876068       0.28701639       0.50098449 </v>
    <v>       0.42875707       0.71407091       0.50475908 </v>
    <v>       0.71599589       0.57560711       0.50328254 </v>
    <v>       0.71599658       0.71265883       0.50392101 </v>
    <v>       0.33187736       0.38342521       0.50576770 </v>
    <v>       0.33200712       0.52056594       0.50596647 </v>
    <v>       0.61918479       0.38227478       0.49984529 </v>
    <v>       0.61921182       0.80929909       0.50369213 </v>
    <v>       0.52559639       0.47902601       0.43742598 </v>
    <v>       0.51066063       0.55902300       0.43377363 </v>
    <v>       0.52026898       0.51912918       0.39533618 </v>
   </varray>
  </structure>
  <varray name="forces" >
   <v>       0.00190330      -0.00363815       0.03112006 </v>
   <v>      -0.01546313      -0.05114059       0.00313337 </v>
   <v>       0.00366364       0.01718002      -0.01287071 </v>
   <v>      -0.01959455       0.01698920       0.00277552 </v>
   <v>      -0.01159219       0.02076950       0.01542208 </v>
   <v>      -0.01370250      -0.00935966       0.00600054 </v>
   <v>      -0.00251453       0.00969617       0.00503501 </v>
   <v>      -0.04927376       0.02725989      -0.00584904 </v>
   <v>      -0.00816460      -0.01479802       0.00833751 </v>
   <v>      -0.00686858      -0.00437038      -0.00023796 </v>
   <v>      -0.01932419       0.00798183      -0.00590464 </v>
   <v>      -0.02073921       0.01410793      -0.01058843 </v>
   <v>      -0.00303454      -0.04368885      -0.00085086 </v>
   <v>       0.00218046       0.01713111      -0.00158246 </v>
   <v>       0.01411571      -0.03256019       0.00107698 </v>
   <v>      -0.00896136       0.00248984       0.00478775 </v>
   <v>      -0.01731017       0.02293859      -0.00720173 </v>
   <v>       0.01718335       0.00250351      -0.01469650 </v>
   <v>      -0.00405693      -0.02035477       0.00189071 </v>
   <v>       0.02416185       0.01656303      -0.00930734 </v>
   <v>      -0.01840193       0.01884128       0.00425145 </v>
   <v>       0.03867886       0.02128090      -0.00577959 </v>
   <v>       0.00134190       0.02267868       0.01707801 </v>
   <v>       0.02597859      -0.02454207       0.00575884 </v>
   <v>      -0.06459401       0.00915609       0.00105434 </v>
   <v>      -0.00958467      -0.05068603      -0.00906844 </v>
   <v>       0.00702311      -0.02235701       0.01700984 </v>
   <v>      -0.00306678       0.02812160       0.01075179 </v>
   <v>      -0.00543835      -0.00023320       0.00036303 </v>
   <v>       0.03868523       0.00468813       0.00425122 </v>
   <v>      -0.00558126      -0.00933415       0.00013853 </v>
   <v>      -0.01223487      -0.02938640      -0.00688674 </v>
   <v>      -0.00651966      -0.00243155      -0.00711220 </v>
   <v>       0.04851224      -0.00186954      -0.00673506 </v>
   <v>      -0.02831594      -0.00231802      -0.00734190 </v>
   <v>      -0.02076533      -0.01571297       0.00935570 </v>
   <v>       0.01657568       0.04545777       0.00982293 </v>
   <v>       0.01589546       0.00591776       0.00035670 </v>
   <v>       0.00906013      -0.00570435       0.00807540 </v>
   <v>       0.01336493       0.00650902      -0.00003672 </v>
   <v>      -0.00388458      -0.02722862      -0.00269257 </v>
   <v>      -0.01848687       0.00871534       0.00736800 </v>
   <v>      -0.01031342      -0.00774017      -0.00741541 </v>
   <v>      -0.00570642       0.00028922       0.00453354 </v>
   <v>      -0.01903595      -0.00642441      -0.00145412 </v>
   <v>      -0.05196321      -0.02741060      -0.00739098 </v>
   <v>      -0.01050962       0.01485574      -0.00050109 </v>
   <v>      -0.01186944       0.01099932       0.00434474 </v>
   <v>       0.01798549       0.00710213       0.01568508 </v>
   <v>      -0.00991271      -0.00593620       0.00197801 </v>
   <v>       0.02099643       0.01173899      -0.01620820 </v>
   <v>      -0.02198305      -0.03707878       0.00438418 </v>
   <v>       0.00524105       0.02458916       0.00416713 </v>
   <v>       0.01507294      -0.00810063       0.00159190 </v>
   <v>       0.00735977       0.05829715      -0.00232086 </v>
   <v>      -0.01033526       0.00913702       0.00284543 </v>
   <v>      -0.00659883       0.00575982      -0.01195143 </v>
   <v>       0.03012357      -0.01707656      -0.01156253 </v>
   <v>      -0.00876622      -0.01032827      -0.00254383 </v>
   <v>       0.05680910      -0.00624754       0.00091750 </v>
   <v>       0.00851600      -0.04628659       0.01181638 </v>
   <v>      -0.02052865       0.00224565      -0.00693275 </v>
   <v>       0.01346082       0.06078943      -0.00237020 </v>
   <v>       0.00327192       0.00546186       0.00088156 </v>
   <v>       0.01526857       0.03984733       0.00301959 </v>
   <v>       0.04403598      -0.00923877       0.00604246 </v>
   <v>      -0.00839485       0.02328506      -0.01540042 </v>
   <v>       0.00686055       0.01230030       0.01047632 </v>
   <v>       0.00083003      -0.02600293      -0.00216561 </v>
   <v>       0.00134287      -0.00448063      -0.00140184 </v>
   <v>       0.02430625       0.00459515       0.00054210 </v>
   <v>       0.00974744      -0.00759558       0.00298043 </v>
   <v>      -0.02439171       0.01608680      -0.00838088 </v>
   <v>      -0.01280235      -0.00566683       0.00359500 </v>
   <v>      -0.02165049      -0.01182326      -0.00056860 </v>
   <v>       0.00749164      -0.00776354       0.02222401 </v>
   <v>       0.04121777       0.00979847       0.00022126 </v>
   <v>       0.00260136      -0.00582210       0.00626477 </v>
   <v>       0.00170569      -0.02779836       0.01035581 </v>
   <v>       0.02031697       0.02265835      -0.00085483 </v>
   <v>      -0.01021158      -0.00558460      -0.00049061 </v>
   <v>      -0.01313318      -0.01329198      -0.01257422 </v>
   <v>       0.01359454       0.00060627      -0.00397269 </v>
   <v>      -0.00269172       0.00879816      -0.01236516 </v>
   <v>       0.00437143      -0.01459549      -0.00919570 </v>
   <v>      -0.00528528      -0.00294668      -0.00643681 </v>
   <v>       0.01461410       0.01292380       0.00951357 </v>
   <v>       0.01121866       0.00578715      -0.00822855 </v>
   <v>       0.01385802      -0.00786187       0.00756794 </v>
   <v>      -0.00099288      -0.01796874      -0.00424625 </v>
   <v>      -0.00599209      -0.00214393      -0.03948752 </v>
  </varray>
  <varray name="stress" >
   <v>     -13.10757385       3.87411984       0.00005959 </v>
   <v>       3.87412051     -17.50865029       0.01199962 </v>
   <v>       0.00005955       0.01199979      -0.23900512 </v>
  </varray>
  <energy>
   <i name="e_fr_energy">   -820.16343929 </i>
   <i name="e_wo_entrp">   -820.16310215 </i>
   <i name="e_0_energy">   -820.16327072 </i>
  </energy>
  <time name="totalsc"> 6518.53 6605.51</time>
 </calculation>
 <calculation>
  <scstep>
   <time name="dav">  297.12  301.15</time>
   <time name="total">  300.50  304.55</time>
   <energy>
    <i name="alphaZ">    175.06488379 </i>
    <i name="ewald">  36229.49030750 </i>
    <i name="hartreedc"> -48424.90159267 </i>
    <i name="XCdc">   1292.66766005 </i>
    <i name="pawpsdc">  37032.11957371 </i>
    <i name="pawaedc"> -37099.57503965 </i>
    <i name="eentropy">     -0.00033495 </i>
    <i name="bandstr">  -4363.21210585 </i>
    <i name="atom">  14345.53195627 </i>
    <i name="e_fr_energy">   -812.81469179 </i>
    <i name="e_wo_entrp">   -812.81435684 </i>
    <i name="e_0_energy">   -812.81452431 </i>
   </energy>
  </scstep>
  <scstep>
   <time name="dav">  313.59  317.75</time>
   <time name="total">  316.96  321.15</time>
   <energy>
    <i name="e_fr_energy">   -812.81471859 </i>
    <i name="e_wo_entrp">   -812.81438388 </i>
    <i name="e_0_energy">   -812.81455123 </i>
   </energy>
  </scstep>
  <scstep>
   <time name="dav">  326.73  331.10</time>
   <time name="total">  330.10  334.51</time>
   <energy>
    <i name="e_fr_energy">   -812.81470435 </i>
    <i name="e_wo_entrp">   -812.81436964 </i>
    <i name="e_0_energy">   -812.81453699 </i>
   </energy>
  </scstep>
  <scstep>
   <time name="dav">  306.41  310.51</time>
   <time name="total">  309.75  313.94</time>
   <energy>
    <i name="e_fr_energy">   -812.81469709 </i>
    <i name="e_wo_entrp">   -812.81436239 </i>
    <i name="e_0_energy">   -812.81452974 </i>
   </energy>
  </scstep>
  <scstep>
   <time name="dav">  273.75  277.37</time>
   <time name="total">  274.41  278.04</time>
   <energy>
    <i name="alphaZ">    175.06488379 </i>
    <i name="ewald">  36229.49030750 </i>
    <i name="hartreedc"> -48424.95662073 </i>
    <i name="XCdc">   1292.66928493 </i>
    <i name="pawpsdc">  37032.72771685 </i>
    <i name="pawaedc"> -37100.18370893 </i>
    <i name="eentropy">     -0.00033472 </i>
    <i name="bandstr">  -4363.15818206 </i>
    <i name="atom">  14345.53195627 </i>
    <i name="e_fr_energy">   -812.81469709 </i>
    <i name="e_wo_entrp">   -812.81436237 </i>
    <i name="e_0_energy">   -812.81452973 </i>
   </energy>
  </scstep>
  <structure>
   <crystal>
    <varray name="basis" >
     <v>      17.27103806       0.00000000       0.00000000 </v>
     <v>      -8.63551903      14.95715771       0.00000000 </v>
     <v>       0.00000000       0.00000000      15.00000000 </v>
    </varray>
    <i name="volume">   3874.88459904 </i>
    <varray name="rec_basis" >
     <v>       0.05790040       0.03342881       0.00000000 </v>
     <v>       0.00000000       0.06685762       0.00000000 </v>
     <v>       0.00000000       0.00000000       0.06666667 </v>
    </varray>
   </crystal>
   <varray name="positions" >
    <v>       0.99998531       0.00025548       0.49914752 </v>
    <v>       0.99937428       0.14268899       0.49995765 </v>
    <v>       0.99911557       0.28562012       0.50064167 </v>
    <v>       0.99930401       0.42879898       0.50037693 </v>
    <v>       0.99996662       0.57185985       0.49977813 </v>
    <v>       0.00147671       0.71523569       0.49928853 </v>
    <v>       0.00145132       0.85837192       0.49900185 </v>
    <v>       0.14436363       0.00196561       0.49936791 </v>
    <v>       0.14385158       0.14464913       0.49967118 </v>
    <v>       0.14232211       0.28587522       0.50118371 </v>
    <v>       0.14230694       0.42854580       0.50235606 </v>
    <v>       0.14384269       0.57130538       0.50213817 </v>
    <v>       0.14436485       0.71449634       0.50091512 </v>
    <v>       0.14437410       0.85823712       0.49984844 </v>
    <v>       0.28688412       0.00146742       0.50035066 </v>
    <v>       0.28764643       0.14631329       0.50037761 </v>
    <v>       0.28868626       0.29377008       0.50273713 </v>
    <v>       0.28516433       0.42860495       0.50479929 </v>
    <v>       0.28876063       0.56706942       0.50472214 </v>
    <v>       0.28762210       0.71347862       0.50333842 </v>
    <v>       0.28688281       0.85758491       0.50159058 </v>
    <v>       0.42941911       0.00083676       0.50145780 </v>
    <v>       0.42948426       0.14571638       0.50028921 </v>
    <v>       0.42947722       0.85605171       0.50304225 </v>
    <v>       0.57130621       0.99957539       0.50194177 </v>
    <v>       0.57128160       0.14401066       0.50066127 </v>
    <v>       0.57360191       0.29175392       0.49979528 </v>
    <v>       0.57361154       0.85417063       0.50335149 </v>
    <v>       0.71342146       0.99842925       0.50186650 </v>
    <v>       0.71376453       0.14300473       0.50066384 </v>
    <v>       0.71340472       0.28724961       0.49978214 </v>
    <v>       0.70904590       0.42827935       0.50027677 </v>
    <v>       0.70901353       0.85310674       0.50287068 </v>
    <v>       0.85604195       0.99881444       0.50084118 </v>
    <v>       0.85614384       0.14238541       0.50065698 </v>
    <v>       0.85612226       0.28593801       0.49981085 </v>
    <v>       0.85599265       0.42945115       0.49945737 </v>
    <v>       0.85633393       0.57268241       0.49957395 </v>
    <v>       0.85869784       0.71549789       0.49989289 </v>
    <v>       0.85630935       0.85592469       0.50043826 </v>
    <v>       0.04802756       0.09594201       0.49942847 </v>
    <v>       0.04663591       0.23782713       0.50049089 </v>
    <v>       0.04659210       0.38091684       0.50108820 </v>
    <v>       0.04799682       0.52419982       0.50067915 </v>
    <v>       0.04870362       0.66728624       0.49988986 </v>
    <v>       0.04897101       0.81054965       0.49927787 </v>
    <v>       0.04869155       0.95351937       0.49899747 </v>
    <v>       0.19193331       0.09735808       0.49972667 </v>
    <v>       0.19165211       0.24023499       0.50076501 </v>
    <v>       0.18929663       0.38070317       0.50259611 </v>
    <v>       0.19167228       0.52352261       0.50322298 </v>
    <v>       0.19192645       0.66668110       0.50221399 </v>
    <v>       0.19184379       0.81019365       0.50076375 </v>
    <v>       0.19184877       0.95375942       0.49981828 </v>
    <v>       0.33445883       0.09770129       0.50028261 </v>
    <v>       0.33891786       0.24307949       0.50145590 </v>
    <v>       0.33894398       0.66805272       0.50450225 </v>
    <v>       0.33444934       0.80893598       0.50280335 </v>
    <v>       0.33406389       0.95312712       0.50114995 </v>
    <v>       0.47648748       0.09660379       0.50077123 </v>
    <v>       0.47432276       0.24209475       0.50014237 </v>
    <v>       0.47431010       0.80453047       0.50386457 </v>
    <v>       0.47650452       0.95217138       0.50220818 </v>
    <v>       0.61836360       0.09532678       0.50109079 </v>
    <v>       0.61835521       0.24016182       0.50002854 </v>
    <v>       0.61836941       0.95050100       0.50238770 </v>
    <v>       0.76103004       0.09468306       0.50110495 </v>
    <v>       0.76101001       0.23856582       0.49990192 </v>
    <v>       0.76025959       0.38271942       0.49974762 </v>
    <v>       0.75927720       0.52922404       0.50098119 </v>
    <v>       0.76275646       0.66753303       0.50221161 </v>
    <v>       0.75923308       0.80234185       0.50244216 </v>
    <v>       0.76030605       0.94985298       0.50193238 </v>
    <v>       0.90368631       0.09420764       0.50043892 </v>
    <v>       0.90367254       0.23792652       0.50028468 </v>
    <v>       0.90361376       0.38164791       0.49959789 </v>
    <v>       0.90409597       0.52482005       0.49938112 </v>
    <v>       0.90573741       0.66766621       0.49935657 </v>
    <v>       0.90571440       0.81034168       0.49951878 </v>
    <v>       0.90412266       0.95152087       0.50002068 </v>
    <v>       0.42875318       0.28701279       0.50098417 </v>
    <v>       0.42874544       0.71406234       0.50475099 </v>
    <v>       0.71600368       0.57560750       0.50327998 </v>
    <v>       0.71599792       0.71266451       0.50391306 </v>
    <v>       0.33187509       0.38341580       0.50576179 </v>
    <v>       0.33200322       0.52056404       0.50596233 </v>
    <v>       0.61919713       0.38228312       0.49985141 </v>
    <v>       0.61921995       0.80930282       0.50368684 </v>
    <v>       0.52560159       0.47902094       0.43743085 </v>
    <v>       0.51065428       0.55901141       0.43377089 </v>
    <v>       0.52026494       0.51912779       0.39533618 </v>
   </varray>
  </structure>
  <varray name="forces" >
   <v>       0.00381863      -0.00178547       0.02633240 </v>
   <v>      -0.01323836      -0.02180081       0.00333553 </v>
   <v>      -0.00842181       0.00426559      -0.01107545 </v>
   <v>      -0.01122643       0.00521038       0.00339261 </v>
   <v>       0.00129228       0.01194975       0.01366814 </v>
   <v>      -0.01449833      -0.00692553       0.00483458 </v>
   <v>      -0.00924639       0.00191558       0.00425823 </v>
   <v>      -0.02023910       0.01475060      -0.00501071 </v>
   <v>      -0.00785916      -0.00224305       0.00812716 </v>
   <v>      -0.00499683      -0.00514332       0.00139904 </v>
   <v>      -0.01040534       0.00512024      -0.00622800 </v>
   <v>      -0.00756971      -0.00255555      -0.00950054 </v>
   <v>      -0.00638441      -0.01840826      -0.00033817 </v>
   <v>      -0.01096842       0.00052931      -0.00159989 </v>
   <v>       0.00885029      -0.00172887       0.00064776 </v>
   <v>      -0.00565322       0.00927720       0.00461291 </v>
   <v>      -0.00872787       0.00814821      -0.00587657 </v>
   <v>       0.00630691      -0.00099487      -0.01298731 </v>
   <v>      -0.00278967      -0.01015791      -0.00023142 </v>
   <v>       0.00533328       0.00056655      -0.00916157 </v>
   <v>      -0.00068565       0.00616286       0.00344765 </v>
   <v>       0.01716692       0.01240854      -0.00544647 </v>
   <v>       0.01306741       0.00691857       0.01538264 </v>
   <v>       0.01450151      -0.00129469       0.00362793 </v>
   <v>      -0.01031102       0.01329450       0.00123967 </v>
   <v>       0.01250906      -0.00876606      -0.00775533 </v>
   <v>       0.00688226      -0.00984816       0.01565324 </v>
   <v>       0.00386947       0.01445185       0.00880542 </v>
   <v>      -0.00002773       0.00783359      -0.00084701 </v>
   <v>       0.01567179       0.00915959       0.00337111 </v>
   <v>       0.00400075      -0.00177535       0.00080766 </v>
   <v>       0.00174493      -0.01861786      -0.00578401 </v>
   <v>      -0.00279559       0.00558281      -0.00682801 </v>
   <v>       0.01709589      -0.00101688      -0.00612641 </v>
   <v>      -0.01558947       0.00062734      -0.00704414 </v>
   <v>      -0.01005823      -0.00545393       0.00970076 </v>
   <v>       0.01101204       0.01577905       0.00956157 </v>
   <v>       0.01249121      -0.00093608       0.00036063 </v>
   <v>       0.00739478      -0.00855229       0.00821727 </v>
   <v>       0.01167858       0.00158709       0.00086086 </v>
   <v>      -0.00496431      -0.01811576       0.00010624 </v>
   <v>      -0.01047803      -0.00964184       0.00553371 </v>
   <v>      -0.01208186       0.00543396      -0.00735287 </v>
   <v>      -0.00972035       0.00715325       0.00433744 </v>
   <v>      -0.01243025      -0.00016412      -0.00020267 </v>
   <v>      -0.02396978      -0.00907366      -0.00603226 </v>
   <v>      -0.00859965       0.00837839       0.00124997 </v>
   <v>      -0.01281696       0.00604938       0.00404865 </v>
   <v>       0.00207907       0.00031383       0.01331054 </v>
   <v>      -0.00621815       0.00007182       0.00069255 </v>
   <v>       0.00325402       0.00666974      -0.01494441 </v>
   <v>      -0.00822460      -0.01372918       0.00295407 </v>
   <v>      -0.00109834       0.00329563       0.00375068 </v>
   <v>      -0.00457941       0.00390586       0.00069970 </v>
   <v>       0.00389534       0.02331325      -0.00085142 </v>
   <v>      -0.00887142       0.00782808       0.00228959 </v>
   <v>      -0.00476168      -0.00076175      -0.01109863 </v>
   <v>       0.01720737      -0.00331316      -0.01010094 </v>
   <v>       0.00763148       0.00057004      -0.00190335 </v>
   <v>       0.02328652      -0.00602103       0.00075346 </v>
   <v>       0.00358089      -0.02111395       0.01227886 </v>
   <v>      -0.00702305      -0.00111462      -0.00556753 </v>
   <v>       0.00083797       0.01987009      -0.00169018 </v>
   <v>       0.00584220       0.00183070       0.00026641 </v>
   <v>       0.00235402       0.00503405       0.00296775 </v>
   <v>       0.00586526       0.00183212       0.00641494 </v>
   <v>      -0.00546387       0.00948243      -0.01327513 </v>
   <v>       0.00126280      -0.00029374       0.00977654 </v>
   <v>       0.00808668      -0.00740847      -0.00195772 </v>
   <v>       0.00804783      -0.00481113      -0.00195391 </v>
   <v>       0.01338192       0.00262287       0.00038624 </v>
   <v>       0.00888769       0.00221214       0.00108031 </v>
   <v>      -0.00113234       0.00962041      -0.00805295 </v>
   <v>      -0.01075175      -0.00963889       0.00255830 </v>
   <v>      -0.01338245      -0.00589355      -0.00116763 </v>
   <v>      -0.00125945       0.00131236       0.02041894 </v>
   <v>       0.02063165       0.01501108       0.00146981 </v>
   <v>       0.00168007      -0.00905443       0.00625941 </v>
   <v>       0.00089133      -0.00916134       0.00974255 </v>
   <v>       0.01832500       0.00629887       0.00074215 </v>
   <v>      -0.00234319      -0.00997389      -0.00019998 </v>
   <v>      -0.00708022      -0.00607186      -0.01244999 </v>
   <v>       0.01235889       0.00240509      -0.00395105 </v>
   <v>       0.00543913       0.00088276      -0.01130613 </v>
   <v>       0.00256823       0.00056385      -0.00959190 </v>
   <v>       0.00006266      -0.00531158      -0.00626781 </v>
   <v>      -0.00045518      -0.00499501       0.00924669 </v>
   <v>       0.00025675       0.00423417      -0.00723031 </v>
   <v>       0.01000440      -0.00260285       0.00192855 </v>
   <v>      -0.00439678      -0.01390622      -0.00049193 </v>
   <v>       0.00138867      -0.01155842      -0.03742715 </v>
  </varray>
  <varray name="stress" >
   <v>     -13.08934457       3.88715271      -0.00190455 </v>
   <v>       3.88715338     -17.49510996       0.01444880 </v>
   <v>      -0.00190460       0.01444897      -0.23565988 </v>
  </varray>
  <energy>
   <i name="e_fr_energy">   -820.16400016 </i>
   <i name="e_wo_entrp">   -820.16366544 </i>
   <i name="e_0_energy">   -820.16383280 </i>
  </energy>
  <time name="totalsc"> 2054.18 2081.59</time>
 </calculation>
 <calculation>
  <scstep>
   <time name="dav">  291.97  295.87</time>
   <time name="total">  295.31  299.24</time>
   <energy>
    <i name="alphaZ">    175.06488379 </i>
    <i name="ewald">  36229.68299681 </i>
    <i name="hartreedc"> -48425.11747128 </i>
    <i name="XCdc">   1292.67106492 </i>
    <i name="pawpsdc">  37032.79594029 </i>
    <i name="pawaedc"> -37100.25197214 </i>
    <i name="eentropy">     -0.00033331 </i>
    <i name="bandstr">  -4363.19188972 </i>
    <i name="atom">  14345.53195627 </i>
    <i name="e_fr_energy">   -812.81482437 </i>
    <i name="e_wo_entrp">   -812.81449106 </i>
    <i name="e_0_energy">   -812.81465772 </i>
   </energy>
  </scstep>
  <scstep>
   <time name="dav">  309.33  313.48</time>
   <time name="total">  312.67  316.91</time>
   <energy>
    <i name="e_fr_energy">   -812.81483859 </i>
    <i name="e_wo_entrp">   -812.81450551 </i>
    <i name="e_0_energy">   -812.81467205 </i>
   </energy>
  </scstep>
  <scstep>
   <time name="dav">  326.86  331.21</time>
   <time name="total">  330.31  334.69</time>
   <energy>
    <i name="e_fr_energy">   -812.81483254 </i>
    <i name="e_wo_entrp">   -812.81449949 </i>
    <i name="e_0_energy">   -812.81466601 </i>
   </energy>
  </scstep>
  <scstep>
   <time name="dav">  306.47  310.49</time>
   <time name="total">  309.86  313.91</time>
   <energy>
    <i name="e_fr_energy">   -812.81482986 </i>
    <i name="e_wo_entrp">   -812.81449683 </i>
    <i name="e_0_energy">   -812.81466334 </i>
   </energy>
  </scstep>
  <scstep>
   <time name="dav">  263.80  267.34</time>
   <time name="total">  264.44  268.03</time>
   <energy>
    <i name="alphaZ">    175.06488379 </i>
    <i name="ewald">  36229.68299681 </i>
    <i name="hartreedc"> -48425.14315206 </i>
    <i name="XCdc">   1292.67201139 </i>
    <i name="pawpsdc">  37033.39605233 </i>
    <i name="pawaedc"> -37100.85237420 </i>
    <i name="eentropy">     -0.00033304 </i>
    <i name="bandstr">  -4363.16687114 </i>
    <i name="atom">  14345.53195627 </i>
    <i name="e_fr_energy">   -812.81482984 </i>
    <i name="e_wo_entrp">   -812.81449681 </i>
    <i name="e_0_energy">   -812.81466333 </i>
   </energy>
  </scstep>
  <structure>
   <crystal>
    <varray name="basis" >
     <v>      17.27103806       0.00000000       0.00000000 </v>
     <v>      -8.63551903      14.95715771       0.00000000 </v>
     <v>       0.00000000       0.00000000      15.00000000 </v>
    </varray>
    <i name="volume">   3874.88459904 </i>
    <varray name="rec_basis" >
     <v>       0.05790040       0.03342881       0.00000000 </v>
     <v>       0.00000000       0.06685762       0.00000000 </v>
     <v>       0.00000000       0.00000000       0.06666667 </v>
    </varray>
   </crystal>
   <varray name="positions" >
    <v>       0.99998523       0.00025385       0.49916142 </v>
    <v>       0.99935682       0.14266608       0.49995905 </v>
    <v>       0.99912084       0.28562782       0.50063592 </v>
    <v>       0.99930021       0.42880659       0.50037817 </v>
    <v>       0.99996677       0.57186916       0.49978501 </v>
[...]
   <v>      -0.00186145      -0.00229398      -0.00525627 </v>
   <v>       0.00679115       0.00571462      -0.00174868 </v>
   <v>       0.00101039      -0.00587744      -0.00524579 </v>
   <v>       0.01230095       0.00337019       0.01378925 </v>
   <v>       0.00754020      -0.00265935      -0.00444407 </v>
   <v>      -0.00921473       0.00717858       0.00722009 </v>
   <v>       0.00547144      -0.00000782      -0.00560001 </v>
   <v>       0.00079138       0.00127228      -0.01287389 </v>
   <v>      -0.00065806      -0.00597779      -0.00384387 </v>
   <v>      -0.00067546       0.00504997      -0.00875578 </v>
   <v>       0.01465956      -0.01068761       0.00469711 </v>
   <v>       0.00626755       0.00316952       0.01388419 </v>
   <v>       0.00411121      -0.00375363       0.00776243 </v>
   <v>       0.00015167      -0.00828155      -0.00090512 </v>
   <v>       0.00950652       0.00972650       0.00199419 </v>
   <v>       0.00406264       0.01154993       0.00797859 </v>
   <v>      -0.00021805       0.00309947       0.00423547 </v>
   <v>      -0.00618350      -0.01113433       0.00149288 </v>
   <v>       0.00981488       0.00240893      -0.00616500 </v>
   <v>       0.00358999      -0.00451532       0.00138486 </v>
   <v>       0.00640415       0.00610103       0.00074557 </v>
   <v>      -0.00480597       0.01020491      -0.01039572 </v>
   <v>      -0.01372537       0.00719765       0.00062849 </v>
   <v>       0.00349935      -0.00725789       0.00417677 </v>
   <v>       0.00266912      -0.00092321      -0.00586779 </v>
   <v>       0.00232501       0.00628999      -0.00554912 </v>
   <v>       0.01605785      -0.00068439      -0.00588094 </v>
   <v>       0.00303911       0.00049927       0.01440442 </v>
   <v>       0.00078794      -0.00546127       0.01035609 </v>
   <v>       0.01567647       0.01174203       0.00100824 </v>
   <v>       0.01453471       0.01656073       0.01911923 </v>
   <v>      -0.00348369      -0.01207923       0.00288840 </v>
   <v>      -0.00473583       0.00500418      -0.01049518 </v>
   <v>       0.01009870      -0.00208201       0.00268079 </v>
   <v>      -0.00903890      -0.02206082      -0.00318265 </v>
   <v>       0.00812103      -0.00335927      -0.04148384 </v>
  </varray>
  <varray name="stress" >
   <v>     -12.86192665       3.89628407      -0.00476643 </v>
   <v>       3.89628434     -17.39363536       0.01211415 </v>
   <v>      -0.00476668       0.01211435      -0.22927696 </v>
  </varray>
  <energy>
   <i name="e_fr_energy">   -820.16996443 </i>
   <i name="e_wo_entrp">   -820.16963639 </i>
   <i name="e_0_energy">   -820.16980041 </i>
  </energy>
  <time name="totalsc"> 2563.64 2598.07</time>
 </calculation>
 <calculation>
  <scstep>
   <time name="dav">  265.29  268.88</time>
   <time name="total">  268.71  272.33</time>
   <energy>
    <i name="alphaZ">    175.06488379 </i>
    <i name="ewald">  36241.20515152 </i>
    <i name="hartreedc"> -48436.60115660 </i>
    <i name="XCdc">   1292.73138276 </i>
    <i name="pawpsdc">  37044.49364003 </i>
    <i name="pawaedc"> -37111.95572504 </i>
    <i name="eentropy">     -0.00032673 </i>
    <i name="bandstr">  -4363.28914049 </i>
    <i name="atom">  14345.53195627 </i>
    <i name="e_fr_energy">   -812.81933450 </i>
    <i name="e_wo_entrp">   -812.81900777 </i>
    <i name="e_0_energy">   -812.81917114 </i>
   </energy>
  </scstep>
  <scstep>
   <time name="dav">  283.93  287.76</time>
   <time name="total">  287.32  291.19</time>
   <energy>
    <i name="e_fr_energy">   -812.81969080 </i>
    <i name="e_wo_entrp">   -812.81936439 </i>
    <i name="e_0_energy">   -812.81952760 </i>
   </energy>
  </scstep>
  <scstep>
   <time name="dav">  324.97  329.35</time>
   <time name="total">  328.38  332.80</time>
   <energy>
    <i name="e_fr_energy">   -812.81963519 </i>
    <i name="e_wo_entrp">   -812.81930833 </i>
    <i name="e_0_energy">   -812.81947176 </i>
   </energy>
  </scstep>
  <scstep>
   <time name="dav">  269.66  273.23</time>
   <time name="total">  273.03  276.68</time>
   <energy>
    <i name="e_fr_energy">   -812.81964323 </i>
    <i name="e_wo_entrp">   -812.81931615 </i>
    <i name="e_0_energy">   -812.81947969 </i>
   </energy>
  </scstep>
  <scstep>
   <time name="dav">  324.98  329.27</time>
   <time name="total">  328.41  332.74</time>
   <energy>
    <i name="e_fr_energy">   -812.81964802 </i>
    <i name="e_wo_entrp">   -812.81932117 </i>
    <i name="e_0_energy">   -812.81948460 </i>
   </energy>
  </scstep>
  <scstep>
   <time name="dav">  273.51  277.23</time>
   <time name="total">  276.93  280.69</time>
   <energy>
    <i name="e_fr_energy">   -812.81964902 </i>
    <i name="e_wo_entrp">   -812.81932207 </i>
    <i name="e_0_energy">   -812.81948555 </i>
   </energy>
  </scstep>
  <scstep>
   <time name="dav">  261.84  265.28</time>
   <time name="total">  262.51  265.96</time>
   <energy>
    <i name="alphaZ">    175.06488379 </i>
    <i name="ewald">  36241.20515152 </i>
    <i name="hartreedc"> -48436.63737297 </i>
    <i name="XCdc">   1292.73257972 </i>
    <i name="pawpsdc">  37045.49452848 </i>
    <i name="pawaedc"> -37112.95726219 </i>
    <i name="eentropy">     -0.00032695 </i>
    <i name="bandstr">  -4363.25378661 </i>
    <i name="atom">  14345.53195627 </i>
    <i name="e_fr_energy">   -812.81964895 </i>
    <i name="e_wo_entrp">   -812.81932200 </i>
    <i name="e_0_energy">   -812.81948548 </i>
   </energy>
  </scstep>
  <structure>
   <crystal>
    <varray name="basis" >
     <v>      17.27103806       0.00000000       0.00000000 </v>
     <v>      -8.63551903      14.95715771       0.00000000 </v>
     <v>       0.00000000       0.00000000      15.00000000 </v>
    </varray>
    <i name="volume">   3874.88459904 </i>
    <varray name="rec_basis" >
     <v>       0.05790040       0.03342881       0.00000000 </v>
     <v>       0.00000000       0.06685762       0.00000000 </v>
     <v>       0.00000000       0.00000000       0.06666667 </v>
    </varray>
   </crystal>
   <varray name="positions" >
    <v>       0.00002133       0.00039454       0.50090231 </v>
    <v>       0.99928978       0.14276002       0.50074914 </v>
    <v>       0.99911055       0.28572940       0.50065589 </v>
    <v>       0.99927856       0.42887840       0.50095128 </v>
    <v>       0.00002696       0.57199709       0.50103815 </v>
    <v>       0.00148999       0.71534445       0.50065343 </v>
    <v>       0.00147854       0.85853794       0.50065827 </v>
    <v>       0.14440846       0.00221032       0.50100104 </v>
    <v>       0.14383589       0.14482283       0.50118679 </v>
    <v>       0.14227894       0.28596259       0.50110141 </v>
    <v>       0.14226029       0.42862784       0.50097100 </v>
    <v>       0.14381593       0.57139053       0.50108832 </v>
    <v>       0.14436001       0.71459930       0.50066049 </v>
    <v>       0.14440438       0.85842072       0.50052530 </v>
    <v>       0.28694866       0.00166817       0.50095830 </v>
    <v>       0.28773490       0.14652294       0.50180273 </v>
    <v>       0.28871443       0.29392802       0.50283814 </v>
    <v>       0.28509123       0.42866431       0.50242947 </v>
    <v>       0.28872652       0.56715533       0.50168973 </v>
    <v>       0.28764439       0.71361277       0.50126672 </v>
    <v>       0.28690586       0.85773401       0.50091804 </v>
    <v>       0.42948859       0.00099892       0.50149550 </v>
    <v>       0.42960865       0.14583222       0.50165004 </v>
    <v>       0.42956541       0.85625250       0.50172606 </v>
    <v>       0.57137232       0.99978816       0.50158258 </v>
    <v>       0.57136802       0.14413934       0.50172079 </v>
    <v>       0.57367146       0.29185904       0.50171808 </v>
    <v>       0.57368236       0.85436060       0.50189202 </v>
    <v>       0.71346985       0.99859141       0.50102493 </v>
    <v>       0.71381745       0.14315996       0.50100493 </v>
    <v>       0.71348191       0.28739740       0.50151546 </v>
    <v>       0.70911375       0.42833348       0.50173948 </v>
    <v>       0.70907410       0.85327074       0.50168594 </v>
    <v>       0.85613071       0.99892639       0.50093214 </v>
    <v>       0.85610274       0.14250984       0.50058576 </v>
    <v>       0.85610883       0.28604709       0.50084241 </v>
    <v>       0.85611403       0.42961700       0.50137106 </v>
    <v>       0.85642137       0.57272921       0.50120985 </v>
    <v>       0.85877288       0.71557170       0.50082108 </v>
    <v>       0.85640080       0.85606471       0.50099418 </v>
    <v>       0.04798390       0.09606896       0.50087101 </v>
    <v>       0.04660943       0.23791597       0.50076747 </v>
    <v>       0.04658499       0.38102962       0.50075319 </v>
    <v>       0.04798724       0.52427568       0.50105563 </v>
    <v>       0.04870803       0.66739068       0.50072133 </v>
    <v>       0.04896064       0.81067330       0.50056030 </v>
    <v>       0.04873433       0.95372305       0.50087669 </v>
    <v>       0.19200632       0.09762277       0.50139387 </v>
    <v>       0.19166571       0.24039720       0.50144073 </v>
    <v>       0.18923245       0.38079025       0.50118635 </v>
    <v>       0.19165691       0.52361110       0.50125143 </v>
    <v>       0.19192467       0.66676484       0.50100715 </v>
    <v>       0.19186927       0.81033247       0.50056409 </v>
    <v>       0.19190776       0.95399348       0.50079508 </v>
    <v>       0.33457927       0.09791871       0.50145665 </v>
    <v>       0.33899524       0.24327598       0.50260837 </v>
    <v>       0.33890199       0.66814954       0.50162513 </v>
    <v>       0.33451244       0.80909722       0.50132470 </v>
    <v>       0.33410597       0.95329345       0.50100020 </v>
    <v>       0.47659259       0.09673016       0.50165224 </v>
    <v>       0.47439533       0.24215777       0.50191108 </v>
    <v>       0.47432552       0.80466764       0.50193393 </v>
    <v>       0.47658961       0.95238961       0.50173861 </v>
    <v>       0.61845637       0.09550533       0.50146562 </v>
    <v>       0.61843443       0.24030116       0.50176118 </v>
    <v>       0.61840914       0.95069117       0.50146238 </v>
    <v>       0.76103796       0.09483905       0.50070805 </v>
    <v>       0.76104230       0.23870391       0.50104954 </v>
    <v>       0.76036445       0.38284436       0.50159059 </v>
    <v>       0.75935331       0.52925971       0.50187908 </v>
    <v>       0.76283068       0.66761281       0.50188462 </v>
    <v>       0.75931651       0.80247283       0.50169133 </v>
    <v>       0.76039155       0.95004105       0.50112837 </v>
    <v>       0.90362216       0.09430674       0.50074581 </v>
    <v>       0.90364903       0.23805099       0.50060298 </v>
    <v>       0.90361618       0.38173899       0.50106570 </v>
    <v>       0.90422496       0.52493469       0.50125295 </v>
    <v>       0.90578823       0.66770640       0.50084746 </v>
    <v>       0.90575753       0.81044678       0.50070667 </v>
    <v>       0.90420861       0.95165845       0.50095396 </v>
    <v>       0.42881948       0.28709435       0.50253322 </v>
    <v>       0.42868643       0.71418687       0.50191331 </v>
    <v>       0.71610240       0.57569191       0.50285888 </v>
    <v>       0.71609998       0.71280525       0.50252771 </v>
    <v>       0.33183773       0.38356971       0.50421213 </v>
    <v>       0.33192239       0.52060672       0.50236842 </v>
    <v>       0.61928335       0.38239895       0.50149754 </v>
    <v>       0.61928940       0.80948546       0.50212231 </v>
    <v>       0.52856060       0.47791218       0.43804344 </v>
    <v>       0.50558461       0.55255360       0.43310627 </v>
    <v>       0.51928081       0.51507817       0.39533618 </v>
   </varray>
  </structure>
  <varray name="forces" >
   <v>      -0.00074326       0.01694631      -0.00251140 </v>
   <v>       0.00066771       0.00649816       0.00157543 </v>
   <v>      -0.01804698       0.00074079      -0.00226777 </v>
   <v>      -0.00043780       0.01529384      -0.00036012 </v>
   <v>       0.01318867      -0.00310818      -0.00637176 </v>
   <v>      -0.00076399      -0.00223281      -0.00229231 </v>
   <v>       0.00773893      -0.00031819      -0.00184663 </v>
   <v>      -0.00008505       0.00600661       0.00187522 </v>
   <v>       0.00159954      -0.00222095      -0.00073837 </v>
   <v>      -0.00252507       0.00700980      -0.00409528 </v>
   <v>       0.00216231       0.02372308      -0.00341700 </v>
   <v>       0.01435735       0.00116774       0.00159217 </v>
   <v>       0.00586975      -0.00277179       0.00859676 </v>
   <v>      -0.00959507      -0.00600687       0.00636377 </v>
   <v>       0.01089224       0.00013070       0.00966067 </v>
   <v>      -0.00746168       0.00695618      -0.00134015 </v>
   <v>      -0.00856045       0.00023268      -0.00989948 </v>
   <v>      -0.00446834       0.00905152       0.01106177 </v>
   <v>      -0.00547706      -0.00328304       0.00181608 </v>
   <v>      -0.00937002      -0.00232069       0.00517687 </v>
   <v>       0.01370556       0.01132440      -0.00377745 </v>
   <v>       0.00100203       0.00217481      -0.00247428 </v>
   <v>      -0.01805040       0.01281655       0.00469313 </v>
   <v>      -0.00309170      -0.01891951      -0.00347021 </v>
   <v>       0.00277987      -0.00448345       0.00140580 </v>
   <v>       0.00470427       0.01294373      -0.00333275 </v>
   <v>       0.00008323      -0.00623203      -0.00096148 </v>
   <v>      -0.00943853      -0.00763817      -0.00194683 </v>
   <v>      -0.00129518       0.00630998       0.00660220 </v>
   <v>       0.00765012       0.01472738       0.00378122 </v>
   <v>       0.00076250      -0.00903566      -0.00842966 </v>
   <v>       0.00349046       0.00843433       0.00456425 </v>
   <v>       0.00469135       0.00645259       0.00334531 </v>
   <v>      -0.03468409       0.01335836      -0.00166612 </v>
   <v>       0.00763518       0.00430758       0.00572316 </v>
   <v>       0.00413435       0.00359616       0.00194732 </v>
   <v>      -0.01072443      -0.02216398      -0.00146492 </v>
   <v>      -0.00555400       0.00831735      -0.00899212 </v>
   <v>       0.00330182      -0.00100004       0.00548816 </v>
   <v>      -0.00123857      -0.00673971       0.00033127 </v>
   <v>       0.01768797      -0.01147051       0.00850953 </v>
   <v>      -0.02369982      -0.01695857      -0.00159718 </v>
   <v>      -0.02138149      -0.01510038       0.00536068 </v>
   <v>      -0.00954103       0.01962420      -0.00543991 </v>
   <v>      -0.00002489       0.02127730       0.00491827 </v>
   <v>      -0.00282986       0.01308510      -0.00411768 </v>
   <v>       0.01521447      -0.01874497      -0.00871497 </v>
   <v>      -0.01095992      -0.03174549      -0.00644192 </v>
   <v>      -0.00026358      -0.01642711      -0.00091589 </v>
   <v>      -0.00336020      -0.00944713       0.00933166 </v>
   <v>      -0.00670900       0.00592209      -0.00305645 </v>
   <v>      -0.01848085       0.00945772      -0.00519186 </v>
   <v>      -0.01753031       0.00477593       0.00991794 </v>
   <v>      -0.01082089      -0.02067130      -0.00224624 </v>
   <v>      -0.01125331      -0.00183041       0.00134525 </v>
   <v>       0.00072343      -0.00662567      -0.00351046 </v>
   <v>       0.00604183       0.00733737      -0.00153699 </v>
   <v>       0.00865844      -0.00321219      -0.00435731 </v>
   <v>       0.01136871      -0.00001143       0.01690843 </v>
   <v>       0.01131736      -0.00161958      -0.00453454 </v>
   <v>      -0.01327549       0.01208225       0.00550151 </v>
   <v>       0.00401490       0.00583279      -0.00581285 </v>
   <v>       0.00459173      -0.00997885      -0.01359430 </v>
   <v>      -0.00437828      -0.00502396      -0.00361357 </v>
   <v>       0.00379009       0.00155158      -0.00901139 </v>
   <v>       0.02398927      -0.00967050       0.00331714 </v>
   <v>       0.00296232      -0.00441243       0.01588157 </v>
   <v>       0.00173138      -0.00787654       0.00775581 </v>
   <v>       0.00273486      -0.00388488       0.00066255 </v>
   <v>       0.01038424       0.01613333       0.00038111 </v>
   <v>       0.00777876       0.01877515       0.00967727 </v>
   <v>      -0.00184338       0.00596707       0.00769920 </v>
   <v>      -0.00640265      -0.02247695       0.00175754 </v>
   <v>       0.01687567      -0.00423940      -0.01052593 </v>
   <v>       0.00861023      -0.01150814       0.00255585 </v>
   <v>       0.00911668       0.00939725      -0.00135148 </v>
   <v>      -0.01282020       0.01730190      -0.01064608 </v>
   <v>      -0.01975679       0.01277469      -0.00096165 </v>
   <v>       0.00980570      -0.00981371       0.00457679 </v>
   <v>       0.00775690      -0.00906042      -0.00724635 </v>
   <v>       0.00612237       0.00441522      -0.00510106 </v>
   <v>       0.02069677       0.00228974      -0.00459685 </v>
   <v>      -0.00167998      -0.00661654       0.01371459 </v>
   <v>       0.00042089      -0.01567283       0.00885833 </v>
   <v>       0.01477484       0.01058077       0.00145744 </v>
   <v>       0.01770025       0.01591872       0.01912227 </v>
   <v>      -0.01068174      -0.01918652       0.00324263 </v>
   <v>      -0.00536209       0.00647070      -0.01030080 </v>
   <v>       0.01015442      -0.00207167       0.00278671 </v>
   <v>      -0.00905422      -0.02253570      -0.00327760 </v>
   <v>       0.00827993      -0.00312266      -0.04148321 </v>
  </varray>
  <varray name="stress" >
   <v>     -12.84858430       3.90345378      -0.00487466 </v>
   <v>       3.90345403     -17.38117354       0.01205996 </v>
   <v>      -0.00487492       0.01206017      -0.22897145 </v>
  </varray>
  <energy>
   <i name="e_fr_energy">   -820.17007227 </i>
   <i name="e_wo_entrp">   -820.16974532 </i>
   <i name="e_0_energy">   -820.16990879 </i>
  </energy>
  <time name="totalsc"> 2549.62 2583.65</time>
 </calculation>
 <calculation>
  <scstep>
   <time name="dav">  265.54  269.04</time>
   <time name="total">  268.83  272.41</time>
   <energy>
    <i name="alphaZ">    175.06488379 </i>
    <i name="ewald">  36241.71728471 </i>
    <i name="hartreedc"> -48437.15354035 </i>
    <i name="XCdc">   1292.73348289 </i>
    <i name="pawpsdc">  37045.52281075 </i>
    <i name="pawaedc"> -37112.98552967 </i>
    <i name="eentropy">     -0.00032691 </i>
    <i name="bandstr">  -4363.25050151 </i>
    <i name="atom">  14345.53195627 </i>
    <i name="e_fr_energy">   -812.81948002 </i>
    <i name="e_wo_entrp">   -812.81915311 </i>
    <i name="e_0_energy">   -812.81931656 </i>
   </energy>
  </scstep>
  <scstep>
   <time name="dav">  283.88  287.65</time>
   <time name="total">  287.16  291.03</time>
   <energy>
    <i name="e_fr_energy">   -812.82007595 </i>
    <i name="e_wo_entrp">   -812.81974866 </i>
    <i name="e_0_energy">   -812.81991230 </i>
   </energy>
  </scstep>
  <scstep>
   <time name="dav">  326.94  331.29</time>
   <time name="total">  330.29  334.67</time>
   <energy>
    <i name="e_fr_energy">   -812.81998216 </i>
    <i name="e_wo_entrp">   -812.81965411 </i>
    <i name="e_0_energy">   -812.81981814 </i>
   </energy>
  </scstep>
  <scstep>
   <time name="dav">  266.46  270.04</time>
   <time name="total">  269.79  273.41</time>
   <energy>
    <i name="e_fr_energy">   -812.81999623 </i>
    <i name="e_wo_entrp">   -812.81966817 </i>
    <i name="e_0_energy">   -812.81983220 </i>
   </energy>
  </scstep>
  <scstep>
   <time name="dav">  314.73  318.86</time>
   <time name="total">  318.03  322.25</time>
   <energy>
    <i name="e_fr_energy">   -812.82000410 </i>
    <i name="e_wo_entrp">   -812.81967638 </i>
    <i name="e_0_energy">   -812.81984024 </i>
   </energy>
  </scstep>
  <scstep>
