unknown system                          
           1
    17.271038    0.000000    0.000000
    -8.635519   14.957158    0.000000
     0.000000    0.000000   15.000000
   C    N    H    O 
    80     8     2     1
Direct configuration=     1
   0.99998542  0.00025783  0.49912750
   0.99939941  0.14272198  0.49995563
   0.99910798  0.28560904  0.50064995
   0.99930947  0.42878802  0.50037515
   0.99996640  0.57184645  0.49976821
   0.00148738  0.71524172  0.49928467
   0.00144959  0.85836567  0.49899861
   0.14438236  0.00194803  0.49937167
   0.14386092  0.14465867  0.49966581
   0.14232736  0.28587804  0.50118387
   0.14231517  0.42854065  0.50235986
   0.14384972  0.57129628  0.50214498
   0.14438064  0.71452452  0.50091567
   0.14436736  0.85822607  0.49984946
   0.28688674  0.00148843  0.50034996
   0.28765064  0.14631169  0.50037453
   0.28868853  0.29375529  0.50274177
   0.28515393  0.42860334  0.50480874
   0.28876946  0.56708255  0.50472092
   0.28760326  0.71346794  0.50334441
   0.28688701  0.85757275  0.50158784
   0.42939064  0.00082304  0.50146152
   0.42947619  0.14570175  0.50027822
   0.42947063  0.85606755  0.50303854
   0.57133934  0.99956949  0.50194110
   0.57130331  0.14404335  0.50066711
   0.57360519  0.29176834  0.49978434
   0.57360418  0.85415249  0.50334457
   0.71342458  0.99842940  0.50186627
   0.71374141  0.14300170  0.50066111
   0.71341085  0.28725563  0.49978205
   0.70906221  0.42829831  0.50028120
   0.70901796  0.85310831  0.50287526
   0.85601545  0.99881565  0.50084551
   0.85616041  0.14238691  0.50066170
   0.85613893  0.28594815  0.49980483
   0.85596873  0.42942183  0.49945105
   0.85632314  0.57267859  0.49957372
   0.85869462  0.71550157  0.49988770
   0.85629978  0.85592049  0.50043828
   0.04803852  0.09595958  0.49943021
   0.04664343  0.23782151  0.50048615
   0.04660035  0.38092183  0.50109297
   0.04799992  0.52419963  0.50067624
   0.04871633  0.66729039  0.49989080
   0.04900888  0.81056734  0.49928262
   0.04869263  0.95350979  0.49899779
   0.19193639  0.09735098  0.49972388
   0.19163977  0.24023041  0.50075492
   0.18930408  0.38070700  0.50259484
   0.19165676  0.52351503  0.50323341
   0.19195069  0.66670502  0.50221117
   0.19183293  0.81017778  0.50076107
   0.19184296  0.95376464  0.49981726
   0.33443591  0.09766369  0.50028411
   0.33892068  0.24307359  0.50145407
   0.33894581  0.66804900  0.50450994
   0.33443802  0.80894699  0.50281078
   0.33407211  0.95313378  0.50115159
   0.47645776  0.09660782  0.50077064
   0.47433293  0.24212460  0.50013477
   0.47432084  0.80452902  0.50386903
   0.47647740  0.95213217  0.50220971
   0.61836001  0.09532326  0.50109022
   0.61833383  0.24013612  0.50002660
   0.61834779  0.95050696  0.50238381
   0.76102722  0.09466804  0.50111486
   0.76100221  0.23855789  0.49989518
   0.76026751  0.38273619  0.49974902
   0.75927789  0.52922693  0.50098210
   0.76274139  0.66753006  0.50221126
   0.75923009  0.80234675  0.50244024
   0.76031449  0.94984261  0.50193777
   0.90369529  0.09421130  0.50043660
   0.90368845  0.23793415  0.50028504
   0.90361208  0.38165292  0.49958360
   0.90406979  0.52481373  0.49938098
   0.90573784  0.66766996  0.49935254
   0.90572242  0.81035961  0.49951212
   0.90410400  0.95150626  0.50002123
   0.42876068  0.28701639  0.50098449
   0.42875707  0.71407091  0.50475908
   0.71599589  0.57560711  0.50328254
   0.71599658  0.71265883  0.50392101
   0.33187736  0.38342521  0.50576770
   0.33200712  0.52056594  0.50596647
   0.61918479  0.38227478  0.49984529
   0.61921182  0.80929909  0.50369213
   0.52559639  0.47902601  0.43742598
   0.51066063  0.55902300  0.43377363
   0.52026898  0.51912918  0.39533618
Direct configuration=     2
   0.99998531  0.00025548  0.49914752
   0.99937428  0.14268899  0.49995765
   0.99911557  0.28562012  0.50064167
   0.99930401  0.42879898  0.50037693
   0.99996662  0.57185985  0.49977813
   0.00147671  0.71523569  0.49928853
   0.00145132  0.85837192  0.49900185
   0.14436363  0.00196561  0.49936791
   0.14385158  0.14464913  0.49967118
   0.14232211  0.28587522  0.50118371
   0.14230694  0.42854580  0.50235606
   0.14384269  0.57130538  0.50213817
   0.14436485  0.71449634  0.50091512
   0.14437410  0.85823712  0.49984844
   0.28688412  0.00146742  0.50035066
   0.28764643  0.14631329  0.50037761
   0.28868626  0.29377008  0.50273713
   0.28516433  0.42860495  0.50479929
   0.28876063  0.56706942  0.50472214
   0.28762210  0.71347862  0.50333842
   0.28688281  0.85758491  0.50159058
   0.42941911  0.00083676  0.50145780
   0.42948426  0.14571638  0.50028921
   0.42947722  0.85605171  0.50304225
   0.57130621  0.99957539  0.50194177
   0.57128160  0.14401066  0.50066127
   0.57360191  0.29175392  0.49979528
   0.57361154  0.85417063  0.50335149
   0.71342146  0.99842925  0.50186650
   0.71376453  0.14300473  0.50066384
   0.71340472  0.28724961  0.49978214
   0.70904590  0.42827935  0.50027677
   0.70901353  0.85310674  0.50287068
   0.85604195  0.99881444  0.50084118
   0.85614384  0.14238541  0.50065698
   0.85612226  0.28593801  0.49981085
   0.85599265  0.42945115  0.49945737
   0.85633393  0.57268241  0.49957395
   0.85869784  0.71549789  0.49989289
   0.85630935  0.85592469  0.50043826
   0.04802756  0.09594201  0.49942847
   0.04663591  0.23782713  0.50049089
   0.04659210  0.38091684  0.50108820
   0.04799682  0.52419982  0.50067915
   0.04870362  0.66728624  0.49988986
   0.04897101  0.81054965  0.49927787
   0.04869155  0.95351937  0.49899747
   0.19193331  0.09735808  0.49972667
   0.19165211  0.24023499  0.50076501
   0.18929663  0.38070317  0.50259611
   0.19167228  0.52352261  0.50322298
   0.19192645  0.66668110  0.50221399
   0.19184379  0.81019365  0.50076375
   0.19184877  0.95375942  0.49981828
   0.33445883  0.09770129  0.50028261
   0.33891786  0.24307949  0.50145590
   0.33894398  0.66805272  0.50450225
   0.33444934  0.80893598  0.50280335
   0.33406389  0.95312712  0.50114995
   0.47648748  0.09660379  0.50077123
   0.47432276  0.24209475  0.50014237
   0.47431010  0.80453047  0.50386457
   0.47650452  0.95217138  0.50220818
   0.61836360  0.09532678  0.50109079
   0.61835521  0.24016182  0.50002854
   0.61836941  0.95050100  0.50238770
   0.76103004  0.09468306  0.50110495
   0.76101001  0.23856582  0.49990192
   0.76025959  0.38271942  0.49974762
   0.75927720  0.52922404  0.50098119
   0.76275646  0.66753303  0.50221161
   0.75923308  0.80234185  0.50244216
   0.76030605  0.94985298  0.50193238
   0.90368631  0.09420764  0.50043892
   0.90367254  0.23792652  0.50028468
   0.90361376  0.38164791  0.49959789
   0.90409597  0.52482005  0.49938112
   0.90573741  0.66766621  0.49935657
   0.90571440  0.81034168  0.49951878
   0.90412266  0.95152087  0.50002068
   0.42875318  0.28701279  0.50098417
   0.42874544  0.71406234  0.50475099
   0.71600368  0.57560750  0.50327998
   0.71599792  0.71266451  0.50391306
   0.33187509  0.38341580  0.50576179
   0.33200322  0.52056404  0.50596233
   0.61919713  0.38228312  0.49985141
   0.61921995  0.80930282  0.50368684
   0.52560159  0.47902094  0.43743085
   0.51065428  0.55901141  0.43377089
   0.52026494  0.51912779  0.39533618
Direct configuration=     3
   0.99998523  0.00025385  0.49916142
   0.99935682  0.14266608  0.49995905
   0.99912084  0.28562782  0.50063592
   0.99930021  0.42880659  0.50037817
   0.99996677  0.57186916  0.49978501
   0.00146930  0.71523149  0.49929121
   0.00145251  0.85837627  0.49900410
   0.14435062  0.00197782  0.49936529
   0.14384510  0.14464250  0.49967490
   0.14231847  0.28587326  0.50118361
   0.14230123  0.42854937  0.50235343
   0.14383780  0.57131170  0.50213344
   0.14435389  0.71447677  0.50091474
   0.14437878  0.85824480  0.49984773
   0.28688230  0.00145284  0.50035114
   0.28764352  0.14631441  0.50037975
   0.28868468  0.29378036  0.50273392
   0.28517156  0.42860607  0.50479273
   0.28875449  0.56706030  0.50472299
   0.28763519  0.71348604  0.50333427
   0.28687989  0.85759335  0.50159248
   0.42943888  0.00084630  0.50145522
   0.42948986  0.14572654  0.50029684
   0.42948180  0.85604072  0.50304482
   0.57128320  0.99957949  0.50194225
   0.57126653  0.14398795  0.50065722
   0.57359962  0.29174390  0.49980288
   0.57361665  0.85418323  0.50335629
   0.71341930  0.99842914  0.50186666
   0.71378059  0.14300683  0.50066574
   0.71340047  0.28724543  0.49978220
   0.70903457  0.42826619  0.50027370
   0.70901046  0.85310565  0.50286750
   0.85606035  0.99881360  0.50083817
   0.85613233  0.14238438  0.50065370
   0.85611068  0.28593097  0.49981503
   0.85600926  0.42947152  0.49946176
   0.85634142  0.57268506  0.49957411
   0.85870008  0.71549533  0.49989650
   0.85631599  0.85592760  0.50043824
   0.04801996  0.09592982  0.49942727
   0.04663069  0.23783104  0.50049418
   0.04658636  0.38091337  0.50108489
   0.04799467  0.52419995  0.50068118
   0.04869479  0.66728336  0.49988921
   0.04894471  0.81053738  0.49927456
   0.04869080  0.95352603  0.49899725
   0.19193117  0.09736301  0.49972861
   0.19166068  0.24023817  0.50077202
   0.18929145  0.38070051  0.50259700
   0.19168306  0.52352787  0.50321574
   0.19190962  0.66666449  0.50221594
   0.19185133  0.81020466  0.50076561
   0.19185281  0.95375579  0.49981899
   0.33447474  0.09772741  0.50028158
   0.33891589  0.24308358  0.50145717
   0.33894271  0.66805530  0.50449692
   0.33445721  0.80892833  0.50279818
   0.33405817  0.95312249  0.50114881
   0.47650812  0.09660099  0.50077164
   0.47431570  0.24207401  0.50014765
   0.47430264  0.80453148  0.50386147
   0.47652336  0.95219861  0.50220712
   0.61836609  0.09532923  0.50109118
   0.61837006  0.24017967  0.50002989
   0.61838442  0.95049686  0.50239040
   0.76103200  0.09469349  0.50109807
   0.76101543  0.23857133  0.49990660
   0.76025408  0.38270777  0.49974665
   0.75927671  0.52922203  0.50098057
   0.76276691  0.66753508  0.50221185
   0.75923516  0.80233845  0.50244349
   0.76030019  0.94986019  0.50192864
   0.90368007  0.09420510  0.50044052
   0.90366149  0.23792122  0.50028442
   0.90361493  0.38164444  0.49960782
   0.90411416  0.52482444  0.49938122
   0.90573712  0.66766360  0.49935936
   0.90570884  0.81032923  0.49952341
   0.90413562  0.95153102  0.50002030
   0.42874797  0.28701029  0.50098395
   0.42873737  0.71405638  0.50474538
   0.71600909  0.57560777  0.50327821
   0.71599884  0.71266845  0.50390754
   0.33187352  0.38340926  0.50575768
   0.33200051  0.52056272  0.50595945
   0.61920569  0.38228891  0.49985566
   0.61922560  0.80930541  0.50368317
   0.52560521  0.47901742  0.43743423
   0.51064987  0.55900336  0.43376900
   0.52026214  0.51912683  0.39533618
Direct configuration=     4
   0.99998824  0.00025281  0.49918399
   0.99934167  0.14265558  0.49996217
   0.99911063  0.28562758  0.50062637
   0.99929411  0.42880743  0.50038149
   0.99997537  0.57187719  0.49979697
   0.00145464  0.71522582  0.49929526
   0.00144280  0.85837548  0.49900775
   0.14434746  0.00198732  0.49936099
   0.14384003  0.14464443  0.49968229
   0.14231255  0.28586831  0.50118544
   0.14229730  0.42855308  0.50234759
   0.14383165  0.57130392  0.50212510
   0.14434349  0.71446802  0.50091461
   0.14436392  0.85823988  0.49984626
   0.28689202  0.00146116  0.50035159
   0.28764530  0.14632523  0.50038392
   0.28868143  0.29378294  0.50272899
   0.28517238  0.42860399  0.50478138
   0.28874966  0.56705433  0.50472205
   0.28763170  0.71348123  0.50332592
   0.28688514  0.85759490  0.50159536
   0.42945076  0.00085481  0.50145034
   0.42950429  0.14572782  0.50031035
   0.42949334  0.85604719  0.50304743
   0.57129720  0.99959315  0.50194344
   0.57128557  0.14399355  0.50065057
   0.57360264  0.29173906  0.49981677
   0.57362610  0.85419195  0.50336370
   0.71342583  0.99843911  0.50186548
   0.71379160  0.14301679  0.50066853
   0.71340689  0.28724631  0.49978318
   0.70903318  0.42825263  0.50026877
   0.70901318  0.85311341  0.50286134
   0.85606485  0.99881304  0.50083275
   0.85612420  0.14238581  0.50064733
   0.85610480  0.28592926  0.49982405
   0.85601893  0.42947638  0.49947044
   0.85634890  0.57268193  0.49957446
   0.85870115  0.71548655  0.49990410
   0.85632465  0.85592745  0.50043934
   0.04800881  0.09591602  0.49942833
   0.04661728  0.23781631  0.50049864
   0.04658088  0.38092265  0.50107817
   0.04799020  0.52420882  0.50068509
   0.04868760  0.66728513  0.49988946
   0.04893239  0.81053500  0.49926950
   0.04868717  0.95353162  0.49899899
   0.19192266  0.09736698  0.49973223
   0.19165698  0.24023633  0.50078344
   0.18928851  0.38070249  0.50259718
   0.19168284  0.52353240  0.50320247
   0.19190451  0.66665946  0.50221816
   0.19184678  0.81020087  0.50076890
   0.19184735  0.95376322  0.49981933
   0.33448185  0.09773745  0.50028130
   0.33891246  0.24309020  0.50145908
   0.33893802  0.66805245  0.50448704
   0.33446789  0.80892981  0.50278942
   0.33407088  0.95312651  0.50114728
   0.47651434  0.09659550  0.50077228
   0.47431153  0.24206286  0.50015905
   0.47429983  0.80452929  0.50385683
   0.47652282  0.95220349  0.50220580
   0.61837158  0.09532964  0.50109122
   0.61836489  0.24017293  0.50003259
   0.61838090  0.95050210  0.50239639
   0.76103065  0.09469767  0.50108661
   0.76101271  0.23856698  0.49991534
   0.76026202  0.38270698  0.49974494
   0.75928276  0.52921749  0.50097860
   0.76277539  0.66753690  0.50221214
   0.75924462  0.80234371  0.50244384
   0.76030914  0.94986681  0.50192137
   0.90366698  0.09419490  0.50044251
   0.90365139  0.23791775  0.50028315
   0.90361352  0.38164858  0.49962593
   0.90413253  0.52483997  0.49938300
   0.90573361  0.66765437  0.49936512
   0.90570821  0.81032689  0.49953214
   0.90414994  0.95153159  0.50002152
   0.42874313  0.28699972  0.50098388
   0.42873180  0.71405326  0.50473397
   0.71602013  0.57561062  0.50327456
   0.71600472  0.71266681  0.50389749
   0.33187762  0.38341449  0.50574869
   0.33199920  0.52055721  0.50595374
   0.61919602  0.38227836  0.49986409
   0.61922450  0.80930896  0.50367684
   0.52561174  0.47901660  0.43743436
   0.51063965  0.55899213  0.43377000
   0.52025849  0.51911320  0.39533618
Direct configuration=     5
   0.99999428  0.00025073  0.49922937
   0.99931121  0.14263449  0.49996845
   0.99909009  0.28562712  0.50060718
   0.99928184  0.42880911  0.50038816
   0.99999266  0.57189335  0.49982102
   0.00142516  0.71521440  0.49930340
   0.00142329  0.85837388  0.49901509
   0.14434113  0.00200641  0.49935234
   0.14382984  0.14464831  0.49969713
   0.14230066  0.28585835  0.50118913
   0.14228938  0.42856053  0.50233584
   0.14381929  0.57128830  0.50210832
   0.14432258  0.71445043  0.50091433
   0.14433404  0.85822999  0.49984331
   0.28691156  0.00147790  0.50035249
   0.28764889  0.14634699  0.50039231
   0.28867490  0.29378813  0.50271907
   0.28517403  0.42859981  0.50475859
   0.28873994  0.56704233  0.50472017
   0.28762469  0.71347156  0.50330916
   0.28689568  0.85759803  0.50160114
   0.42947463  0.00087192  0.50144055
   0.42953329  0.14573037  0.50033752
   0.42951653  0.85606019  0.50305268
   0.57132533  0.99962059  0.50194584
   0.57132384  0.14400482  0.50063719
   0.57360872  0.29172932  0.49984468
   0.57364511  0.85420947  0.50337858
   0.71343896  0.99845915  0.50186310
   0.71381372  0.14303681  0.50067414
   0.71341980  0.28724807  0.49978514
   0.70903039  0.42822537  0.50025887
   0.70901864  0.85312901  0.50284896
   0.85607390  0.99881190  0.50082187
   0.85610784  0.14238868  0.50063454
   0.85609296  0.28592581  0.49984218
   0.85603838  0.42948614  0.49948788
   0.85636394  0.57267563  0.49957516
   0.85870332  0.71546890  0.49991939
   0.85634206  0.85592715  0.50044153
   0.04798640  0.09588827  0.49943045
   0.04659032  0.23778671  0.50050760
   0.04656986  0.38094130  0.50106466
   0.04798121  0.52422667  0.50069295
   0.04867313  0.66728869  0.49988994
   0.04890761  0.81053022  0.49925931
   0.04867989  0.95354285  0.49900250
   0.19190555  0.09737496  0.49973949
   0.19164954  0.24023264  0.50080641
   0.18928259  0.38070645  0.50259756
   0.19168241  0.52354151  0.50317578
   0.19189424  0.66664935  0.50222261
   0.19183764  0.81019324  0.50077551
   0.19183638  0.95377817  0.49982002
   0.33449614  0.09775765  0.50028074
   0.33890556  0.24310350  0.50146292
   0.33892860  0.66804671  0.50446719
   0.33448938  0.80893278  0.50277181
   0.33409644  0.95313457  0.50114420
   0.47652685  0.09658448  0.50077356
   0.47430314  0.24204045  0.50018197
   0.47429420  0.80452490  0.50384749
   0.47652172  0.95221329  0.50220313
   0.61838260  0.09533047  0.50109130
   0.61835450  0.24015938  0.50003801
   0.61837382  0.95051262  0.50240844
   0.76102795  0.09470607  0.50106357
   0.76100725  0.23855823  0.49993290
   0.76027798  0.38270540  0.49974148
   0.75929490  0.52920835  0.50097464
   0.76279244  0.66754056  0.50221272
   0.75926363  0.80235428  0.50244453
   0.76032715  0.94988011  0.50190675
   0.90364067  0.09417440  0.50044650
   0.90363109  0.23791076  0.50028060
   0.90361069  0.38165692  0.49966233
   0.90416946  0.52487117  0.49938660
   0.90572656  0.66763583  0.49937669
   0.90570696  0.81032220  0.49954969
   0.90417874  0.95153274  0.50002398
   0.42873340  0.28697847  0.50098372
   0.42872061  0.71404698  0.50471104
   0.71604232  0.57561635  0.50326721
   0.71601655  0.71266352  0.50387728
   0.33188586  0.38342502  0.50573063
   0.33199658  0.52054612  0.50594225
   0.61917657  0.38225717  0.49988103
   0.61922228  0.80931608  0.50366411
   0.52562488  0.47901494  0.43743461
   0.51061911  0.55896953  0.43377200
   0.52025116  0.51908581  0.39533618
Direct configuration=     6
   0.99999584  0.00024872  0.49925441
   0.99929715  0.14262082  0.49997363
   0.99907914  0.28562336  0.50059635
   0.99927771  0.42882055  0.50039458
   0.00000110  0.57190635  0.49983564
   0.00141791  0.71521420  0.49930752
   0.00141823  0.85837893  0.49901946
   0.14433880  0.00200930  0.49934782
   0.14381521  0.14464674  0.49970812
   0.14228811  0.28585399  0.50119507
   0.14228662  0.42856346  0.50232555
   0.14381482  0.57128734  0.50209754
   0.14431943  0.71445608  0.50091552
   0.14432359  0.85822992  0.49984131
   0.28691457  0.00148884  0.50035247
   0.28764504  0.14635330  0.50039820
   0.28867371  0.29379139  0.50271480
   0.28516718  0.42859655  0.50474471
   0.28874057  0.56704129  0.50471365
   0.28761716  0.71346794  0.50329701
   0.28690168  0.85759438  0.50160325
   0.42947687  0.00087007  0.50143419
   0.42953825  0.14571874  0.50035468
   0.42952400  0.85607113  0.50305268
   0.57133014  0.99962273  0.50194840
   0.57133281  0.14400637  0.50063057
   0.57359947  0.29171785  0.49986327
   0.57364058  0.85420993  0.50338570
   0.71344080  0.99846405  0.50185906
   0.71380718  0.14303546  0.50067660
   0.71341920  0.28724506  0.49978835
   0.70903043  0.42821756  0.50025380
   0.70902685  0.85313646  0.50284003
   0.85607485  0.99880320  0.50081448
   0.85610375  0.14238341  0.50062525
   0.85609205  0.28593167  0.49985680
   0.85604743  0.42949715  0.49950077
   0.85636732  0.57266681  0.49957594
   0.85870775  0.71546710  0.49993140
   0.85634863  0.85592892  0.50044533
   0.04798079  0.09589389  0.49943846
   0.04657478  0.23777890  0.50051106
   0.04656233  0.38094250  0.50105463
   0.04797941  0.52422502  0.50069880
   0.04866973  0.66729635  0.49989304
   0.04889614  0.81052838  0.49925426
   0.04867814  0.95353784  0.49900882
   0.19190795  0.09738766  0.49974459
   0.19163981  0.24023418  0.50081983
   0.18927364  0.38070246  0.50259467
   0.19167339  0.52353541  0.50315837
   0.19189054  0.66664651  0.50222216
   0.19182909  0.81018770  0.50077955
   0.19183537  0.95378624  0.49981876
   0.33450210  0.09776239  0.50028369
   0.33890223  0.24310814  0.50146477
   0.33892011  0.66803617  0.50445320
   0.33449266  0.80893454  0.50276169
   0.33410686  0.95314351  0.50114273
   0.47654859  0.09659692  0.50077437
   0.47430890  0.24204168  0.50020031
   0.47430508  0.80452561  0.50384264
   0.47653795  0.95221783  0.50220176
   0.61840848  0.09534566  0.50108983
   0.61836661  0.24015733  0.50004183
   0.61838461  0.95052963  0.50241802
   0.76102842  0.09471022  0.50105035
   0.76100909  0.23856235  0.49994480
   0.76028981  0.38270713  0.49973967
   0.75930062  0.52919808  0.50097076
   0.76279945  0.66753876  0.50221228
   0.75926977  0.80235770  0.50244136
   0.76033375  0.94988528  0.50189628
   0.90362727  0.09417170  0.50044687
   0.90362487  0.23791418  0.50027758
   0.90360565  0.38165453  0.49968656
   0.90417536  0.52487102  0.49939235
   0.90571857  0.66762595  0.49938556
   0.90570505  0.81031297  0.49956207
   0.90417856  0.95152657  0.50002941
   0.42873201  0.28696628  0.50098498
   0.42871816  0.71404846  0.50469376
   0.71605724  0.57561340  0.50326135
   0.71603019  0.71266994  0.50386393
   0.33188886  0.38342909  0.50571490
   0.33199388  0.52054330  0.50593313
   0.61917420  0.38224577  0.49989387
   0.61922939  0.80932587  0.50365623
   0.52563575  0.47900920  0.43743924
   0.51060423  0.55894638  0.43376822
   0.52024365  0.51907461  0.39533618
Direct configuration=     7
   0.99999804  0.00024591  0.49928947
   0.99927745  0.14260168  0.49998088
   0.99906379  0.28561809  0.50058118
   0.99927192  0.42883656  0.50040356
   0.00001293  0.57192457  0.49985612
   0.00140774  0.71521390  0.49931330
   0.00141114  0.85838600  0.49902558
   0.14433553  0.00201333  0.49934148
   0.14379472  0.14464454  0.49972351
   0.14227053  0.28584789  0.50120339
   0.14228275  0.42856755  0.50231113
   0.14380855  0.57128599  0.50208244
   0.14431501  0.71446398  0.50091718
   0.14430894  0.85822983  0.49983852
   0.28691879  0.00150416  0.50035244
   0.28763964  0.14636215  0.50040645
   0.28867205  0.29379597  0.50270881
   0.28515758  0.42859199  0.50472527
   0.28874145  0.56703983  0.50470451
   0.28760662  0.71346287  0.50327999
   0.28691010  0.85758927  0.50160622
   0.42948002  0.00086747  0.50142528
   0.42954519  0.14570244  0.50037871
   0.42953445  0.85608645  0.50305269
   0.57133687  0.99962572  0.50195200
   0.57134537  0.14400855  0.50062129
   0.57358653  0.29170178  0.49988930
   0.57363423  0.85421058  0.50339568
   0.71344337  0.99847093  0.50185341
   0.71379802  0.14303358  0.50068005
   0.71341836  0.28724084  0.49979285
   0.70903049  0.42820662  0.50024670
   0.70903834  0.85314691  0.50282753
   0.85607620  0.99879103  0.50080413
   0.85609802  0.14237602  0.50061225
   0.85609076  0.28593988  0.49987727
   0.85606011  0.42951258  0.49951882
   0.85637206  0.57265445  0.49957705
   0.85871394  0.71546457  0.49994823
   0.85635785  0.85593141  0.50045064
   0.04797293  0.09590175  0.49944968
   0.04655301  0.23776796  0.50051591
   0.04655178  0.38094418  0.50104058
   0.04797690  0.52422272  0.50070699
   0.04866496  0.66730708  0.49989737
   0.04888008  0.81052580  0.49924719
   0.04867570  0.95353082  0.49901767
   0.19191130  0.09740546  0.49975173
   0.19162617  0.24023633  0.50083864
   0.18926109  0.38069687  0.50259063
   0.19166076  0.52352687  0.50313397
   0.19188536  0.66664254  0.50222153
   0.19181712  0.81017994  0.50078520
   0.19183395  0.95379754  0.49981700
   0.33451043  0.09776902  0.50028781
   0.33889757  0.24311462  0.50146738
   0.33890821  0.66802141  0.50443362
   0.33449726  0.80893700  0.50274753
   0.33412147  0.95315602  0.50114067
   0.47657906  0.09661435  0.50077551
   0.47431696  0.24204340  0.50022599
   0.47432032  0.80452660  0.50383583
   0.47656067  0.95222418  0.50219984
   0.61844473  0.09536692  0.50108778
   0.61838357  0.24015446  0.50004718
   0.61839972  0.95055346  0.50243144
   0.76102907  0.09471604  0.50103183
   0.76101166  0.23856812  0.49996148
   0.76030639  0.38270955  0.49973713
   0.75930863  0.52918368  0.50096533
   0.76280928  0.66753624  0.50221166
   0.75927837  0.80236248  0.50243693
   0.76034300  0.94989252  0.50188161
   0.90360851  0.09416793  0.50044739
   0.90361615  0.23791898  0.50027336
   0.90359860  0.38165117  0.49972050
   0.90418363  0.52487080  0.49940041
   0.90570739  0.66761211  0.49939798
   0.90570238  0.81030004  0.49957941
   0.90417831  0.95151793  0.50003700
   0.42873007  0.28694921  0.50098673
   0.42871472  0.71405055  0.50466956
   0.71607814  0.57560926  0.50325313
   0.71604930  0.71267893  0.50384523
   0.33189307  0.38343480  0.50569287
   0.33199010  0.52053935  0.50592036
   0.61917088  0.38222980  0.49991187
   0.61923935  0.80933959  0.50364518
   0.52565099  0.47900115  0.43744573
   0.51058338  0.55891395  0.43376292
   0.52023313  0.51905892  0.39533618
Direct configuration=     8
   0.99999570  0.00024683  0.49931187
   0.99926567  0.14260460  0.49998905
   0.99905583  0.28561809  0.50057107
   0.99926716  0.42883589  0.50041440
   0.00001261  0.57192928  0.49987175
   0.00140512  0.71521819  0.49931693
   0.00140949  0.85838182  0.49903098
   0.14434075  0.00201796  0.49933929
   0.14378753  0.14465306  0.49973924
   0.14224904  0.28584559  0.50121473
   0.14226924  0.42855698  0.50229411
   0.14380794  0.57128864  0.50207044
   0.14431760  0.71447432  0.50092088
   0.14431139  0.85823756  0.49983613
   0.28691409  0.00150749  0.50035179
   0.28763947  0.14636513  0.50041415
   0.28866892  0.29379946  0.50270637
   0.28514433  0.42858776  0.50471017
   0.28873713  0.56703700  0.50468735
   0.28760277  0.71346022  0.50326428
   0.28690542  0.85759046  0.50160550
   0.42949275  0.00087137  0.50141847
   0.42954731  0.14570056  0.50039778
   0.42953996  0.85608663  0.50304765
   0.57135421  0.99963717  0.50195653
   0.57136271  0.14401532  0.50061742
   0.57358616  0.29169208  0.49991142
   0.57363825  0.85421676  0.50339953
   0.71345076  0.99847626  0.50184503
   0.71380835  0.14304072  0.50068050
   0.71342871  0.28724603  0.49979987
   0.70903333  0.42820131  0.50024357
   0.70904682  0.85315131  0.50281546
   0.85607022  0.99878638  0.50079571
   0.85609604  0.14237878  0.50059979
   0.85609055  0.28594588  0.49989827
   0.85605966  0.42951100  0.49953641
   0.85636846  0.57264280  0.49957915
   0.85871432  0.71546169  0.49996531
   0.85635471  0.85592365  0.50045914
   0.04796507  0.09590497  0.49946972
   0.04653786  0.23776524  0.50051659
   0.04654372  0.38093983  0.50102781
   0.04798086  0.52422879  0.50071480
   0.04867052  0.66732020  0.49990558
   0.04887678  0.81053052  0.49924423
   0.04867814  0.95352966  0.49903096
   0.19190943  0.09741003  0.49975813
   0.19161322  0.24023880  0.50085244
   0.18924847  0.38068931  0.50258266
   0.19165560  0.52352337  0.50311359
   0.19188001  0.66664882  0.50221483
   0.19182064  0.81019170  0.50078912
   0.19183711  0.95379894  0.49981253
   0.33450945  0.09776828  0.50029682
   0.33889812  0.24311238  0.50146880
   0.33890657  0.66801969  0.50441456
   0.33449535  0.80893792  0.50273785
   0.33411599  0.95315774  0.50113943
   0.47659002  0.09661578  0.50077695
   0.47431797  0.24203590  0.50025208
   0.47432591  0.80453190  0.50383099
   0.47657384  0.95222693  0.50219838
   0.61844670  0.09536859  0.50108412
   0.61839201  0.24015619  0.50005260
   0.61840803  0.95055665  0.50244428
   0.76102753  0.09471391  0.50101968
   0.76101325  0.23857492  0.49997623
   0.76030941  0.38271238  0.49973685
   0.75931265  0.52916959  0.50095891
   0.76281521  0.66753103  0.50220988
   0.75928415  0.80236621  0.50242742
   0.76034172  0.94989115  0.50186761
   0.90360373  0.09415976  0.50044344
   0.90361253  0.23791972  0.50026844
   0.90359931  0.38165805  0.49974927
   0.90418670  0.52486699  0.49941293
   0.90570440  0.66760603  0.49941011
   0.90570338  0.81029945  0.49959537
   0.90417357  0.95151233  0.50004888
   0.42873101  0.28694513  0.50099157
   0.42871175  0.71404997  0.50464619
   0.71609188  0.57560222  0.50324408
   0.71606480  0.71268601  0.50382912
   0.33188895  0.38343583  0.50566861
   0.33198442  0.52053781  0.50590617
   0.61917869  0.38222058  0.49992993
   0.61925338  0.80935479  0.50363655
   0.52566643  0.47899701  0.43744755
   0.51056004  0.55888455  0.43376170
   0.52022424  0.51903273  0.39533618
Direct configuration=     9
   0.99999009  0.00024904  0.49936553
   0.99923745  0.14261159  0.50000863
   0.99903675  0.28561809  0.50054684
   0.99925578  0.42883427  0.50044035
   0.00001185  0.57194058  0.49990919
   0.00139884  0.71522847  0.49932562
   0.00140553  0.85837182  0.49904392
   0.14435325  0.00202905  0.49933403
   0.14377031  0.14467346  0.49977691
   0.14219756  0.28584007  0.50124191
   0.14223687  0.42853165  0.50225334
   0.14380646  0.57129498  0.50204168
   0.14432379  0.71449906  0.50092974
   0.14431725  0.85825609  0.49983040
   0.28690285  0.00151547  0.50035023
   0.28763906  0.14637228  0.50043259
   0.28866141  0.29380782  0.50270053
   0.28511260  0.42857761  0.50467401
   0.28872678  0.56703023  0.50464625
   0.28759355  0.71345390  0.50322664
   0.28689421  0.85759330  0.50160380
   0.42952326  0.00088069  0.50140217
   0.42955238  0.14569604  0.50044346
   0.42955317  0.85608707  0.50303560
   0.57139576  0.99966459  0.50196739
   0.57140423  0.14403153  0.50060814
   0.57358529  0.29166884  0.49996442
   0.57364789  0.85423154  0.50340876
   0.71346847  0.99848903  0.50182495
   0.71383308  0.14305784  0.50068157
   0.71345351  0.28725847  0.49981669
   0.70904012  0.42818859  0.50023609
   0.70906714  0.85316186  0.50278655
   0.85605591  0.99877526  0.50077556
   0.85609129  0.14238537  0.50056993
   0.85609004  0.28596025  0.49994857
   0.85605859  0.42950721  0.49957855
   0.85635984  0.57261489  0.49958420
   0.85871523  0.71545479  0.50000622
   0.85634720  0.85590507  0.50047949
   0.04794626  0.09591267  0.49951775
   0.04650158  0.23775873  0.50051824
   0.04652443  0.38092941  0.50099722
   0.04799034  0.52424333  0.50073351
   0.04868384  0.66735163  0.49992522
   0.04886887  0.81054184  0.49923715
   0.04868398  0.95352686  0.49906279
   0.19190493  0.09742099  0.49977346
   0.19158220  0.24024470  0.50088549