  97  97   0   0
  0.3994726E+02  0.1727104E-08  0.1727104E-08  0.1500000E-08  0.0000000E+00
  1.000000000000000E-004
  CAR 
 unknown system                          
      5.79094661    -25.61169038  301     -2.43029400      1.00000000
    -25.612  0.0000E+00  0.0000E+00  0.0000E+00  0.0000E+00
    -25.507  0.0000E+00  0.0000E+00  0.0000E+00  0.0000E+00
    -25.402  0.0000E+00  0.0000E+00  0.0000E+00  0.0000E+00
    -25.298  0.0000E+00  0.0000E+00  0.0000E+00  0.0000E+00
    -25.193  0.0000E+00  0.0000E+00  0.0000E+00  0.0000E+00
    -25.088  0.0000E+00  0.0000E+00  0.0000E+00  0.0000E+00
    -24.984  0.0000E+00  0.0000E+00  0.0000E+00  0.0000E+00
    -24.879  0.0000E+00  0.0000E+00  0.0000E+00  0.0000E+00
    -24.774  0.0000E+00  0.0000E+00  0.0000E+00  0.0000E+00
    -24.670  0.0000E+00  0.0000E+00  0.0000E+00  0.0000E+00
    -24.565  0.0000E+00  0.0000E+00  0.0000E+00  0.0000E+00
    -24.460  0.2811E-16  0.2811E-16  0.2942E-17  0.2942E-17
    -24.356  0.6042E-08  0.6042E-08  0.6324E-09  0.6324E-09
    -24.251  0.2842E-03  0.2842E-03  0.2975E-04  0.2975E-04
    -24.146  0.7923E-02  0.7923E-02  0.8591E-03  0.8591E-03
    -24.042  0.1346E-02  0.1346E-02  0.1000E-02  0.1000E-02
    -23.937  0.2588E-06  0.2588E-06  0.1000E-02  0.1000E-02
    -23.832  0.1245E-13  0.1245E-13  0.1000E-02  0.1000E-02
    -23.728  0.0000E+00  0.0000E+00  0.1000E-02  0.1000E-02
    -23.623  0.0000E+00  0.0000E+00  0.1000E-02  0.1000E-02
    -23.518  0.0000E+00  0.0000E+00  0.1000E-02  0.1000E-02
    -23.414  0.0000E+00  0.0000E+00  0.1000E-02  0.1000E-02
    -23.309  0.0000E+00  0.0000E+00  0.1000E-02  0.1000E-02
    -23.204  0.0000E+00  0.0000E+00  0.1000E-02  0.1000E-02
    -23.099  0.0000E+00  0.0000E+00  0.1000E-02  0.1000E-02
    -22.995  0.0000E+00  0.0000E+00  0.1000E-02  0.1000E-02
    -22.890  0.0000E+00  0.0000E+00  0.1000E-02  0.1000E-02
    -22.785  0.0000E+00  0.0000E+00  0.1000E-02  0.1000E-02
    -22.681  0.0000E+00  0.0000E+00  0.1000E-02  0.1000E-02
    -22.576  0.8618E-17  0.8618E-17  0.1000E-02  0.1000E-02
    -22.471  0.2748E-08  0.2748E-08  0.1000E-02  0.1000E-02
    -22.367  0.1951E-03  0.1951E-03  0.1020E-02  0.1020E-02
    -22.262  0.8286E-02  0.8286E-02  0.1888E-02  0.1888E-02
    -22.157  0.9955E-02  0.9955E-02  0.2930E-02  0.2930E-02
    -22.053  0.6702E-03  0.6702E-03  0.3000E-02  0.3000E-02
    -21.948  0.4503E-07  0.4503E-07  0.3000E-02  0.3000E-02
    -21.843  0.4699E-07  0.4699E-07  0.3000E-02  0.3000E-02
    -21.739  0.4041E-03  0.4041E-03  0.3042E-02  0.3042E-02
    -21.634  0.7421E-02  0.7421E-02  0.3819E-02  0.3819E-02
    -21.529  0.5834E-02  0.5834E-02  0.4430E-02  0.4430E-02
    -21.425  0.5158E-02  0.5158E-02  0.4970E-02  0.4970E-02
    -21.320  0.5376E-02  0.5376E-02  0.5532E-02  0.5532E-02
    -21.215  0.8332E-02  0.8332E-02  0.6405E-02  0.6405E-02
    -21.111  0.5738E-02  0.5738E-02  0.7005E-02  0.7005E-02
    -21.006  0.2847E-02  0.2847E-02  0.7303E-02  0.7303E-02
    -20.901  0.8135E-02  0.8135E-02  0.8155E-02  0.8155E-02
    -20.797  0.8543E-02  0.8543E-02  0.9049E-02  0.9049E-02
    -20.692  0.4930E-02  0.4930E-02  0.9565E-02  0.9565E-02
    -20.587  0.7670E-02  0.7670E-02  0.1037E-01  0.1037E-01
    -20.483  0.4219E-02  0.4219E-02  0.1081E-01  0.1081E-01
    -20.378  0.3122E-02  0.3122E-02  0.1114E-01  0.1114E-01
    -20.273  0.1245E-01  0.1245E-01  0.1244E-01  0.1244E-01
    -20.169  0.9210E-02  0.9210E-02  0.1340E-01  0.1340E-01
    -20.064  0.7454E-02  0.7454E-02  0.1418E-01  0.1418E-01
    -19.959  0.3388E-02  0.3388E-02  0.1454E-01  0.1454E-01
    -19.855  0.3080E-02  0.3080E-02  0.1486E-01  0.1486E-01
    -19.750  0.6059E-02  0.6059E-02  0.1550E-01  0.1550E-01
    -19.645  0.7895E-02  0.7895E-02  0.1632E-01  0.1632E-01
    -19.541  0.6805E-02  0.6805E-02  0.1703E-01  0.1703E-01
    -19.436  0.1294E-01  0.1294E-01  0.1839E-01  0.1839E-01
    -19.331  0.1028E-01  0.1028E-01  0.1946E-01  0.1946E-01
    -19.226  0.2814E-02  0.2814E-02  0.1976E-01  0.1976E-01
    -19.122  0.3436E-02  0.3436E-02  0.2012E-01  0.2012E-01
    -19.017  0.5491E-02  0.5491E-02  0.2069E-01  0.2069E-01
    -18.912  0.1016E-01  0.1016E-01  0.2176E-01  0.2176E-01
    -18.808  0.3751E-02  0.3751E-02  0.2215E-01  0.2215E-01
    -18.703  0.4216E-02  0.4216E-02  0.2259E-01  0.2259E-01
    -18.598  0.1033E-01  0.1033E-01  0.2367E-01  0.2367E-01
    -18.494  0.1445E-01  0.1445E-01  0.2519E-01  0.2519E-01
    -18.389  0.6389E-02  0.6389E-02  0.2585E-01  0.2585E-01
    -18.284  0.6654E-02  0.6654E-02  0.2655E-01  0.2655E-01
    -18.180  0.5424E-02  0.5424E-02  0.2712E-01  0.2712E-01
    -18.075  0.6908E-02  0.6908E-02  0.2784E-01  0.2784E-01
    -17.970  0.8369E-02  0.8369E-02  0.2872E-01  0.2872E-01
    -17.866  0.5325E-02  0.5325E-02  0.2927E-01  0.2927E-01
    -17.761  0.2155E-02  0.2155E-02  0.2950E-01  0.2950E-01
    -17.656  0.4126E-02  0.4126E-02  0.2993E-01  0.2993E-01
    -17.552  0.1411E-01  0.1411E-01  0.3141E-01  0.3141E-01
    -17.447  0.9569E-02  0.9569E-02  0.3241E-01  0.3241E-01
    -17.342  0.1132E-01  0.1132E-01  0.3360E-01  0.3360E-01
    -17.238  0.1051E-01  0.1051E-01  0.3470E-01  0.3470E-01
    -17.133  0.8798E-02  0.8798E-02  0.3562E-01  0.3562E-01
    -17.028  0.6188E-02  0.6188E-02  0.3626E-01  0.3626E-01
    -16.924  0.1045E-01  0.1045E-01  0.3736E-01  0.3736E-01
    -16.819  0.6319E-02  0.6319E-02  0.3802E-01  0.3802E-01
    -16.714  0.2212E-02  0.2212E-02  0.3825E-01  0.3825E-01
    -16.610  0.3220E-02  0.3220E-02  0.3859E-01  0.3859E-01
    -16.505  0.7489E-02  0.7489E-02  0.3937E-01  0.3937E-01
    -16.400  0.1707E-01  0.1707E-01  0.4116E-01  0.4116E-01
    -16.296  0.1360E-01  0.1360E-01  0.4258E-01  0.4258E-01
    -16.191  0.3799E-02  0.3799E-02  0.4298E-01  0.4298E-01
    -16.086  0.2618E-03  0.2618E-03  0.4301E-01  0.4301E-01
    -15.982  0.2193E-02  0.2193E-02  0.4324E-01  0.4324E-01
    -15.877  0.3324E-02  0.3324E-02  0.4358E-01  0.4358E-01
    -15.772  0.5714E-02  0.5714E-02  0.4418E-01  0.4418E-01
    -15.668  0.1955E-02  0.1955E-02  0.4439E-01  0.4439E-01
    -15.563  0.2837E-02  0.2837E-02  0.4468E-01  0.4468E-01
    -15.458  0.7489E-02  0.7489E-02  0.4547E-01  0.4547E-01
    -15.353  0.6966E-02  0.6966E-02  0.4620E-01  0.4620E-01
    -15.249  0.6424E-02  0.6424E-02  0.4687E-01  0.4687E-01
    -15.144  0.6181E-02  0.6181E-02  0.4752E-01  0.4752E-01
    -15.039  0.7953E-02  0.7953E-02  0.4835E-01  0.4835E-01
    -14.935  0.1307E-01  0.1307E-01  0.4972E-01  0.4972E-01
    -14.830  0.1031E-01  0.1031E-01  0.5080E-01  0.5080E-01
    -14.725  0.7930E-02  0.7930E-02  0.5163E-01  0.5163E-01
    -14.621  0.6510E-02  0.6510E-02  0.5231E-01  0.5231E-01
    -14.516  0.1060E-01  0.1060E-01  0.5342E-01  0.5342E-01
    -14.411  0.8016E-02  0.8016E-02  0.5426E-01  0.5426E-01
    -14.307  0.6754E-02  0.6754E-02  0.5496E-01  0.5496E-01
    -14.202  0.1198E-01  0.1198E-01  0.5622E-01  0.5622E-01
    -14.097  0.8210E-02  0.8210E-02  0.5708E-01  0.5708E-01
    -13.993  0.8005E-02  0.8005E-02  0.5792E-01  0.5792E-01
    -13.888  0.5856E-02  0.5856E-02  0.5853E-01  0.5853E-01
    -13.783  0.3264E-02  0.3264E-02  0.5887E-01  0.5887E-01
    -13.679  0.5176E-02  0.5176E-02  0.5941E-01  0.5941E-01
    -13.574  0.8182E-02  0.8182E-02  0.6027E-01  0.6027E-01
    -13.469  0.8574E-02  0.8574E-02  0.6117E-01  0.6117E-01
    -13.365  0.1052E-01  0.1052E-01  0.6227E-01  0.6227E-01
    -13.260  0.6307E-02  0.6307E-02  0.6293E-01  0.6293E-01
    -13.155  0.7731E-02  0.7731E-02  0.6374E-01  0.6374E-01
    -13.051  0.5610E-02  0.5610E-02  0.6432E-01  0.6432E-01
    -12.946  0.1691E-02  0.1691E-02  0.6450E-01  0.6450E-01
    -12.841  0.2525E-02  0.2525E-02  0.6476E-01  0.6476E-01
    -12.737  0.9174E-02  0.9174E-02  0.6573E-01  0.6573E-01
    -12.632  0.6746E-02  0.6746E-02  0.6643E-01  0.6643E-01
    -12.527  0.1139E-01  0.1139E-01  0.6762E-01  0.6762E-01
    -12.423  0.1549E-01  0.1549E-01  0.6924E-01  0.6924E-01
    -12.318  0.1060E-01  0.1060E-01  0.7035E-01  0.7035E-01
    -12.213  0.9403E-02  0.9403E-02  0.7134E-01  0.7134E-01
    -12.109  0.4492E-02  0.4492E-02  0.7181E-01  0.7181E-01
    -12.004  0.8573E-02  0.8573E-02  0.7271E-01  0.7271E-01
    -11.899  0.9536E-02  0.9536E-02  0.7370E-01  0.7370E-01
    -11.795  0.6343E-02  0.6343E-02  0.7437E-01  0.7437E-01
    -11.690  0.9478E-02  0.9478E-02  0.7536E-01  0.7536E-01
    -11.585  0.7249E-02  0.7249E-02  0.7612E-01  0.7612E-01
    -11.481  0.1119E-01  0.1119E-01  0.7729E-01  0.7729E-01
    -11.376  0.1186E-01  0.1186E-01  0.7853E-01  0.7853E-01
    -11.271  0.9785E-02  0.9785E-02  0.7956E-01  0.7956E-01
    -11.166  0.1226E-01  0.1226E-01  0.8084E-01  0.8084E-01
    -11.062  0.7978E-02  0.7978E-02  0.8168E-01  0.8168E-01
    -10.957  0.1035E-01  0.1035E-01  0.8276E-01  0.8276E-01
    -10.852  0.9664E-02  0.9664E-02  0.8377E-01  0.8377E-01
    -10.748  0.1262E-01  0.1262E-01  0.8509E-01  0.8509E-01
    -10.643  0.8057E-02  0.8057E-02  0.8593E-01  0.8593E-01
    -10.538  0.6258E-02  0.6258E-02  0.8659E-01  0.8659E-01
    -10.434  0.5884E-02  0.5884E-02  0.8720E-01  0.8720E-01
    -10.329  0.6507E-03  0.6507E-03  0.8727E-01  0.8727E-01
    -10.224  0.8004E-02  0.8004E-02  0.8811E-01  0.8811E-01
    -10.120  0.1597E-01  0.1597E-01  0.8978E-01  0.8978E-01
    -10.015  0.1743E-01  0.1743E-01  0.9161E-01  0.9161E-01
     -9.910  0.1648E-01  0.1648E-01  0.9333E-01  0.9333E-01
     -9.806  0.1791E-01  0.1791E-01  0.9521E-01  0.9521E-01
     -9.701  0.2092E-01  0.2092E-01  0.9740E-01  0.9740E-01
     -9.596  0.1415E-01  0.1415E-01  0.9888E-01  0.9888E-01
     -9.492  0.1355E-01  0.1355E-01  0.1003E+00  0.1003E+00
     -9.387  0.1794E-01  0.1794E-01  0.1022E+00  0.1022E+00
     -9.282  0.2002E-01  0.2002E-01  0.1043E+00  0.1043E+00
     -9.178  0.1274E-01  0.1274E-01  0.1056E+00  0.1056E+00
     -9.073  0.1375E-01  0.1375E-01  0.1070E+00  0.1070E+00
     -8.968  0.2682E-01  0.2682E-01  0.1098E+00  0.1098E+00
     -8.864  0.3008E-01  0.3008E-01  0.1130E+00  0.1130E+00
     -8.759  0.2487E-01  0.2487E-01  0.1156E+00  0.1156E+00
     -8.654  0.2063E-01  0.2063E-01  0.1178E+00  0.1178E+00
     -8.550  0.1847E-01  0.1847E-01  0.1197E+00  0.1197E+00
     -8.445  0.1808E-01  0.1808E-01  0.1216E+00  0.1216E+00
     -8.340  0.1465E-01  0.1465E-01  0.1231E+00  0.1231E+00
     -8.236  0.2465E-01  0.2465E-01  0.1257E+00  0.1257E+00
     -8.131  0.1966E-01  0.1966E-01  0.1278E+00  0.1278E+00
     -8.026  0.2352E-01  0.2352E-01  0.1302E+00  0.1302E+00
     -7.922  0.1803E-01  0.1803E-01  0.1321E+00  0.1321E+00
     -7.817  0.1560E-01  0.1560E-01  0.1337E+00  0.1337E+00
     -7.712  0.1529E-01  0.1529E-01  0.1353E+00  0.1353E+00
     -7.608  0.1421E-01  0.1421E-01  0.1368E+00  0.1368E+00
     -7.503  0.1196E-01  0.1196E-01  0.1381E+00  0.1381E+00
     -7.398  0.7882E-02  0.7882E-02  0.1389E+00  0.1389E+00
     -7.293  0.1699E-01  0.1699E-01  0.1407E+00  0.1407E+00
     -7.189  0.2325E-01  0.2325E-01  0.1431E+00  0.1431E+00
     -7.084  0.2409E-01  0.2409E-01  0.1456E+00  0.1456E+00
     -6.979  0.1344E-01  0.1344E-01  0.1470E+00  0.1470E+00
     -6.875  0.9799E-02  0.9799E-02  0.1481E+00  0.1481E+00
     -6.770  0.1667E-01  0.1667E-01  0.1498E+00  0.1498E+00
     -6.665  0.8546E-02  0.8546E-02  0.1507E+00  0.1507E+00
     -6.561  0.7860E-02  0.7860E-02  0.1515E+00  0.1515E+00
     -6.456  0.1207E-01  0.1207E-01  0.1528E+00  0.1528E+00
     -6.351  0.1209E-01  0.1209E-01  0.1541E+00  0.1541E+00
     -6.247  0.1393E-01  0.1393E-01  0.1555E+00  0.1555E+00
     -6.142  0.2281E-01  0.2281E-01  0.1579E+00  0.1579E+00
     -6.037  0.1394E-01  0.1394E-01  0.1594E+00  0.1594E+00
     -5.933  0.1276E-01  0.1276E-01  0.1607E+00  0.1607E+00
     -5.828  0.1196E-01  0.1196E-01  0.1620E+00  0.1620E+00
     -5.723  0.1458E-01  0.1458E-01  0.1635E+00  0.1635E+00
     -5.619  0.1345E-01  0.1345E-01  0.1649E+00  0.1649E+00
     -5.514  0.1072E-01  0.1072E-01  0.1660E+00  0.1660E+00
     -5.409  0.5526E-02  0.5526E-02  0.1666E+00  0.1666E+00
     -5.305  0.2820E-02  0.2820E-02  0.1669E+00  0.1669E+00
     -5.200  0.1604E-02  0.1604E-02  0.1671E+00  0.1671E+00
     -5.095  0.8640E-02  0.8640E-02  0.1680E+00  0.1680E+00
     -4.991  0.2092E-01  0.2092E-01  0.1701E+00  0.1701E+00
     -4.886  0.1740E-01  0.1740E-01  0.1720E+00  0.1720E+00
     -4.781  0.2026E-01  0.2026E-01  0.1741E+00  0.1741E+00
     -4.677  0.7955E-02  0.7955E-02  0.1749E+00  0.1749E+00
     -4.572  0.9826E-02  0.9826E-02  0.1759E+00  0.1759E+00
     -4.467  0.3322E-02  0.3322E-02  0.1763E+00  0.1763E+00
     -4.363  0.8710E-02  0.8710E-02  0.1772E+00  0.1772E+00
     -4.258  0.8381E-02  0.8381E-02  0.1781E+00  0.1781E+00
     -4.153  0.7342E-02  0.7342E-02  0.1789E+00  0.1789E+00
     -4.049  0.9452E-02  0.9452E-02  0.1798E+00  0.1798E+00
     -3.944  0.8914E-02  0.8914E-02  0.1808E+00  0.1808E+00
     -3.839  0.8155E-02  0.8155E-02  0.1816E+00  0.1816E+00
     -3.735  0.2165E-02  0.2165E-02  0.1819E+00  0.1819E+00
     -3.630  0.1362E-02  0.1362E-02  0.1820E+00  0.1820E+00
     -3.525  0.1313E-04  0.1313E-04  0.1820E+00  0.1820E+00
     -3.420  0.1373E-02  0.1373E-02  0.1821E+00  0.1821E+00
     -3.316  0.3520E-02  0.3520E-02  0.1825E+00  0.1825E+00
     -3.211  0.5236E-02  0.5236E-02  0.1831E+00  0.1831E+00
     -3.106  0.3231E-02  0.3231E-02  0.1834E+00  0.1834E+00
     -3.002  0.9625E-03  0.9625E-03  0.1835E+00  0.1835E+00
     -2.897  0.1482E-05  0.1482E-05  0.1835E+00  0.1835E+00
     -2.792  0.6495E-05  0.6495E-05  0.1835E+00  0.1835E+00
     -2.688  0.1362E-02  0.1362E-02  0.1836E+00  0.1836E+00
     -2.583  0.2186E-02  0.2186E-02  0.1839E+00  0.1839E+00
     -2.478  0.1217E-02  0.1217E-02  0.1840E+00  0.1840E+00
     -2.374  0.1256E-04  0.1256E-04  0.1840E+00  0.1840E+00
     -2.269  0.1942E-02  0.1942E-02  0.1842E+00  0.1842E+00
     -2.164  0.2788E-02  0.2788E-02  0.1845E+00  0.1845E+00
     -2.060  0.3798E-04  0.3798E-04  0.1845E+00  0.1845E+00
     -1.955  0.2179E-03  0.2179E-03  0.1845E+00  0.1845E+00
     -1.850  0.2078E-02  0.2078E-02  0.1847E+00  0.1847E+00
     -1.746  0.2517E-02  0.2517E-02  0.1850E+00  0.1850E+00
     -1.641  0.3755E-02  0.3755E-02  0.1854E+00  0.1854E+00
     -1.536  0.5584E-02  0.5584E-02  0.1860E+00  0.1860E+00
     -1.432  0.2172E-03  0.2172E-03  0.1860E+00  0.1860E+00
     -1.327  0.3669E-02  0.3669E-02  0.1864E+00  0.1864E+00
     -1.222  0.7469E-02  0.7469E-02  0.1872E+00  0.1872E+00
     -1.118  0.3033E-02  0.3033E-02  0.1875E+00  0.1875E+00
     -1.013  0.4545E-03  0.4545E-03  0.1875E+00  0.1875E+00
     -0.908  0.8012E-02  0.8012E-02  0.1884E+00  0.1884E+00
     -0.804  0.1725E-01  0.1725E-01  0.1902E+00  0.1902E+00
     -0.699  0.8747E-02  0.8747E-02  0.1911E+00  0.1911E+00
     -0.594  0.7066E-02  0.7066E-02  0.1918E+00  0.1918E+00
     -0.490  0.1097E-01  0.1097E-01  0.1930E+00  0.1930E+00
     -0.385  0.7254E-02  0.7254E-02  0.1937E+00  0.1937E+00
     -0.280  0.4396E-02  0.4396E-02  0.1942E+00  0.1942E+00
     -0.176  0.4630E-02  0.4630E-02  0.1947E+00  0.1947E+00
     -0.071  0.1158E-01  0.1158E-01  0.1959E+00  0.1959E+00
      0.034  0.9705E-02  0.9705E-02  0.1969E+00  0.1969E+00
      0.138  0.1045E-01  0.1045E-01  0.1980E+00  0.1980E+00
      0.243  0.1167E-01  0.1167E-01  0.1992E+00  0.1992E+00
      0.348  0.4394E-02  0.4394E-02  0.1997E+00  0.1997E+00
      0.452  0.3026E-02  0.3026E-02  0.2000E+00  0.2000E+00
      0.557  0.3002E-02  0.3002E-02  0.2003E+00  0.2003E+00
      0.662  0.6572E-02  0.6572E-02  0.2010E+00  0.2010E+00
      0.767  0.1316E-01  0.1316E-01  0.2024E+00  0.2024E+00
      0.871  0.1109E-01  0.1109E-01  0.2035E+00  0.2035E+00
      0.976  0.3968E-02  0.3968E-02  0.2040E+00  0.2040E+00
      1.081  0.1304E-01  0.1304E-01  0.2053E+00  0.2053E+00
      1.185  0.5936E-02  0.5936E-02  0.2060E+00  0.2060E+00
      1.290  0.7627E-02  0.7627E-02  0.2067E+00  0.2067E+00
      1.395  0.9224E-02  0.9224E-02  0.2077E+00  0.2077E+00
      1.499  0.1469E-01  0.1469E-01  0.2093E+00  0.2093E+00
      1.604  0.2059E-01  0.2059E-01  0.2114E+00  0.2114E+00
      1.709  0.1243E-01  0.1243E-01  0.2127E+00  0.2127E+00
      1.813  0.9690E-02  0.9690E-02  0.2137E+00  0.2137E+00
      1.918  0.1033E-01  0.1033E-01  0.2148E+00  0.2148E+00
      2.023  0.1548E-01  0.1548E-01  0.2164E+00  0.2164E+00
      2.127  0.2115E-01  0.2115E-01  0.2186E+00  0.2186E+00
      2.232  0.1688E-01  0.1688E-01  0.2204E+00  0.2204E+00
      2.337  0.1795E-01  0.1795E-01  0.2223E+00  0.2223E+00
      2.441  0.2827E-01  0.2827E-01  0.2252E+00  0.2252E+00
      2.546  0.1004E-01  0.1003E-01  0.2263E+00  0.2263E+00
      2.651  0.7387E-02  0.7387E-02  0.2271E+00  0.2271E+00
      2.755  0.1345E-01  0.1345E-01  0.2285E+00  0.2285E+00
      2.860  0.3040E-01  0.3040E-01  0.2317E+00  0.2317E+00
      2.965  0.3878E-01  0.3878E-01  0.2357E+00  0.2357E+00
      3.069  0.2648E-01  0.2648E-01  0.2385E+00  0.2385E+00
      3.174  0.2013E-01  0.2013E-01  0.2406E+00  0.2406E+00
      3.279  0.2021E-01  0.2021E-01  0.2427E+00  0.2427E+00
      3.383  0.8231E-02  0.8231E-02  0.2436E+00  0.2436E+00
      3.488  0.2779E-01  0.2779E-01  0.2465E+00  0.2465E+00
      3.593  0.1701E-01  0.1701E-01  0.2483E+00  0.2483E+00
      3.697  0.1331E-01  0.1331E-01  0.2497E+00  0.2497E+00
      3.802  0.3108E-01  0.3108E-01  0.2529E+00  0.2529E+00
      3.907  0.2134E-01  0.2134E-01  0.2551E+00  0.2551E+00
      4.011  0.2180E-01  0.2180E-01  0.2574E+00  0.2574E+00
      4.116  0.1555E-01  0.1555E-01  0.2591E+00  0.2591E+00
      4.221  0.1788E-01  0.1788E-01  0.2609E+00  0.2609E+00
      4.325  0.3044E-01  0.3044E-01  0.2641E+00  0.2641E+00
      4.430  0.8380E-02  0.8380E-02  0.2650E+00  0.2650E+00
      4.535  0.1146E-03  0.1146E-03  0.2650E+00  0.2650E+00
      4.640  0.1921E-08  0.1920E-08  0.2650E+00  0.2650E+00
      4.744  0.7955E-17  0.7955E-17  0.2650E+00  0.2650E+00
      4.849  0.0000E+00  0.0000E+00  0.2650E+00  0.2650E+00
      4.954  0.0000E+00  0.0000E+00  0.2650E+00  0.2650E+00
      5.058  0.0000E+00  0.0000E+00  0.2650E+00  0.2650E+00
      5.163  0.0000E+00  0.0000E+00  0.2650E+00  0.2650E+00
      5.268  0.0000E+00  0.0000E+00  0.2650E+00  0.2650E+00
      5.372  0.0000E+00  0.0000E+00  0.2650E+00  0.2650E+00
      5.477  0.0000E+00  0.0000E+00  0.2650E+00  0.2650E+00
      5.582  0.0000E+00  0.0000E+00  0.2650E+00  0.2650E+00
      5.686  0.0000E+00  0.0000E+00  0.2650E+00  0.2650E+00
      5.791  0.0000E+00  0.0000E+00  0.2650E+00  0.2650E+00
