       N       E                     dE             d eps       ncg     rms          rms(c)
DAV:   1     0.326065324551E+04    0.32607E+04   -0.13766E+05  4590   0.105E+03
DAV:   2    -0.251707298522E+03   -0.35124E+04   -0.33086E+04  6400   0.257E+02
DAV:   3    -0.864384759906E+03   -0.61268E+03   -0.60998E+03  5290   0.111E+02
DAV:   4    -0.886487117304E+03   -0.22102E+02   -0.22024E+02  5430   0.266E+01
DAV:   5    -0.887116315783E+03   -0.62920E+00   -0.62846E+00  5990   0.382E+00    0.518E+01
DAV:   6    -0.869770387712E+03    0.17346E+02   -0.21867E+01  5160   0.722E+00    0.337E+01
DAV:   7    -0.847504569222E+03    0.22266E+02   -0.32536E+01  5010   0.858E+00    0.204E+01
DAV:   8    -0.842661897608E+03    0.48427E+01   -0.24579E+01  5120   0.745E+00    0.817E+00
DAV:   9    -0.842534564558E+03    0.12733E+00   -0.11918E+00  5010   0.199E+00    0.311E+00
DAV:  10    -0.842452520970E+03    0.82044E-01   -0.36400E-01  4990   0.107E+00    0.893E-01
DAV:  11    -0.842440536949E+03    0.11984E-01   -0.78988E-02  4850   0.487E-01    0.293E-01
DAV:  12    -0.842439830706E+03    0.70624E-03   -0.58868E-03  5180   0.161E-01    0.155E-01
DAV:  13    -0.842439550666E+03    0.28004E-03   -0.31383E-03  5200   0.116E-01    0.665E-02
DAV:  14    -0.842439639102E+03   -0.88436E-04   -0.43702E-04  4820   0.392E-02    0.509E-02
DAV:  15    -0.842439681687E+03   -0.42585E-04   -0.13728E-04  5260   0.216E-02    0.271E-02
DAV:  16    -0.842439686096E+03   -0.44094E-05   -0.24265E-05  5020   0.105E-02    0.128E-02
DAV:  17    -0.842439686566E+03   -0.46943E-06   -0.16194E-05  5220   0.755E-03    0.597E-03
DAV:  18    -0.842439685964E+03    0.60185E-06   -0.31698E-06  4130   0.398E-03
   1 F= -.85019437E+03 E0= -.85019437E+03  d E =-.850194E+03  mag=     0.0001
       N       E                     dE             d eps       ncg     rms          rms(c)
DAV:   1    -0.842439681923E+03    0.46424E-05   -0.37979E-04  4480   0.379E-02    0.494E-03
DAV:   2    -0.842439682467E+03   -0.54351E-06   -0.90616E-06  4820   0.541E-03
   2 F= -.85019437E+03 E0= -.85019436E+03  d E =0.381121E-05  mag=     0.0000
       N       E                     dE             d eps       ncg     rms          rms(c)
DAV:   1    -0.842439665265E+03    0.16658E-04   -0.72170E-04  4480   0.495E-02    0.918E-03
DAV:   2    -0.842439665720E+03   -0.45525E-06   -0.12782E-05  4850   0.640E-03    0.742E-03
DAV:   3    -0.842439665346E+03    0.37452E-06   -0.12787E-06  3470   0.257E-03
   3 F= -.85019435E+03 E0= -.85019435E+03  d E =0.186964E-04  mag=    -0.0000
       N       E                     dE             d eps       ncg     rms          rms(c)
DAV:   1    -0.842439647263E+03    0.18457E-04   -0.11045E-03  4460   0.582E-02    0.908E-03
DAV:   2    -0.842439648416E+03   -0.11533E-05   -0.16043E-05  4720   0.684E-03    0.740E-03
DAV:   3    -0.842439648490E+03   -0.73167E-07   -0.64175E-07  3360   0.187E-03
   4 F= -.85019433E+03 E0= -.85019433E+03  d E =0.204723E-04  mag=     0.0000
       N       E                     dE             d eps       ncg     rms          rms(c)
DAV:   1    -0.842439626505E+03    0.21911E-04   -0.18831E-03  4400   0.774E-02    0.113E-02
DAV:   2    -0.842439628565E+03   -0.20592E-05   -0.27635E-05  4720   0.929E-03    0.935E-03
DAV:   3    -0.842439628591E+03   -0.26812E-07   -0.11359E-06  3790   0.249E-03
   5 F= -.85019430E+03 E0= -.85019430E+03  d E =0.258201E-04  mag=    -0.0000
       N       E                     dE             d eps       ncg     rms          rms(c)
DAV:   1    -0.842439606200E+03    0.22365E-04   -0.24454E-03  4380   0.859E-02    0.133E-02
DAV:   2    -0.842439608527E+03   -0.23270E-05   -0.31619E-05  4680   0.989E-03    0.108E-02
DAV:   3    -0.842439608942E+03   -0.41521E-06   -0.14610E-06  3660   0.282E-03
   6 F= -.85019427E+03 E0= -.85019427E+03  d E =0.267112E-04  mag=     0.0000
       N       E                     dE             d eps       ncg     rms          rms(c)
DAV:   1    -0.842439590893E+03    0.17634E-04   -0.35791E-03  4380   0.103E-01    0.160E-02
DAV:   2    -0.842439594683E+03   -0.37896E-05   -0.50337E-05  4640   0.121E-02    0.127E-02
DAV:   3    -0.842439595118E+03   -0.43453E-06   -0.19241E-06  3980   0.303E-03
   7 F= -.85019425E+03 E0= -.85019425E+03  d E =0.216828E-04  mag=    -0.0000
       N       E                     dE             d eps       ncg     rms          rms(c)
DAV:   1    -0.842439582840E+03    0.11843E-04   -0.58603E-03  4390   0.129E-01    0.206E-02
DAV:   2    -0.842439589168E+03   -0.63273E-05   -0.84416E-05  4620   0.152E-02    0.161E-02
DAV:   3    -0.842439589871E+03   -0.70320E-06   -0.30403E-06  4235   0.370E-03
   8 F= -.85019424E+03 E0= -.85019423E+03  d E =0.165042E-04  mag=     0.0000
       N       E                     dE             d eps       ncg     rms          rms(c)
DAV:   1    -0.842439597680E+03   -0.85118E-05   -0.88367E-03  4330   0.160E-01    0.257E-02
DAV:   2    -0.842439607322E+03   -0.96421E-05   -0.12902E-04  4580   0.190E-02    0.202E-02
DAV:   3    -0.842439608540E+03   -0.12180E-05   -0.47987E-06  4660   0.473E-03    0.125E-02
DAV:   4    -0.842439611286E+03   -0.27464E-05   -0.44759E-06  4180   0.419E-03    0.307E-03
DAV:   5    -0.842439611160E+03    0.12622E-06   -0.11699E-06  3670   0.220E-03
   9 F= -.85019424E+03 E0= -.85019424E+03  d E =-.116349E-05  mag=    -0.0000
       N       E                     dE             d eps       ncg     rms          rms(c)
DAV:   1    -0.842439646030E+03   -0.34744E-04   -0.13297E-02  4320   0.195E-01    0.307E-02
DAV:   2    -0.842439660331E+03   -0.14301E-04   -0.20220E-04  4590   0.238E-02    0.242E-02
DAV:   3    -0.842439660699E+03   -0.36852E-06   -0.75646E-06  4780   0.601E-03
  10 F= -.85019426E+03 E0= -.85019426E+03  d E =-.225137E-04  mag=     0.0000
       N       E                     dE             d eps       ncg     rms          rms(c)
DAV:   1    -0.842439720495E+03   -0.60164E-04   -0.20821E-02  4300   0.240E-01    0.408E-02
DAV:   2    -0.842439743372E+03   -0.22877E-04   -0.31583E-04  4560   0.285E-02    0.313E-02
DAV:   3    -0.842439746692E+03   -0.33199E-05   -0.10518E-05  4910   0.682E-03    0.197E-02
DAV:   4    -0.842439753955E+03   -0.72626E-05   -0.10050E-05  4340   0.617E-03    0.447E-03
DAV:   5    -0.842439753811E+03    0.14376E-06   -0.24343E-06  4260   0.296E-03
  11 F= -.85019432E+03 E0= -.85019432E+03  d E =-.627029E-04  mag=    -0.0000
       N       E                     dE             d eps       ncg     rms          rms(c)
DAV:   1    -0.842439837090E+03   -0.83136E-04   -0.33125E-02  4250   0.303E-01    0.486E-02
DAV:   2    -0.842439875881E+03   -0.38790E-04   -0.55105E-04  4560   0.378E-02    0.375E-02
DAV:   3    -0.842439875644E+03    0.23693E-06   -0.17606E-05  5075   0.901E-03    0.249E-02
DAV:   4    -0.842439885991E+03   -0.10348E-04   -0.21487E-05  4350   0.915E-03    0.624E-03
DAV:   5    -0.842439885850E+03    0.14132E-06   -0.52860E-06  4680   0.437E-03
  12 F= -.85019441E+03 E0= -.85019441E+03  d E =-.901403E-04  mag=    -0.0000
       N       E                     dE             d eps       ncg     rms          rms(c)
DAV:   1    -0.842439968571E+03   -0.82579E-04   -0.49380E-02  4240   0.385E-01    0.598E-02
DAV:   2    -0.842440034723E+03   -0.66153E-04   -0.90226E-04  4560   0.500E-02    0.469E-02
DAV:   3    -0.842440030630E+03    0.40938E-05   -0.31265E-05  5160   0.118E-02    0.317E-02
DAV:   4    -0.842440044520E+03   -0.13890E-04   -0.39411E-05  4325   0.128E-02    0.910E-03
DAV:   5    -0.842440044149E+03    0.37126E-06   -0.97162E-06  4740   0.616E-03
  13 F= -.85019451E+03 E0= -.85019451E+03  d E =-.979925E-04  mag=    -0.0000
       N       E                     dE             d eps       ncg     rms          rms(c)
DAV:   1    -0.842439827092E+03    0.21743E-03   -0.10978E-01  4240   0.616E-01    0.840E-02
DAV:   2    -0.842439993814E+03   -0.16672E-03   -0.23410E-03  4580   0.848E-02    0.680E-02
DAV:   3    -0.842439964637E+03    0.29176E-04   -0.96190E-05  5380   0.195E-02    0.484E-02
DAV:   4    -0.842439973314E+03   -0.86763E-05   -0.95291E-05  4350   0.208E-02    0.162E-02
DAV:   5    -0.842439976351E+03   -0.30377E-05   -0.22176E-05  4640   0.873E-03    0.816E-03
DAV:   6    -0.842439976706E+03   -0.35430E-06   -0.44514E-06  4620   0.373E-03
  14 F= -.85019437E+03 E0= -.85019437E+03  d E =0.144152E-03  mag=    -0.0000
       N       E                     dE             d eps       ncg     rms          rms(c)
DAV:   1    -0.842440439328E+03   -0.46298E-03   -0.24438E-02  4350   0.321E-01    0.356E-02
DAV:   2    -0.842440481331E+03   -0.42003E-04   -0.61393E-04  5280   0.465E-02    0.323E-02
DAV:   3    -0.842440468148E+03    0.13183E-04   -0.29617E-05  5700   0.103E-02    0.242E-02
DAV:   4    -0.842440456316E+03    0.11831E-04   -0.26385E-05  4370   0.111E-02    0.949E-03
DAV:   5    -0.842440455910E+03    0.40617E-06   -0.74019E-06  4240   0.488E-03
  15 F= -.85019485E+03 E0= -.85019484E+03  d E =-.479801E-03  mag=    -0.0000
       N       E                     dE             d eps       ncg     rms          rms(c)
DAV:   1    -0.842440468518E+03   -0.12202E-04   -0.24732E-05  4330   0.926E-03    0.220E-03
DAV:   2    -0.842440468537E+03   -0.18401E-07   -0.67495E-07  2740   0.153E-03
  16 F= -.85019486E+03 E0= -.85019486E+03  d E =-.111466E-04  mag=    -0.0000
       N       E                     dE             d eps       ncg     rms          rms(c)
DAV:   1    -0.842440497824E+03   -0.29306E-04   -0.98453E-05  4290   0.172E-02    0.300E-03
DAV:   2    -0.842440497921E+03   -0.96959E-07   -0.18918E-06  3230   0.228E-03
  17 F= -.85019488E+03 E0= -.85019488E+03  d E =-.260968E-04  mag=    -0.0000
       N       E                     dE             d eps       ncg     rms          rms(c)
DAV:   1    -0.842440549452E+03   -0.51628E-04   -0.24967E-04  4290   0.252E-02    0.524E-03
DAV:   2    -0.842440549618E+03   -0.16602E-06   -0.45893E-06  3540   0.321E-03
  18 F= -.85019493E+03 E0= -.85019493E+03  d E =-.461180E-04  mag=    -0.0000
       N       E                     dE             d eps       ncg     rms          rms(c)
DAV:   1    -0.842440628478E+03   -0.79026E-04   -0.52336E-04  4300   0.335E-02    0.800E-03
DAV:   2    -0.842440628738E+03   -0.26024E-06   -0.90372E-06  3950   0.400E-03
  19 F= -.85019500E+03 E0= -.85019500E+03  d E =-.708481E-04  mag=    -0.0000
       N       E                     dE             d eps       ncg     rms          rms(c)
DAV:   1    -0.842440734026E+03   -0.10555E-03   -0.90487E-04  4295   0.418E-02    0.109E-02
DAV:   2    -0.842440734277E+03   -0.25088E-06   -0.15070E-05  4100   0.477E-03    0.865E-03
DAV:   3    -0.842440734749E+03   -0.47221E-06   -0.47840E-07  3190   0.136E-03
  20 F= -.85019510E+03 E0= -.85019509E+03  d E =-.952868E-04  mag=     0.0000
       N       E                     dE             d eps       ncg     rms          rms(c)
DAV:   1    -0.842440865240E+03   -0.13096E-03   -0.13824E-03  4260   0.508E-02    0.957E-03
DAV:   2    -0.842440866667E+03   -0.14278E-05   -0.23439E-05  4250   0.572E-03    0.708E-03
DAV:   3    -0.842440866645E+03    0.22585E-07   -0.27037E-07  3410   0.949E-04
  21 F= -.85019521E+03 E0= -.85019521E+03  d E =-.118897E-03  mag=    -0.0000
       N       E                     dE             d eps       ncg     rms          rms(c)
DAV:   1    -0.842441034951E+03   -0.16828E-03   -0.24707E-03  4280   0.678E-02    0.124E-02
DAV:   2    -0.842441037668E+03   -0.27171E-05   -0.43107E-05  4350   0.774E-03    0.918E-03
DAV:   3    -0.842441037454E+03    0.21317E-06   -0.51263E-07  3615   0.128E-03
  22 F= -.85019537E+03 E0= -.85019537E+03  d E =-.153958E-03  mag=    -0.0000
       N       E                     dE             d eps       ncg     rms          rms(c)
DAV:   1    -0.842441245678E+03   -0.20801E-03   -0.40045E-03  4260   0.862E-02    0.160E-02
DAV:   2    -0.842441249911E+03   -0.42327E-05   -0.70093E-05  4420   0.986E-03    0.117E-02
DAV:   3    -0.842441249562E+03    0.34824E-06   -0.90257E-07  3820   0.168E-03
  23 F= -.85019556E+03 E0= -.85019556E+03  d E =-.190825E-03  mag=    -0.0000
       N       E                     dE             d eps       ncg     rms          rms(c)
DAV:   1    -0.842441498396E+03   -0.24849E-03   -0.59857E-03  4280   0.104E-01    0.197E-02
DAV:   2    -0.842441504635E+03   -0.62394E-05   -0.10521E-04  4460   0.118E-02    0.144E-02
DAV:   3    -0.842441504156E+03    0.47885E-06   -0.13552E-06  3920   0.198E-03
  24 F= -.85019579E+03 E0= -.85019579E+03  d E =-.228009E-03  mag=    -0.0000
       N       E                     dE             d eps       ncg     rms          rms(c)
DAV:   1    -0.842441785554E+03   -0.28092E-03   -0.77821E-03  4260   0.118E-01    0.228E-02
DAV:   2    -0.842441793646E+03   -0.80920E-05   -0.13684E-04  4500   0.134E-02    0.167E-02
DAV:   3    -0.842441793088E+03    0.55828E-06   -0.17419E-06  3900   0.226E-03
  25 F= -.85019604E+03 E0= -.85019604E+03  d E =-.257672E-03  mag=    -0.0000
       N       E                     dE             d eps       ncg     rms          rms(c)
DAV:   1    -0.842442087262E+03   -0.29362E-03   -0.85222E-03  4250   0.126E-01    0.242E-02
DAV:   2    -0.842442096191E+03   -0.89284E-05   -0.14881E-04  4500   0.143E-02    0.179E-02
DAV:   3    -0.842442095734E+03    0.45602E-06   -0.18663E-06  3900   0.242E-03
  26 F= -.85019631E+03 E0= -.85019631E+03  d E =-.268806E-03  mag=    -0.0000
       N       E                     dE             d eps       ncg     rms          rms(c)
DAV:   1    -0.842442375043E+03   -0.27885E-03   -0.81976E-03  4250   0.125E-01    0.242E-02
DAV:   2    -0.842442383591E+03   -0.85476E-05   -0.14001E-04  4480   0.143E-02    0.181E-02
DAV:   3    -0.842442383502E+03    0.88585E-07   -0.18456E-06  3935   0.248E-03
  27 F= -.85019657E+03 E0= -.85019657E+03  d E =-.255087E-03  mag=    -0.0000
       N       E                     dE             d eps       ncg     rms          rms(c)
DAV:   1    -0.842442619694E+03   -0.23610E-03   -0.77137E-03  4240   0.127E-01    0.241E-02
DAV:   2    -0.842442627706E+03   -0.80126E-05   -0.12757E-04  4480   0.146E-02    0.181E-02
DAV:   3    -0.842442628122E+03   -0.41541E-06   -0.20482E-06  4015   0.276E-03
  28 F= -.85019678E+03 E0= -.85019678E+03  d E =-.213454E-03  mag=    -0.0000
       N       E                     dE             d eps       ncg     rms          rms(c)
DAV:   1    -0.842442793402E+03   -0.16570E-03   -0.78764E-03  4240   0.134E-01    0.249E-02
DAV:   2    -0.842442801237E+03   -0.78347E-05   -0.12124E-04  4485   0.155E-02    0.189E-02
DAV:   3    -0.842442802366E+03   -0.11297E-05   -0.26732E-06  4185   0.330E-03    0.125E-02
DAV:   4    -0.842442806162E+03   -0.37961E-05   -0.41283E-06  3900   0.363E-03    0.224E-03
DAV:   5    -0.842442806065E+03    0.97825E-07   -0.80548E-07  3480   0.164E-03
  29 F= -.85019693E+03 E0= -.85019693E+03  d E =-.150101E-03  mag=     0.0000
       N       E                     dE             d eps       ncg     rms          rms(c)
DAV:   1    -0.842442879938E+03   -0.73775E-04   -0.94705E-03  4240   0.154E-01    0.266E-02
DAV:   2    -0.842442888955E+03   -0.90169E-05   -0.13686E-04  4520   0.183E-02    0.208E-02
DAV:   3    -0.842442889817E+03   -0.86243E-06   -0.47161E-06  4680   0.456E-03
  30 F= -.85019699E+03 E0= -.85019699E+03  d E =-.585963E-04  mag=     0.0000
       N       E                     dE             d eps       ncg     rms          rms(c)
DAV:   1    -0.842442869096E+03    0.19859E-04   -0.12650E-02  4240   0.182E-01    0.318E-02
DAV:   2    -0.842442879216E+03   -0.10120E-04   -0.14794E-04  4620   0.205E-02    0.255E-02
DAV:   3    -0.842442883313E+03   -0.40967E-05   -0.75884E-06  4450   0.597E-03    0.135E-02
DAV:   4    -0.842442887075E+03   -0.37621E-05   -0.51984E-06  4350   0.418E-03    0.340E-03
DAV:   5    -0.842442886797E+03    0.27801E-06   -0.12823E-06  3940   0.230E-03
  31 F= -.85019697E+03 E0= -.85019697E+03  d E =0.247218E-04  mag=     0.0000
       N       E                     dE             d eps       ncg     rms          rms(c)
DAV:   1    -0.842442796812E+03    0.90263E-04   -0.18975E-02  4240   0.225E-01    0.368E-02
DAV:   2    -0.842442811288E+03   -0.14476E-04   -0.22255E-04  4630   0.260E-02    0.303E-02
DAV:   3    -0.842442814179E+03   -0.28908E-05   -0.15718E-05  4670   0.855E-03    0.154E-02
DAV:   4    -0.842442819046E+03   -0.48670E-05   -0.88370E-06  4440   0.541E-03    0.534E-03
DAV:   5    -0.842442818450E+03    0.59589E-06   -0.35518E-06  4520   0.375E-03
  32 F= -.85019688E+03 E0= -.85019688E+03  d E =0.883107E-04  mag=    -0.0000
       N       E                     dE             d eps       ncg     rms          rms(c)
DAV:   1    -0.842442746329E+03    0.72717E-04   -0.30905E-02  4240   0.287E-01    0.464E-02
DAV:   2    -0.842442772082E+03   -0.25753E-04   -0.39727E-04  4620   0.337E-02    0.373E-02
DAV:   3    -0.842442774242E+03   -0.21601E-05   -0.19590E-05  4940   0.937E-03    0.221E-02
DAV:   4    -0.842442782980E+03   -0.87386E-05   -0.16125E-05  4400   0.749E-03    0.596E-03
DAV:   5    -0.842442782538E+03    0.44263E-06   -0.47547E-06  4760   0.418E-03
  33 F= -.85019681E+03 E0= -.85019681E+03  d E =0.658327E-04  mag=     0.0000
       N       E                     dE             d eps       ncg     rms          rms(c)
DAV:   1    -0.842442832342E+03   -0.49362E-04   -0.42332E-02  4240   0.340E-01    0.556E-02
DAV:   2    -0.842442872626E+03   -0.40284E-04   -0.60525E-04  4620   0.411E-02    0.445E-02
DAV:   3    -0.842442873520E+03   -0.89393E-06   -0.26666E-05  4980   0.108E-02    0.276E-02
DAV:   4    -0.842442887117E+03   -0.13597E-04   -0.27472E-05  4370   0.100E-02    0.797E-03
DAV:   5    -0.842442886184E+03    0.93334E-06   -0.86248E-06  4760   0.564E-03
  34 F= -.85019687E+03 E0= -.85019687E+03  d E =-.549862E-04  mag=     0.0000
       N       E                     dE             d eps       ncg     rms          rms(c)
DAV:   1    -0.842443048832E+03   -0.16171E-03   -0.80932E-02  4240   0.478E-01    0.743E-02
DAV:   2    -0.842443141699E+03   -0.92867E-04   -0.14608E-03  4560   0.616E-02    0.586E-02
DAV:   3    -0.842443131388E+03    0.10310E-04   -0.49671E-05  5200   0.140E-02    0.409E-02
DAV:   4    -0.842443159988E+03   -0.28599E-04   -0.64107E-05  4345   0.158E-02    0.116E-02
DAV:   5    -0.842443160994E+03   -0.10069E-05   -0.13953E-05  4700   0.685E-03    0.632E-03
DAV:   6    -0.842443161090E+03   -0.95300E-07   -0.32502E-06  3920   0.321E-03
  35 F= -.85019707E+03 E0= -.85019706E+03  d E =-.198572E-03  mag=     0.0000
       N       E                     dE             d eps       ncg     rms          rms(c)
DAV:   1    -0.842443345982E+03   -0.18499E-03   -0.60886E-03  4280   0.160E-01    0.179E-02
DAV:   2    -0.842443356479E+03   -0.10497E-04   -0.15372E-04  5220   0.234E-02    0.161E-02
DAV:   3    -0.842443353265E+03    0.32142E-05   -0.78129E-06  5450   0.527E-03    0.120E-02
DAV:   4    -0.842443350692E+03    0.25731E-05   -0.63513E-06  4240   0.545E-03    0.500E-03
DAV:   5    -0.842443350597E+03    0.94726E-07   -0.17221E-06  3200   0.245E-03
  36 F= -.85019725E+03 E0= -.85019725E+03  d E =-.186126E-03  mag=    -0.0000
       N       E                     dE             d eps       ncg     rms          rms(c)
DAV:   1    -0.842443375833E+03   -0.25142E-04   -0.73055E-03  4260   0.173E-01    0.200E-02
DAV:   2    -0.842443388450E+03   -0.12617E-04   -0.17619E-04  4870   0.247E-02    0.171E-02
DAV:   3    -0.842443385102E+03    0.33484E-05   -0.84658E-06  5560   0.557E-03    0.125E-02
DAV:   4    -0.842443383546E+03    0.15559E-05   -0.69400E-06  4160   0.564E-03    0.520E-03
DAV:   5    -0.842443383615E+03   -0.69347E-07   -0.16858E-06  3210   0.246E-03
  37 F= -.85019727E+03 E0= -.85019727E+03  d E =-.218339E-04  mag=    -0.0000
       N       E                     dE             d eps       ncg     rms          rms(c)
DAV:   1    -0.842443440903E+03   -0.57357E-04   -0.30371E-04  4280   0.356E-02    0.409E-03
DAV:   2    -0.842443441380E+03   -0.47735E-06   -0.78560E-06  4850   0.523E-03
  38 F= -.85019733E+03 E0= -.85019733E+03  d E =-.557404E-04  mag=    -0.0000
       N       E                     dE             d eps       ncg     rms          rms(c)
DAV:   1    -0.842443523798E+03   -0.82895E-04   -0.97662E-04  4260   0.634E-02    0.947E-03
DAV:   2    -0.842443524782E+03   -0.98354E-06   -0.23559E-05  5090   0.910E-03    0.818E-03
DAV:   3    -0.842443523763E+03    0.10185E-05   -0.19247E-06  2980   0.294E-03    0.518E-03
DAV:   4    -0.842443523547E+03    0.21595E-06   -0.17876E-06  2780   0.283E-03
  39 F= -.85019741E+03 E0= -.85019741E+03  d E =-.779724E-04  mag=    -0.0000
       N       E                     dE             d eps       ncg     rms          rms(c)
DAV:   1    -0.842443593948E+03   -0.70185E-04   -0.14898E-03  4260   0.770E-02    0.909E-03
DAV:   2    -0.842443596525E+03   -0.25770E-05   -0.36287E-05  4740   0.110E-02    0.782E-03
DAV:   3    -0.842443595848E+03    0.67661E-06   -0.14420E-06  3540   0.249E-03
  40 F= -.85019747E+03 E0= -.85019747E+03  d E =-.655693E-04  mag=     0.0000
       N       E                     dE             d eps       ncg     rms          rms(c)
DAV:   1    -0.842443657604E+03   -0.61079E-04   -0.13948E-03  4260   0.694E-02    0.991E-03
DAV:   2    -0.842443659444E+03   -0.18395E-05   -0.28488E-05  4520   0.911E-03    0.817E-03
DAV:   3    -0.842443658981E+03    0.46287E-06   -0.94673E-07  3440   0.208E-03
  41 F= -.85019753E+03 E0= -.85019753E+03  d E =-.538865E-04  mag=     0.0000
       N       E                     dE             d eps       ncg     rms          rms(c)
DAV:   1    -0.842443747087E+03   -0.87643E-04   -0.11923E-03  4260   0.530E-02    0.876E-03
DAV:   2    -0.842443748462E+03   -0.13754E-05   -0.21475E-05  4320   0.638E-03    0.673E-03
DAV:   3    -0.842443748331E+03    0.13137E-06   -0.36292E-07  3240   0.121E-03
  42 F= -.85019760E+03 E0= -.85019760E+03  d E =-.783774E-04  mag=     0.0000
       N       E                     dE             d eps       ncg     rms          rms(c)
DAV:   1    -0.842443884641E+03   -0.13618E-03   -0.14011E-03  4260   0.509E-02    0.932E-03
DAV:   2    -0.842443886152E+03   -0.15112E-05   -0.24156E-05  4220   0.590E-03    0.691E-03
DAV:   3    -0.842443886034E+03    0.11826E-06   -0.31201E-07  3330   0.102E-03
  43 F= -.85019773E+03 E0= -.85019773E+03  d E =-.125425E-03  mag=    -0.0000
       N       E                     dE             d eps       ncg     rms          rms(c)
DAV:   1    -0.842444077959E+03   -0.19181E-03   -0.26140E-03  4250   0.806E-02    0.126E-02
DAV:   2    -0.842444081213E+03   -0.32543E-05   -0.48923E-05  4400   0.101E-02    0.959E-03
DAV:   3    -0.842444080781E+03    0.43187E-06   -0.96443E-07  3730   0.196E-03
  44 F= -.85019791E+03 E0= -.85019791E+03  d E =-.179761E-03  mag=    -0.0000
       N       E                     dE             d eps       ncg     rms          rms(c)
DAV:   1    -0.842444292269E+03   -0.21106E-03   -0.45811E-03  4240   0.112E-01    0.170E-02
DAV:   2    -0.842444298026E+03   -0.57564E-05   -0.87799E-05  4420   0.143E-02    0.131E-02
DAV:   3    -0.842444297186E+03    0.83991E-06   -0.21904E-06  4120   0.293E-03
  45 F= -.85019811E+03 E0= -.85019811E+03  d E =-.197682E-03  mag=    -0.0000
       N       E                     dE             d eps       ncg     rms          rms(c)
DAV:   1    -0.842444519649E+03   -0.22162E-03   -0.61643E-03  4240   0.119E-01    0.205E-02
DAV:   2    -0.842444526475E+03   -0.68264E-05   -0.11235E-04  4440   0.145E-02    0.153E-02
DAV:   3    -0.842444525807E+03    0.66777E-06   -0.21219E-06  3940   0.283E-03
  46 F= -.85019831E+03 E0= -.85019831E+03  d E =-.204739E-03  mag=     0.0000
       N       E                     dE             d eps       ncg     rms          rms(c)
DAV:   1    -0.842444810705E+03   -0.28423E-03   -0.75849E-03  4260   0.116E-01    0.224E-02
DAV:   2    -0.842444818542E+03   -0.78363E-05   -0.13343E-04  4440   0.133E-02    0.162E-02
DAV:   3    -0.842444818030E+03    0.51122E-06   -0.17503E-06  3920   0.227E-03
  47 F= -.85019858E+03 E0= -.85019857E+03  d E =-.263246E-03  mag=    -0.0000
       N       E                     dE             d eps       ncg     rms          rms(c)
DAV:   1    -0.842445165325E+03   -0.34678E-03   -0.11354E-02  4240   0.157E-01    0.264E-02
DAV:   2    -0.842445178725E+03   -0.13400E-04   -0.21314E-04  4410   0.193E-02    0.196E-02
DAV:   3    -0.842445177024E+03    0.17009E-05   -0.37051E-06  4220   0.356E-03    0.144E-02
DAV:   4    -0.842445183519E+03   -0.64952E-05   -0.74267E-06  4070   0.500E-03    0.302E-03
DAV:   5    -0.842445183662E+03   -0.14366E-06   -0.12153E-06  3540   0.192E-03
  48 F= -.85019891E+03 E0= -.85019891E+03  d E =-.331070E-03  mag=     0.0000
       N       E                     dE             d eps       ncg     rms          rms(c)
DAV:   1    -0.842445539687E+03   -0.35617E-03   -0.14981E-02  4240   0.180E-01    0.298E-02
DAV:   2    -0.842445559950E+03   -0.20263E-04   -0.29672E-04  4380   0.229E-02    0.225E-02
DAV:   3    -0.842445556376E+03    0.35740E-05   -0.50220E-06  4280   0.422E-03    0.168E-02
DAV:   4    -0.842445564079E+03   -0.77033E-05   -0.13253E-05  4160   0.651E-03    0.413E-03
DAV:   5    -0.842445564068E+03    0.11765E-07   -0.21431E-06  3710   0.274E-03
  49 F= -.85019925E+03 E0= -.85019925E+03  d E =-.339600E-03  mag=     0.0000
       N       E                     dE             d eps       ncg     rms          rms(c)
DAV:   1    -0.842446007787E+03   -0.44371E-03   -0.17847E-02  4240   0.181E-01    0.332E-02
DAV:   2    -0.842446030074E+03   -0.22287E-04   -0.33387E-04  4360   0.218E-02    0.247E-02
DAV:   3    -0.842446026604E+03    0.34708E-05   -0.43155E-06  4060   0.371E-03    0.183E-02
DAV:   4    -0.842446037511E+03   -0.10907E-04   -0.14416E-05  4000   0.609E-03    0.411E-03
DAV:   5    -0.842446037195E+03    0.31599E-06   -0.23002E-06  3700   0.269E-03
  50 F= -.85019967E+03 E0= -.85019967E+03  d E =-.426730E-03  mag=     0.0000
       N       E                     dE             d eps       ncg     rms          rms(c)
DAV:   1    -0.842446502120E+03   -0.46461E-03   -0.24589E-02  4240   0.231E-01    0.389E-02
DAV:   2    -0.842446535279E+03   -0.33159E-04   -0.48724E-04  4400   0.294E-02    0.288E-02
DAV:   3    -0.842446529942E+03    0.53371E-05   -0.84271E-06  4820   0.537E-03    0.213E-02
DAV:   4    -0.842446542420E+03   -0.12478E-04   -0.17954E-05  4150   0.767E-03    0.493E-03
DAV:   5    -0.842446542667E+03   -0.24732E-06   -0.30168E-06  4060   0.309E-03
  51 F= -.85020013E+03 E0= -.85020013E+03  d E =-.456393E-03  mag=     0.0000
       N       E                     dE             d eps       ncg     rms          rms(c)
DAV:   1    -0.842446549519E+03   -0.70992E-05   -0.68275E-05  4360   0.169E-02    0.231E-03
DAV:   2    -0.842446549620E+03   -0.10119E-06   -0.16288E-06  3340   0.244E-03
  52 F= -.85020014E+03 E0= -.85020014E+03  d E =-.646063E-05  mag=    -0.0000
       N       E                     dE             d eps       ncg     rms          rms(c)
DAV:   1    -0.842446557970E+03   -0.84512E-05   -0.20822E-04  4280   0.293E-02    0.444E-03
DAV:   2    -0.842446558230E+03   -0.25960E-06   -0.51442E-06  4700   0.426E-03
  53 F= -.85020014E+03 E0= -.85020014E+03  d E =-.748530E-05  mag=     0.0000
       N       E                     dE             d eps       ncg     rms          rms(c)
DAV:   1    -0.842446564813E+03   -0.68430E-05   -0.28654E-04  4260   0.337E-02    0.614E-03
DAV:   2    -0.842446565024E+03   -0.21062E-06   -0.65139E-06  4960   0.470E-03
  54 F= -.85020015E+03 E0= -.85020015E+03  d E =-.485399E-05  mag=    -0.0000
       N       E                     dE             d eps       ncg     rms          rms(c)
DAV:   1    -0.842446577690E+03   -0.12877E-04   -0.23482E-04  4260   0.280E-02    0.624E-03
DAV:   2    -0.842446577786E+03   -0.95635E-07   -0.47089E-06  4180   0.367E-03
  55 F= -.85020016E+03 E0= -.85020016E+03  d E =-.982457E-05  mag=     0.0000
       N       E                     dE             d eps       ncg     rms          rms(c)
DAV:   1    -0.842446607386E+03   -0.29696E-04   -0.19859E-04  4260   0.213E-02    0.576E-03
DAV:   2    -0.842446607468E+03   -0.82277E-07   -0.35875E-06  3390   0.254E-03
  56 F= -.85020018E+03 E0= -.85020018E+03  d E =-.256989E-04  mag=    -0.0000
       N       E                     dE             d eps       ncg     rms          rms(c)
DAV:   1    -0.842446654913E+03   -0.47526E-04   -0.26520E-04  4255   0.257E-02    0.619E-03
DAV:   2    -0.842446655095E+03   -0.18272E-06   -0.49734E-06  3690   0.326E-03
  57 F= -.85020023E+03 E0= -.85020023E+03  d E =-.427868E-04  mag=     0.0000
       N       E                     dE             d eps       ncg     rms          rms(c)
DAV:   1    -0.842446720941E+03   -0.66029E-04   -0.51975E-04  4245   0.394E-02    0.833E-03
DAV:   2    -0.842446721380E+03   -0.43890E-06   -0.10433E-05  4340   0.521E-03    0.660E-03
DAV:   3    -0.842446721540E+03   -0.15972E-06   -0.51809E-07  2970   0.154E-03
  58 F= -.85020029E+03 E0= -.85020029E+03  d E =-.600426E-04  mag=     0.0000
       N       E                     dE             d eps       ncg     rms          rms(c)
DAV:   1    -0.842446801368E+03   -0.79988E-04   -0.83582E-04  4240   0.483E-02    0.807E-03
DAV:   2    -0.842446802494E+03   -0.11259E-05   -0.16314E-05  4390   0.619E-03    0.618E-03
DAV:   3    -0.842446802439E+03    0.54977E-07   -0.33084E-07  3100   0.125E-03
  59 F= -.85020036E+03 E0= -.85020036E+03  d E =-.723613E-04  mag=     0.0000
       N       E                     dE             d eps       ncg     rms          rms(c)
DAV:   1    -0.842446902171E+03   -0.99678E-04   -0.11959E-03  4240   0.495E-02    0.948E-03
DAV:   2    -0.842446903639E+03   -0.14670E-05   -0.22107E-05  4240   0.592E-03    0.691E-03
DAV:   3    -0.842446903613E+03    0.25524E-07   -0.29805E-07  3280   0.106E-03
  60 F= -.85020045E+03 E0= -.85020045E+03  d E =-.898714E-04  mag=    -0.0000
       N       E                     dE             d eps       ncg     rms          rms(c)
DAV:   1    -0.842447030285E+03   -0.12665E-03   -0.20540E-03  4240   0.648E-02    0.120E-02
DAV:   2    -0.842447032867E+03   -0.25822E-05   -0.39291E-05  4340   0.791E-03    0.860E-03
DAV:   3    -0.842447032744E+03    0.12303E-06   -0.61180E-07  3750   0.149E-03
  61 F= -.85020056E+03 E0= -.85020056E+03  d E =-.114653E-03  mag=    -0.0000
       N       E                     dE             d eps       ncg     rms          rms(c)
DAV:   1    -0.842447166674E+03   -0.13381E-03   -0.34387E-03  4240   0.881E-02    0.156E-02
DAV:   2    -0.842447170983E+03   -0.43088E-05   -0.67396E-05  4390   0.110E-02    0.113E-02
DAV:   3    -0.842447170765E+03    0.21780E-06   -0.13314E-06  3940   0.222E-03
  62 F= -.85020068E+03 E0= -.85020068E+03  d E =-.120526E-03  mag=    -0.0000
       N       E                     dE             d eps       ncg     rms          rms(c)
DAV:   1    -0.842447308829E+03   -0.13785E-03   -0.37946E-03  4240   0.878E-02    0.175E-02
DAV:   2    -0.842447313154E+03   -0.43245E-05   -0.70345E-05  4410   0.105E-02    0.125E-02
DAV:   3    -0.842447313379E+03   -0.22502E-06   -0.11918E-06  3740   0.206E-03
  63 F= -.85020081E+03 E0= -.85020081E+03  d E =-.123966E-03  mag=     0.0000
       N       E                     dE             d eps       ncg     rms          rms(c)
DAV:   1    -0.842447450396E+03   -0.13724E-03   -0.44615E-03  4240   0.104E-01    0.188E-02
DAV:   2    -0.842447456122E+03   -0.57258E-05   -0.82618E-05  4410   0.129E-02    0.138E-02
DAV:   3    -0.842447456324E+03   -0.20258E-06   -0.16934E-06  3840   0.260E-03
  64 F= -.85020093E+03 E0= -.85020093E+03  d E =-.123813E-03  mag=    -0.0000
       N       E                     dE             d eps       ncg     rms          rms(c)
DAV:   1    -0.842447568164E+03   -0.11204E-03   -0.51788E-03  4240   0.113E-01    0.209E-02
DAV:   2    -0.842447574511E+03   -0.63472E-05   -0.89708E-05  4440   0.136E-02    0.156E-02
DAV:   3    -0.842447575169E+03   -0.65775E-06   -0.20085E-06  4060   0.292E-03
  65 F= -.85020103E+03 E0= -.85020103E+03  d E =-.987223E-04  mag=     0.0000
       N       E                     dE             d eps       ncg     rms          rms(c)
DAV:   1    -0.842447660631E+03   -0.86120E-04   -0.73286E-03  4240   0.139E-01    0.246E-02
DAV:   2    -0.842447669758E+03   -0.91267E-05   -0.12730E-04  4480   0.173E-02    0.185E-02
DAV:   3    -0.842447670621E+03   -0.86318E-06   -0.36552E-06  4480   0.390E-03
  66 F= -.85020111E+03 E0= -.85020110E+03  d E =-.747776E-04  mag=    -0.0000
       N       E                     dE             d eps       ncg     rms          rms(c)
DAV:   1    -0.842447720598E+03   -0.50840E-04   -0.10347E-02  4240   0.163E-01    0.300E-02
DAV:   2    -0.842447732653E+03   -0.12055E-04   -0.17257E-04  4540   0.199E-02    0.224E-02
DAV:   3    -0.842447734506E+03   -0.18534E-05   -0.55064E-06  4560   0.474E-03    0.142E-02
DAV:   4    -0.842447738622E+03   -0.41160E-05   -0.49171E-06  4120   0.427E-03    0.326E-03
DAV:   5    -0.842447738580E+03    0.42084E-07   -0.11392E-06  3480   0.209E-03
  67 F= -.85020115E+03 E0= -.85020115E+03  d E =-.467108E-04  mag=    -0.0000
       N       E                     dE             d eps       ncg     rms          rms(c)
DAV:   1    -0.842447767379E+03   -0.28757E-04   -0.14698E-02  4240   0.202E-01    0.339E-02
DAV:   2    -0.842447784979E+03   -0.17600E-04   -0.24734E-04  4590   0.254E-02    0.261E-02
DAV:   3    -0.842447785422E+03   -0.44371E-06   -0.88227E-06  4960   0.615E-03
  68 F= -.85020117E+03 E0= -.85020117E+03  d E =-.210749E-04  mag=    -0.0000
       N       E                     dE             d eps       ncg     rms          rms(c)
DAV:   1    -0.842447842792E+03   -0.57813E-04   -0.21932E-02  4240   0.250E-01    0.429E-02
DAV:   2    -0.842447865874E+03   -0.23082E-04   -0.36020E-04  4610   0.314E-02    0.337E-02
DAV:   3    -0.842447868070E+03   -0.21962E-05   -0.15769E-05  5040   0.808E-03    0.213E-02
DAV:   4    -0.842447877108E+03   -0.90381E-05   -0.13751E-05  4310   0.725E-03    0.641E-03
DAV:   5    -0.842447876988E+03    0.12023E-06   -0.37623E-06  4400   0.377E-03
  69 F= -.85020123E+03 E0= -.85020123E+03  d E =-.581741E-04  mag=     0.0000
       N       E                     dE             d eps       ncg     rms          rms(c)
DAV:   1    -0.842447980096E+03   -0.10299E-03   -0.34541E-02  4240   0.315E-01    0.507E-02
DAV:   2    -0.842448020484E+03   -0.40388E-04   -0.60303E-04  4580   0.400E-02    0.393E-02
DAV:   3    -0.842448018802E+03    0.16824E-05   -0.21585E-05  4980   0.948E-03    0.258E-02
DAV:   4    -0.842448029681E+03   -0.10879E-04   -0.22771E-05  4320   0.953E-03    0.707E-03
DAV:   5    -0.842448029621E+03    0.60361E-07   -0.60269E-06  4660   0.452E-03
  70 F= -.85020134E+03 E0= -.85020134E+03  d E =-.113542E-03  mag=     0.0000
       N       E                     dE             d eps       ncg     rms          rms(c)
DAV:   1    -0.842448112414E+03   -0.82732E-04   -0.71425E-02  4240   0.466E-01    0.678E-02
DAV:   2    -0.842448199659E+03   -0.87245E-04   -0.14048E-03  4540   0.617E-02    0.546E-02
DAV:   3    -0.842448183349E+03    0.16309E-04   -0.48579E-05  5300   0.139E-02    0.389E-02
DAV:   4    -0.842448205458E+03   -0.22108E-04   -0.60526E-05  4340   0.157E-02    0.117E-02
DAV:   5    -0.842448208016E+03   -0.25583E-05   -0.13485E-05  4660   0.650E-03    0.622E-03
DAV:   6    -0.842448208257E+03   -0.24036E-06   -0.24721E-06  3640   0.285E-03
  71 F= -.85020146E+03 E0= -.85020146E+03  d E =-.114853E-03  mag=     0.0000
       N       E                     dE             d eps       ncg     rms          rms(c)
DAV:   1    -0.842448393981E+03   -0.18596E-03   -0.82886E-03  4300   0.187E-01    0.209E-02
DAV:   2    -0.842448409083E+03   -0.15102E-04   -0.21918E-04  4880   0.276E-02    0.192E-02
DAV:   3    -0.842448404898E+03    0.41841E-05   -0.96302E-06  5740   0.587E-03    0.149E-02
DAV:   4    -0.842448400653E+03    0.42456E-05   -0.93231E-06  4340   0.669E-03    0.598E-03
DAV:   5    -0.842448400547E+03    0.10624E-06   -0.27519E-06  3460   0.302E-03
  72 F= -.85020165E+03 E0= -.85020165E+03  d E =-.192418E-03  mag=     0.0000
       N       E                     dE             d eps       ncg     rms          rms(c)
DAV:   1    -0.842448318427E+03    0.82226E-04   -0.73127E-03  4300   0.176E-01    0.200E-02
DAV:   2    -0.842448332253E+03   -0.13826E-04   -0.18993E-04  4900   0.257E-02    0.178E-02
DAV:   3    -0.842448328777E+03    0.34769E-05   -0.86410E-06  5680   0.560E-03    0.136E-02
DAV:   4    -0.842448325952E+03    0.28245E-05   -0.80435E-06  4280   0.616E-03    0.549E-03
DAV:   5    -0.842448325905E+03    0.46726E-07   -0.20150E-06  3440   0.263E-03
  73 F= -.85020157E+03 E0= -.85020157E+03  d E =0.801282E-04  mag=     0.0000
       N       E                     dE             d eps       ncg     rms          rms(c)
DAV:   1    -0.842448389961E+03   -0.64009E-04   -0.44130E-04  4280   0.428E-02    0.488E-03
DAV:   2    -0.842448390720E+03   -0.75846E-06   -0.12165E-05  4680   0.642E-03    0.455E-03
DAV:   3    -0.842448390462E+03    0.25781E-06   -0.42988E-07  2500   0.139E-03
  74 F= -.85020163E+03 E0= -.85020163E+03  d E =-.631302E-04  mag=     0.0000
       N       E                     dE             d eps       ncg     rms          rms(c)
DAV:   1    -0.842448464124E+03   -0.73404E-04   -0.13215E-03  4290   0.740E-02    0.894E-03
DAV:   2    -0.842448466254E+03   -0.21298E-05   -0.32290E-05  5020   0.105E-02    0.799E-03
DAV:   3    -0.842448465537E+03    0.71671E-06   -0.13132E-06  3380   0.240E-03
  75 F= -.85020171E+03 E0= -.85020171E+03  d E =-.723715E-04  mag=     0.0000
       N       E                     dE             d eps       ncg     rms          rms(c)
DAV:   1    -0.842448493556E+03   -0.27302E-04   -0.18849E-03  4290   0.878E-02    0.109E-02
DAV:   2    -0.842448496561E+03   -0.30051E-05   -0.44391E-05  4900   0.122E-02    0.959E-03
DAV:   3    -0.842448495634E+03    0.92621E-06   -0.18433E-06  3860   0.280E-03
  76 F= -.85020173E+03 E0= -.85020173E+03  d E =-.260713E-04  mag=     0.0000
       N       E                     dE             d eps       ncg     rms          rms(c)
DAV:   1    -0.842448498082E+03   -0.15213E-05   -0.62372E-06  4120   0.528E-03    0.223E-03
DAV:   2    -0.842448498099E+03   -0.16596E-07   -0.72972E-07  2430   0.163E-03
  77 F= -.85020174E+03 E0= -.85020173E+03  d E =-.227799E-05  mag=     0.0000
       N       E                     dE             d eps       ncg     rms          rms(c)
DAV:   1    -0.842448504631E+03   -0.65491E-05   -0.54229E-06  3960   0.458E-03    0.964E-04
DAV:   2    -0.842448504643E+03   -0.12202E-07   -0.14791E-07  2150   0.743E-04
  78 F= -.85020174E+03 E0= -.85020174E+03  d E =-.609685E-05  mag=     0.0000
       N       E                     dE             d eps       ncg     rms          rms(c)
DAV:   1    -0.842448515634E+03   -0.11003E-04   -0.12493E-05  4120   0.682E-03    0.112E-03
DAV:   2    -0.842448515648E+03   -0.13206E-07   -0.26909E-07  2230   0.985E-04
  79 F= -.85020175E+03 E0= -.85020175E+03  d E =-.101924E-04  mag=     0.0000
       N       E                     dE             d eps       ncg     rms          rms(c)
DAV:   1    -0.842448532074E+03   -0.16439E-04   -0.22820E-05  4200   0.881E-03    0.173E-03
DAV:   2    -0.842448532084E+03   -0.10063E-07   -0.43288E-07  2555   0.121E-03
  80 F= -.85020177E+03 E0= -.85020177E+03  d E =-.151327E-04  mag=     0.0000
       N       E                     dE             d eps       ncg     rms          rms(c)
DAV:   1    -0.842448555200E+03   -0.23127E-04   -0.38424E-05  4260   0.107E-02    0.230E-03
DAV:   2    -0.842448555212E+03   -0.11489E-07   -0.65149E-07  2860   0.138E-03
  81 F= -.85020179E+03 E0= -.85020179E+03  d E =-.211986E-04  mag=     0.0000
       N       E                     dE             d eps       ncg     rms          rms(c)
DAV:   1    -0.842448586655E+03   -0.31455E-04   -0.63868E-05  4240   0.129E-02    0.298E-03
DAV:   2    -0.842448586667E+03   -0.12064E-07   -0.10522E-06  3230   0.160E-03
  82 F= -.85020182E+03 E0= -.85020182E+03  d E =-.287536E-04  mag=     0.0000
       N       E                     dE             d eps       ncg     rms          rms(c)
DAV:   1    -0.842448633418E+03   -0.46763E-04   -0.13480E-04  4260   0.173E-02    0.420E-03
DAV:   2    -0.842448633444E+03   -0.25691E-07   -0.21499E-06  3210   0.208E-03
  83 F= -.85020186E+03 E0= -.85020186E+03  d E =-.426607E-04  mag=     0.0000
       N       E                     dE             d eps       ncg     rms          rms(c)
DAV:   1    -0.842448699510E+03   -0.66092E-04   -0.26837E-04  4260   0.232E-02    0.596E-03
DAV:   2    -0.842448699540E+03   -0.30181E-07   -0.42412E-06  3530   0.268E-03
  84 F= -.85020192E+03 E0= -.85020192E+03  d E =-.601988E-04  mag=     0.0000
       N       E                     dE             d eps       ncg     rms          rms(c)
DAV:   1    -0.842448789973E+03   -0.90462E-04   -0.51083E-04  4240   0.308E-02    0.824E-03
DAV:   2    -0.842448789996E+03   -0.23596E-07   -0.80494E-06  3770   0.348E-03
  85 F= -.85020200E+03 E0= -.85020200E+03  d E =-.823090E-04  mag=     0.0000
       N       E                     dE             d eps       ncg     rms          rms(c)
DAV:   1    -0.842448910616E+03   -0.12064E-03   -0.93621E-04  4260   0.409E-02    0.112E-02
DAV:   2    -0.842448910618E+03   -0.19791E-08   -0.14847E-05  4110   0.456E-03    0.882E-03
DAV:   3    -0.842448911290E+03   -0.67232E-06   -0.44053E-07  3120   0.121E-03
  86 F= -.85020211E+03 E0= -.85020211E+03  d E =-.110418E-03  mag=     0.0000
       N       E                     dE             d eps       ncg     rms          rms(c)
DAV:   1    -0.842449068233E+03   -0.15762E-03   -0.16422E-03  4240   0.540E-02    0.103E-02
DAV:   2    -0.842449069637E+03   -0.14039E-05   -0.27044E-05  4260   0.601E-03    0.774E-03
DAV:   3    -0.842449069531E+03    0.10582E-06   -0.29539E-07  3420   0.963E-04
  87 F= -.85020226E+03 E0= -.85020226E+03  d E =-.144078E-03  mag=     0.0000
       N       E                     dE             d eps       ncg     rms          rms(c)
DAV:   1    -0.842449267011E+03   -0.19737E-03   -0.27683E-03  4260   0.700E-02    0.131E-02
DAV:   2    -0.842449269446E+03   -0.24354E-05   -0.46365E-05  4340   0.783E-03    0.981E-03
DAV:   3    -0.842449269157E+03    0.28888E-06   -0.53969E-07  3680   0.127E-03
  88 F= -.85020244E+03 E0= -.85020244E+03  d E =-.181548E-03  mag=     0.0000
       N       E                     dE             d eps       ncg     rms          rms(c)
DAV:   1    -0.842449513126E+03   -0.24368E-03   -0.44362E-03  4240   0.884E-02    0.166E-02
DAV:   2    -0.842449516857E+03   -0.37306E-05   -0.74659E-05  4360   0.990E-03    0.124E-02
DAV:   3    -0.842449516382E+03    0.47501E-06   -0.91233E-07  3820   0.163E-03
  89 F= -.85020266E+03 E0= -.85020266E+03  d E =-.224447E-03  mag=     0.0000
       N       E                     dE             d eps       ncg     rms          rms(c)
DAV:   1    -0.842449810513E+03   -0.29366E-03   -0.66835E-03  4260   0.108E-01    0.206E-02
DAV:   2    -0.842449815742E+03   -0.52288E-05   -0.11243E-04  4420   0.121E-02    0.152E-02
DAV:   3    -0.842449815155E+03    0.58731E-06   -0.14231E-06  3880   0.201E-03
  90 F= -.85020293E+03 E0= -.85020293E+03  d E =-.270733E-03  mag=     0.0000
       N       E                     dE             d eps       ncg     rms          rms(c)
DAV:   1    -0.842450161881E+03   -0.34614E-03   -0.91301E-03  4240   0.127E-01    0.244E-02
DAV:   2    -0.842450168650E+03   -0.67688E-05   -0.15221E-04  4340   0.141E-02    0.180E-02
DAV:   3    -0.842450167985E+03    0.66420E-06   -0.19776E-06  3880   0.239E-03
  91 F= -.85020325E+03 E0= -.85020325E+03  d E =-.319983E-03  mag=     0.0000
       N       E                     dE             d eps       ncg     rms          rms(c)
DAV:   1    -0.842450562109E+03   -0.39346E-03   -0.11466E-02  4260   0.144E-01    0.275E-02
DAV:   2    -0.842450570354E+03   -0.82450E-05   -0.18954E-04  4400   0.161E-02    0.205E-02
DAV:   3    -0.842450569642E+03    0.71264E-06   -0.24534E-06  4000   0.270E-03
  92 F= -.85020362E+03 E0= -.85020362E+03  d E =-.364457E-03  mag=     0.0000
       N       E                     dE             d eps       ncg     rms          rms(c)
DAV:   1    -0.842450992521E+03   -0.42217E-03   -0.12988E-02  4240   0.155E-01    0.293E-02
DAV:   2    -0.842451001796E+03   -0.92755E-05   -0.21453E-04  4360   0.174E-02    0.220E-02
DAV:   3    -0.842451000998E+03    0.79841E-06   -0.27023E-06  4040   0.288E-03
  93 F= -.85020401E+03 E0= -.85020401E+03  d E =-.391205E-03  mag=     0.0000
       N       E                     dE             d eps       ncg     rms          rms(c)
DAV:   1    -0.842451011708E+03   -0.99119E-05   -0.96628E-06  3910   0.528E-03    0.257E-03
DAV:   2    -0.842451011632E+03    0.76019E-07   -0.11824E-06  3520   0.173E-03
  94 F= -.85020402E+03 E0= -.85020402E+03  d E =-.106784E-04  mag=     0.0000
       N       E                     dE             d eps       ncg     rms          rms(c)
DAV:   1    -0.842451009810E+03    0.18983E-05   -0.73157E-06  4240   0.529E-03    0.129E-03
DAV:   2    -0.842451009834E+03   -0.23938E-07   -0.18515E-07  2340   0.841E-04
  95 F= -.85020402E+03 E0= -.85020402E+03  d E =0.173084E-05  mag=     0.0000
       N       E                     dE             d eps       ncg     rms          rms(c)
DAV:   1    -0.842451008073E+03    0.17373E-05   -0.13100E-05  4200   0.703E-03    0.122E-03
DAV:   2    -0.842451008090E+03   -0.16895E-07   -0.22837E-07  2300   0.957E-04
  96 F= -.85020402E+03 E0= -.85020402E+03  d E =0.171508E-05  mag=     0.0000
       N       E                     dE             d eps       ncg     rms          rms(c)
DAV:   1    -0.842451007715E+03    0.35758E-06   -0.17756E-05  4165   0.801E-03    0.152E-03
DAV:   2    -0.842451007728E+03   -0.12515E-07   -0.27029E-07  2290   0.104E-03
  97 F= -.85020402E+03 E0= -.85020402E+03  d E =0.554635E-06  mag=     0.0000
       N       E                     dE             d eps       ncg     rms          rms(c)
DAV:   1    -0.842451010693E+03   -0.29782E-05   -0.21460E-05  4200   0.855E-03    0.161E-03
DAV:   2    -0.842451010708E+03   -0.14581E-07   -0.28915E-07  2600   0.105E-03
  98 F= -.85020402E+03 E0= -.85020402E+03  d E =-.241264E-05  mag=     0.0000
       N       E                     dE             d eps       ncg     rms          rms(c)
DAV:   1    -0.842451018941E+03   -0.82476E-05   -0.27245E-05  4190   0.926E-03    0.180E-03
DAV:   2    -0.842451018953E+03   -0.12551E-07   -0.35406E-07  2860   0.111E-03
  99 F= -.85020403E+03 E0= -.85020402E+03  d E =-.717711E-05  mag=     0.0000
       N       E                     dE             d eps       ncg     rms          rms(c)
DAV:   1    -0.842451036367E+03   -0.17426E-04   -0.47563E-05  4240   0.116E-02    0.234E-03
DAV:   2    -0.842451036386E+03   -0.18714E-07   -0.63439E-07  3030   0.136E-03
 100 F= -.85020404E+03 E0= -.85020404E+03  d E =-.155351E-04  mag=     0.0000
       N       E                     dE             d eps       ncg     rms          rms(c)
DAV:   1    -0.842451065187E+03   -0.28820E-04   -0.91037E-05  4240   0.153E-02    0.334E-03
DAV:   2    -0.842451065220E+03   -0.33011E-07   -0.13449E-06  3220   0.180E-03
 101 F= -.85020407E+03 E0= -.85020407E+03  d E =-.258950E-04  mag=    -0.0000
       N       E                     dE             d eps       ncg     rms          rms(c)
DAV:   1    -0.842451107938E+03   -0.42751E-04   -0.17683E-04  4240   0.207E-02    0.480E-03
DAV:   2    -0.842451107972E+03   -0.34393E-07   -0.28059E-06  3390   0.247E-03
 102 F= -.85020411E+03 E0= -.85020410E+03  d E =-.384712E-04  mag=     0.0000
       N       E                     dE             d eps       ncg     rms          rms(c)
DAV:   1    -0.842451167800E+03   -0.59862E-04   -0.33823E-04  4240   0.277E-02    0.674E-03
DAV:   2    -0.842451167819E+03   -0.18961E-07   -0.56475E-06  3820   0.330E-03
 103 F= -.85020416E+03 E0= -.85020416E+03  d E =-.538970E-04  mag=     0.0000
       N       E                     dE             d eps       ncg     rms          rms(c)
DAV:   1    -0.842451248415E+03   -0.80616E-04   -0.62462E-04  4240   0.364E-02    0.925E-03
DAV:   2    -0.842451248406E+03    0.96770E-08   -0.10649E-05  4240   0.429E-03    0.723E-03
DAV:   3    -0.842451248882E+03   -0.47658E-06   -0.34722E-07  3080   0.116E-03
 104 F= -.85020423E+03 E0= -.85020423E+03  d E =-.727815E-04  mag=     0.0000
       N       E                     dE             d eps       ncg     rms          rms(c)
DAV:   1    -0.842451353983E+03   -0.10558E-03   -0.10922E-03  4240   0.471E-02    0.877E-03
DAV:   2    -0.842451354909E+03   -0.92560E-06   -0.19178E-05  4240   0.550E-03    0.645E-03
DAV:   3    -0.842451354912E+03   -0.31432E-08   -0.27094E-07  3430   0.989E-04
 105 F= -.85020433E+03 E0= -.85020433E+03  d E =-.947978E-04  mag=     0.0000
       N       E                     dE             d eps       ncg     rms          rms(c)
DAV:   1    -0.842451487353E+03   -0.13244E-03   -0.18148E-03  4240   0.602E-02    0.112E-02
DAV:   2    -0.842451488910E+03   -0.15573E-05   -0.32325E-05  4260   0.705E-03    0.823E-03
DAV:   3    -0.842451488815E+03    0.95424E-07   -0.47046E-07  3650   0.127E-03
 106 F= -.85020445E+03 E0= -.85020445E+03  d E =-.119523E-03  mag=     0.0000
       N       E                     dE             d eps       ncg     rms          rms(c)
DAV:   1    -0.842451650630E+03   -0.16172E-03   -0.27112E-03  4240   0.741E-02    0.138E-02
DAV:   2    -0.842451652785E+03   -0.21547E-05   -0.47632E-05  4320   0.867E-03    0.102E-02
DAV:   3    -0.842451652700E+03    0.85602E-07   -0.69319E-07  3660   0.157E-03
 107 F= -.85020459E+03 E0= -.85020459E+03  d E =-.146582E-03  mag=     0.0000
       N       E                     dE             d eps       ncg     rms          rms(c)
DAV:   1    -0.842451846079E+03   -0.19329E-03   -0.37544E-03  4240   0.888E-02    0.163E-02
DAV:   2    -0.842451848980E+03   -0.29005E-05   -0.64783E-05  4340   0.104E-02    0.121E-02
DAV:   3    -0.842451848884E+03    0.95810E-07   -0.93871E-07  3740   0.185E-03
 108 F= -.85020477E+03 E0= -.85020477E+03  d E =-.175885E-03  mag=     0.0000
       N       E                     dE             d eps       ncg     rms          rms(c)
DAV:   1    -0.842452073475E+03   -0.22450E-03   -0.51574E-03  4240   0.106E-01    0.192E-02
DAV:   2    -0.842452077447E+03   -0.39720E-05   -0.87931E-05  4380   0.124E-02    0.144E-02
DAV:   3    -0.842452077353E+03    0.94835E-07   -0.13299E-06  3800   0.225E-03
 109 F= -.85020497E+03 E0= -.85020497E+03  d E =-.204752E-03  mag=     0.0000
       N       E                     dE             d eps       ncg     rms          rms(c)
DAV:   1    -0.842452330612E+03   -0.25316E-03   -0.77585E-03  4240   0.132E-01    0.233E-02
DAV:   2    -0.842452336882E+03   -0.62699E-05   -0.13479E-04  4360   0.156E-02    0.173E-02
DAV:   3    -0.842452336622E+03    0.26009E-06   -0.21779E-06  4130   0.284E-03
 110 F= -.85020520E+03 E0= -.85020520E+03  d E =-.230896E-03  mag=     0.0000
       N       E                     dE             d eps       ncg     rms          rms(c)
DAV:   1    -0.842452619320E+03   -0.28244E-03   -0.11286E-02  4240   0.162E-01    0.281E-02
DAV:   2    -0.842452628417E+03   -0.90973E-05   -0.19703E-04  4380   0.192E-02    0.208E-02
DAV:   3    -0.842452628255E+03    0.16265E-06   -0.35161E-06  4310   0.360E-03
 111 F= -.85020546E+03 E0= -.85020546E+03  d E =-.258385E-03  mag=     0.0000
       N       E                     dE             d eps       ncg     rms          rms(c)
DAV:   1    -0.842452939761E+03   -0.31134E-03   -0.15968E-02  4240   0.196E-01    0.338E-02
DAV:   2    -0.842452953043E+03   -0.13282E-04   -0.27825E-04  4380   0.233E-02    0.249E-02
DAV:   3    -0.842452953017E+03    0.26099E-07   -0.54249E-06  4620   0.454E-03
 112 F= -.85020575E+03 E0= -.85020575E+03  d E =-.289243E-03  mag=     0.0000
       N       E                     dE             d eps       ncg     rms          rms(c)
DAV:   1    -0.842453304706E+03   -0.35166E-03   -0.22235E-02  4260   0.237E-01    0.397E-02
DAV:   2    -0.842453323777E+03   -0.19071E-04   -0.38548E-04  4400   0.283E-02    0.297E-02
DAV:   3    -0.842453323372E+03    0.40502E-06   -0.77783E-06  4780   0.556E-03
 113 F= -.85020608E+03 E0= -.85020608E+03  d E =-.328301E-03  mag=     0.0000
       N       E                     dE             d eps       ncg     rms          rms(c)
DAV:   1    -0.842453730227E+03   -0.40645E-03   -0.31763E-02  4260   0.285E-01    0.473E-02
DAV:   2    -0.842453759112E+03   -0.28885E-04   -0.55221E-04  4340   0.343E-02    0.356E-02
DAV:   3    -0.842453757989E+03    0.11230E-05   -0.11778E-05  5100   0.688E-03    0.247E-02
DAV:   4    -0.842453779607E+03   -0.21618E-04   -0.20112E-05  4280   0.840E-03    0.536E-03
DAV:   5    -0.842453779540E+03    0.66822E-07   -0.43586E-06  4560   0.383E-03
 114 F= -.85020649E+03 E0= -.85020649E+03  d E =-.407062E-03  mag=    -0.0000
       N       E                     dE             d eps       ncg     rms          rms(c)
DAV:   1    -0.842454245682E+03   -0.46608E-03   -0.44734E-02  4260   0.339E-01    0.554E-02
DAV:   2    -0.842454295531E+03   -0.49849E-04   -0.82783E-04  4380   0.422E-02    0.411E-02
DAV:   3    -0.842454289900E+03    0.56308E-05   -0.17710E-05  4980   0.849E-03    0.286E-02
DAV:   4    -0.842454312531E+03   -0.22630E-04   -0.29638E-05  4300   0.104E-02    0.631E-03
DAV:   5    -0.842454312537E+03   -0.66284E-08   -0.65275E-06  4680   0.469E-03
 115 F= -.85020696E+03 E0= -.85020696E+03  d E =-.472055E-03  mag=     0.0000
       N       E                     dE             d eps       ncg     rms          rms(c)
DAV:   1    -0.842454844367E+03   -0.53184E-03   -0.81795E-02  4260   0.442E-01    0.704E-02
DAV:   2    -0.842454952368E+03   -0.10800E-03   -0.16527E-03  4450   0.561E-02    0.532E-02
DAV:   3    -0.842454935571E+03    0.16797E-04   -0.29773E-05  5160   0.104E-02    0.391E-02
DAV:   4    -0.842454971824E+03   -0.36253E-04   -0.69225E-05  4430   0.148E-02    0.870E-03
DAV:   5    -0.842454973712E+03   -0.18882E-05   -0.13174E-05  4750   0.599E-03    0.579E-03
DAV:   6    -0.842454974405E+03   -0.69302E-06   -0.27285E-06  3800   0.299E-03
 116 F= -.85020755E+03 E0= -.85020755E+03  d E =-.588635E-03  mag=    -0.0000
       N       E                     dE             d eps       ncg     rms          rms(c)
DAV:   1    -0.842455423638E+03   -0.44993E-03   -0.79307E-02  4260   0.497E-01    0.745E-02
DAV:   2    -0.842455531665E+03   -0.10803E-03   -0.16042E-03  4550   0.653E-02    0.594E-02
DAV:   3    -0.842455511763E+03    0.19902E-04   -0.52538E-05  5140   0.146E-02    0.416E-02
DAV:   4    -0.842455534013E+03   -0.22250E-04   -0.68377E-05  4370   0.170E-02    0.127E-02
DAV:   5    -0.842455534650E+03   -0.63741E-06   -0.16781E-05  4640   0.781E-03    0.608E-03
DAV:   6    -0.842455535004E+03   -0.35394E-06   -0.37059E-06  3980   0.338E-03
 117 F= -.85020804E+03 E0= -.85020804E+03  d E =-.489750E-03  mag=    -0.0000
       N       E                     dE             d eps       ncg     rms          rms(c)
DAV:   1    -0.842455708339E+03   -0.17369E-03   -0.98676E-03  4550   0.190E-01    0.223E-02
DAV:   2    -0.842455726832E+03   -0.18492E-04   -0.28323E-04  4490   0.279E-02    0.209E-02
DAV:   3    -0.842455721836E+03    0.49959E-05   -0.78158E-06  5320   0.524E-03    0.172E-02
DAV:   4    -0.842455719375E+03    0.24604E-05   -0.11782E-05  4170   0.711E-03    0.684E-03
DAV:   5    -0.842455720126E+03   -0.75067E-06   -0.40285E-06  3940   0.336E-03
 118 F= -.85020822E+03 E0= -.85020822E+03  d E =-.186121E-03  mag=     0.0000
       N       E                     dE             d eps       ncg     rms          rms(c)
DAV:   1    -0.842455547278E+03    0.17210E-03   -0.93574E-03  4580   0.186E-01    0.222E-02
DAV:   2    -0.842455565021E+03   -0.17744E-04   -0.26432E-04  4520   0.271E-02    0.200E-02
DAV:   3    -0.842455560559E+03    0.44621E-05   -0.78335E-06  5420   0.531E-03    0.161E-02
DAV:   4    -0.842455559315E+03    0.12439E-05   -0.10085E-05  4190   0.661E-03    0.652E-03
DAV:   5    -0.842455560095E+03   -0.77922E-06   -0.31738E-06  3720   0.305E-03
 119 F= -.85020806E+03 E0= -.85020806E+03  d E =0.160754E-03  mag=     0.0000
       N       E                     dE             d eps       ncg     rms          rms(c)
DAV:   1    -0.842455626330E+03   -0.67015E-04   -0.50184E-04  4580   0.424E-02    0.501E-03
DAV:   2    -0.842455627253E+03   -0.92277E-06   -0.14743E-05  4360   0.626E-03    0.483E-03
DAV:   3    -0.842455626964E+03    0.28826E-06   -0.32149E-07  3200   0.119E-03
 120 F= -.85020813E+03 E0= -.85020813E+03  d E =-.668654E-04  mag=    -0.0000
       N       E                     dE             d eps       ncg     rms          rms(c)
DAV:   1    -0.842455698921E+03   -0.71669E-04   -0.15190E-03  4620   0.736E-02    0.935E-03
DAV:   2    -0.842455701233E+03   -0.23119E-05   -0.39683E-05  4490   0.103E-02    0.859E-03
DAV:   3    -0.842455700463E+03    0.77045E-06   -0.96485E-07  3680   0.203E-03
 121 F= -.85020820E+03 E0= -.85020820E+03  d E =-.735337E-04  mag=    -0.0000
       N       E                     dE             d eps       ncg     rms          rms(c)
DAV:   1    -0.842455712326E+03   -0.11093E-04   -0.21639E-03  4620   0.879E-02    0.115E-02
DAV:   2    -0.842455715506E+03   -0.31798E-05   -0.54819E-05  4600   0.121E-02    0.104E-02
DAV:   3    -0.842455714463E+03    0.10430E-05   -0.12291E-06  3740   0.232E-03    0.842E-03
DAV:   4    -0.842455714704E+03   -0.24143E-06   -0.48871E-06  4040   0.441E-03
 122 F= -.85020822E+03 E0= -.85020822E+03  d E =-.143741E-04  mag=     0.0000
       N       E                     dE             d eps       ncg     rms          rms(c)
DAV:   1    -0.842455715275E+03   -0.81197E-06   -0.16476E-06  3170   0.241E-03    0.148E-03
DAV:   2    -0.842455715314E+03   -0.39436E-07   -0.11434E-07  2180   0.710E-04
 123 F= -.85020822E+03 E0= -.85020822E+03  d E =-.621266E-06  mag=     0.0000
       N       E                     dE             d eps       ncg     rms          rms(c)
DAV:   1    -0.842455716100E+03   -0.82490E-06   -0.42276E-06  3800   0.402E-03    0.581E-04
DAV:   2    -0.842455716115E+03   -0.15301E-07   -0.11687E-07  2180   0.654E-04
 124 F= -.85020822E+03 E0= -.85020822E+03  d E =-.849968E-06  mag=    -0.0000
       N       E                     dE             d eps       ncg     rms          rms(c)
DAV:   1    -0.842455716365E+03   -0.26519E-06   -0.83601E-06  4310   0.565E-03    0.946E-04
DAV:   2    -0.842455716378E+03   -0.13599E-07   -0.23457E-07  2310   0.892E-04
 125 F= -.85020822E+03 E0= -.85020822E+03  d E =-.370835E-06  mag=    -0.0000
       N       E                     dE             d eps       ncg     rms          rms(c)
DAV:   1    -0.842455715589E+03    0.77601E-06   -0.12357E-05  4480   0.689E-03    0.138E-03
DAV:   2    -0.842455715595E+03   -0.65702E-08   -0.31504E-07  2350   0.104E-03
 126 F= -.85020822E+03 E0= -.85020822E+03  d E =0.592888E-06  mag=    -0.0000
       N       E                     dE             d eps       ncg     rms          rms(c)
DAV:   1    -0.842455713084E+03    0.25050E-05   -0.15114E-05  4500   0.765E-03    0.159E-03
DAV:   2    -0.842455713092E+03   -0.80036E-08   -0.33618E-07  2410   0.109E-03
 127 F= -.85020822E+03 E0= -.85020822E+03  d E =0.220316E-05  mag=    -0.0000
       N       E                     dE             d eps       ncg     rms          rms(c)
DAV:   1    -0.842455708303E+03    0.47810E-05   -0.16270E-05  4480   0.791E-03    0.165E-03
DAV:   2    -0.842455708315E+03   -0.11962E-07   -0.33013E-07  2580   0.110E-03
 128 F= -.85020821E+03 E0= -.85020821E+03  d E =0.434513E-05  mag=    -0.0000
       N       E                     dE             d eps       ncg     rms          rms(c)
DAV:   1    -0.842455700161E+03    0.81419E-05   -0.20291E-05  4320   0.872E-03    0.175E-03
DAV:   2    -0.842455700179E+03   -0.17979E-07   -0.35863E-07  2770   0.116E-03
 129 F= -.85020821E+03 E0= -.85020820E+03  d E =0.747228E-05  mag=    -0.0000
       N       E                     dE             d eps       ncg     rms          rms(c)
DAV:   1    -0.842455687901E+03    0.12260E-04   -0.26485E-05  4220   0.960E-03    0.191E-03
DAV:   2    -0.842455687918E+03   -0.17470E-07   -0.36856E-07  2910   0.119E-03
 130 F= -.85020819E+03 E0= -.85020819E+03  d E =0.112968E-04  mag=    -0.0000
       N       E                     dE             d eps       ncg     rms          rms(c)
DAV:   1    -0.842455670936E+03    0.16965E-04   -0.40368E-05  4260   0.112E-02    0.207E-03
DAV:   2    -0.842455670956E+03   -0.20569E-07   -0.47357E-07  2910   0.127E-03
 131 F= -.85020818E+03 E0= -.85020818E+03  d E =0.156482E-04  mag=     0.0000
       N       E                     dE             d eps       ncg     rms          rms(c)
DAV:   1    -0.842455648704E+03    0.22231E-04   -0.72837E-05  4240   0.142E-02    0.268E-03
DAV:   2    -0.842455648728E+03   -0.23538E-07   -0.90878E-07  2980   0.160E-03
 132 F= -.85020816E+03 E0= -.85020816E+03  d E =0.204727E-04  mag=    -0.0000
       N       E                     dE             d eps       ncg     rms          rms(c)
DAV:   1    -0.842455620149E+03    0.28556E-04   -0.13820E-04  4240   0.190E-02    0.375E-03
DAV:   2    -0.842455620173E+03   -0.23982E-07   -0.20050E-06  3170   0.220E-03
 133 F= -.85020813E+03 E0= -.85020813E+03  d E =0.262787E-04  mag=    -0.0000
       N       E                     dE             d eps       ncg     rms          rms(c)
DAV:   1    -0.842455583224E+03    0.36925E-04   -0.24786E-04  4260   0.252E-02    0.521E-03
DAV:   2    -0.842455583239E+03   -0.14836E-07   -0.39260E-06  3820   0.295E-03
 134 F= -.85020810E+03 E0= -.85020810E+03  d E =0.339253E-04  mag=    -0.0000
       N       E                     dE             d eps       ncg     rms          rms(c)
DAV:   1    -0.842455536685E+03    0.46539E-04   -0.39366E-04  4280   0.316E-02    0.686E-03
DAV:   2    -0.842455536644E+03    0.41939E-07   -0.61493E-06  4210   0.365E-03
 135 F= -.85020805E+03 E0= -.85020805E+03  d E =0.427542E-04  mag=    -0.0000
       N       E                     dE             d eps       ncg     rms          rms(c)
DAV:   1    -0.842455480638E+03    0.56048E-04   -0.54711E-04  4280   0.375E-02    0.841E-03
DAV:   2    -0.842455480491E+03    0.14656E-06   -0.79333E-06  4290   0.425E-03
 136 F= -.85020800E+03 E0= -.85020800E+03  d E =0.513827E-04  mag=    -0.0000
       N       E                     dE             d eps       ncg     rms          rms(c)
DAV:   1    -0.842455418151E+03    0.62487E-04   -0.68218E-04  4260   0.429E-02    0.960E-03
DAV:   2    -0.842455417942E+03    0.20851E-06   -0.88296E-06  4370   0.478E-03
 137 F= -.85020795E+03 E0= -.85020795E+03  d E =0.570795E-04  mag=    -0.0000
       N       E                     dE             d eps       ncg     rms          rms(c)
DAV:   1    -0.842455355048E+03    0.63103E-04   -0.80649E-04  4260   0.486E-02    0.103E-02
DAV:   2    -0.842455354981E+03    0.67084E-07   -0.95735E-06  4630   0.538E-03
 138 F= -.85020789E+03 E0= -.85020789E+03  d E =0.576822E-04  mag=    -0.0000
       N       E                     dE             d eps       ncg     rms          rms(c)
DAV:   1    -0.842455297831E+03    0.57217E-04   -0.10442E-03  4260   0.569E-02    0.110E-02
DAV:   2    -0.842455298087E+03   -0.25587E-06   -0.12382E-05  4630   0.631E-03    0.908E-03
DAV:   3    -0.842455299019E+03   -0.93171E-06   -0.14465E-06  3350   0.257E-03
 139 F= -.85020784E+03 E0= -.85020784E+03  d E =0.513349E-04  mag=    -0.0000
       N       E                     dE             d eps       ncg     rms          rms(c)
DAV:   1    -0.842455258243E+03    0.39844E-04   -0.14573E-03  4280   0.671E-02    0.975E-03
DAV:   2    -0.842455259357E+03   -0.11144E-05   -0.18753E-05  4560   0.765E-03    0.810E-03
DAV:   3    -0.842455259588E+03   -0.23061E-06   -0.83352E-07  3320   0.204E-03
 140 F= -.85020780E+03 E0= -.85020780E+03  d E =0.372738E-04  mag=    -0.0000
       N       E                     dE             d eps       ncg     rms          rms(c)
DAV:   1    -0.842455250883E+03    0.84742E-05   -0.20742E-03  4260   0.803E-02    0.115E-02
DAV:   2    -0.842455252693E+03   -0.18102E-05   -0.29238E-05  4505   0.930E-03    0.944E-03
DAV:   3    -0.842455252764E+03   -0.71443E-07   -0.10835E-06  3650   0.228E-03
 141 F= -.85020779E+03 E0= -.85020779E+03  d E =0.807647E-05  mag=    -0.0000
       N       E                     dE             d eps       ncg     rms          rms(c)
DAV:   1    -0.842455288838E+03   -0.36145E-04   -0.29212E-03  4240   0.957E-02    0.140E-02
DAV:   2    -0.842455291462E+03   -0.26242E-05   -0.42620E-05  4490   0.112E-02    0.112E-02
DAV:   3    -0.842455291540E+03   -0.78580E-07   -0.15384E-06  3800   0.268E-03
 142 F= -.85020783E+03 E0= -.85020783E+03  d E =-.341470E-04  mag=    -0.0000
       N       E                     dE             d eps       ncg     rms          rms(c)
DAV:   1    -0.842455389342E+03   -0.97880E-04   -0.44078E-03  4260   0.117E-01    0.173E-02
DAV:   2    -0.842455393150E+03   -0.38080E-05   -0.66076E-05  4440   0.137E-02    0.137E-02
DAV:   3    -0.842455393241E+03   -0.91553E-07   -0.21653E-06  4170   0.313E-03
 143 F= -.85020792E+03 E0= -.85020792E+03  d E =-.920568E-04  mag=    -0.0000
       N       E                     dE             d eps       ncg     rms          rms(c)
DAV:   1    -0.842455568093E+03   -0.17494E-03   -0.75291E-03  4260   0.148E-01    0.225E-02
DAV:   2    -0.842455574541E+03   -0.64473E-05   -0.12201E-04  4400   0.175E-02    0.173E-02
DAV:   3    -0.842455574492E+03    0.48523E-07   -0.31640E-06  4460   0.367E-03
 144 F= -.85020808E+03 E0= -.85020808E+03  d E =-.164084E-03  mag=    -0.0000
       N       E                     dE             d eps       ncg     rms          rms(c)
DAV:   1    -0.842455841303E+03   -0.26676E-03   -0.12062E-02  4260   0.184E-01    0.288E-02
DAV:   2    -0.842455851029E+03   -0.97262E-05   -0.19414E-04  4380   0.217E-02    0.219E-02
DAV:   3    -0.842455851127E+03   -0.97672E-07   -0.49530E-06  4580   0.455E-03
 145 F= -.85020833E+03 E0= -.85020833E+03  d E =-.249272E-03  mag=    -0.0000
       N       E                     dE             d eps       ncg     rms          rms(c)
DAV:   1    -0.842456206418E+03   -0.35539E-03   -0.18444E-02  4260   0.228E-01    0.359E-02
DAV:   2    -0.842456221291E+03   -0.14873E-04   -0.29800E-04  4440   0.269E-02    0.274E-02
DAV:   3    -0.842456220880E+03    0.41088E-06   -0.76165E-06  4720   0.570E-03
 146 F= -.85020867E+03 E0= -.85020867E+03  d E =-.337931E-03  mag=    -0.0000
       N       E                     dE             d eps       ncg     rms          rms(c)
DAV:   1    -0.842456644997E+03   -0.42371E-03   -0.28875E-02  4260   0.280E-01    0.442E-02
DAV:   2    -0.842456669809E+03   -0.24813E-04   -0.48955E-04  4420   0.333E-02    0.337E-02
DAV:   3    -0.842456667694E+03    0.21153E-05   -0.11583E-05  5060   0.684E-03    0.232E-02
DAV:   4    -0.842456684963E+03   -0.17269E-04   -0.17947E-05  4260   0.805E-03    0.498E-03
DAV:   5    -0.842456685291E+03   -0.32750E-06   -0.41443E-06  4540   0.355E-03
 147 F= -.85020910E+03 E0= -.85020910E+03  d E =-.427055E-03  mag=    -0.0000
       N       E                     dE             d eps       ncg     rms          rms(c)
DAV:   1    -0.842457143117E+03   -0.45815E-03   -0.33356E-02  4240   0.307E-01    0.474E-02
DAV:   2    -0.842457175395E+03   -0.32278E-04   -0.57622E-04  4410   0.379E-02    0.366E-02
DAV:   3    -0.842457170349E+03    0.50456E-05   -0.15658E-05  4940   0.823E-03    0.247E-02
DAV:   4    -0.842457185817E+03   -0.15468E-04   -0.24550E-05  4280   0.957E-03    0.611E-03
DAV:   5    -0.842457185627E+03    0.18973E-06   -0.65086E-06  4680   0.482E-03
 148 F= -.85020955E+03 E0= -.85020955E+03  d E =-.456403E-03  mag=    -0.0000
       N       E                     dE             d eps       ncg     rms          rms(c)
DAV:   1    -0.842457615742E+03   -0.42993E-03   -0.48738E-02  4240   0.373E-01    0.554E-02
DAV:   2    -0.842457669302E+03   -0.53560E-04   -0.90818E-04  4500   0.472E-02    0.432E-02
DAV:   3    -0.842457659263E+03    0.10039E-04   -0.23870E-05  5140   0.996E-03    0.303E-02
DAV:   4    -0.842457679683E+03   -0.20420E-04   -0.39471E-05  4380   0.122E-02    0.767E-03
DAV:   5    -0.842457680611E+03   -0.92812E-06   -0.88891E-06  4680   0.532E-03
 149 F= -.85021000E+03 E0= -.85021000E+03  d E =-.445307E-03  mag=     0.0000
       N       E                     dE             d eps       ncg     rms          rms(c)
DAV:   1    -0.842457683168E+03   -0.34849E-05   -0.13613E-03  4370   0.727E-02    0.828E-03
DAV:   2    -0.842457685485E+03   -0.23170E-05   -0.35101E-05  4610   0.105E-02    0.762E-03
DAV:   3    -0.842457684766E+03    0.71902E-06   -0.10878E-06  3600   0.217E-03
 150 F= -.85021001E+03 E0= -.85021001E+03  d E =-.825029E-05  mag=    -0.0000
       N       E                     dE             d eps       ncg     rms          rms(c)
DAV:   1    -0.842457607561E+03    0.77924E-04   -0.21887E-03  4270   0.901E-02    0.116E-02
DAV:   2    -0.842457610312E+03   -0.27509E-05   -0.50194E-05  4630   0.124E-02    0.102E-02
DAV:   3    -0.842457609245E+03    0.10669E-05   -0.17033E-06  3940   0.272E-03    0.781E-03
DAV:   4    -0.842457609647E+03   -0.40139E-06   -0.45323E-06  4030   0.429E-03
 151 F= -.85020994E+03 E0= -.85020994E+03  d E =0.682541E-04  mag=    -0.0000
       N       E                     dE             d eps       ncg     rms          rms(c)
DAV:   1    -0.842457613924E+03   -0.46792E-05   -0.48542E-05  4340   0.141E-02    0.170E-03
DAV:   2    -0.842457614050E+03   -0.12555E-06   -0.12135E-06  2920   0.212E-03
 152 F= -.85020994E+03 E0= -.85020994E+03  d E =-.436159E-05  mag=    -0.0000
       N       E                     dE             d eps       ncg     rms          rms(c)
DAV:   1    -0.842457615565E+03   -0.16405E-05   -0.16063E-04  4470   0.256E-02    0.349E-03
DAV:   2    -0.842457615784E+03   -0.21930E-06   -0.41689E-06  4200   0.379E-03
 153 F= -.85020994E+03 E0= -.85020994E+03  d E =-.186063E-05  mag=    -0.0000
       N       E                     dE             d eps       ncg     rms          rms(c)
DAV:   1    -0.842457605946E+03    0.96184E-05   -0.23631E-04  4450   0.312E-02    0.557E-03
DAV:   2    -0.842457606076E+03   -0.12982E-06   -0.58356E-06  4740   0.450E-03
 154 F= -.85020993E+03 E0= -.85020993E+03  d E =0.939683E-05  mag=    -0.0000
       N       E                     dE             d eps       ncg     rms          rms(c)
DAV:   1    -0.842457583566E+03    0.22380E-04   -0.18331E-04  4380   0.274E-02    0.579E-03
DAV:   2    -0.842457583591E+03   -0.24695E-07   -0.37844E-06  4440   0.368E-03
 155 F= -.85020991E+03 E0= -.85020991E+03  d E =0.217924E-04  mag=    -0.0000
       N       E                     dE             d eps       ncg     rms          rms(c)
DAV:   1    -0.842457583080E+03    0.48616E-06   -0.25982E-06  3630   0.336E-03    0.211E-03
DAV:   2    -0.842457583102E+03   -0.22243E-07   -0.28523E-07  2260   0.995E-04
 156 F= -.85020991E+03 E0= -.85020991E+03  d E =0.416505E-06  mag=    -0.0000
       N       E                     dE             d eps       ncg     rms          rms(c)
DAV:   1    -0.842457582491E+03    0.58936E-06   -0.36990E-06  3710   0.379E-03    0.773E-04
DAV:   2    -0.842457582503E+03   -0.12893E-07   -0.11930E-07  2180   0.655E-04
 157 F= -.85020991E+03 E0= -.85020991E+03  d E =0.459959E-06  mag=    -0.0000
       N       E                     dE             d eps       ncg     rms          rms(c)
DAV:   1    -0.842457581386E+03    0.11048E-05   -0.73355E-06  4010   0.530E-03    0.823E-04
DAV:   2    -0.842457581397E+03   -0.10885E-07   -0.19284E-07  2230   0.825E-04
 158 F= -.85020991E+03 E0= -.85020991E+03  d E =0.911252E-06  mag=    -0.0000
       N       E                     dE             d eps       ncg     rms          rms(c)
DAV:   1    -0.842457579640E+03    0.17456E-05   -0.11507E-05  4230   0.659E-03    0.119E-03
DAV:   2    -0.842457579648E+03   -0.72978E-08   -0.28078E-07  2330   0.988E-04
 159 F= -.85020991E+03 E0= -.85020991E+03  d E =0.150868E-05  mag=    -0.0000
       N       E                     dE             d eps       ncg     rms          rms(c)
DAV:   1    -0.842457577152E+03    0.24879E-05   -0.15111E-05  4330   0.752E-03    0.144E-03
DAV:   2    -0.842457577158E+03   -0.60973E-08   -0.33546E-07  2310   0.108E-03
 160 F= -.85020991E+03 E0= -.85020991E+03  d E =0.217982E-05  mag=    -0.0000
       N       E                     dE             d eps       ncg     rms          rms(c)
DAV:   1    -0.842457573883E+03    0.32691E-05   -0.17503E-05  4400   0.804E-03    0.157E-03
DAV:   2    -0.842457573891E+03   -0.82291E-08   -0.36765E-07  2380   0.112E-03
 161 F= -.85020990E+03 E0= -.85020990E+03  d E =0.298319E-05  mag=    -0.0000
       N       E                     dE             d eps       ncg     rms          rms(c)
DAV:   1    -0.842457569548E+03    0.43352E-05   -0.22247E-05  4320   0.898E-03    0.173E-03
DAV:   2    -0.842457569560E+03   -0.11903E-07   -0.43861E-07  2550   0.122E-03
 162 F= -.85020990E+03 E0= -.85020990E+03  d E =0.403674E-05  mag=    -0.0000
       N       E                     dE             d eps       ncg     rms          rms(c)
DAV:   1    -0.842457564558E+03    0.49897E-05   -0.24610E-05  4245   0.930E-03    0.186E-03
DAV:   2    -0.842457564571E+03   -0.12304E-07   -0.44947E-07  2670   0.124E-03
 163 F= -.85020990E+03 E0= -.85020990E+03  d E =0.472932E-05  mag=    -0.0000
       N       E                     dE             d eps       ncg     rms          rms(c)
DAV:   1    -0.842457559666E+03    0.48922E-05   -0.24505E-05  4165   0.912E-03    0.188E-03
DAV:   2    -0.842457559675E+03   -0.90440E-08   -0.37053E-07  2615   0.114E-03
 164 F= -.85020989E+03 E0= -.85020989E+03  d E =0.473395E-05  mag=    -0.0000
       N       E                     dE             d eps       ncg     rms          rms(c)
DAV:   1    -0.842457556407E+03    0.32593E-05   -0.27653E-05  4220   0.959E-03    0.183E-03
DAV:   2    -0.842457556416E+03   -0.93933E-08   -0.32644E-07  2640   0.111E-03
 165 F= -.85020989E+03 E0= -.85020989E+03  d E =0.327151E-05  mag=    -0.0000
       N       E                     dE             d eps       ncg     rms          rms(c)
DAV:   1    -0.842457556140E+03    0.26738E-06   -0.41668E-05  4240   0.120E-02    0.198E-03
DAV:   2    -0.842457556159E+03   -0.19354E-07   -0.50329E-07  2890   0.138E-03
 166 F= -.85020989E+03 E0= -.85020989E+03  d E =0.562199E-06  mag=    -0.0000
       N       E                     dE             d eps       ncg     rms          rms(c)
DAV:   1    -0.842457560192E+03   -0.40523E-05   -0.73186E-05  4240   0.159E-02    0.267E-03
DAV:   2    -0.842457560225E+03   -0.32996E-07   -0.10454E-06  3060   0.193E-03
 167 F= -.85020989E+03 E0= -.85020989E+03  d E =-.330956E-05  mag=     0.0000
       N       E                     dE             d eps       ncg     rms          rms(c)
DAV:   1    -0.842457570694E+03   -0.10503E-04   -0.12027E-04  4240   0.199E-02    0.365E-03
DAV:   2    -0.842457570728E+03   -0.33338E-07   -0.18953E-06  3400   0.243E-03
 168 F= -.85020990E+03 E0= -.85020990E+03  d E =-.898579E-05  mag=    -0.0000
       N       E                     dE             d eps       ncg     rms          rms(c)
DAV:   1    -0.842457591171E+03   -0.20476E-04   -0.18151E-04  4240   0.236E-02    0.475E-03
DAV:   2    -0.842457591161E+03    0.93860E-08   -0.28035E-06  3720   0.281E-03
 169 F= -.85020992E+03 E0= -.85020992E+03  d E =-.179174E-04  mag=     0.0000
       N       E                     dE             d eps       ncg     rms          rms(c)
DAV:   1    -0.842457625896E+03   -0.34725E-04   -0.27276E-04  4260   0.282E-02    0.594E-03
DAV:   2    -0.842457625831E+03    0.64952E-07   -0.40483E-06  3900   0.325E-03
 170 F= -.85020995E+03 E0= -.85020995E+03  d E =-.308417E-04  mag=    -0.0000
       N       E                     dE             d eps       ncg     rms          rms(c)
DAV:   1    -0.842457679472E+03   -0.53576E-04   -0.41543E-04  4260   0.345E-02    0.746E-03
DAV:   2    -0.842457679380E+03    0.92361E-07   -0.61705E-06  4180   0.398E-03
 171 F= -.85021000E+03 E0= -.85021000E+03  d E =-.480677E-04  mag=     0.0000
       N       E                     dE             d eps       ncg     rms          rms(c)
DAV:   1    -0.842457756892E+03   -0.77420E-04   -0.68130E-04  4240   0.436E-02    0.960E-03
DAV:   2    -0.842457756818E+03    0.74695E-07   -0.10514E-05  4450   0.507E-03    0.761E-03
DAV:   3    -0.842457757341E+03   -0.52372E-06   -0.52918E-07  2840   0.158E-03
 172 F= -.85021007E+03 E0= -.85021007E+03  d E =-.705819E-04  mag=     0.0000
       N       E                     dE             d eps       ncg     rms          rms(c)
DAV:   1    -0.842457863332E+03   -0.10651E-03   -0.11684E-03  4260   0.551E-02    0.912E-03
DAV:   2    -0.842457864144E+03   -0.81126E-06   -0.18741E-05  4400   0.637E-03    0.692E-03
DAV:   3    -0.842457864163E+03   -0.19354E-07   -0.34493E-07  3280   0.124E-03
 173 F= -.85021016E+03 E0= -.85021016E+03  d E =-.970481E-04  mag=    -0.0000
       N       E                     dE             d eps       ncg     rms          rms(c)
DAV:   1    -0.842458003242E+03   -0.13910E-03   -0.20450E-03  4260   0.706E-02    0.117E-02
DAV:   2    -0.842458004718E+03   -0.14767E-05   -0.34061E-05  4340   0.817E-03    0.877E-03
DAV:   3    -0.842458004579E+03    0.13993E-06   -0.60558E-07  3660   0.158E-03
 174 F= -.85021029E+03 E0= -.85021029E+03  d E =-.127651E-03  mag=    -0.0000
       N       E                     dE             d eps       ncg     rms          rms(c)
DAV:   1    -0.842458176213E+03   -0.17149E-03   -0.32720E-03  4240   0.881E-02    0.147E-02
DAV:   2    -0.842458178436E+03   -0.22236E-05   -0.55582E-05  4380   0.102E-02    0.111E-02
DAV:   3    -0.842458178220E+03    0.21668E-06   -0.96163E-07  3840   0.194E-03
 175 F= -.85021045E+03 E0= -.85021045E+03  d E =-.157837E-03  mag=    -0.0000
       N       E                     dE             d eps       ncg     rms          rms(c)
DAV:   1    -0.842458374684E+03   -0.19625E-03   -0.43543E-03  4260   0.104E-01    0.171E-02
DAV:   2    -0.842458377311E+03   -0.26270E-05   -0.70800E-05  4420   0.120E-02    0.131E-02
DAV:   3    -0.842458377223E+03    0.87370E-07   -0.13382E-06  3880   0.235E-03
 176 F= -.85021063E+03 E0= -.85021063E+03  d E =-.180920E-03  mag=    -0.0000
       N       E                     dE             d eps       ncg     rms          rms(c)
DAV:   1    -0.842458581026E+03   -0.20371E-03   -0.47981E-03  4240   0.114E-01    0.186E-02
DAV:   2    -0.842458584007E+03   -0.29818E-05   -0.72495E-05  4420   0.131E-02    0.143E-02
DAV:   3    -0.842458584285E+03   -0.27763E-06   -0.17707E-06  3920   0.280E-03
 177 F= -.85021082E+03 E0= -.85021082E+03  d E =-.188105E-03  mag=    -0.0000
       N       E                     dE             d eps       ncg     rms          rms(c)
DAV:   1    -0.842458762431E+03   -0.17842E-03   -0.57115E-03  4240   0.128E-01    0.201E-02
DAV:   2    -0.842458766300E+03   -0.38692E-05   -0.84859E-05  4400   0.148E-02    0.157E-02
DAV:   3    -0.842458766632E+03   -0.33213E-06   -0.25178E-06  4140   0.334E-03
 178 F= -.85021098E+03 E0= -.85021098E+03  d E =-.165227E-03  mag=    -0.0000
       N       E                     dE             d eps       ncg     rms          rms(c)
DAV:   1    -0.842458895393E+03   -0.12909E-03   -0.71853E-03  4240   0.146E-01    0.224E-02
DAV:   2    -0.842458900285E+03   -0.48923E-05   -0.10729E-04  4470   0.169E-02    0.177E-02
DAV:   3    -0.842458900814E+03   -0.52906E-06   -0.36313E-06  4320   0.394E-03
 179 F= -.85021111E+03 E0= -.85021111E+03  d E =-.122173E-03  mag=    -0.0000
       N       E                     dE             d eps       ncg     rms          rms(c)
DAV:   1    -0.842458964058E+03   -0.63773E-04   -0.89359E-03  4240   0.167E-01    0.254E-02
DAV:   2    -0.842458970186E+03   -0.61281E-05   -0.12481E-04  4510   0.193E-02    0.204E-02
DAV:   3    -0.842458971155E+03   -0.96843E-06   -0.57433E-06  4480   0.511E-03
 180 F= -.85021117E+03 E0= -.85021117E+03  d E =-.636703E-04  mag=    -0.0000
       N       E                     dE             d eps       ncg     rms          rms(c)
DAV:   1    -0.842458984502E+03   -0.14316E-04   -0.12131E-02  4260   0.196E-01    0.295E-02
DAV:   2    -0.842458994119E+03   -0.96171E-05   -0.17207E-04  4540   0.228E-02    0.241E-02
DAV:   3    -0.842458994724E+03   -0.60484E-06   -0.84752E-06  4770   0.626E-03
 181 F= -.85021119E+03 E0= -.85021119E+03  d E =-.170197E-04  mag=    -0.0000
       N       E                     dE             d eps       ncg     rms          rms(c)
DAV:   1    -0.842458959889E+03    0.34230E-04   -0.16393E-02  4260   0.229E-01    0.352E-02
DAV:   2    -0.842458972155E+03   -0.12265E-04   -0.23427E-04  4500   0.271E-02    0.287E-02
DAV:   3    -0.842458973495E+03   -0.13399E-05   -0.13462E-05  4660   0.776E-03    0.163E-02
DAV:   4    -0.842458979222E+03   -0.57271E-05   -0.93369E-06  4360   0.584E-03    0.511E-03
DAV:   5    -0.842458978960E+03    0.26188E-06   -0.31337E-06  4570   0.340E-03
 182 F= -.85021117E+03 E0= -.85021117E+03  d E =0.190586E-04  mag=    -0.0000
       N       E                     dE             d eps       ncg     rms          rms(c)
DAV:   1    -0.842458905249E+03    0.73973E-04   -0.27330E-02  4240   0.293E-01    0.418E-02
DAV:   2    -0.842458936569E+03   -0.31320E-04   -0.48258E-04  4480   0.371E-02    0.340E-02
DAV:   3    -0.842458931498E+03    0.50706E-05   -0.18851E-05  5180   0.905E-03    0.227E-02
DAV:   4    -0.842458937742E+03   -0.62440E-05   -0.21054E-05  4300   0.921E-03    0.665E-03
DAV:   5    -0.842458937956E+03   -0.21442E-06   -0.57879E-06  4500   0.436E-03
 183 F= -.85021112E+03 E0= -.85021112E+03  d E =0.443368E-04  mag=    -0.0000
       N       E                     dE             d eps       ncg     rms          rms(c)
DAV:   1    -0.842458980663E+03   -0.42921E-04   -0.14043E-03  4470   0.731E-02    0.858E-03
DAV:   2    -0.842458983084E+03   -0.24216E-05   -0.38085E-05  4600   0.107E-02    0.796E-03
DAV:   3    -0.842458982324E+03    0.76002E-06   -0.11029E-06  3700   0.215E-03
 184 F= -.85021117E+03 E0= -.85021117E+03  d E =-.435341E-04  mag=     0.0000
       N       E                     dE             d eps       ncg     rms          rms(c)
DAV:   1    -0.842458979128E+03    0.39568E-05   -0.19350E-03  4430   0.858E-02    0.114E-02
DAV:   2    -0.842458981548E+03   -0.24202E-05   -0.45503E-05  4610   0.118E-02    0.101E-02
DAV:   3    -0.842458980487E+03    0.10610E-05   -0.17492E-06  3920   0.275E-03    0.767E-03
DAV:   4    -0.842458980582E+03   -0.94915E-07   -0.43825E-06  4020   0.421E-03
 185 F= -.85021116E+03 E0= -.85021116E+03  d E =0.364068E-05  mag=     0.0000
       N       E                     dE             d eps       ncg     rms          rms(c)
DAV:   1    -0.842458992079E+03   -0.11592E-04   -0.58646E-05  4380   0.151E-02    0.163E-03
DAV:   2    -0.842458992226E+03   -0.14668E-06   -0.15416E-06  3040   0.227E-03
 186 F= -.85021117E+03 E0= -.85021117E+03  d E =-.113081E-04  mag=     0.0000
       N       E                     dE             d eps       ncg     rms          rms(c)
DAV:   1    -0.842459007446E+03   -0.15367E-04   -0.19253E-04  4520   0.272E-02    0.377E-03
DAV:   2    -0.842459007703E+03   -0.25670E-06   -0.51821E-06  4090   0.404E-03
 187 F= -.85021119E+03 E0= -.85021119E+03  d E =-.148586E-04  mag=     0.0000
       N       E                     dE             d eps       ncg     rms          rms(c)
DAV:   1    -0.842459017767E+03   -0.10320E-04   -0.28469E-04  4520   0.331E-02    0.605E-03
DAV:   2    -0.842459017920E+03   -0.15297E-06   -0.73523E-06  4760   0.482E-03
 188 F= -.85021120E+03 E0= -.85021120E+03  d E =-.937637E-05  mag=     0.0000
       N       E                     dE             d eps       ncg     rms          rms(c)
DAV:   1    -0.842459021918E+03   -0.41516E-05   -0.22564E-04  4430   0.293E-02    0.643E-03
DAV:   2    -0.842459021947E+03   -0.28529E-07   -0.51221E-06  4420   0.404E-03
 189 F= -.85021120E+03 E0= -.85021120E+03  d E =-.301341E-05  mag=     0.0000
       N       E                     dE             d eps       ncg     rms          rms(c)
DAV:   1    -0.842459022659E+03   -0.74053E-06   -0.27047E-06  3700   0.338E-03    0.269E-03
DAV:   2    -0.842459022686E+03   -0.26645E-07   -0.32834E-07  2410   0.103E-03
 190 F= -.85021120E+03 E0= -.85021120E+03  d E =-.697418E-06  mag=     0.0000
       N       E                     dE             d eps       ncg     rms          rms(c)
DAV:   1    -0.842459024687E+03   -0.20284E-05   -0.41300E-06  3810   0.399E-03    0.791E-04
DAV:   2    -0.842459024709E+03   -0.21464E-07   -0.16047E-07  2260   0.726E-04
 191 F= -.85021120E+03 E0= -.85021120E+03  d E =-.193853E-05  mag=     0.0000
       N       E                     dE             d eps       ncg     rms          rms(c)
DAV:   1    -0.842459027386E+03   -0.26992E-05   -0.78048E-06  4070   0.544E-03    0.818E-04
DAV:   2    -0.842459027399E+03   -0.12464E-07   -0.21552E-07  2260   0.865E-04
 192 F= -.85021121E+03 E0= -.85021121E+03  d E =-.257193E-05  mag=     0.0000
       N       E                     dE             d eps       ncg     rms          rms(c)
DAV:   1    -0.842459030458E+03   -0.30711E-05   -0.12391E-05  4360   0.683E-03    0.123E-03
DAV:   2    -0.842459030467E+03   -0.93787E-08   -0.31701E-07  2330   0.104E-03
 193 F= -.85021121E+03 E0= -.85021121E+03  d E =-.291265E-05  mag=     0.0000
       N       E                     dE             d eps       ncg     rms          rms(c)
DAV:   1    -0.842459033517E+03   -0.30590E-05   -0.15861E-05  4520   0.770E-03    0.151E-03
DAV:   2    -0.842459033522E+03   -0.57989E-08   -0.37258E-07  2350   0.113E-03
 194 F= -.85021121E+03 E0= -.85021121E+03  d E =-.287728E-05  mag=     0.0000
       N       E                     dE             d eps       ncg     rms          rms(c)
DAV:   1    -0.842459036673E+03   -0.31561E-05   -0.18000E-05  4400   0.817E-03    0.164E-03
DAV:   2    -0.842459036679E+03   -0.64756E-08   -0.40623E-07  2440   0.118E-03
 195 F= -.85021122E+03 E0= -.85021122E+03  d E =-.294846E-05  mag=     0.0000
       N       E                     dE             d eps       ncg     rms          rms(c)
DAV:   1    -0.842459040113E+03   -0.34407E-05   -0.21950E-05  4280   0.895E-03    0.178E-03
DAV:   2    -0.842459040122E+03   -0.84983E-08   -0.47698E-07  2660   0.127E-03
 196 F= -.85021122E+03 E0= -.85021122E+03  d E =-.316072E-05  mag=     0.0000
       N       E                     dE             d eps       ncg     rms          rms(c)
DAV:   1    -0.842459044124E+03   -0.40108E-05   -0.23666E-05  4180   0.914E-03    0.191E-03
DAV:   2    -0.842459044130E+03   -0.55225E-08   -0.48639E-07  2720   0.127E-03
 197 F= -.85021122E+03 E0= -.85021122E+03  d E =-.360291E-05  mag=     0.0000
       N       E                     dE             d eps       ncg     rms          rms(c)
DAV:   1    -0.842459048930E+03   -0.48060E-05   -0.23175E-05  4180   0.881E-03    0.193E-03
DAV:   2    -0.842459048933E+03   -0.23210E-08   -0.41783E-07  2640   0.116E-03
 198 F= -.85021123E+03 E0= -.85021123E+03  d E =-.425781E-05  mag=     0.0000
       N       E                     dE             d eps       ncg     rms          rms(c)
DAV:   1    -0.842459055242E+03   -0.63117E-05   -0.24018E-05  4195   0.876E-03    0.192E-03
DAV:   2    -0.842459055247E+03   -0.50059E-08   -0.35553E-07  2390   0.107E-03
 199 F= -.85021123E+03 E0= -.85021123E+03  d E =-.562567E-05  mag=     0.0000
       N       E                     dE             d eps       ncg     rms          rms(c)
DAV:   1    -0.842459063376E+03   -0.81343E-05   -0.32764E-05  4225   0.103E-02    0.203E-03
DAV:   2    -0.842459063395E+03   -0.18663E-07   -0.47334E-07  2720   0.124E-03
 200 F= -.85021124E+03 E0= -.85021124E+03  d E =-.729745E-05  mag=     0.0000
       N       E                     dE             d eps       ncg     rms          rms(c)
DAV:   1    -0.842459073139E+03   -0.97627E-05   -0.56623E-05  4240   0.140E-02    0.256E-03
DAV:   2    -0.842459073182E+03   -0.43037E-07   -0.90304E-07  3020   0.175E-03
 201 F= -.85021125E+03 E0= -.85021125E+03  d E =-.874860E-05  mag=     0.0000
