<?xml version="1.0" encoding="ISO-8859-1"?>
<modeling>
 <generator>
  <i name="program" type="string">vasp </i>
  <i name="version" type="string">6.4.2  </i>
  <i name="subversion" type="string">20Jul23 (build Aug 26 2025 15:10:52) complex                          parallel </i>
  <i name="platform" type="string">LinuxIFC </i>
  <i name="date" type="string">2025 12 07 </i>
  <i name="time" type="string">12:50:50 </i>
 </generator>
 <incar>
  <i type="int" name="ISTART">     0</i>
  <i type="string" name="ALGO">Normal</i>
  <i type="logical" name="ADDGRID"> T  </i>
  <i type="int" name="ISPIN">     2</i>
  <i type="int" name="IMIX">     4</i>
  <i name="AMIX">      0.20000000</i>
  <i name="BMIX">      0.00010000</i>
  <i name="AMIX_MAG">      0.80000000</i>
  <i name="BMIX_MAG">      0.00010000</i>
  <i type="int" name="ICHARG">     2</i>
  <i type="int" name="NELM">   200</i>
  <i type="int" name="IBRION">     3</i>
  <i name="EDIFF">      0.00000100</i>
  <i name="EDIFFG">     -0.03000000</i>
  <i type="int" name="NSW">  1000</i>
  <i type="int" name="ISIF">     2</i>
  <i type="int" name="ISYM">     0</i>
  <i name="ENCUT">    520.00000000</i>
  <i name="POTIM">      0.00000000</i>
  <v name="MAGMOM">      0.60000000      0.60000000      0.60000000      0.60000000      0.60000000      0.60000000      0.60000000      0.60000000      0.60000000      0.60000000      0.60000000      0.60000000      0.60000000      0.60000000      0.60000000      0.60000000      0.60000000      0.60000000      0.60000000      0.60000000
      0.60000000      0.60000000      0.60000000      0.60000000      0.60000000      0.60000000      0.60000000      0.60000000      0.60000000      0.60000000      0.60000000      0.60000000      0.60000000      0.60000000      0.60000000      0.60000000      0.60000000      0.60000000      0.60000000      0.60000000
      0.60000000      0.60000000      0.60000000      0.60000000      0.60000000      0.60000000      0.60000000      0.60000000      0.60000000      0.60000000      0.60000000      0.60000000      0.60000000      0.60000000      0.60000000      0.60000000      0.60000000      0.60000000      0.60000000      0.60000000
      0.60000000      0.60000000      0.60000000      0.60000000      0.60000000      0.60000000      0.60000000      0.60000000      0.60000000      0.60000000      0.60000000      0.60000000      0.60000000      0.60000000      0.60000000      0.60000000      0.60000000      0.60000000      0.60000000      0.60000000
      0.60000000      0.60000000      0.60000000      0.60000000      0.60000000      0.60000000      0.60000000      0.60000000      0.60000000      0.60000000      0.60000000      0.60000000      0.60000000      0.60000000      0.60000000      0.60000000      0.60000000</v>
  <i type="string" name="LREAL">Auto</i>
  <i type="int" name="ISMEAR">     0</i>
  <i name="SIGMA">      0.05000000</i>
  <i type="logical" name="LWAVE"> F  </i>
  <i type="logical" name="LCHARG"> F  </i>
  <i type="logical" name="LASPH"> T  </i>
  <i type="int" name="IVDW">    12</i>
  <i name="SPRING">     -5.00000000</i>
 </incar>
 <primitive_cell>
  <structure name="primitive_cell" >
   <crystal>
    <varray name="basis" >
     <v>      17.27103806       0.00000000       0.00000000 </v>
     <v>      -8.63551903      14.95715771       0.00000000 </v>
     <v>       0.00000000       0.00000000      15.00000000 </v>
    </varray>
    <i name="volume">   3874.88459904 </i>
    <varray name="rec_basis" >
     <v>       0.05790040       0.03342881       0.00000000 </v>
     <v>       0.00000000       0.06685762       0.00000000 </v>
     <v>       0.00000000       0.00000000       0.06666667 </v>
    </varray>
   </crystal>
   <varray name="positions" >
    <v>       0.99977129       0.99928716       0.49747666 </v>
    <v>       0.99938870       0.14183560       0.49668994 </v>
    <v>       0.99945469       0.28483205       0.49629427 </v>
    <v>       0.99942283       0.42778082       0.49640735 </v>
    <v>       0.99952064       0.57065293       0.49710161 </v>
    <v>       0.00011865       0.71354887       0.49816480 </v>
    <v>       0.00038372       0.85687249       0.49837315 </v>
    <v>       0.14337254       0.00043258       0.49636903 </v>
    <v>       0.14299539       0.14296212       0.49640964 </v>
    <v>       0.14218502       0.28517955       0.49621782 </v>
    <v>       0.14226004       0.42855810       0.49619123 </v>
    <v>       0.14244717       0.57104667       0.49605470 </v>
    <v>       0.14279371       0.71392392       0.49613525 </v>
    <v>       0.14294572       0.85716249       0.49632432 </v>
    <v>       0.28615461       0.00045951       0.49597594 </v>
    <v>       0.28683664       0.14374651       0.49632621 </v>
    <v>       0.28643126       0.28757257       0.49641200 </v>
    <v>       0.28428461       0.42841820       0.49628706 </v>
    <v>       0.28651795       0.57187806       0.49627483 </v>
    <v>       0.28561129       0.71478920       0.49576372 </v>
    <v>       0.28521133       0.85744372       0.49558122 </v>
    <v>       0.42860170       0.99978406       0.49565645 </v>
    <v>       0.42985349       0.14366177       0.49686145 </v>
    <v>       0.42922254       0.28432858       0.49769556 </v>
    <v>       0.42733004       0.85626722       0.49566687 </v>
    <v>       0.57066849       0.99882932       0.49603863 </v>
    <v>       0.57147083       0.14198314       0.49685669 </v>
    <v>       0.57538627       0.28822503       0.49943853 </v>
    <v>       0.56954101       0.85456855       0.49813252 </v>
    <v>       0.71283972       0.99774074       0.49768708 </v>
    <v>       0.71394488       0.14129559       0.49647010 </v>
    <v>       0.71453125       0.28418156       0.49817784 </v>
    <v>       0.71060138       0.42361463       0.50239079 </v>
    <v>       0.71600152       0.57048253       0.51177235 </v>
    <v>       0.71773807       0.71409781       0.51358528 </v>
    <v>       0.71195629       0.85488083       0.50309196 </v>
    <v>       0.85626101       0.99846252       0.49888056 </v>
    <v>       0.85627858       0.14130885       0.49664466 </v>
    <v>       0.85679678       0.28439132       0.49672703 </v>
    <v>       0.85668538       0.42731604       0.49847137 </v>
    <v>       0.85621029       0.56965453       0.50134115 </v>
    <v>       0.85819006       0.71344389       0.50370008 </v>
    <v>       0.85703563       0.85585807       0.50196544 </v>
    <v>       0.04754210       0.09470648       0.49675393 </v>
    <v>       0.04675509       0.23701525       0.49630211 </v>
    <v>       0.04680389       0.38026126       0.49624468 </v>
    <v>       0.04720910       0.52316032       0.49638896 </v>
    <v>       0.04746823       0.66604815       0.49697456 </v>
    <v>       0.04760426       0.80900514       0.49750587 </v>
    <v>       0.04785280       0.95209031       0.49721724 </v>
    <v>       0.19115792       0.09558553       0.49624974 </v>
    <v>       0.19042169       0.23821679       0.49635904 </v>
    <v>       0.18883200       0.38030002       0.49622255 </v>
    <v>       0.19034424       0.52408751       0.49610530 </v>
    <v>       0.19023392       0.66649787       0.49590568 </v>
    <v>       0.19028022       0.80945425       0.49592529 </v>
    <v>       0.19091404       0.95260130       0.49616643 </v>
    <v>       0.33443603       0.09618388       0.49625642 </v>
    <v>       0.33568090       0.23934111       0.49665599 </v>
    <v>       0.33047977       0.38045636       0.49619728 </v>
    <v>       0.32990416       0.52280783       0.49655412 </v>
    <v>       0.33632108       0.67012006       0.49614832 </v>
    <v>       0.33255387       0.80961814       0.49551800 </v>
    <v>       0.33320384       0.95252778       0.49568618 </v>
    <v>       0.47648162       0.09496065       0.49644666 </v>
    <v>       0.47766525       0.23935445       0.49799613 </v>
    <v>       0.47182271       0.80547935       0.49660002 </v>
    <v>       0.47567485       0.95172627       0.49562236 </v>
    <v>       0.61856694       0.09398350       0.49632574 </v>
    <v>       0.61980464       0.23740912       0.49817510 </v>
    <v>       0.61853417       0.81024652       0.50133693 </v>
    <v>       0.61739969       0.95026276       0.49712800 </v>
    <v>       0.76107450       0.09343860       0.49659115 </v>
    <v>       0.76189558       0.23637185       0.49696671 </v>
    <v>       0.76136506       0.37902953       0.49961354 </v>
    <v>       0.75993385       0.52189169       0.50526892 </v>
    <v>       0.76291954       0.66517888       0.51030121 </v>
    <v>       0.76118570       0.80667353       0.50651380 </v>
    <v>       0.76062156       0.95038879       0.49987317 </v>
    <v>       0.90389442       0.09354216       0.49719193 </v>
    <v>       0.90415198       0.23670603       0.49636565 </v>
    <v>       0.90414518       0.37991661       0.49706085 </v>
    <v>       0.90422626       0.52277008       0.49867105 </v>
    <v>       0.90464034       0.66517967       0.50093445 </v>
    <v>       0.90495681       0.80861812       0.50134246 </v>
    <v>       0.90437368       0.95106333       0.49915400 </v>
    <v>       0.46816309       0.35701141       0.49846012 </v>
    <v>       0.40305779       0.41937215       0.49466380 </v>
    <v>       0.40218142       0.55954240       0.49663560 </v>
    <v>       0.64570163       0.67577600       0.52107055 </v>
    <v>       0.64339464       0.53473945       0.51626372 </v>
    <v>       0.57984958       0.73766560       0.50231827 </v>
    <v>       0.51211450       0.58884004       0.48617343 </v>
    <v>       0.55216344       0.56534446       0.40616384 </v>
    <v>       0.42644796       0.71490342       0.49661744 </v>
    <v>       0.62060064       0.37862368       0.50191614 </v>
    <v>       0.52691141       0.54451312       0.46511209 </v>
   </varray>
  </structure>
  <varray name="primitive_index" >
   <v type="int" >        1 </v>
   <v type="int" >        2 </v>
   <v type="int" >        3 </v>
   <v type="int" >        4 </v>
   <v type="int" >        5 </v>
   <v type="int" >        6 </v>
   <v type="int" >        7 </v>
   <v type="int" >        8 </v>
   <v type="int" >        9 </v>
   <v type="int" >       10 </v>
   <v type="int" >       11 </v>
   <v type="int" >       12 </v>
   <v type="int" >       13 </v>
   <v type="int" >       14 </v>
   <v type="int" >       15 </v>
   <v type="int" >       16 </v>
   <v type="int" >       17 </v>
   <v type="int" >       18 </v>
   <v type="int" >       19 </v>
   <v type="int" >       20 </v>
   <v type="int" >       21 </v>
   <v type="int" >       22 </v>
   <v type="int" >       23 </v>
   <v type="int" >       24 </v>
   <v type="int" >       25 </v>
   <v type="int" >       26 </v>
   <v type="int" >       27 </v>
   <v type="int" >       28 </v>
   <v type="int" >       29 </v>
   <v type="int" >       30 </v>
   <v type="int" >       31 </v>
   <v type="int" >       32 </v>
   <v type="int" >       33 </v>
   <v type="int" >       34 </v>
   <v type="int" >       35 </v>
   <v type="int" >       36 </v>
   <v type="int" >       37 </v>
   <v type="int" >       38 </v>
   <v type="int" >       39 </v>
   <v type="int" >       40 </v>
   <v type="int" >       41 </v>
   <v type="int" >       42 </v>
   <v type="int" >       43 </v>
   <v type="int" >       44 </v>
   <v type="int" >       45 </v>
   <v type="int" >       46 </v>
   <v type="int" >       47 </v>
   <v type="int" >       48 </v>
   <v type="int" >       49 </v>
   <v type="int" >       50 </v>
   <v type="int" >       51 </v>
   <v type="int" >       52 </v>
   <v type="int" >       53 </v>
   <v type="int" >       54 </v>
   <v type="int" >       55 </v>
   <v type="int" >       56 </v>
   <v type="int" >       57 </v>
   <v type="int" >       58 </v>
   <v type="int" >       59 </v>
   <v type="int" >       60 </v>
   <v type="int" >       61 </v>
   <v type="int" >       62 </v>
   <v type="int" >       63 </v>
   <v type="int" >       64 </v>
   <v type="int" >       65 </v>
   <v type="int" >       66 </v>
   <v type="int" >       67 </v>
   <v type="int" >       68 </v>
   <v type="int" >       69 </v>
   <v type="int" >       70 </v>
   <v type="int" >       71 </v>
   <v type="int" >       72 </v>
   <v type="int" >       73 </v>
   <v type="int" >       74 </v>
   <v type="int" >       75 </v>
   <v type="int" >       76 </v>
   <v type="int" >       77 </v>
   <v type="int" >       78 </v>
   <v type="int" >       79 </v>
   <v type="int" >       80 </v>
   <v type="int" >       81 </v>
   <v type="int" >       82 </v>
   <v type="int" >       83 </v>
   <v type="int" >       84 </v>
   <v type="int" >       85 </v>
   <v type="int" >       86 </v>
   <v type="int" >       87 </v>
   <v type="int" >       88 </v>
   <v type="int" >       89 </v>
   <v type="int" >       90 </v>
   <v type="int" >       91 </v>
   <v type="int" >       92 </v>
   <v type="int" >       93 </v>
   <v type="int" >       94 </v>
   <v type="int" >       95 </v>
   <v type="int" >       96 </v>
   <v type="int" >       97 </v>
  </varray>
 </primitive_cell>
 <kpoints>
  <generation param="Gamma">
   <v type="int" name="divisions">       2        2        1 </v>
   <v name="usershift">      0.00000000       0.00000000       0.00000000 </v>
   <v name="genvec1">      0.50000000       0.00000000       0.00000000 </v>
   <v name="genvec2">      0.00000000       0.50000000       0.00000000 </v>
   <v name="genvec3">      0.00000000       0.00000000       1.00000000 </v>
   <v name="shift">      0.00000000       0.00000000       0.00000000 </v>
  </generation>
  <varray name="kpointlist" >
   <v>       0.00000000       0.00000000       0.00000000 </v>
   <v>       0.50000000       0.00000000       0.00000000 </v>
   <v>       0.00000000       0.50000000       0.00000000 </v>
   <v>       0.50000000       0.50000000       0.00000000 </v>
  </varray>
  <varray name="weights" >
   <v>       0.25000000 </v>
   <v>       0.25000000 </v>
   <v>       0.25000000 </v>
   <v>       0.25000000 </v>
  </varray>
 </kpoints>
 <parameters>
  <separator name="general" >
   <i type="string" name="SYSTEM">unknown system</i>
   <i type="logical" name="LCOMPAT"> F  </i>
  </separator>
  <separator name="electronic" >
   <i type="string" name="PREC">normal</i>
   <i name="ENMAX">    520.00000000</i>
   <i name="ENAUG">    644.87300000</i>
   <i name="EDIFF">      0.00000100</i>
   <i type="int" name="IALGO">    38</i>
   <i type="int" name="IWAVPR">    11</i>
   <i type="int" name="NBANDS">   265</i>
   <i type="int" name="NBANDSLOW">    -1</i>
   <i type="int" name="NBANDSHIGH">    -1</i>
   <i name="NELECT">    368.00000000</i>
   <i type="int" name="TURBO">     0</i>
   <i type="int" name="IRESTART">     0</i>
   <i type="int" name="NREBOOT">     0</i>
   <i type="int" name="NMIN">     0</i>
   <i name="EREF">      0.00000000</i>
   <separator name="electronic smearing" >
    <i type="int" name="ISMEAR">     0</i>
    <i name="SIGMA">      0.05000000</i>
    <i name="KSPACING">      0.50000000</i>
    <i type="logical" name="KGAMMA"> T  </i>
    <i type="logical" name="KBLOWUP"> T  </i>
   </separator>
   <separator name="electronic projectors" >
    <i type="logical" name="LREAL"> T  </i>
    <v name="ROPT">     -0.00050000     -0.00050000     -0.00050000     -0.00050000</v>
    <i type="int" name="LMAXPAW">  -100</i>
    <i type="int" name="LMAXMIX">     2</i>
    <i type="logical" name="NLSPLINE"> F  </i>
   </separator>
   <separator name="electronic startup" >
    <i type="int" name="ISTART">     0</i>
    <i type="int" name="ICHARG">     2</i>
    <i type="int" name="INIWAV">     1</i>
   </separator>
   <separator name="electronic spin" >
    <i type="int" name="ISPIN">     2</i>
    <i type="logical" name="LNONCOLLINEAR"> F  </i>
    <v name="MAGMOM">      0.60000000      0.60000000      0.60000000      0.60000000      0.60000000      0.60000000      0.60000000      0.60000000      0.60000000      0.60000000      0.60000000      0.60000000      0.60000000      0.60000000      0.60000000      0.60000000      0.60000000      0.60000000      0.60000000      0.60000000
      0.60000000      0.60000000      0.60000000      0.60000000      0.60000000      0.60000000      0.60000000      0.60000000      0.60000000      0.60000000      0.60000000      0.60000000      0.60000000      0.60000000      0.60000000      0.60000000      0.60000000      0.60000000      0.60000000      0.60000000
      0.60000000      0.60000000      0.60000000      0.60000000      0.60000000      0.60000000      0.60000000      0.60000000      0.60000000      0.60000000      0.60000000      0.60000000      0.60000000      0.60000000      0.60000000      0.60000000      0.60000000      0.60000000      0.60000000      0.60000000
      0.60000000      0.60000000      0.60000000      0.60000000      0.60000000      0.60000000      0.60000000      0.60000000      0.60000000      0.60000000      0.60000000      0.60000000      0.60000000      0.60000000      0.60000000      0.60000000      0.60000000      0.60000000      0.60000000      0.60000000
      0.60000000      0.60000000      0.60000000      0.60000000      0.60000000      0.60000000      0.60000000      0.60000000      0.60000000      0.60000000      0.60000000      0.60000000      0.60000000      0.60000000      0.60000000      0.60000000      0.60000000</v>
    <i name="NUPDOWN">     -1.00000000</i>
    <i type="logical" name="LSORBIT"> F  </i>
    <v name="SAXIS">      0.00000000      0.00000000      1.00000000</v>
    <i type="logical" name="LSPIRAL"> F  </i>
    <v name="QSPIRAL">      0.00000000      0.00000000      0.00000000</v>
    <i type="logical" name="LZEROZ"> F  </i>
   </separator>
   <separator name="electronic exchange-correlation" >
    <i type="logical" name="LASPH"> T  </i>
    <i type="logical" name="LMETAGGA"> F  </i>
   </separator>
   <separator name="electronic convergence" >
    <i type="int" name="NELM">   200</i>
    <i type="int" name="NELMDL">    -5</i>
    <i type="int" name="NELMIN">     2</i>
    <i name="ENINI">    520.00000000</i>
    <separator name="electronic convergence detail" >
     <i type="logical" name="LDIAG"> T  </i>
     <i type="logical" name="LSUBROT"> F  </i>
     <i name="WEIMIN">      0.00100000</i>
     <i name="EBREAK">      0.00000000</i>
     <i name="DEPER">      0.30000000</i>
     <i type="int" name="NRMM">     4</i>
     <i name="TIME">      0.40000000</i>
    </separator>
   </separator>
   <separator name="electronic mixer" >
    <i name="AMIX">      0.20000000</i>
    <i name="BMIX">      0.00010000</i>
    <i name="AMIN">      0.10000000</i>
    <i name="AMIX_MAG">      0.80000000</i>
    <i name="BMIX_MAG">      0.00010000</i>
    <separator name="electronic mixer details" >
     <i type="int" name="IMIX">     4</i>
     <i type="logical" name="MIXFIRST"> F  </i>
     <i type="int" name="MAXMIX">   -45</i>
     <i name="WC">    100.00000000</i>
     <i type="int" name="INIMIX">     1</i>
     <i type="int" name="MIXPRE">     1</i>
     <i type="int" name="MREMOVE">     5</i>
    </separator>
   </separator>
   <separator name="electronic dipolcorrection" >
    <i type="logical" name="LDIPOL"> F  </i>
    <i type="logical" name="LMONO"> F  </i>
    <i type="int" name="IDIPOL">     0</i>
    <i name="EPSILON">      1.00000000</i>
    <v name="DIPOL">   -100.00000000   -100.00000000   -100.00000000</v>
    <i name="EFIELD">      0.00000000</i>
   </separator>
  </separator>
  <separator name="grids" >
   <i type="int" name="NGX">    96</i>
   <i type="int" name="NGY">    96</i>
   <i type="int" name="NGZ">    84</i>
   <i type="int" name="NGXF">   192</i>
   <i type="int" name="NGYF">   192</i>
   <i type="int" name="NGZF">   168</i>
   <i type="logical" name="ADDGRID"> T  </i>
  </separator>
  <separator name="ionic" >
   <i type="int" name="NSW">  1000</i>
   <i type="int" name="IBRION">     3</i>
   <i type="int" name="MDALGO">     0</i>
   <i type="int" name="ISIF">     2</i>
   <i name="PSTRESS">      0.00000000</i>
   <i name="EDIFFG">     -0.03000000</i>
   <i type="int" name="NFREE">     0</i>
   <i name="POTIM">      0.00000000</i>
   <i name="SMASS">     -3.00000000</i>
   <i name="SCALEE">      1.00000000</i>
  </separator>
  <separator name="ionic md" >
   <i name="TEBEG">      0.00010000</i>
   <i name="TEEND">      0.00010000</i>
   <i type="int" name="NBLOCK">     1</i>
   <i type="int" name="KBLOCK">  1000</i>
   <i type="int" name="NPACO">   256</i>
   <i name="APACO">     10.00000000</i>
  </separator>
  <separator name="symmetry" >
   <i type="int" name="ISYM">     0</i>
   <i name="SYMPREC">      0.00001000</i>
  </separator>
  <separator name="dos" >
   <i type="int" name="LORBIT">     0</i>
   <v name="RWIGS">     -1.00000000     -1.00000000     -1.00000000     -1.00000000</v>
   <i type="int" name="NEDOS">   301</i>
   <i name="EMIN">     10.00000000</i>
   <i name="EMAX">    -10.00000000</i>
   <i name="EFERMI">      0.00000000</i>
  </separator>
  <separator name="writing" >
   <i type="int" name="NWRITE">     2</i>
   <i type="logical" name="LWAVE"> F  </i>
   <i type="logical" name="LDOWNSAMPLE"> F  </i>
   <i type="logical" name="LCHARG"> F  </i>
   <i type="logical" name="LPARD"> F  </i>
   <i type="logical" name="LVTOT"> F  </i>
   <i type="logical" name="LVHAR"> F  </i>
   <i type="logical" name="LELF"> F  </i>
   <i type="logical" name="LOPTICS"> F  </i>
   <v name="STM">      0.00000000      0.00000000      0.00000000      0.00000000      0.00000000      0.00000000      0.00000000</v>
  </separator>
  <separator name="performance" >
   <i type="int" name="NPAR">     5</i>
   <i type="int" name="NSIM">     4</i>
   <i type="int" name="NBLK">    -1</i>
   <i type="logical" name="LPLANE"> T  </i>
   <i type="logical" name="LSCALAPACK"> T  </i>
   <i type="logical" name="LSCAAWARE"> F  </i>
   <i type="logical" name="LSCALU"> F  </i>
   <i type="logical" name="LASYNC"> F  </i>
   <i type="logical" name="LORBITALREAL"> F  </i>
  </separator>
  <separator name="miscellaneous" >
   <i type="int" name="IDIOT">     3</i>
   <i type="int" name="PHON_NSTRUCT">    -1</i>
   <i type="logical" name="LMUSIC"> F  </i>
   <v name="POMASS">     12.01100000      1.00000000     14.00100000     16.00000000</v>
   <v name="DARWINR">      0.00000000      0.00000000      0.00000000      0.00000000</v>
   <v name="DARWINV">      1.00000000      1.00000000      1.00000000      1.00000000</v>
   <i type="logical" name="LCORR"> T  </i>
  </separator>
  <i type="logical" name="GGA_COMPAT"> T  </i>
  <i type="logical" name="LBERRY"> F  </i>
  <i type="int" name="ICORELEVEL">     0</i>
  <i type="logical" name="LDAU"> F  </i>
  <i type="int" name="I_CONSTRAINED_M">     0</i>
  <separator name="electronic exchange-correlation" >
   <i type="string" name="GGA">--</i>
   <i type="int" name="VOSKOWN">     0</i>
   <i type="logical" name="LHFCALC"> F  </i>
   <i type="string" name="PRECFOCK"></i>
   <i type="logical" name="LSYMGRAD"> F  </i>
   <i type="logical" name="LHFONE"> F  </i>
   <i type="logical" name="LRHFCALC"> F  </i>
   <i type="logical" name="LTHOMAS"> F  </i>
   <i type="logical" name="LMODELHF"> F  </i>
   <i type="logical" name="LFOCKACE"> F  </i>
   <i name="ENCUT4O">     -1.00000000</i>
   <i type="int" name="EXXOEP">     0</i>
   <i type="int" name="FOURORBIT">     0</i>
   <i name="AEXX">      0.00000000</i>
   <i name="HFALPHA">      0.00000000</i>
   <i name="MCALPHA">      0.00000000</i>
   <i name="ALDAX">      1.00000000</i>
   <i name="AGGAX">      1.00000000</i>
   <i name="ALDAC">      1.00000000</i>
   <i name="AGGAC">      1.00000000</i>
   <i type="int" name="NKREDX">     1</i>
   <i type="int" name="NKREDY">     1</i>
   <i type="int" name="NKREDZ">     1</i>
   <i type="logical" name="SHIFTRED"> F  </i>
   <i type="logical" name="ODDONLY"> F  </i>
   <i type="logical" name="EVENONLY"> F  </i>
   <i type="int" name="LMAXFOCK">     0</i>
   <i type="int" name="NMAXFOCKAE">     0</i>
   <i type="logical" name="LFOCKAEDFT"> F  </i>
   <i name="HFSCREEN">      0.00000000</i>
   <i name="HFSCREENC">      0.00000000</i>
   <i type="int" name="NBANDSGWLOW">     0</i>
  </separator>
  <separator name="vdW DFT" >
   <i type="logical" name="LUSE_VDW"> F  </i>
   <i type="int" name="IVDW_NL">     1</i>
   <i type="logical" name="LSPIN_VDW"> F  </i>
   <i name="Zab_VDW">     -0.84910000</i>
   <i name="PARAM1">      0.12340000</i>
   <i name="PARAM2">      1.00000000</i>
   <i name="PARAM3">      0.00000000</i>
  </separator>
  <separator name="model GW" >
   <i type="int" name="MODEL_GW">     0</i>
   <i name="MODEL_EPS0">     23.96835834</i>
   <i name="MODEL_ALPHA">      1.00000000</i>
  </separator>
  <separator name="linear response parameters" >
   <i type="logical" name="LEPSILON"> F  </i>
   <i type="logical" name="LRPA"> F  </i>
   <i type="logical" name="LNABLA"> F  </i>
   <i type="logical" name="LVEL"> F  </i>
   <i name="CSHIFT">      0.10000000</i>
   <i name="OMEGAMAX">     -1.00000000</i>
   <i name="DEG_THRESHOLD">      0.00200000</i>
   <i name="RTIME">     -0.10000000</i>
   <i name="WPLASMAI">      0.00000000</i>
   <v name="DFIELD">      0.00000000      0.00000000      0.00000000</v>
   <v name="WPLASMA">      0.00000000      0.00000000      0.00000000      0.00000000      0.00000000      0.00000000      0.00000000      0.00000000      0.00000000</v>
  </separator>
  <separator name="orbital magnetization" >
   <i type="logical" name="NUCIND"> F  </i>
   <v name="MAGPOS">      0.00000000      0.00000000      0.00000000</v>
   <i type="logical" name="LNICSALL"> T  </i>
   <i type="logical" name="ORBITALMAG"> F  </i>
   <i type="logical" name="LMAGBLOCH"> F  </i>
   <i type="logical" name="LCHIMAG"> F  </i>
   <i type="logical" name="LGAUGE"> T  </i>
   <i type="int" name="MAGATOM">     0</i>
   <v name="MAGDIPOL">      0.00000000      0.00000000      0.00000000</v>
   <v name="AVECCONST">      0.00000000      0.00000000      0.00000000</v>
  </separator>
  <separator name="response functions" >
   <i type="logical" name="LALL_IN_ONE"> F  </i>
   <i type="int" name="IALL_IN_ONE">    -1</i>
   <i type="int" name="NBANDS_WAVE">    -1</i>
   <i type="logical" name="LFINITE_TEMPERATURE"> F  </i>
   <i type="logical" name="LADDER"> F  </i>
   <i type="logical" name="LRPAFORCE"> F  </i>
   <i type="logical" name="LFXC"> F  </i>
   <i type="logical" name="LHARTREE"> T  </i>
   <i type="int" name="IBSE">     0</i>
   <v type="int" name="KPOINT">    -1     0     0     0</v>
   <i type="logical" name="LTCTC"> F  </i>
   <i type="logical" name="LTCTE"> F  </i>
   <i type="logical" name="LTETE"> F  </i>
   <i type="logical" name="LTRIPLET"> F  </i>
   <i type="logical" name="LFXCEPS"> F  </i>
   <i type="logical" name="LFXHEG"> F  </i>
   <i type="int" name="NATURALO">     2</i>
   <i type="logical" name="LHOLEGF"> F  </i>
   <i type="logical" name="L2ORDER"> F  </i>
   <i type="logical" name="LDMP1"> F  </i>
   <i type="logical" name="LMP2LT"> F  </i>
   <i type="logical" name="LSMP2LT"> F  </i>
   <i type="logical" name="LGWLF"> F  </i>
   <i name="ENCUTGW">     -1.60000002</i>
   <i name="ENCUTGWSOFT">     -1.60000002</i>
   <i name="ENCUTLF">     -1.00000000</i>
   <i type="logical" name="LESF_SPLINES"> F  </i>
   <i type="int" name="LMAXMP2">    -1</i>
   <i name="SCISSOR">      0.00000000</i>
   <i type="int" name="NOMEGA">     0</i>
   <i type="int" name="NOMEGAR">     0</i>
   <i type="int" name="NBANDSGW">    -1</i>
   <i type="int" name="NBANDSO">    -1</i>
   <i type="int" name="NBANDSV">    -1</i>
   <i type="int" name="NELMGW">     1</i>
   <i type="int" name="NELMHF">     1</i>
   <i type="int" name="DIM">     3</i>
   <i type="int" name="IESPILON">     4</i>
   <i type="int" name="ANTIRES">     0</i>
   <i name="OMEGAMAX">    -30.00000000</i>
   <i name="OMEGAMIN">    -30.00000000</i>
   <i name="OMEGATL">   -200.00000000</i>
   <i type="int" name="OMEGAGRID">     0</i>
   <i name="CSHIFT">     -0.10000000</i>
   <i type="logical" name="LSELFENERGY"> F  </i>
   <i type="logical" name="LSPECTRAL"> F  </i>
   <i type="logical" name="LSPECTRALGW"> F  </i>
   <i type="logical" name="LSINGLES"> F  </i>
   <i type="logical" name="LFERMIGW"> F  </i>
   <i type="logical" name="ODDONLYGW"> F  </i>
   <i type="logical" name="EVENONLYGW"> F  </i>
   <i type="int" name="NKREDLFX">     1</i>
   <i type="int" name="NKREDLFY">     1</i>
   <i type="int" name="NKREDLFZ">     1</i>
   <i type="int" name="MAXMEM">  2800</i>
   <i type="int" name="TELESCOPE">     0</i>
   <i type="int" name="NTAUPAR">    -1</i>
   <i type="int" name="NOMEGAPAR">    -1</i>
   <i name="DAMP_NEWTON">      0.80000001</i>
   <i name="LAMBDA">      1.00000000</i>
  </separator>
  <separator name="External order field" >
   <i name="OFIELD_KAPPA">      0.00000000</i>
   <v name="OFIELD_K">      0.00000000      0.00000000      0.00000000</v>
   <i name="OFIELD_Q6_NEAR">      0.00000000</i>
   <i name="OFIELD_Q6_FAR">      0.00000000</i>
   <i name="OFIELD_A">      0.00000000</i>
  </separator>
  <separator name="optional k-points parameters" >
   <i type="int" name="KPOINTS_OPT_MODE">     1</i>
   <i type="logical" name="LKPOINTS_OPT"> F  </i>
  </separator>
 </parameters>
 <atominfo>
  <atoms>      97 </atoms>
  <types>       4 </types>
  <array name="atoms" >
   <dimension dim="1">ion</dimension>
   <field type="string">element</field>
   <field type="int">atomtype</field>
   <set>
    <rc><c>C </c><c>   1</c></rc>
    <rc><c>C </c><c>   1</c></rc>
    <rc><c>C </c><c>   1</c></rc>
    <rc><c>C </c><c>   1</c></rc>
    <rc><c>C </c><c>   1</c></rc>
    <rc><c>C </c><c>   1</c></rc>
    <rc><c>C </c><c>   1</c></rc>
    <rc><c>C </c><c>   1</c></rc>
    <rc><c>C </c><c>   1</c></rc>
    <rc><c>C </c><c>   1</c></rc>
    <rc><c>C </c><c>   1</c></rc>
    <rc><c>C </c><c>   1</c></rc>
    <rc><c>C </c><c>   1</c></rc>
    <rc><c>C </c><c>   1</c></rc>
    <rc><c>C </c><c>   1</c></rc>
    <rc><c>C </c><c>   1</c></rc>
    <rc><c>C </c><c>   1</c></rc>
    <rc><c>C </c><c>   1</c></rc>
    <rc><c>C </c><c>   1</c></rc>
    <rc><c>C </c><c>   1</c></rc>
    <rc><c>C </c><c>   1</c></rc>
    <rc><c>C </c><c>   1</c></rc>
    <rc><c>C </c><c>   1</c></rc>
    <rc><c>C </c><c>   1</c></rc>
    <rc><c>C </c><c>   1</c></rc>
    <rc><c>C </c><c>   1</c></rc>
    <rc><c>C </c><c>   1</c></rc>
    <rc><c>C </c><c>   1</c></rc>
    <rc><c>C </c><c>   1</c></rc>
    <rc><c>C </c><c>   1</c></rc>
    <rc><c>C </c><c>   1</c></rc>
    <rc><c>C </c><c>   1</c></rc>
    <rc><c>C </c><c>   1</c></rc>
    <rc><c>C </c><c>   1</c></rc>
    <rc><c>C </c><c>   1</c></rc>
    <rc><c>C </c><c>   1</c></rc>
    <rc><c>C </c><c>   1</c></rc>
    <rc><c>C </c><c>   1</c></rc>
    <rc><c>C </c><c>   1</c></rc>
    <rc><c>C </c><c>   1</c></rc>
    <rc><c>C </c><c>   1</c></rc>
    <rc><c>C </c><c>   1</c></rc>
    <rc><c>C </c><c>   1</c></rc>
    <rc><c>C </c><c>   1</c></rc>
    <rc><c>C </c><c>   1</c></rc>
    <rc><c>C </c><c>   1</c></rc>
    <rc><c>C </c><c>   1</c></rc>
    <rc><c>C </c><c>   1</c></rc>
    <rc><c>C </c><c>   1</c></rc>
    <rc><c>C </c><c>   1</c></rc>
    <rc><c>C </c><c>   1</c></rc>
    <rc><c>C </c><c>   1</c></rc>
    <rc><c>C </c><c>   1</c></rc>
    <rc><c>C </c><c>   1</c></rc>
    <rc><c>C </c><c>   1</c></rc>
    <rc><c>C </c><c>   1</c></rc>
    <rc><c>C </c><c>   1</c></rc>
    <rc><c>C </c><c>   1</c></rc>
    <rc><c>C </c><c>   1</c></rc>
    <rc><c>C </c><c>   1</c></rc>
    <rc><c>C </c><c>   1</c></rc>
    <rc><c>C </c><c>   1</c></rc>
    <rc><c>C </c><c>   1</c></rc>
    <rc><c>C </c><c>   1</c></rc>
    <rc><c>C </c><c>   1</c></rc>
    <rc><c>C </c><c>   1</c></rc>
    <rc><c>C </c><c>   1</c></rc>
    <rc><c>C </c><c>   1</c></rc>
    <rc><c>C </c><c>   1</c></rc>
    <rc><c>C </c><c>   1</c></rc>
    <rc><c>C </c><c>   1</c></rc>
    <rc><c>C </c><c>   1</c></rc>
    <rc><c>C </c><c>   1</c></rc>
    <rc><c>C </c><c>   1</c></rc>
    <rc><c>C </c><c>   1</c></rc>
    <rc><c>C </c><c>   1</c></rc>
    <rc><c>C </c><c>   1</c></rc>
    <rc><c>C </c><c>   1</c></rc>
    <rc><c>C </c><c>   1</c></rc>
    <rc><c>C </c><c>   1</c></rc>
    <rc><c>C </c><c>   1</c></rc>
    <rc><c>C </c><c>   1</c></rc>
    <rc><c>C </c><c>   1</c></rc>
    <rc><c>C </c><c>   1</c></rc>
    <rc><c>C </c><c>   1</c></rc>
    <rc><c>C </c><c>   1</c></rc>
    <rc><c>H </c><c>   2</c></rc>
    <rc><c>H </c><c>   2</c></rc>
    <rc><c>H </c><c>   2</c></rc>
    <rc><c>H </c><c>   2</c></rc>
    <rc><c>H </c><c>   2</c></rc>
    <rc><c>H </c><c>   2</c></rc>
    <rc><c>H </c><c>   2</c></rc>
    <rc><c>H </c><c>   2</c></rc>
    <rc><c>N </c><c>   3</c></rc>
    <rc><c>N </c><c>   3</c></rc>
    <rc><c>O </c><c>   4</c></rc>
   </set>
  </array>
  <array name="atomtypes" >
   <dimension dim="1">type</dimension>
   <field type="int">atomspertype</field>
   <field type="string">element</field>
   <field>mass</field>
   <field>valence</field>
   <field type="string">pseudopotential</field>
   <set>
    <rc><c>  86</c><c>C </c><c>     12.01100000</c><c>      4.00000000</c><c>  PAW_PBE C 08Apr2002                   </c></rc>
    <rc><c>   8</c><c>H </c><c>      1.00000000</c><c>      1.00000000</c><c>  PAW_PBE H 15Jun2001                   </c></rc>
    <rc><c>   2</c><c>N </c><c>     14.00100000</c><c>      5.00000000</c><c>  PAW_PBE N 08Apr2002                   </c></rc>
    <rc><c>   1</c><c>O </c><c>     16.00000000</c><c>      6.00000000</c><c>  PAW_PBE O 08Apr2002                   </c></rc>
   </set>
  </array>
 </atominfo>
 <structure name="initialpos" >
  <crystal>
   <varray name="basis" >
    <v>      17.27103806       0.00000000       0.00000000 </v>
    <v>      -8.63551903      14.95715771       0.00000000 </v>
    <v>       0.00000000       0.00000000      15.00000000 </v>
   </varray>
   <i name="volume">   3874.88459904 </i>
   <varray name="rec_basis" >
    <v>       0.05790040       0.03342881       0.00000000 </v>
    <v>       0.00000000       0.06685762       0.00000000 </v>
    <v>       0.00000000       0.00000000       0.06666667 </v>
   </varray>
  </crystal>
  <varray name="positions" >
   <v>       0.99977129       0.99928716       0.49747666 </v>
   <v>       0.99938870       0.14183560       0.49668994 </v>
   <v>       0.99945469       0.28483205       0.49629427 </v>
   <v>       0.99942283       0.42778082       0.49640735 </v>
   <v>       0.99952064       0.57065293       0.49710161 </v>
   <v>       0.00011865       0.71354887       0.49816480 </v>
   <v>       0.00038372       0.85687249       0.49837315 </v>
   <v>       0.14337254       0.00043258       0.49636903 </v>
   <v>       0.14299539       0.14296212       0.49640964 </v>
   <v>       0.14218502       0.28517955       0.49621782 </v>
   <v>       0.14226004       0.42855810       0.49619123 </v>
   <v>       0.14244717       0.57104667       0.49605470 </v>
   <v>       0.14279371       0.71392392       0.49613525 </v>
   <v>       0.14294572       0.85716249       0.49632432 </v>
   <v>       0.28615461       0.00045951       0.49597594 </v>
   <v>       0.28683664       0.14374651       0.49632621 </v>
   <v>       0.28643126       0.28757257       0.49641200 </v>
   <v>       0.28428461       0.42841820       0.49628706 </v>
   <v>       0.28651795       0.57187806       0.49627483 </v>
   <v>       0.28561129       0.71478920       0.49576372 </v>
   <v>       0.28521133       0.85744372       0.49558122 </v>
   <v>       0.42860170       0.99978406       0.49565645 </v>
   <v>       0.42985349       0.14366177       0.49686145 </v>
   <v>       0.42922254       0.28432858       0.49769556 </v>
   <v>       0.42733004       0.85626722       0.49566687 </v>
   <v>       0.57066849       0.99882932       0.49603863 </v>
   <v>       0.57147083       0.14198314       0.49685669 </v>
   <v>       0.57538627       0.28822503       0.49943853 </v>
   <v>       0.56954101       0.85456855       0.49813252 </v>
   <v>       0.71283972       0.99774074       0.49768708 </v>
   <v>       0.71394488       0.14129559       0.49647010 </v>
   <v>       0.71453125       0.28418156       0.49817784 </v>
   <v>       0.71060138       0.42361463       0.50239079 </v>
   <v>       0.71600152       0.57048253       0.51177235 </v>
   <v>       0.71773807       0.71409781       0.51358528 </v>
   <v>       0.71195629       0.85488083       0.50309196 </v>
   <v>       0.85626101       0.99846252       0.49888056 </v>
   <v>       0.85627858       0.14130885       0.49664466 </v>
   <v>       0.85679678       0.28439132       0.49672703 </v>
   <v>       0.85668538       0.42731604       0.49847137 </v>
   <v>       0.85621029       0.56965453       0.50134115 </v>
   <v>       0.85819006       0.71344389       0.50370008 </v>
   <v>       0.85703563       0.85585807       0.50196544 </v>
   <v>       0.04754210       0.09470648       0.49675393 </v>
   <v>       0.04675509       0.23701525       0.49630211 </v>
   <v>       0.04680389       0.38026126       0.49624468 </v>
   <v>       0.04720910       0.52316032       0.49638896 </v>
   <v>       0.04746823       0.66604815       0.49697456 </v>
   <v>       0.04760426       0.80900514       0.49750587 </v>
   <v>       0.04785280       0.95209031       0.49721724 </v>
   <v>       0.19115792       0.09558553       0.49624974 </v>
   <v>       0.19042169       0.23821679       0.49635904 </v>
   <v>       0.18883200       0.38030002       0.49622255 </v>
   <v>       0.19034424       0.52408751       0.49610530 </v>
   <v>       0.19023392       0.66649787       0.49590568 </v>
   <v>       0.19028022       0.80945425       0.49592529 </v>
   <v>       0.19091404       0.95260130       0.49616643 </v>
   <v>       0.33443603       0.09618388       0.49625642 </v>
   <v>       0.33568090       0.23934111       0.49665599 </v>
   <v>       0.33047977       0.38045636       0.49619728 </v>
   <v>       0.32990416       0.52280783       0.49655412 </v>
   <v>       0.33632108       0.67012006       0.49614832 </v>
   <v>       0.33255387       0.80961814       0.49551800 </v>
   <v>       0.33320384       0.95252778       0.49568618 </v>
   <v>       0.47648162       0.09496065       0.49644666 </v>
   <v>       0.47766525       0.23935445       0.49799613 </v>
   <v>       0.47182271       0.80547935       0.49660002 </v>
   <v>       0.47567485       0.95172627       0.49562236 </v>
   <v>       0.61856694       0.09398350       0.49632574 </v>
   <v>       0.61980464       0.23740912       0.49817510 </v>
   <v>       0.61853417       0.81024652       0.50133693 </v>
   <v>       0.61739969       0.95026276       0.49712800 </v>
   <v>       0.76107450       0.09343860       0.49659115 </v>
   <v>       0.76189558       0.23637185       0.49696671 </v>
   <v>       0.76136506       0.37902953       0.49961354 </v>
   <v>       0.75993385       0.52189169       0.50526892 </v>
   <v>       0.76291954       0.66517888       0.51030121 </v>
   <v>       0.76118570       0.80667353       0.50651380 </v>
   <v>       0.76062156       0.95038879       0.49987317 </v>
   <v>       0.90389442       0.09354216       0.49719193 </v>
   <v>       0.90415198       0.23670603       0.49636565 </v>
   <v>       0.90414518       0.37991661       0.49706085 </v>
   <v>       0.90422626       0.52277008       0.49867105 </v>
   <v>       0.90464034       0.66517967       0.50093445 </v>
   <v>       0.90495681       0.80861812       0.50134246 </v>
   <v>       0.90437368       0.95106333       0.49915400 </v>
   <v>       0.46816309       0.35701141       0.49846012 </v>
   <v>       0.40305779       0.41937215       0.49466380 </v>
   <v>       0.40218142       0.55954240       0.49663560 </v>
   <v>       0.64570163       0.67577600       0.52107055 </v>
   <v>       0.64339464       0.53473945       0.51626372 </v>
   <v>       0.57984958       0.73766560       0.50231827 </v>
   <v>       0.51211450       0.58884004       0.48617343 </v>
   <v>       0.55216344       0.56534446       0.40616384 </v>
   <v>       0.42644796       0.71490342       0.49661744 </v>
   <v>       0.62060064       0.37862368       0.50191614 </v>
   <v>       0.52691141       0.54451312       0.46511209 </v>
  </varray>
  <varray name="selective"  type="logical" >
   <v type="logical" >  T  T  T </v>
   <v type="logical" >  T  T  T </v>
   <v type="logical" >  T  T  T </v>
   <v type="logical" >  T  T  T </v>
   <v type="logical" >  T  T  T </v>
   <v type="logical" >  T  T  T </v>
   <v type="logical" >  T  T  T </v>
   <v type="logical" >  T  T  T </v>
   <v type="logical" >  T  T  T </v>
   <v type="logical" >  T  T  T </v>
   <v type="logical" >  T  T  T </v>
   <v type="logical" >  T  T  T </v>
   <v type="logical" >  T  T  T </v>
   <v type="logical" >  T  T  T </v>
   <v type="logical" >  T  T  T </v>
   <v type="logical" >  T  T  T </v>
   <v type="logical" >  T  T  T </v>
   <v type="logical" >  T  T  T </v>
   <v type="logical" >  T  T  T </v>
   <v type="logical" >  T  T  T </v>
   <v type="logical" >  T  T  T </v>
   <v type="logical" >  T  T  T </v>
   <v type="logical" >  T  T  T </v>
   <v type="logical" >  T  T  T </v>
   <v type="logical" >  T  T  T </v>
   <v type="logical" >  T  T  T </v>
   <v type="logical" >  T  T  T </v>
   <v type="logical" >  T  T  T </v>
   <v type="logical" >  T  T  T </v>
   <v type="logical" >  T  T  T </v>
   <v type="logical" >  T  T  T </v>
   <v type="logical" >  T  T  T </v>
   <v type="logical" >  T  T  T </v>
   <v type="logical" >  T  T  T </v>
   <v type="logical" >  T  T  T </v>
   <v type="logical" >  T  T  T </v>
   <v type="logical" >  T  T  T </v>
   <v type="logical" >  T  T  T </v>
   <v type="logical" >  T  T  T </v>
   <v type="logical" >  T  T  T </v>
   <v type="logical" >  T  T  T </v>
   <v type="logical" >  T  T  T </v>
   <v type="logical" >  T  T  T </v>
   <v type="logical" >  T  T  T </v>
   <v type="logical" >  T  T  T </v>
   <v type="logical" >  T  T  T </v>
   <v type="logical" >  T  T  T </v>
   <v type="logical" >  T  T  T </v>
   <v type="logical" >  T  T  T </v>
   <v type="logical" >  T  T  T </v>
   <v type="logical" >  T  T  T </v>
   <v type="logical" >  T  T  T </v>
   <v type="logical" >  T  T  T </v>
   <v type="logical" >  T  T  T </v>
   <v type="logical" >  T  T  T </v>
   <v type="logical" >  T  T  T </v>
   <v type="logical" >  T  T  T </v>
   <v type="logical" >  T  T  T </v>
   <v type="logical" >  T  T  T </v>
   <v type="logical" >  T  T  T </v>
   <v type="logical" >  T  T  T </v>
   <v type="logical" >  T  T  T </v>
   <v type="logical" >  T  T  T </v>
   <v type="logical" >  T  T  T </v>
   <v type="logical" >  T  T  T </v>
   <v type="logical" >  T  T  T </v>
   <v type="logical" >  T  T  T </v>
   <v type="logical" >  T  T  T </v>
   <v type="logical" >  T  T  T </v>
   <v type="logical" >  T  T  T </v>
   <v type="logical" >  T  T  T </v>
   <v type="logical" >  T  T  T </v>
   <v type="logical" >  T  T  T </v>
   <v type="logical" >  T  T  T </v>
   <v type="logical" >  T  T  T </v>
   <v type="logical" >  T  T  T </v>
   <v type="logical" >  T  T  T </v>
   <v type="logical" >  T  T  T </v>
   <v type="logical" >  T  T  T </v>
   <v type="logical" >  T  T  T </v>
   <v type="logical" >  T  T  T </v>
   <v type="logical" >  T  T  T </v>
   <v type="logical" >  T  T  T </v>
   <v type="logical" >  T  T  T </v>
   <v type="logical" >  T  T  T </v>
   <v type="logical" >  T  T  T </v>
   <v type="logical" >  T  T  T </v>
   <v type="logical" >  T  T  T </v>
   <v type="logical" >  T  T  T </v>
   <v type="logical" >  T  T  T </v>
   <v type="logical" >  T  T  T </v>
   <v type="logical" >  T  T  T </v>
   <v type="logical" >  T  T  T </v>
   <v type="logical" >  T  T  T </v>
   <v type="logical" >  T  T  T </v>
   <v type="logical" >  T  T  T </v>
   <v type="logical" >  T  T  T </v>
  </varray>
  <nose>
   <v>      -3.00000000       0.00000000       0.00010000       0.00010000 </v>
  </nose>
 </structure>
 <calculation>
  <scstep>
   <time name="dav">   74.79   75.27</time>
   <time name="total">   80.18   80.74</time>
   <energy>
    <i name="alphaZ">    175.87611319 </i>
    <i name="ewald">  36600.58047340 </i>
    <i name="hartreedc"> -46797.82896217 </i>
    <i name="XCdc">   1224.17516441 </i>
    <i name="pawpsdc">  10101.41315093 </i>
    <i name="pawaedc"> -10154.35997595 </i>
    <i name="eentropy">     -0.03957506 </i>
    <i name="bandstr">  -1605.29386239 </i>
    <i name="atom">  13716.13071916 </i>
    <i name="e_fr_energy">   3260.65324551 </i>
    <i name="e_wo_entrp">   3260.69282057 </i>
    <i name="e_0_energy">   3260.67303304 </i>
   </energy>
  </scstep>
  <scstep>
   <time name="dav">   96.13   96.84</time>
   <time name="total">   96.13   96.86</time>
   <energy>
    <i name="e_fr_energy">   -251.70729852 </i>
    <i name="e_wo_entrp">   -251.70723890 </i>
    <i name="e_0_energy">   -251.70726871 </i>
   </energy>
  </scstep>
  <scstep>
   <time name="dav">   82.48   83.08</time>
   <time name="total">   82.48   83.09</time>
   <energy>
    <i name="e_fr_energy">   -864.38475991 </i>
    <i name="e_wo_entrp">   -864.38472043 </i>
    <i name="e_0_energy">   -864.38474017 </i>
   </energy>
  </scstep>
  <scstep>
   <time name="dav">   84.66   85.31</time>
   <time name="total">   84.66   85.33</time>
   <energy>
    <i name="e_fr_energy">   -886.48711730 </i>
    <i name="e_wo_entrp">   -886.48707143 </i>
    <i name="e_0_energy">   -886.48709437 </i>
   </energy>
  </scstep>
  <scstep>
   <time name="dav">   91.33   92.00</time>
   <time name="total">   96.97   97.70</time>
   <energy>
    <i name="e_fr_energy">   -887.11631578 </i>
    <i name="e_wo_entrp">   -887.11626769 </i>
    <i name="e_0_energy">   -887.11629174 </i>
   </energy>
  </scstep>
  <scstep>
   <time name="dav">   81.98   82.62</time>
   <time name="total">   93.21   93.98</time>
   <energy>
    <i name="e_fr_energy">   -869.77038771 </i>
    <i name="e_wo_entrp">   -869.76529346 </i>
    <i name="e_0_energy">   -869.76784059 </i>
   </energy>
  </scstep>
  <scstep>
   <time name="dav">   79.68   80.24</time>
   <time name="total">   90.90   91.56</time>
   <energy>
    <i name="e_fr_energy">   -847.50456922 </i>
    <i name="e_wo_entrp">   -847.50450905 </i>
    <i name="e_0_energy">   -847.50453914 </i>
   </energy>
  </scstep>
  <scstep>
   <time name="dav">   81.55   82.11</time>
   <time name="total">   92.92   93.59</time>
   <energy>
    <i name="e_fr_energy">   -842.66189761 </i>
    <i name="e_wo_entrp">   -842.66189583 </i>
    <i name="e_0_energy">   -842.66189672 </i>
   </energy>
  </scstep>
  <scstep>
   <time name="dav">   79.72   80.26</time>
   <time name="total">   90.85   91.50</time>
   <energy>
    <i name="e_fr_energy">   -842.53456456 </i>
    <i name="e_wo_entrp">   -842.53456303 </i>
    <i name="e_0_energy">   -842.53456379 </i>
   </energy>
  </scstep>
  <scstep>
   <time name="dav">   80.04   80.57</time>
   <time name="total">   91.17   91.89</time>
   <energy>
    <i name="e_fr_energy">   -842.45252097 </i>
    <i name="e_wo_entrp">   -842.45251946 </i>
    <i name="e_0_energy">   -842.45252021 </i>
   </energy>
  </scstep>
  <scstep>
   <time name="dav">   78.17   78.72</time>
   <time name="total">   89.56   90.22</time>
   <energy>
    <i name="e_fr_energy">   -842.44053695 </i>
    <i name="e_wo_entrp">   -842.44053564 </i>
    <i name="e_0_energy">   -842.44053629 </i>
   </energy>
  </scstep>
  <scstep>
   <time name="dav">   82.90   83.47</time>
   <time name="total">   94.18   94.92</time>
   <energy>
    <i name="e_fr_energy">   -842.43983071 </i>
    <i name="e_wo_entrp">   -842.43982942 </i>
    <i name="e_0_energy">   -842.43983006 </i>
   </energy>
  </scstep>
  <scstep>
   <time name="dav">   82.97   83.55</time>
   <time name="total">   93.57   94.27</time>
   <energy>
    <i name="e_fr_energy">   -842.43955067 </i>
    <i name="e_wo_entrp">   -842.43954935 </i>
    <i name="e_0_energy">   -842.43955001 </i>
   </energy>
  </scstep>
  <scstep>
   <time name="dav">   78.52   79.05</time>
   <time name="total">   89.61   90.29</time>
   <energy>
    <i name="e_fr_energy">   -842.43963910 </i>
    <i name="e_wo_entrp">   -842.43963779 </i>
    <i name="e_0_energy">   -842.43963845 </i>
   </energy>
  </scstep>
  <scstep>
   <time name="dav">   82.59   83.16</time>
   <time name="total">   93.65   94.33</time>
   <energy>
    <i name="e_fr_energy">   -842.43968169 </i>
    <i name="e_wo_entrp">   -842.43968037 </i>
    <i name="e_0_energy">   -842.43968103 </i>
   </energy>
  </scstep>
  <scstep>
   <time name="dav">   80.92   81.46</time>
   <time name="total">   92.11   92.76</time>
   <energy>
    <i name="e_fr_energy">   -842.43968610 </i>
    <i name="e_wo_entrp">   -842.43968478 </i>
    <i name="e_0_energy">   -842.43968544 </i>
   </energy>
  </scstep>
  <scstep>
   <time name="dav">   82.34   82.91</time>
   <time name="total">   91.87   92.54</time>
   <energy>
    <i name="e_fr_energy">   -842.43968657 </i>
    <i name="e_wo_entrp">   -842.43968525 </i>
    <i name="e_0_energy">   -842.43968591 </i>
   </energy>
  </scstep>
  <scstep>
   <time name="dav">   48.17   48.46</time>
   <time name="total">   52.57   52.91</time>
   <energy>
    <i name="alphaZ">    175.87611319 </i>
    <i name="ewald">  36600.58047340 </i>
    <i name="hartreedc"> -48319.15026819 </i>
    <i name="XCdc">   1274.21394140 </i>
    <i name="pawpsdc">  37305.71246496 </i>
    <i name="pawaedc"> -37369.54399185 </i>
    <i name="eentropy">     -0.00000132 </i>
    <i name="bandstr">  -4226.25913670 </i>
    <i name="atom">  13716.13071916 </i>
    <i name="e_fr_energy">   -842.43968596 </i>
    <i name="e_wo_entrp">   -842.43968465 </i>
    <i name="e_0_energy">   -842.43968531 </i>
   </energy>
  </scstep>
  <structure>
   <crystal>
    <varray name="basis" >
     <v>      17.27103806       0.00000000       0.00000000 </v>
     <v>      -8.63551903      14.95715771       0.00000000 </v>
     <v>       0.00000000       0.00000000      15.00000000 </v>
    </varray>
    <i name="volume">   3874.88459904 </i>
    <varray name="rec_basis" >
     <v>       0.05790040       0.03342881       0.00000000 </v>
     <v>       0.00000000       0.06685762       0.00000000 </v>
     <v>       0.00000000       0.00000000       0.06666667 </v>
    </varray>
   </crystal>
   <varray name="positions" >
    <v>       0.99977129       0.99928716       0.49747666 </v>
    <v>       0.99938870       0.14183560       0.49668994 </v>
    <v>       0.99945469       0.28483205       0.49629427 </v>
    <v>       0.99942283       0.42778082       0.49640735 </v>
    <v>       0.99952064       0.57065293       0.49710161 </v>
    <v>       0.00011865       0.71354887       0.49816480 </v>
    <v>       0.00038372       0.85687249       0.49837315 </v>
    <v>       0.14337254       0.00043258       0.49636903 </v>
    <v>       0.14299539       0.14296212       0.49640964 </v>
    <v>       0.14218502       0.28517955       0.49621782 </v>
    <v>       0.14226004       0.42855810       0.49619123 </v>
    <v>       0.14244717       0.57104667       0.49605470 </v>
    <v>       0.14279371       0.71392392       0.49613525 </v>
    <v>       0.14294572       0.85716249       0.49632432 </v>
    <v>       0.28615461       0.00045951       0.49597594 </v>
    <v>       0.28683664       0.14374651       0.49632621 </v>
    <v>       0.28643126       0.28757257       0.49641200 </v>
    <v>       0.28428461       0.42841820       0.49628706 </v>
    <v>       0.28651795       0.57187806       0.49627483 </v>
    <v>       0.28561129       0.71478920       0.49576372 </v>
    <v>       0.28521133       0.85744372       0.49558122 </v>
    <v>       0.42860170       0.99978406       0.49565645 </v>
    <v>       0.42985349       0.14366177       0.49686145 </v>
    <v>       0.42922254       0.28432858       0.49769556 </v>
    <v>       0.42733004       0.85626722       0.49566687 </v>
    <v>       0.57066849       0.99882932       0.49603863 </v>
    <v>       0.57147083       0.14198314       0.49685669 </v>
    <v>       0.57538627       0.28822503       0.49943853 </v>
    <v>       0.56954101       0.85456855       0.49813252 </v>
    <v>       0.71283972       0.99774074       0.49768708 </v>
    <v>       0.71394488       0.14129559       0.49647010 </v>
    <v>       0.71453125       0.28418156       0.49817784 </v>
    <v>       0.71060138       0.42361463       0.50239079 </v>
    <v>       0.71600152       0.57048253       0.51177235 </v>
    <v>       0.71773807       0.71409781       0.51358528 </v>
    <v>       0.71195629       0.85488083       0.50309196 </v>
    <v>       0.85626101       0.99846252       0.49888056 </v>
    <v>       0.85627858       0.14130885       0.49664466 </v>
    <v>       0.85679678       0.28439132       0.49672703 </v>
    <v>       0.85668538       0.42731604       0.49847137 </v>
    <v>       0.85621029       0.56965453       0.50134115 </v>
    <v>       0.85819006       0.71344389       0.50370008 </v>
    <v>       0.85703563       0.85585807       0.50196544 </v>
    <v>       0.04754210       0.09470648       0.49675393 </v>
    <v>       0.04675509       0.23701525       0.49630211 </v>
    <v>       0.04680389       0.38026126       0.49624468 </v>
    <v>       0.04720910       0.52316032       0.49638896 </v>
    <v>       0.04746823       0.66604815       0.49697456 </v>
    <v>       0.04760426       0.80900514       0.49750587 </v>
    <v>       0.04785280       0.95209031       0.49721724 </v>
    <v>       0.19115792       0.09558553       0.49624974 </v>
    <v>       0.19042169       0.23821679       0.49635904 </v>
    <v>       0.18883200       0.38030002       0.49622255 </v>
    <v>       0.19034424       0.52408751       0.49610530 </v>
    <v>       0.19023392       0.66649787       0.49590568 </v>
    <v>       0.19028022       0.80945425       0.49592529 </v>
    <v>       0.19091404       0.95260130       0.49616643 </v>
    <v>       0.33443603       0.09618388       0.49625642 </v>
    <v>       0.33568090       0.23934111       0.49665599 </v>
    <v>       0.33047977       0.38045636       0.49619728 </v>
    <v>       0.32990416       0.52280783       0.49655412 </v>
    <v>       0.33632108       0.67012006       0.49614832 </v>
    <v>       0.33255387       0.80961814       0.49551800 </v>
    <v>       0.33320384       0.95252778       0.49568618 </v>
    <v>       0.47648162       0.09496065       0.49644666 </v>
    <v>       0.47766525       0.23935445       0.49799613 </v>
    <v>       0.47182271       0.80547935       0.49660002 </v>
    <v>       0.47567485       0.95172627       0.49562236 </v>
    <v>       0.61856694       0.09398350       0.49632574 </v>
    <v>       0.61980464       0.23740912       0.49817510 </v>
    <v>       0.61853417       0.81024652       0.50133693 </v>
    <v>       0.61739969       0.95026276       0.49712800 </v>
    <v>       0.76107450       0.09343860       0.49659115 </v>
    <v>       0.76189558       0.23637185       0.49696671 </v>
    <v>       0.76136506       0.37902953       0.49961354 </v>
    <v>       0.75993385       0.52189169       0.50526892 </v>
    <v>       0.76291954       0.66517888       0.51030121 </v>
    <v>       0.76118570       0.80667353       0.50651380 </v>
    <v>       0.76062156       0.95038879       0.49987317 </v>
    <v>       0.90389442       0.09354216       0.49719193 </v>
    <v>       0.90415198       0.23670603       0.49636565 </v>
    <v>       0.90414518       0.37991661       0.49706085 </v>
    <v>       0.90422626       0.52277008       0.49867105 </v>
    <v>       0.90464034       0.66517967       0.50093445 </v>
    <v>       0.90495681       0.80861812       0.50134246 </v>
    <v>       0.90437368       0.95106333       0.49915400 </v>
    <v>       0.46816309       0.35701141       0.49846012 </v>
    <v>       0.40305779       0.41937215       0.49466380 </v>
    <v>       0.40218142       0.55954240       0.49663560 </v>
    <v>       0.64570163       0.67577600       0.52107055 </v>
    <v>       0.64339464       0.53473945       0.51626372 </v>
    <v>       0.57984958       0.73766560       0.50231827 </v>
    <v>       0.51211450       0.58884004       0.48617343 </v>
    <v>       0.55216344       0.56534446       0.40616384 </v>
    <v>       0.42644796       0.71490342       0.49661744 </v>
    <v>       0.62060064       0.37862368       0.50191614 </v>
    <v>       0.52691141       0.54451312       0.46511209 </v>
   </varray>
  </structure>
  <varray name="forces" >
   <v>      -0.00123704      -0.00290099       0.00037183 </v>
   <v>      -0.00051081      -0.00137472      -0.00073965 </v>
   <v>       0.00128413      -0.00047451      -0.00060091 </v>
   <v>       0.00033939      -0.00108171      -0.00150064 </v>
   <v>       0.00208176      -0.00126349       0.00119242 </v>
   <v>      -0.00009175      -0.00153563       0.00179862 </v>
   <v>      -0.00044942       0.00048882       0.00252244 </v>
   <v>      -0.00295164      -0.00187135       0.00028825 </v>
   <v>      -0.00214803      -0.00277881       0.00003513 </v>
   <v>      -0.00015692       0.00082093       0.00037509 </v>
   <v>       0.00276183       0.00212316       0.00056159 </v>
   <v>       0.00074551       0.00052261      -0.00133801 </v>
   <v>       0.00006543      -0.00338328       0.00058637 </v>
   <v>      -0.00014462      -0.00162557       0.00070987 </v>
   <v>      -0.00181286      -0.00301179      -0.00026024 </v>
   <v>      -0.00105080      -0.00162992       0.00121393 </v>
   <v>      -0.00167642       0.00229950       0.00465253 </v>
   <v>      -0.00146531      -0.00216258       0.00764418 </v>
   <v>       0.00242165       0.00185042       0.00422618 </v>
   <v>       0.00135214       0.00101505      -0.00066754 </v>
   <v>       0.00027981      -0.00447354      -0.00179141 </v>
   <v>      -0.00037574      -0.00316751      -0.00002523 </v>
   <v>       0.00212338      -0.00177229       0.00130600 </v>
   <v>      -0.00229986       0.00002486       0.00031584 </v>
   <v>       0.00345471      -0.00214460       0.00046865 </v>
   <v>       0.00479500      -0.00376875      -0.00030111 </v>
   <v>       0.00387219      -0.00302026      -0.00089500 </v>
   <v>      -0.00017501      -0.00032472       0.00158592 </v>
   <v>       0.00095294      -0.00104864       0.00156050 </v>
   <v>       0.00306930      -0.00065849       0.00089337 </v>
   <v>       0.00200744      -0.00097781      -0.00009602 </v>
   <v>       0.00109494      -0.00115612       0.00104982 </v>
   <v>      -0.00089866       0.00000643       0.00345565 </v>
   <v>      -0.00101401       0.00117899       0.00746569 </v>
   <v>      -0.00067307       0.00078955       0.00718268 </v>
   <v>      -0.00127410      -0.00151987       0.00370980 </v>
   <v>      -0.00022858      -0.00392601       0.00182404 </v>
   <v>       0.00431031      -0.00038221       0.00137946 </v>
   <v>       0.00225697      -0.00117811      -0.00109772 </v>
   <v>       0.00176679      -0.00110421       0.00118407 </v>
   <v>      -0.00141828       0.00121688       0.00292249 </v>
   <v>      -0.00127301       0.00002729       0.00584898 </v>
   <v>      -0.00190040      -0.00135455       0.00449389 </v>
   <v>       0.00121067       0.00312402       0.00100976 </v>
   <v>      -0.00077768      -0.00002503      -0.00148645 </v>
   <v>      -0.00355167       0.00151626       0.00042448 </v>
   <v>      -0.00064822      -0.00037804      -0.00154607 </v>
   <v>      -0.00227063      -0.00095253       0.00087843 </v>
   <v>      -0.00083301      -0.00037010       0.00170893 </v>
   <v>       0.00080959       0.00011643       0.00255768 </v>
   <v>       0.00198394       0.00289263       0.00082565 </v>
   <v>      -0.00014990       0.00154695       0.00131848 </v>
   <v>      -0.00229848      -0.00113707      -0.00047887 </v>
   <v>      -0.00531139      -0.00175229       0.00163954 </v>
   <v>      -0.00381967       0.00264724      -0.00141359 </v>
   <v>       0.00186809       0.00160234      -0.00181233 </v>
   <v>       0.00296638       0.00083000       0.00004055 </v>
   <v>      -0.00065308       0.00135131       0.00001918 </v>
   <v>       0.00142841      -0.00092315       0.00191539 </v>
   <v>       0.00087877      -0.00255720       0.00625796 </v>
   <v>      -0.00007813      -0.00054084       0.01101930 </v>
   <v>      -0.00570423      -0.00540834       0.00361770 </v>
   <v>      -0.00252304       0.00099258      -0.00000111 </v>
   <v>       0.00276817       0.00421598      -0.00074042 </v>
   <v>      -0.00286025       0.00198746      -0.00172731 </v>
   <v>       0.00067545      -0.00006277      -0.00007537 </v>
   <v>      -0.00330876       0.00174501       0.00179117 </v>
   <v>      -0.00264125       0.00133610      -0.00051897 </v>
   <v>      -0.00211185       0.00431821      -0.00065956 </v>
   <v>      -0.00052763       0.00272425       0.00042527 </v>
   <v>      -0.00097848       0.00322167       0.00495596 </v>
   <v>      -0.00260102       0.00248263       0.00217146 </v>
   <v>      -0.00448562      -0.00154982       0.00075903 </v>
   <v>      -0.00069420      -0.00026269      -0.00148758 </v>
   <v>      -0.00040859      -0.00026605       0.00147919 </v>
   <v>      -0.00019168      -0.00089270       0.00409540 </v>
   <v>      -0.00039554      -0.00090875       0.00702807 </v>
   <v>      -0.00092503      -0.00234203       0.00683140 </v>
   <v>      -0.00170625       0.00217854       0.00299708 </v>
   <v>      -0.00123841       0.00077848       0.00061373 </v>
   <v>      -0.00251148       0.00171387      -0.00123307 </v>
   <v>      -0.00120059       0.00054704      -0.00132982 </v>
   <v>      -0.00075709      -0.00067414       0.00179265 </v>
   <v>       0.00034813      -0.00130350       0.00374441 </v>
   <v>       0.00224260      -0.00041781       0.00533898 </v>
   <v>       0.00031573       0.00153558       0.00276115 </v>
   <v>       0.00024187      -0.00012433       0.00172421 </v>
   <v>      -0.00151953       0.00064920       0.01007921 </v>
   <v>      -0.00020580      -0.00133016       0.01910588 </v>
   <v>      -0.00012728      -0.00096471       0.01031492 </v>
   <v>       0.00075499       0.00067041       0.00954849 </v>
   <v>       0.00010014      -0.00272765       0.00628188 </v>
   <v>      -0.00536329       0.02842664      -0.07642579 </v>
   <v>       0.02677156      -0.00957598      -0.05789885 </v>
   <v>       0.00225306       0.00105176       0.00291855 </v>
   <v>      -0.00028240      -0.00064688       0.00122458 </v>
   <v>       0.00223430       0.00659948      -0.05589232 </v>
  </varray>
  <varray name="stress" >
   <v>       2.68678705      -2.58061395      -0.02153599 </v>
   <v>      -2.58061381      -4.67576808      -0.00208399 </v>
   <v>      -0.02153500      -0.00208363      -0.23883287 </v>
  </varray>
  <energy>
   <i name="e_fr_energy">   -850.19436907 </i>
   <i name="e_wo_entrp">   -850.19436775 </i>
   <i name="e_0_energy">   -850.19436841 </i>
  </energy>
  <time name="totalsc"> 1800.96 1814.29</time>
 </calculation>
 <calculation>
  <scstep>
   <time name="dav">   74.00   74.48</time>
   <time name="total">   85.21   85.78</time>
   <energy>
    <i name="alphaZ">    175.87611319 </i>
    <i name="ewald">  36600.59635007 </i>
    <i name="hartreedc"> -48319.14629728 </i>
    <i name="XCdc">   1274.21420693 </i>
    <i name="pawpsdc">  37305.62158401 </i>
    <i name="pawaedc"> -37369.45300287 </i>
    <i name="eentropy">     -0.00000131 </i>
    <i name="bandstr">  -4226.27935380 </i>
    <i name="atom">  13716.13071916 </i>
    <i name="e_fr_energy">   -842.43968192 </i>
    <i name="e_wo_entrp">   -842.43968061 </i>
    <i name="e_0_energy">   -842.43968127 </i>
   </energy>
  </scstep>
  <scstep>
   <time name="dav">   76.23   76.74</time>
   <time name="total">   81.84   82.44</time>
   <energy>
    <i name="alphaZ">    175.87611319 </i>
    <i name="ewald">  36600.59635007 </i>
    <i name="hartreedc"> -48319.14673850 </i>
    <i name="XCdc">   1274.21431038 </i>
    <i name="pawpsdc">  37305.52496053 </i>
    <i name="pawaedc"> -37369.35641747 </i>
    <i name="eentropy">     -0.00000131 </i>
    <i name="bandstr">  -4226.27897851 </i>
    <i name="atom">  13716.13071916 </i>
    <i name="e_fr_energy">   -842.43968247 </i>
    <i name="e_wo_entrp">   -842.43968115 </i>
    <i name="e_0_energy">   -842.43968181 </i>
   </energy>
  </scstep>
  <structure>
   <crystal>
    <varray name="basis" >
     <v>      17.27103806       0.00000000       0.00000000 </v>
     <v>      -8.63551903      14.95715771       0.00000000 </v>
     <v>       0.00000000       0.00000000      15.00000000 </v>
    </varray>
    <i name="volume">   3874.88459904 </i>
    <varray name="rec_basis" >
     <v>       0.05790040       0.03342881       0.00000000 </v>
     <v>       0.00000000       0.06685762       0.00000000 </v>
     <v>       0.00000000       0.00000000       0.06666667 </v>
    </varray>
   </crystal>
   <varray name="positions" >
    <v>       0.99977016       0.99928544       0.49747542 </v>
    <v>       0.99938848       0.14183492       0.49668867 </v>
    <v>       0.99945578       0.28483195       0.49629374 </v>
    <v>       0.99942317       0.42778029       0.49640649 </v>
    <v>       0.99952195       0.57065228       0.49710231 </v>
    <v>       0.00011866       0.71354807       0.49816520 </v>
    <v>       0.00038420       0.85687305       0.49837337 </v>
    <v>       0.14337074       0.00043152       0.49636873 </v>
    <v>       0.14299369       0.14296044       0.49640863 </v>
    <v>       0.14218573       0.28518035       0.49621698 </v>
    <v>       0.14226286       0.42855973       0.49619088 </v>
    <v>       0.14244826       0.57104725       0.49605396 </v>
    <v>       0.14279315       0.71392188       0.49613610 </v>
    <v>       0.14294565       0.85716163       0.49632508 </v>
    <v>       0.28615307       0.00045769       0.49597610 </v>
    <v>       0.28683595       0.14374556       0.49632611 </v>
    <v>       0.28643140       0.28757416       0.49641239 </v>
    <v>       0.28428368       0.42841709       0.49628782 </v>
    <v>       0.28652031       0.57187954       0.49627504 </v>
    <v>       0.28561288       0.71479012       0.49576317 </v>
    <v>       0.28521054       0.85744097       0.49558079 </v>
    <v>       0.42860095       0.99978214       0.49565688 </v>
    <v>       0.42985462       0.14366077       0.49686182 </v>
    <v>       0.42922165       0.28432873       0.49769421 </v>
    <v>       0.42733182       0.85626598       0.49566721 </v>
    <v>       0.57067049       0.99882697       0.49603834 </v>
    <v>       0.57147257       0.14198134       0.49685586 </v>
    <v>       0.57538657       0.28822504       0.49943793 </v>
    <v>       0.56954174       0.85456798       0.49813188 </v>
    <v>       0.71284176       0.99774050       0.49768644 </v>
    <v>       0.71394619       0.14129512       0.49646991 </v>
    <v>       0.71453201       0.28418099       0.49817784 </v>
    <v>       0.71060138       0.42361488       0.50239019 </v>
    <v>       0.71600181       0.57048360       0.51176967 </v>
    <v>       0.71773825       0.71409843       0.51358084 </v>
    <v>       0.71195557       0.85488001       0.50309004 </v>
    <v>       0.85626010       0.99846011       0.49887965 </v>
    <v>       0.85628145       0.14130881       0.49664507 </v>
    <v>       0.85679817       0.28439072       0.49672629 </v>
    <v>       0.85668655       0.42731551       0.49847138 </v>
    <v>       0.85621045       0.56965558       0.50134068 </v>
    <v>       0.85818994       0.71344417       0.50369996 </v>
    <v>       0.85703466       0.85585743       0.50196471 </v>
    <v>       0.04754437       0.09470878       0.49675361 </v>
    <v>       0.04675515       0.23701547       0.49630065 </v>
    <v>       0.04680284       0.38026248       0.49624491 </v>
    <v>       0.04720910       0.52316028       0.49638815 </v>
    <v>       0.04746714       0.66604771       0.49697514 </v>
    <v>       0.04760423       0.80900512       0.49750643 </v>
    <v>       0.04785386       0.95209060       0.49721785 </v>
    <v>       0.19116052       0.09558764       0.49624945 </v>
    <v>       0.19042253       0.23821796       0.49635839 </v>
    <v>       0.18883087       0.38029954       0.49622049 </v>
    <v>       0.19034100       0.52408656       0.49610572 </v>
    <v>       0.19023308       0.66649987       0.49590498 </v>
    <v>       0.19028237       0.80945555       0.49592472 </v>
    <v>       0.19091658       0.95260206       0.49616660 </v>
    <v>       0.33443659       0.09618496       0.49625618 </v>
    <v>       0.33568183       0.23934063       0.49665559 </v>
    <v>       0.33047973       0.38045463       0.49619659 </v>
    <v>       0.32990438       0.52280789       0.49655559 </v>
    <v>       0.33631635       0.67011669       0.49614926 </v>
    <v>       0.33255324       0.80961903       0.49551840 </v>
    <v>       0.33320738       0.95253082       0.49568632 </v>
    <v>       0.47648112       0.09496218       0.49644547 </v>
    <v>       0.47766610       0.23935459       0.49799479 </v>
    <v>       0.47182186       0.80548068       0.49660022 </v>
    <v>       0.47567426       0.95172735       0.49562226 </v>
    <v>       0.61856762       0.09398656       0.49632526 </v>
    <v>       0.61980573       0.23741115       0.49817455 </v>
    <v>       0.61853514       0.81024870       0.50133665 </v>
    <v>       0.61739950       0.95026458       0.49712859 </v>
    <v>       0.76107186       0.09343776       0.49659118 </v>
    <v>       0.76189556       0.23637186       0.49696558 </v>
    <v>       0.76136525       0.37902955       0.49961315 </v>
    <v>       0.75993402       0.52189137       0.50526727 </v>
    <v>       0.76291950       0.66517855       0.51029868 </v>
    <v>       0.76118496       0.80667220       0.50651235 </v>
    <v>       0.76062181       0.95039045       0.49987253 </v>
    <v>       0.90389450       0.09354291       0.49719129 </v>
    <v>       0.90415159       0.23670739       0.49636474 </v>
    <v>       0.90414517       0.37991717       0.49705991 </v>
    <v>       0.90422615       0.52276983       0.49867129 </v>
    <v>       0.90464070       0.66517903       0.50093459 </v>
    <v>       0.90495857       0.80861810       0.50134290 </v>
    <v>       0.90437496       0.95106462       0.49915347 </v>
    <v>       0.46816373       0.35701147       0.49845962 </v>
    <v>       0.40305744       0.41937190       0.49466559 </v>
    <v>       0.40218127       0.55954312       0.49663851 </v>
    <v>       0.64570130       0.67577495       0.52106451 </v>
    <v>       0.64339579       0.53474020       0.51626056 </v>
    <v>       0.57984929       0.73766377       0.50231808 </v>
    <v>       0.51210897       0.58883687       0.48617727 </v>
    <v>       0.55214083       0.56533908       0.40616012 </v>
    <v>       0.42645000       0.71490430       0.49661772 </v>
    <v>       0.62060077       0.37862349       0.50191409 </v>
    <v>       0.52691509       0.54451957       0.46510704 </v>
   </varray>
  </structure>
  <varray name="forces" >
   <v>       0.00131042       0.00021246       0.00199554 </v>
   <v>      -0.00039673      -0.00016527      -0.00080280 </v>
   <v>      -0.00038405       0.00041264      -0.00078068 </v>
   <v>      -0.00089433      -0.00027863      -0.00153993 </v>
   <v>       0.00016514      -0.00109303       0.00099718 </v>
   <v>      -0.00055643      -0.00107326       0.00177725 </v>
   <v>       0.00027952      -0.00001723       0.00256673 </v>
   <v>      -0.00034316      -0.00002278       0.00030020 </v>
   <v>      -0.00037819      -0.00003461       0.00004884 </v>
   <v>      -0.00058089      -0.00002429       0.00004148 </v>
   <v>      -0.00069519       0.00076825       0.00042252 </v>
   <v>      -0.00121523       0.00053014      -0.00138313 </v>
   <v>      -0.00131108      -0.00102295       0.00025063 </v>
   <v>       0.00034969      -0.00066466       0.00048549 </v>
   <v>      -0.00122719       0.00256211      -0.00074192 </v>
   <v>       0.00007846      -0.00033557       0.00106567 </v>
   <v>      -0.00034407      -0.00008514       0.00431804 </v>
   <v>      -0.00095633      -0.00177796       0.00724358 </v>
   <v>      -0.00038741      -0.00037778       0.00432719 </v>
   <v>      -0.00108104       0.00033572      -0.00060911 </v>
   <v>       0.00046036      -0.00015709      -0.00028620 </v>
   <v>      -0.00056618      -0.00001375      -0.00028797 </v>
   <v>       0.00048082      -0.00029779       0.00091110 </v>
   <v>      -0.00068306      -0.00038765       0.00025749 </v>
   <v>      -0.00044791       0.00022261       0.00038327 </v>
   <v>       0.00068245      -0.00015295      -0.00034850 </v>
   <v>      -0.00111968       0.00239295      -0.00064880 </v>
   <v>      -0.00040282      -0.00017127       0.00129722 </v>
   <v>      -0.00093161       0.00083745       0.00158452 </v>
   <v>       0.00008706       0.00030923       0.00093171 </v>
   <v>      -0.00024979       0.00009885      -0.00027307 </v>
   <v>       0.00018723      -0.00023385       0.00079578 </v>
   <v>      -0.00074560      -0.00043397       0.00316670 </v>
   <v>      -0.00017464       0.00027788       0.00714912 </v>
   <v>      -0.00064543      -0.00084165       0.00717554 </v>
   <v>      -0.00083948      -0.00018179       0.00376903 </v>
   <v>      -0.00063390      -0.00124048       0.00171266 </v>
   <v>       0.00036760      -0.00006956       0.00107713 </v>
   <v>      -0.00002489       0.00055131       0.00023444 </v>
   <v>       0.00006936      -0.00062800       0.00101805 </v>
   <v>      -0.00073878      -0.00016759       0.00281519 </v>
   <v>      -0.00021083      -0.00050433       0.00565376 </v>
   <v>      -0.00059117      -0.00094178       0.00444558 </v>
   <v>      -0.00013911      -0.00007100       0.00065550 </v>
   <v>      -0.00041449      -0.00053667      -0.00152318 </v>
   <v>       0.00106216       0.00005424       0.00161654 </v>
   <v>       0.00032842      -0.00046079      -0.00157052 </v>
   <v>       0.00289713      -0.00003974       0.00034033 </v>
   <v>      -0.00055669      -0.00059351       0.00165127 </v>
   <v>      -0.00063426      -0.00055869       0.00069061 </v>
   <v>      -0.00296642       0.00007698       0.00051225 </v>
   <v>      -0.00080878       0.00048784       0.00124656 </v>
   <v>      -0.00153057      -0.00003765       0.00131143 </v>
   <v>      -0.00141005      -0.00020891       0.00135692 </v>
   <v>      -0.00136838       0.00107290      -0.00142537 </v>
   <v>       0.00046416      -0.00080963      -0.00168756 </v>
   <v>       0.00006896      -0.00089965      -0.00001225 </v>
   <v>      -0.00060276      -0.00053627       0.00003319 </v>
   <v>      -0.00031254      -0.00048938       0.00181421 </v>
   <v>      -0.00037170      -0.00054687       0.00650472 </v>
   <v>      -0.00008168      -0.00105110       0.01099703 </v>
   <v>       0.00044825      -0.00228546       0.00274494 </v>
   <v>       0.00023330      -0.00025177      -0.00022623 </v>
   <v>       0.00089280       0.00000234      -0.00082613 </v>
   <v>       0.00053384      -0.00033800      -0.00008298 </v>
   <v>       0.00001305      -0.00019056      -0.00007489 </v>
   <v>      -0.00068064      -0.00022784       0.00169019 </v>
   <v>       0.00099841      -0.00230488       0.00074441 </v>
   <v>       0.00057373       0.00032737      -0.00078976 </v>
   <v>       0.00029436       0.00029820       0.00035860 </v>
   <v>      -0.00071631      -0.00006795       0.00473333 </v>
   <v>       0.00031881      -0.00013675       0.00186135 </v>
   <v>      -0.00027640      -0.00120169       0.00067104 </v>
   <v>       0.00075905      -0.00065940      -0.00143794 </v>
   <v>       0.00016271      -0.00045847       0.00149422 </v>
   <v>      -0.00092458      -0.00009079       0.00405696 </v>
   <v>       0.00037306      -0.00054515       0.00805587 </v>
   <v>      -0.00124442      -0.00096177       0.00635042 </v>
   <v>      -0.00019565      -0.00021276       0.00279928 </v>
   <v>      -0.00012046      -0.00107309       0.00053328 </v>
   <v>       0.00019354       0.00010335      -0.00121569 </v>
   <v>       0.00003766      -0.00053618      -0.00139452 </v>
   <v>      -0.00022712      -0.00042189       0.00170422 </v>
   <v>      -0.00056627      -0.00052039       0.00366583 </v>
   <v>       0.00018262      -0.00017309       0.00517372 </v>
   <v>      -0.00041602      -0.00074130       0.00256867 </v>
   <v>       0.00003196      -0.00011812       0.00156262 </v>
   <v>      -0.00133247       0.00059727       0.00988374 </v>
   <v>      -0.00004984      -0.00142912       0.01902038 </v>
   <v>      -0.00005108      -0.00082969       0.01008313 </v>
   <v>       0.00023378       0.00047180       0.00938617 </v>
   <v>      -0.00002339      -0.00097268       0.00617462 </v>
   <v>      -0.00535745       0.02851059      -0.07676998 </v>
   <v>       0.02888538      -0.00687530      -0.06515135 </v>
   <v>      -0.00031624      -0.00070813       0.00286262 </v>
   <v>      -0.00064532      -0.00014108       0.00135063 </v>
   <v>      -0.00040706       0.00319534      -0.04658897 </v>
  </varray>
  <varray name="stress" >
   <v>       2.68767688      -2.58127262      -0.02106967 </v>
   <v>      -2.58127246      -4.67626078      -0.00346238 </v>
   <v>      -0.02106869      -0.00346200      -0.23448631 </v>
  </varray>
  <energy>
   <i name="e_fr_energy">   -850.19436526 </i>
   <i name="e_wo_entrp">   -850.19436394 </i>
   <i name="e_0_energy">   -850.19436460 </i>
  </energy>
  <time name="totalsc">  487.33  490.25</time>
 </calculation>
 <calculation>
  <scstep>
   <time name="dav">   74.22   74.83</time>
   <time name="total">   85.36   86.04</time>
   <energy>
    <i name="alphaZ">    175.87611319 </i>
    <i name="ewald">  36600.61945551 </i>
    <i name="hartreedc"> -48319.16044371 </i>
    <i name="XCdc">   1274.21468708 </i>
    <i name="pawpsdc">  37305.42745662 </i>
    <i name="pawaedc"> -37369.25897195 </i>
    <i name="eentropy">     -0.00000131 </i>
    <i name="bandstr">  -4226.28867985 </i>
    <i name="atom">  13716.13071916 </i>
    <i name="e_fr_energy">   -842.43966526 </i>
    <i name="e_wo_entrp">   -842.43966395 </i>
    <i name="e_0_energy">   -842.43966461 </i>
   </energy>
  </scstep>
  <scstep>
   <time name="dav">   77.12   77.62</time>
   <time name="total">   86.13   86.72</time>
   <energy>
    <i name="e_fr_energy">   -842.43966572 </i>
    <i name="e_wo_entrp">   -842.43966441 </i>
    <i name="e_0_energy">   -842.43966506 </i>
   </energy>
  </scstep>
  <scstep>
   <time name="dav">   41.45   41.69</time>
   <time name="total">   45.81   46.11</time>
   <energy>
    <i name="alphaZ">    175.87611319 </i>
    <i name="ewald">  36600.61945551 </i>
    <i name="hartreedc"> -48319.16877493 </i>
    <i name="XCdc">   1274.21502907 </i>
    <i name="pawpsdc">  37305.28029797 </i>
    <i name="pawaedc"> -37369.11198204 </i>
    <i name="eentropy">     -0.00000131 </i>
    <i name="bandstr">  -4226.28052196 </i>
    <i name="atom">  13716.13071916 </i>
    <i name="e_fr_energy">   -842.43966535 </i>
    <i name="e_wo_entrp">   -842.43966403 </i>
    <i name="e_0_energy">   -842.43966469 </i>
   </energy>
  </scstep>
  <structure>
   <crystal>
    <varray name="basis" >
[...]
       <r>   -14.2021    11.9824    56.2181 </r>
       <r>   -14.0974     8.2096    57.0775 </r>
       <r>   -13.9927     8.0046    57.9154 </r>
       <r>   -13.8880     5.8557    58.5283 </r>
       <r>   -13.7834     3.2635    58.8699 </r>
       <r>   -13.6787     5.1760    59.4117 </r>
       <r>   -13.5740     8.1818    60.2681 </r>
       <r>   -13.4693     8.5737    61.1656 </r>
       <r>   -13.3647    10.5195    62.2667 </r>
       <r>   -13.2600     6.3068    62.9269 </r>
       <r>   -13.1553     7.7313    63.7362 </r>
       <r>   -13.0506     5.6102    64.3234 </r>
       <r>   -12.9460     1.6915    64.5005 </r>
       <r>   -12.8413     2.5246    64.7648 </r>
       <r>   -12.7366     9.1739    65.7250 </r>
       <r>   -12.6319     6.7463    66.4312 </r>
       <r>   -12.5273    11.3855    67.6230 </r>
       <r>   -12.4226    15.4921    69.2446 </r>
       <r>   -12.3179    10.5974    70.3539 </r>
       <r>   -12.2132     9.4033    71.3382 </r>
       <r>   -12.1086     4.4923    71.8085 </r>
       <r>   -12.0039     8.5731    72.7059 </r>
       <r>   -11.8992     9.5358    73.7040 </r>
       <r>   -11.7945     6.3431    74.3680 </r>
       <r>   -11.6899     9.4784    75.3601 </r>
       <r>   -11.5852     7.2492    76.1190 </r>
       <r>   -11.4805    11.1934    77.2906 </r>
       <r>   -11.3758    11.8629    78.5324 </r>
       <r>   -11.2712     9.7853    79.5567 </r>
       <r>   -11.1665    12.2616    80.8401 </r>
       <r>   -11.0618     7.9778    81.6752 </r>
       <r>   -10.9571    10.3470    82.7583 </r>
       <r>   -10.8525     9.6636    83.7698 </r>
       <r>   -10.7478    12.6164    85.0905 </r>
       <r>   -10.6431     8.0568    85.9338 </r>
       <r>   -10.5384     6.2584    86.5889 </r>
       <r>   -10.4337     5.8838    87.2048 </r>
       <r>   -10.3291     0.6507    87.2729 </r>
       <r>   -10.2244     8.0039    88.1107 </r>
       <r>   -10.1197    15.9653    89.7819 </r>
       <r>   -10.0150    17.4251    91.6059 </r>
       <r>    -9.9104    16.4831    93.3313 </r>
       <r>    -9.8057    17.9106    95.2061 </r>
       <r>    -9.7010    20.9222    97.3961 </r>
       <r>    -9.5963    14.1542    98.8777 </r>
       <r>    -9.4917    13.5466   100.2957 </r>
       <r>    -9.3870    17.9415   102.1737 </r>
       <r>    -9.2823    20.0154   104.2689 </r>
       <r>    -9.1776    12.7396   105.6024 </r>
       <r>    -9.0730    13.7451   107.0412 </r>
       <r>    -8.9683    26.8192   109.8485 </r>
       <r>    -8.8636    30.0798   112.9971 </r>
       <r>    -8.7589    24.8680   115.6002 </r>
       <r>    -8.6543    20.6262   117.7592 </r>
       <r>    -8.5496    18.4663   119.6922 </r>
       <r>    -8.4449    18.0827   121.5850 </r>
       <r>    -8.3402    14.6500   123.1185 </r>
       <r>    -8.2356    24.6542   125.6992 </r>
       <r>    -8.1309    19.6633   127.7574 </r>
       <r>    -8.0262    23.5220   130.2196 </r>
       <r>    -7.9215    18.0268   132.1066 </r>
       <r>    -7.8169    15.5979   133.7393 </r>
       <r>    -7.7122    15.2927   135.3401 </r>
       <r>    -7.6075    14.2128   136.8278 </r>
       <r>    -7.5028    11.9566   138.0794 </r>
       <r>    -7.3982     7.8824   138.9045 </r>
       <r>    -7.2935    16.9944   140.6834 </r>
       <r>    -7.1888    23.2470   143.1167 </r>
       <r>    -7.0841    24.0912   145.6385 </r>
       <r>    -6.9795    13.4399   147.0453 </r>
       <r>    -6.8748     9.7989   148.0710 </r>
       <r>    -6.7701    16.6662   149.8156 </r>
       <r>    -6.6654     8.5456   150.7101 </r>
       <r>    -6.5608     7.8599   151.5328 </r>
       <r>    -6.4561    12.0702   152.7963 </r>
       <r>    -6.3514    12.0896   154.0618 </r>
       <r>    -6.2467    13.9252   155.5194 </r>
       <r>    -6.1421    22.8120   157.9073 </r>
       <r>    -6.0374    13.9426   159.3667 </r>
       <r>    -5.9327    12.7569   160.7021 </r>
       <r>    -5.8280    11.9563   161.9536 </r>
       <r>    -5.7234    14.5832   163.4801 </r>
       <r>    -5.6187    13.4455   164.8875 </r>
       <r>    -5.5140    10.7241   166.0100 </r>
       <r>    -5.4093     5.5256   166.5884 </r>
       <r>    -5.3047     2.8198   166.8836 </r>
       <r>    -5.2000     1.6045   167.0515 </r>
       <r>    -5.0953     8.6397   167.9559 </r>
       <r>    -4.9906    20.9210   170.1458 </r>
       <r>    -4.8859    17.4000   171.9672 </r>
       <r>    -4.7813    20.2570   174.0876 </r>
       <r>    -4.6766     7.9547   174.9203 </r>
       <r>    -4.5719     9.8257   175.9488 </r>
       <r>    -4.4672     3.3217   176.2965 </r>
       <r>    -4.3626     8.7100   177.2082 </r>
       <r>    -4.2579     8.3812   178.0855 </r>
       <r>    -4.1532     7.3422   178.8540 </r>
       <r>    -4.0485     9.4520   179.8434 </r>
       <r>    -3.9439     8.9139   180.7765 </r>
       <r>    -3.8392     8.1548   181.6301 </r>
       <r>    -3.7345     2.1652   181.8567 </r>
       <r>    -3.6298     1.3622   181.9993 </r>
       <r>    -3.5252     0.0131   182.0007 </r>
       <r>    -3.4205     1.3726   182.1444 </r>
       <r>    -3.3158     3.5199   182.5128 </r>
       <r>    -3.2111     5.2357   183.0609 </r>
       <r>    -3.1065     3.2313   183.3991 </r>
       <r>    -3.0018     0.9625   183.4998 </r>
       <r>    -2.8971     0.0015   183.5000 </r>
       <r>    -2.7924     0.0065   183.5007 </r>
       <r>    -2.6878     1.3624   183.6433 </r>
       <r>    -2.5831     2.1863   183.8721 </r>
       <r>    -2.4784     1.2174   183.9996 </r>
       <r>    -2.3737     0.0126   184.0009 </r>
       <r>    -2.2691     1.9420   184.2042 </r>
       <r>    -2.1644     2.7881   184.4960 </r>
       <r>    -2.0597     0.0380   184.5000 </r>
       <r>    -1.9550     0.2179   184.5228 </r>
       <r>    -1.8504     2.0779   184.7403 </r>
       <r>    -1.7457     2.5171   185.0038 </r>
       <r>    -1.6410     3.7551   185.3969 </r>
       <r>    -1.5363     5.5843   185.9814 </r>
       <r>    -1.4317     0.2172   186.0041 </r>
       <r>    -1.3270     3.6693   186.3882 </r>
       <r>    -1.2223     7.4687   187.1700 </r>
       <r>    -1.1176     3.0327   187.4875 </r>
       <r>    -1.0130     0.4545   187.5350 </r>
       <r>    -0.9083     8.0122   188.3737 </r>
       <r>    -0.8036    17.2465   190.1790 </r>
       <r>    -0.6989     8.7471   191.0946 </r>
       <r>    -0.5943     7.0662   191.8343 </r>
       <r>    -0.4896    10.9726   192.9828 </r>
       <r>    -0.3849     7.2539   193.7421 </r>
       <r>    -0.2802     4.3963   194.2023 </r>
       <r>    -0.1756     4.6303   194.6870 </r>
       <r>    -0.0709    11.5845   195.8996 </r>
       <r>     0.0338     9.7050   196.9155 </r>
       <r>     0.1385    10.4501   198.0094 </r>
       <r>     0.2431    11.6714   199.2311 </r>
       <r>     0.3478     4.3938   199.6910 </r>
       <r>     0.4525     3.0264   200.0078 </r>
       <r>     0.5572     3.0017   200.3220 </r>
       <r>     0.6618     6.5716   201.0099 </r>
       <r>     0.7665    13.1566   202.3871 </r>
       <r>     0.8712    11.0940   203.5483 </r>
       <r>     0.9759     3.9683   203.9637 </r>
       <r>     1.0806    13.0428   205.3290 </r>
       <r>     1.1852     5.9360   205.9503 </r>
       <r>     1.2899     7.6272   206.7487 </r>
       <r>     1.3946     9.2240   207.7142 </r>
       <r>     1.4993    14.6882   209.2517 </r>
       <r>     1.6039    20.5887   211.4069 </r>
       <r>     1.7086    12.4255   212.7075 </r>
       <r>     1.8133     9.6899   213.7218 </r>
       <r>     1.9180    10.3327   214.8034 </r>
       <r>     2.0226    15.4837   216.4241 </r>
       <r>     2.1273    21.1528   218.6383 </r>
       <r>     2.2320    16.8784   220.4051 </r>
       <r>     2.3367    17.9506   222.2841 </r>
       <r>     2.4413    28.2741   225.2437 </r>
       <r>     2.5460    10.0349   226.2941 </r>
       <r>     2.6507     7.3872   227.0673 </r>
       <r>     2.7554    13.4489   228.4751 </r>
       <r>     2.8600    30.3999   231.6572 </r>
       <r>     2.9647    38.7816   235.7167 </r>
       <r>     3.0694    26.4803   238.4885 </r>
       <r>     3.1741    20.1298   240.5956 </r>
       <r>     3.2787    20.2053   242.7106 </r>
       <r>     3.3834     8.2313   243.5723 </r>
       <r>     3.4881    27.7861   246.4808 </r>
       <r>     3.5928    17.0105   248.2614 </r>
       <r>     3.6974    13.3113   249.6547 </r>
       <r>     3.8021    31.0786   252.9079 </r>
       <r>     3.9068    21.3426   255.1419 </r>
       <r>     4.0115    21.8036   257.4242 </r>
       <r>     4.1161    15.5520   259.0522 </r>
       <r>     4.2208    17.8825   260.9240 </r>
       <r>     4.3255    30.4448   264.1109 </r>
       <r>     4.4302     8.3798   264.9880 </r>
       <r>     4.5348     0.1146   265.0000 </r>
       <r>     4.6395     0.0000   265.0000 </r>
       <r>     4.7442     0.0000   265.0000 </r>
       <r>     4.8489     0.0000   265.0000 </r>
       <r>     4.9535     0.0000   265.0000 </r>
       <r>     5.0582     0.0000   265.0000 </r>
       <r>     5.1629     0.0000   265.0000 </r>
       <r>     5.2676     0.0000   265.0000 </r>
       <r>     5.3722     0.0000   265.0000 </r>
       <r>     5.4769     0.0000   265.0000 </r>
       <r>     5.5816     0.0000   265.0000 </r>
       <r>     5.6863     0.0000   265.0000 </r>
       <r>     5.7909     0.0000   265.0000 </r>
      </set>
     </set>
    </array>
   </total>
  </dos>
 </calculation>
 <structure name="finalpos" >
  <crystal>
   <varray name="basis" >
    <v>      17.27103806       0.00000000       0.00000000 </v>
    <v>      -8.63551903      14.95715771       0.00000000 </v>
    <v>       0.00000000       0.00000000      15.00000000 </v>
   </varray>
   <i name="volume">   3874.88459904 </i>
   <varray name="rec_basis" >
    <v>       0.05790040       0.03342881       0.00000000 </v>
    <v>       0.00000000       0.06685762       0.00000000 </v>
    <v>       0.00000000       0.00000000       0.06666667 </v>
   </varray>
  </crystal>
  <varray name="positions" >
   <v>       0.99995071       0.99931788       0.49754090 </v>
   <v>       0.99957650       0.14187831       0.49643279 </v>
   <v>       0.99964829       0.28488106       0.49592224 </v>
   <v>       0.99959021       0.42782084       0.49603978 </v>
   <v>       0.99965813       0.57068194       0.49706246 </v>
   <v>       0.00025898       0.71355978       0.49838763 </v>
   <v>       0.00056332       0.85689964       0.49870491 </v>
   <v>       0.14353572       0.00045013       0.49647513 </v>
   <v>       0.14318025       0.14299935       0.49630896 </v>
   <v>       0.14239067       0.28522239       0.49609344 </v>
   <v>       0.14243851       0.42859481       0.49605128 </v>
   <v>       0.14260176       0.57108764       0.49582782 </v>
   <v>       0.14293980       0.71393822       0.49620719 </v>
   <v>       0.14311101       0.85717811       0.49657692 </v>
   <v>       0.28630737       0.00047728       0.49597297 </v>
   <v>       0.28700114       0.14376163       0.49635243 </v>
   <v>       0.28665456       0.28763832       0.49686835 </v>
   <v>       0.28450419       0.42848562       0.49768237 </v>
   <v>       0.28664327       0.57192358       0.49720682 </v>
   <v>       0.28576701       0.71481790       0.49600207 </v>
   <v>       0.28537904       0.85746679       0.49562678 </v>
   <v>       0.42876664       0.99979512       0.49561967 </v>
   <v>       0.43001911       0.14366190       0.49668576 </v>
   <v>       0.42938769       0.28431238       0.49747276 </v>
   <v>       0.42750421       0.85627830       0.49578460 </v>
   <v>       0.57083442       0.99885041       0.49591838 </v>
   <v>       0.57165624       0.14201376       0.49660941 </v>
   <v>       0.57555333       0.28823916       0.49903100 </v>
   <v>       0.56972974       0.85459663       0.49817669 </v>
   <v>       0.71302207       0.99778535       0.49755723 </v>
   <v>       0.71412958       0.14133721       0.49628662 </v>
   <v>       0.71471085       0.28422654       0.49791055 </v>
   <v>       0.71072907       0.42366117       0.50188722 </v>
   <v>       0.71600975       0.57054578       0.51001426 </v>
   <v>       0.71770611       0.71402068       0.51178031 </v>
   <v>       0.71214299       0.85492981       0.50277382 </v>
   <v>       0.85644519       0.99850811       0.49875038 </v>
   <v>       0.85646460       0.14136203       0.49639977 </v>
   <v>       0.85697733       0.28443982       0.49646289 </v>
   <v>       0.85684741       0.42737273       0.49825892 </v>
   <v>       0.85632423       0.56969449       0.50126416 </v>
   <v>       0.85833420       0.71348347       0.50353685 </v>
   <v>       0.85719675       0.85588905       0.50199192 </v>
   <v>       0.04772662       0.09474552       0.49662147 </v>
   <v>       0.04695441       0.23706164       0.49596702 </v>
   <v>       0.04698205       0.38030499       0.49586435 </v>
   <v>       0.04736284       0.52319782       0.49610116 </v>
   <v>       0.04761158       0.66607189       0.49706671 </v>
   <v>       0.04776587       0.80902046       0.49782386 </v>
   <v>       0.04802767       0.95211356       0.49741737 </v>
   <v>       0.19131686       0.09560181       0.49629633 </v>
   <v>       0.19062981       0.23826369       0.49635435 </v>
   <v>       0.18903182       0.38034758       0.49638473 </v>
   <v>       0.19048065       0.52411887       0.49604855 </v>
   <v>       0.19038809       0.66653038       0.49593094 </v>
   <v>       0.19044506       0.80947695       0.49605855 </v>
   <v>       0.19108020       0.95261793       0.49630174 </v>
   <v>       0.33459387       0.09619733       0.49619976 </v>
   <v>       0.33585781       0.23936134       0.49674793 </v>
   <v>       0.33072138       0.38053395       0.49769453 </v>
   <v>       0.32999906       0.52284505       0.49904793 </v>
   <v>       0.33646402       0.67015409       0.49674799 </v>
   <v>       0.33272601       0.80964388       0.49565663 </v>
   <v>       0.33337279       0.95255440       0.49568307 </v>
   <v>       0.47666154       0.09497577       0.49627134 </v>
   <v>       0.47783536       0.23934880       0.49769306 </v>
   <v>       0.47200253       0.80549908       0.49682940 </v>
   <v>       0.47583803       0.95173721       0.49559809 </v>
   <v>       0.61874413       0.09401519       0.49614756 </v>
   <v>       0.61998527       0.23744612       0.49784759 </v>
   <v>       0.61871533       0.81027656       0.50135541 </v>
   <v>       0.61757476       0.95030083       0.49703409 </v>
   <v>       0.76124936       0.09348426       0.49643265 </v>
   <v>       0.76207685       0.23642179       0.49674756 </v>
   <v>       0.76152511       0.37907995       0.49931178 </v>
   <v>       0.76000585       0.52194457       0.50459866 </v>
   <v>       0.76299500       0.66523124       0.50902921 </v>
   <v>       0.76131589       0.80667740       0.50587465 </v>
   <v>       0.76080547       0.95043665       0.49969820 </v>
   <v>       0.90408335       0.09359920       0.49697705 </v>
   <v>       0.90433873       0.23676260       0.49606051 </v>
   <v>       0.90431281       0.37996454       0.49676836 </v>
   <v>       0.90436563       0.52281858       0.49863004 </v>
   <v>       0.90477927       0.66520919       0.50101578 </v>
   <v>       0.90513588       0.80865971       0.50148866 </v>
   <v>       0.90455305       0.95110914       0.49923410 </v>
   <v>       0.46837051       0.35699516       0.49805555 </v>
   <v>       0.40333864       0.41946835       0.49701646 </v>
   <v>       0.40222400       0.55970770       0.50197437 </v>
   <v>       0.64550822       0.67534836       0.51722269 </v>
   <v>       0.64335029       0.53491147       0.51327484 </v>
   <v>       0.58011868       0.73770270       0.50269354 </v>
   <v>       0.50877366       0.58845234       0.48090259 </v>
   <v>       0.53982348       0.56035856       0.39731005 </v>
   <v>       0.42660178       0.71491217       0.49707755 </v>
   <v>       0.62073036       0.37863574       0.50139873 </v>
   <v>       0.52770334       0.54702910       0.46040357 </v>
  </varray>
  <varray name="selective"  type="logical" >
   <v type="logical" >  T  T  T </v>
   <v type="logical" >  T  T  T </v>
   <v type="logical" >  T  T  T </v>
   <v type="logical" >  T  T  T </v>
   <v type="logical" >  T  T  T </v>
   <v type="logical" >  T  T  T </v>
   <v type="logical" >  T  T  T </v>
   <v type="logical" >  T  T  T </v>
   <v type="logical" >  T  T  T </v>
   <v type="logical" >  T  T  T </v>
   <v type="logical" >  T  T  T </v>
   <v type="logical" >  T  T  T </v>
   <v type="logical" >  T  T  T </v>
   <v type="logical" >  T  T  T </v>
   <v type="logical" >  T  T  T </v>
   <v type="logical" >  T  T  T </v>
   <v type="logical" >  T  T  T </v>
   <v type="logical" >  T  T  T </v>
   <v type="logical" >  T  T  T </v>
   <v type="logical" >  T  T  T </v>
   <v type="logical" >  T  T  T </v>
   <v type="logical" >  T  T  T </v>
   <v type="logical" >  T  T  T </v>
   <v type="logical" >  T  T  T </v>
   <v type="logical" >  T  T  T </v>
   <v type="logical" >  T  T  T </v>
   <v type="logical" >  T  T  T </v>
   <v type="logical" >  T  T  T </v>
   <v type="logical" >  T  T  T </v>
   <v type="logical" >  T  T  T </v>
   <v type="logical" >  T  T  T </v>
   <v type="logical" >  T  T  T </v>
   <v type="logical" >  T  T  T </v>
   <v type="logical" >  T  T  T </v>
   <v type="logical" >  T  T  T </v>
   <v type="logical" >  T  T  T </v>
   <v type="logical" >  T  T  T </v>
   <v type="logical" >  T  T  T </v>
   <v type="logical" >  T  T  T </v>
   <v type="logical" >  T  T  T </v>
   <v type="logical" >  T  T  T </v>
   <v type="logical" >  T  T  T </v>
   <v type="logical" >  T  T  T </v>
   <v type="logical" >  T  T  T </v>
   <v type="logical" >  T  T  T </v>
   <v type="logical" >  T  T  T </v>
   <v type="logical" >  T  T  T </v>
   <v type="logical" >  T  T  T </v>
   <v type="logical" >  T  T  T </v>
   <v type="logical" >  T  T  T </v>
   <v type="logical" >  T  T  T </v>
   <v type="logical" >  T  T  T </v>
   <v type="logical" >  T  T  T </v>
   <v type="logical" >  T  T  T </v>
   <v type="logical" >  T  T  T </v>
   <v type="logical" >  T  T  T </v>
   <v type="logical" >  T  T  T </v>
   <v type="logical" >  T  T  T </v>
   <v type="logical" >  T  T  T </v>
   <v type="logical" >  T  T  T </v>
   <v type="logical" >  T  T  T </v>
   <v type="logical" >  T  T  T </v>
   <v type="logical" >  T  T  T </v>
   <v type="logical" >  T  T  T </v>
   <v type="logical" >  T  T  T </v>
   <v type="logical" >  T  T  T </v>
   <v type="logical" >  T  T  T </v>
   <v type="logical" >  T  T  T </v>
   <v type="logical" >  T  T  T </v>
   <v type="logical" >  T  T  T </v>
   <v type="logical" >  T  T  T </v>
   <v type="logical" >  T  T  T </v>
   <v type="logical" >  T  T  T </v>
   <v type="logical" >  T  T  T </v>
   <v type="logical" >  T  T  T </v>
   <v type="logical" >  T  T  T </v>
   <v type="logical" >  T  T  T </v>
   <v type="logical" >  T  T  T </v>
   <v type="logical" >  T  T  T </v>
   <v type="logical" >  T  T  T </v>
   <v type="logical" >  T  T  T </v>
   <v type="logical" >  T  T  T </v>
   <v type="logical" >  T  T  T </v>
   <v type="logical" >  T  T  T </v>
   <v type="logical" >  T  T  T </v>
   <v type="logical" >  T  T  T </v>
   <v type="logical" >  T  T  T </v>
   <v type="logical" >  T  T  T </v>
   <v type="logical" >  T  T  T </v>
   <v type="logical" >  T  T  T </v>
   <v type="logical" >  T  T  T </v>
   <v type="logical" >  T  T  T </v>
   <v type="logical" >  T  T  T </v>
   <v type="logical" >  T  T  T </v>
   <v type="logical" >  T  T  T </v>
   <v type="logical" >  T  T  T </v>
   <v type="logical" >  T  T  T </v>
  </varray>
  <nose>
   <v>      -3.00000000       0.00000000       0.00010000       0.00010000 </v>
  </nose>
 </structure>
</modeling>
