unknown system                          
           1
    17.271038    0.000000    0.000000
    -8.635519   14.957158    0.000000
     0.000000    0.000000   15.000000
   C    H    N    O 
    86     8     2     1
Direct configuration=     1
   0.99977016  0.99928544  0.49747542
   0.99938848  0.14183492  0.49668867
   0.99945578  0.28483195  0.49629374
   0.99942317  0.42778029  0.49640649
   0.99952195  0.57065228  0.49710231
   0.00011866  0.71354807  0.49816520
   0.00038420  0.85687305  0.49837337
   0.14337074  0.00043152  0.49636873
   0.14299369  0.14296044  0.49640863
   0.14218573  0.28518035  0.49621698
   0.14226286  0.42855973  0.49619088
   0.14244826  0.57104725  0.49605396
   0.14279315  0.71392188  0.49613610
   0.14294565  0.85716163  0.49632508
   0.28615307  0.00045769  0.49597610
   0.28683595  0.14374556  0.49632611
   0.28643140  0.28757416  0.49641239
   0.28428368  0.42841709  0.49628782
   0.28652031  0.57187954  0.49627504
   0.28561288  0.71479012  0.49576317
   0.28521054  0.85744097  0.49558079
   0.42860095  0.99978214  0.49565688
   0.42985462  0.14366077  0.49686182
   0.42922165  0.28432873  0.49769421
   0.42733182  0.85626598  0.49566721
   0.57067049  0.99882697  0.49603834
   0.57147257  0.14198134  0.49685586
   0.57538657  0.28822504  0.49943793
   0.56954174  0.85456798  0.49813188
   0.71284176  0.99774050  0.49768644
   0.71394619  0.14129512  0.49646991
   0.71453201  0.28418099  0.49817784
   0.71060138  0.42361488  0.50239019
   0.71600181  0.57048360  0.51176967
   0.71773825  0.71409843  0.51358084
   0.71195557  0.85488001  0.50309004
   0.85626010  0.99846011  0.49887965
   0.85628145  0.14130881  0.49664507
   0.85679817  0.28439072  0.49672629
   0.85668655  0.42731551  0.49847138
   0.85621045  0.56965558  0.50134068
   0.85818994  0.71344417  0.50369996
   0.85703466  0.85585743  0.50196471
   0.04754437  0.09470878  0.49675361
   0.04675515  0.23701547  0.49630065
   0.04680284  0.38026248  0.49624491
   0.04720910  0.52316028  0.49638815
   0.04746714  0.66604771  0.49697514
   0.04760423  0.80900512  0.49750643
   0.04785386  0.95209060  0.49721785
   0.19116052  0.09558764  0.49624945
   0.19042253  0.23821796  0.49635839
   0.18883087  0.38029954  0.49622049
   0.19034100  0.52408656  0.49610572
   0.19023308  0.66649987  0.49590498
   0.19028237  0.80945555  0.49592472
   0.19091658  0.95260206  0.49616660
   0.33443659  0.09618496  0.49625618
   0.33568183  0.23934063  0.49665559
   0.33047973  0.38045463  0.49619659
   0.32990438  0.52280789  0.49655559
   0.33631635  0.67011669  0.49614926
   0.33255324  0.80961903  0.49551840
   0.33320738  0.95253082  0.49568632
   0.47648112  0.09496218  0.49644547
   0.47766610  0.23935459  0.49799479
   0.47182186  0.80548068  0.49660022
   0.47567426  0.95172735  0.49562226
   0.61856762  0.09398656  0.49632526
   0.61980573  0.23741115  0.49817455
   0.61853514  0.81024870  0.50133665
   0.61739950  0.95026458  0.49712859
   0.76107186  0.09343776  0.49659118
   0.76189556  0.23637186  0.49696558
   0.76136525  0.37902955  0.49961315
   0.75993402  0.52189137  0.50526727
   0.76291950  0.66517855  0.51029868
   0.76118496  0.80667220  0.50651235
   0.76062181  0.95039045  0.49987253
   0.90389450  0.09354291  0.49719129
   0.90415159  0.23670739  0.49636474
   0.90414517  0.37991717  0.49705991
   0.90422615  0.52276983  0.49867129
   0.90464070  0.66517903  0.50093459
   0.90495857  0.80861810  0.50134290
   0.90437496  0.95106462  0.49915347
   0.46816373  0.35701147  0.49845962
   0.40305744  0.41937190  0.49466559
   0.40218127  0.55954312  0.49663851
   0.64570130  0.67577495  0.52106451
   0.64339579  0.53474020  0.51626056
   0.57984929  0.73766377  0.50231808
   0.51210897  0.58883687  0.48617727
   0.55214083  0.56533908  0.40616012
   0.42645000  0.71490430  0.49661772
   0.62060077  0.37862349  0.50191409
   0.52691509  0.54451957  0.46510704
Direct configuration=     2
   0.99977071  0.99928431  0.49747412
   0.99938856  0.14183444  0.49668606
   0.99945724  0.28483241  0.49629253
   0.99942336  0.42777984  0.49640473
   0.99952342  0.57065110  0.49710356
   0.00011856  0.71354680  0.49816600
   0.00038548  0.85687380  0.49837386
   0.14336949  0.00043078  0.49636813
   0.14299244  0.14295909  0.49640660
   0.14218658  0.28518131  0.49621503
   0.14226581  0.42856202  0.49619007
   0.14244919  0.57104844  0.49605244
   0.14279201  0.71391954  0.49613758
   0.14294619  0.85716061  0.49632646
   0.28615243  0.00045821  0.49597604
   0.28683576  0.14374462  0.49632580
   0.28643166  0.28757560  0.49641294
   0.28428227  0.42841513  0.49628904
   0.28652241  0.57188086  0.49627555
   0.28561424  0.71479146  0.49576211
   0.28521066  0.85743864  0.49558104
   0.42860048  0.99978063  0.49565756
   0.42985638  0.14365985  0.49686227
   0.42922074  0.28432872  0.49769142
   0.42733377  0.85626523  0.49566784
   0.57067323  0.99882494  0.49603773
   0.57147485  0.14198175  0.49685437
   0.57538707  0.28822517  0.49943650
   0.56954270  0.85456824  0.49813059
   0.71284433  0.99774075  0.49768516
   0.71394777  0.14129497  0.49646941
   0.71453328  0.28418052  0.49817765
   0.71060131  0.42361505  0.50238876
   0.71600260  0.57048509  0.51176400
   0.71773802  0.71409846  0.51357185
   0.71195491  0.85487933  0.50308619
   0.85625900  0.99845728  0.49887772
   0.85628480  0.14130896  0.49664565
   0.85680015  0.28439080  0.49672578
   0.85668799  0.42731479  0.49847127
   0.85621069  0.56965666  0.50133966
   0.85819017  0.71344434  0.50369956
   0.85703372  0.85585644  0.50196320
   0.04754687  0.09471103  0.49675268
   0.04675533  0.23701554  0.49629768
   0.04680317  0.38026384  0.49624627
   0.04720969  0.52316012  0.49638650
   0.04746864  0.66604752  0.49697589
   0.04760427  0.80900490  0.49750753
   0.04785482  0.95209068  0.49721767
   0.19116150  0.09558980  0.49624864
   0.19042340  0.23821954  0.49635701
   0.18882951  0.38029939  0.49621768
   0.19033757  0.52408578  0.49610636
   0.19023239  0.66650273  0.49590356
   0.19028491  0.80945637  0.49592365
   0.19091918  0.95260230  0.49616689
   0.33443705  0.09618574  0.49625571
   0.33568276  0.23933997  0.49665469
   0.33047960  0.38045264  0.49619536
   0.32990464  0.52280762  0.49655853
   0.33631198  0.67011222  0.49615050
   0.33255330  0.80961989  0.49551905
   0.33321174  0.95253380  0.49568654
   0.47648146  0.09496352  0.49644430
   0.47766736  0.23935478  0.49799209
   0.47182111  0.80548189  0.49660056
   0.47567407  0.95172680  0.49562300
   0.61856926  0.09398975  0.49632419
   0.61980757  0.23741345  0.49817338
   0.61853605  0.81025065  0.50133592
   0.61740003  0.95026630  0.49712955
   0.76106940  0.09343633  0.49659118
   0.76189633  0.23637158  0.49696333
   0.76136592  0.37902944  0.49961235
   0.75993417  0.52189132  0.50526391
   0.76292007  0.66517816  0.51029431
   0.76118376  0.80667055  0.50650905
   0.76062239  0.95039201  0.49987108
   0.90389467  0.09354305  0.49718993
   0.90415197  0.23670892  0.49636292
   0.90414555  0.37991748  0.49705797
   0.90422636  0.52276953  0.49867171
   0.90464112  0.66517833  0.50093481
   0.90496087  0.80861823  0.50134366
   0.90437622  0.95106553  0.49915226
   0.46816489  0.35701160  0.49845849
   0.40305683  0.41937133  0.49466905
   0.40218104  0.55954449  0.49664430
   0.64570072  0.67577293  0.52105209
   0.64339770  0.53474156  0.51625402
   0.57984929  0.73766139  0.50231759
   0.51209782  0.58883048  0.48618493
   0.55209747  0.56533024  0.40614729
   0.42645181  0.71490475  0.49661823
   0.62060099  0.37862348  0.50191005
   0.52691953  0.54453004  0.46510388
Direct configuration=     3
   0.99977351  0.99928536  0.49747282
   0.99938942  0.14183480  0.49668223
   0.99945869  0.28483397  0.49629063
   0.99942361  0.42777999  0.49640226
   0.99952425  0.57064993  0.49710513
   0.00011893  0.71354563  0.49816720
   0.00038751  0.85687421  0.49837464
   0.14337267  0.00043289  0.49636706
   0.14299363  0.14296048  0.49640370
   0.14218687  0.28518183  0.49621183
   0.14226625  0.42856376  0.49618892
   0.14244924  0.57105043  0.49605023
   0.14279138  0.71391945  0.49613927
   0.14294796  0.85716002  0.49632822
   0.28615459  0.00045914  0.49597606
   0.28683676  0.14374467  0.49632518
   0.28643189  0.28757484  0.49641329
   0.28428127  0.42841325  0.49629036
   0.28652149  0.57187997  0.49627648
   0.28561393  0.71479231  0.49576071
   0.28521310  0.85743981  0.49558186
   0.42860261  0.99978293  0.49565775
   0.42985700  0.14366065  0.49686227
   0.42922114  0.28432843  0.49768735
   0.42733433  0.85626620  0.49566880
   0.57067528  0.99882597  0.49603695
   0.57147666  0.14198524  0.49685223
   0.57538786  0.28822559  0.49943402
   0.56954335  0.85457017  0.49812888
   0.71284582  0.99774181  0.49768347
   0.71394890  0.14129568  0.49646848
   0.71453515  0.28418084  0.49817705
   0.71060158  0.42361504  0.50238625
   0.71600402  0.57048615  0.51175542
   0.71773699  0.71409671  0.51355878
   0.71195518  0.85487979  0.50308073
   0.85625890  0.99845623  0.49887481
   0.85628493  0.14130966  0.49664536
   0.85680151  0.28439189  0.49672520
   0.85668889  0.42731449  0.49847092
   0.85621130  0.56965586  0.50133911
   0.85819145  0.71344428  0.50369884
   0.85703396  0.85585555  0.50196100
   0.04754763  0.09471094  0.49675092
   0.04675578  0.23701531  0.49629333
   0.04680575  0.38026485  0.49624827
   0.04721114  0.52315978  0.49638415
   0.04746822  0.66604580  0.49697739
   0.04760476  0.80900427  0.49750914
   0.04785533  0.95209048  0.49721669
   0.19115979  0.09558982  0.49624727
   0.19042372  0.23822063  0.49635494
   0.18882930  0.38030007  0.49621441
   0.19033753  0.52408689  0.49610690
   0.19023406  0.66650301  0.49590243
   0.19028606  0.80945532  0.49592248
   0.19091966  0.95260153  0.49616730
   0.33443743  0.09618564  0.49625512
   0.33568272  0.23933948  0.49665331
   0.33047924  0.38045210  0.49619521
   0.32990444  0.52280641  0.49656282
   0.33631188  0.67011019  0.49615181
   0.33255535  0.80962001  0.49551983
   0.33321223  0.95253417  0.49568614
   0.47648362  0.09496348  0.49644329
   0.47766844  0.23935493  0.49798824
   0.47182272  0.80548121  0.49660050
   0.47567576  0.95172456  0.49562447
   0.61857160  0.09399030  0.49632253
   0.61980796  0.23741422  0.49817271
   0.61853574  0.81024991  0.50133453
   0.61740237  0.95026631  0.49713049
   0.76107063  0.09343542  0.49659114
   0.76189872  0.23637126  0.49696033
   0.76136733  0.37902929  0.49961129
   0.75993437  0.52189197  0.50525895
   0.76292137  0.66517874  0.51028797
   0.76118284  0.80666986  0.50650354
   0.76062327  0.95039162  0.49986868
   0.90389514  0.09354146  0.49718788
   0.90415416  0.23670954  0.49636044
   0.90414678  0.37991705  0.49705521
   0.90422738  0.52276946  0.49867227
   0.90464157  0.66517823  0.50093505
   0.90496240  0.80861866  0.50134456
   0.90437662  0.95106454  0.49915033
   0.46816642  0.35701176  0.49845664
   0.40305629  0.41937061  0.49467393
   0.40218093  0.55954645  0.49665274
   0.64569996  0.67577001  0.52103338
   0.64339988  0.53474339  0.51624414
   0.57985036  0.73766014  0.50231678
   0.51208101  0.58882196  0.48619687
   0.55203618  0.56531999  0.40612114
   0.42645104  0.71490400  0.49661899
   0.62060140  0.37862399  0.50190431
   0.52692256  0.54454138  0.46510748
Direct configuration=     4
   0.99977697  0.99928761  0.49747157
   0.99939060  0.14183526  0.49667726
   0.99946040  0.28483593  0.49628809
   0.99942492  0.42778062  0.49639933
   0.99952427  0.57064890  0.49710683
   0.00011963  0.71354489  0.49816901
   0.00038965  0.85687408  0.49837588
   0.14337630  0.00043463  0.49636588
   0.14299640  0.14296425  0.49640011
   0.14218648  0.28518201  0.49620723
   0.14226467  0.42856470  0.49618769
   0.14244921  0.57105238  0.49604752
   0.14279202  0.71392127  0.49614088
   0.14295019  0.85715978  0.49633021
   0.28615826  0.00045963  0.49597613
   0.28683783  0.14374541  0.49632422
   0.28643203  0.28757230  0.49641323
   0.28428238  0.42841483  0.49629045
   0.28651796  0.57187661  0.49627823
   0.28561312  0.71479183  0.49575926
   0.28521689  0.85744341  0.49558175
   0.42860672  0.99978550  0.49565818
   0.42985673  0.14366255  0.49686151
   0.42922302  0.28432814  0.49768212
   0.42733431  0.85626739  0.49567021
   0.57067664  0.99882937  0.49603628
   0.57147811  0.14198764  0.49684927
   0.57538885  0.28822650  0.49943031
   0.56954391  0.85457201  0.49812715
   0.71284633  0.99774261  0.49768172
   0.71395008  0.14129651  0.49646700
   0.71453734  0.28418161  0.49817586
   0.71060245  0.42361506  0.50238245
   0.71600593  0.57048685  0.51174395
   0.71773557  0.71409383  0.51354185
   0.71195600  0.85488068  0.50307397
   0.85626039  0.99845698  0.49887103
   0.85628282  0.14131019  0.49664399
   0.85680274  0.28439322  0.49672413
   0.85668949  0.42731481  0.49847019
   0.85621225  0.56965369  0.50133899
   0.85819383  0.71344449  0.50369785
   0.85703538  0.85585498  0.50195828
   0.04754710  0.09470923  0.49674808
   0.04675657  0.23701525  0.49628769
   0.04680826  0.38026604  0.49624901
   0.04721270  0.52315947  0.49638125
   0.04746630  0.66604308  0.49697983
   0.04760642  0.80900321  0.49751136
   0.04785704  0.95209087  0.49721635
   0.19115982  0.09558862  0.49624544
   0.19042375  0.23822094  0.49635219
   0.18883011  0.38030131  0.49621099
   0.19034215  0.52408968  0.49610654
   0.19023701  0.66650148  0.49590166
   0.19028579  0.80945335  0.49592305
   0.19091911  0.95260075  0.49616792
   0.33443836  0.09618524  0.49625454
   0.33568210  0.23933920  0.49665150
   0.33047863  0.38045257  0.49619667
   0.32990315  0.52280421  0.49656871
   0.33631574  0.67011191  0.49615304
   0.33255866  0.80961997  0.49552072
   0.33321003  0.95253263  0.49568534
   0.47648724  0.09496329  0.49644253
   0.47766898  0.23935510  0.49798341
   0.47182440  0.80547960  0.49660065
   0.47567935  0.95172451  0.49562544
   0.61857386  0.09398904  0.49632031
   0.61980800  0.23741422  0.49817247
   0.61853439  0.81024703  0.50133226
   0.61740617  0.95026570  0.49713102
   0.76107539  0.09343635  0.49659100
   0.76190203  0.23637159  0.49695700
   0.76136914  0.37902923  0.49961016
   0.75993501  0.52189276  0.50525251
   0.76292091  0.66517893  0.51028067
   0.76118260  0.80667001  0.50649545
   0.76062414  0.95038964  0.49986510
   0.90389579  0.09353922  0.49718510
   0.90415748  0.23670955  0.49635760
   0.90414862  0.37991647  0.49705190
   0.90422901  0.52276922  0.49867309
   0.90464219  0.66517832  0.50093545
   0.90496304  0.80861907  0.50134550
   0.90437678  0.95106212  0.49914768
   0.46816816  0.35701178  0.49845404
   0.40305597  0.41936989  0.49468029
   0.40218077  0.55954881  0.49666409
   0.64569871  0.67576600  0.52100844
   0.64340197  0.53474557  0.51623093
   0.57985253  0.73766036  0.50231575
   0.51205841  0.58881311  0.48621287
   0.55195661  0.56530758  0.40608356
   0.42644833  0.71490199  0.49662011
   0.62060209  0.37862500  0.50189711
   0.52692668  0.54455327  0.46511337
Direct configuration=     5
   0.99977708  0.99928758  0.49746896
   0.99939108  0.14183455  0.49667121
   0.99946265  0.28483702  0.49628481
   0.99942754  0.42778122  0.49639605
   0.99952405  0.57064779  0.49710842
   0.00012019  0.71354435  0.49817166
   0.00039142  0.85687362  0.49837773
   0.14337794  0.00043412  0.49636475
   0.14299853  0.14296696  0.49639594
   0.14218587  0.28518154  0.49620239
   0.14226430  0.42856547  0.49618645
   0.14245083  0.57105285  0.49604442
   0.14279351  0.71392190  0.49614231
   0.14295166  0.85715955  0.49633236
   0.28616025  0.00046133  0.49597585
   0.28683806  0.14374559  0.49632283
   0.28643226  0.28757072  0.49641267
   0.28428450  0.42841806  0.49628971
   0.28651588  0.57187355  0.49628104
   0.28561458  0.71479049  0.49575806
   0.28521951  0.85744536  0.49558073
   0.42861075  0.99978571  0.49565873
   0.42985684  0.14366362  0.49685977
   0.42922498  0.28432817  0.49767592
   0.42733610  0.85626692  0.49567209
   0.57067876  0.99883185  0.49603588
   0.57148011  0.14198718  0.49684576
   0.57538996  0.28822771  0.49942532
   0.56954402  0.85456940  0.49812717
   0.71284777  0.99774209  0.49768017
   0.71395272  0.14129662  0.49646487
   0.71453917  0.28418190  0.49817401
   0.71060387  0.42361532  0.50237718
   0.71600677  0.57048614  0.51173115
   0.71773541  0.71409307  0.51352279
   0.71195652  0.85487898  0.50306721
   0.85626299  0.99845731  0.49886647
   0.85628396  0.14130974  0.49664232
   0.85680537  0.28439365  0.49672207
   0.85669079  0.42731518  0.49846893
   0.85621329  0.56965266  0.50133799
   0.85819578  0.71344497  0.50369684
   0.85703669  0.85585441  0.50195521
   0.04754759  0.09470881  0.49674394
   0.04675756  0.23701591  0.49628081
   0.04680901  0.38026733  0.49624794
   0.04721363  0.52315960  0.49637799
   0.04746931  0.66604353  0.49698166
   0.04760930  0.80900210  0.49751424
   0.04786082  0.95209211  0.49721668
   0.19116322  0.09558885  0.49624314
   0.19042410  0.23822095  0.49634864
   0.18883066  0.38030271  0.49620752
   0.19034515  0.52409265  0.49610565
   0.19023758  0.66650248  0.49590013
   0.19028651  0.80945273  0.49592547
   0.19092034  0.95260094  0.49616871
   0.33443927  0.09618502  0.49625544
   0.33568252  0.23933918  0.49664926
   0.33047803  0.38045238  0.49619863
   0.32990147  0.52280281  0.49657634
   0.33631750  0.67011495  0.49615469
   0.33256096  0.80962059  0.49552156
   0.33321165  0.95253185  0.49568521
   0.47649051  0.09496458  0.49644195
   0.47766934  0.23935546  0.49797773
   0.47182473  0.80547873  0.49660110
   0.47568328  0.95172818  0.49562589
   0.61857565  0.09398894  0.49631751
   0.61980928  0.23741487  0.49817231
   0.61853342  0.81024509  0.50132891
   0.61740940  0.95026677  0.49713072
   0.76107972  0.09343892  0.49659059
   0.76190452  0.23637270  0.49695371
   0.76137069  0.37902944  0.49960901
   0.75993667  0.52189264  0.50524477
   0.76292038  0.66517865  0.51027181
   0.76118317  0.80666975  0.50648465
   0.76062485  0.95038817  0.49986013
   0.90389641  0.09353872  0.49718141
   0.90416006  0.23670991  0.49635457
   0.90415054  0.37991695  0.49704831
   0.90423042  0.52276816  0.49867427
   0.90464313  0.66517759  0.50093620
   0.90496404  0.80861892  0.50134634
   0.90437834  0.95106057  0.49914435
   0.46816999  0.35701147  0.49845059
   0.40305582  0.41936928  0.49468828
   0.40217982  0.55955109  0.49667875
   0.64569662  0.67576064  0.52097755
   0.64340379  0.53474791  0.51621449
   0.57985500  0.73766077  0.50231466
   0.51203064  0.58880413  0.48623073
   0.55185738  0.56529070  0.40603964
   0.42644702  0.71490026  0.49662164
   0.62060318  0.37862622  0.50188872
   0.52693428  0.54456840  0.46511437
Direct configuration=     6
   0.99977722  0.99928564  0.49746668
   0.99939117  0.14183335  0.49666420
   0.99946495  0.28483717  0.49628068
   0.99943004  0.42778189  0.49639255
   0.99952537  0.57064759  0.49710968
   0.00012237  0.71354528  0.49817424
   0.00039362  0.85687338  0.49838041
   0.14337844  0.00043243  0.49636390
   0.14299936  0.14296596  0.49639129
   0.14218649  0.28518184  0.49619722
   0.14226651  0.42856683  0.49618516
   0.14245369  0.57105278  0.49604104
   0.14279592  0.71392111  0.49614356
   0.14295305  0.85715942  0.49633485
   0.28616003  0.00045989  0.49597584
   0.28683868  0.14374526  0.49632118
   0.28643295  0.28757184  0.49641160
   0.28428437  0.42841675  0.49629033
   0.28651777  0.57187457  0.49628514
   0.28561785  0.71479061  0.49575740
   0.28521988  0.85744372  0.49557924
   0.42861314  0.99978437  0.49565936
   0.42985991  0.14366227  0.49685744
   0.42922562  0.28432858  0.49766910
   0.42734034  0.85626639  0.49567431
   0.57068258  0.99883201  0.49603575
   0.57148303  0.14198765  0.49684258
   0.57539129  0.28822877  0.49941922
   0.56954518  0.85456624  0.49812729
   0.71285115  0.99774134  0.49767889
   0.71395693  0.14129685  0.49646212
   0.71454042  0.28418174  0.49817170
   0.71060577  0.42361570  0.50237051
   0.71600693  0.57048483  0.51171738
   0.71773567  0.71409387  0.51350226
   0.71195640  0.85487532  0.50306036
   0.85626538  0.99845593  0.49886124
   0.85628974  0.14130958  0.49664025
   0.85680928  0.28439333  0.49671881
   0.85669299  0.42731486  0.49846720
   0.85621483  0.56965319  0.50133622
   0.85819615  0.71344481  0.50369608
   0.85703740  0.85585358  0.50195190
   0.04754833  0.09471079  0.49673933
   0.04675988  0.23701597  0.49627351
   0.04680862  0.38026803  0.49624485
   0.04721449  0.52316023  0.49637462
   0.04747028  0.66604417  0.49698225
   0.04761189  0.80900146  0.49751789
   0.04786445  0.95209293  0.49721763
   0.19116553  0.09559101  0.49624028
   0.19042495  0.23822121  0.49634434
   0.18883067  0.38030392  0.49620410
   0.19034399  0.52409327  0.49610422
   0.19023654  0.66650519  0.49589795
   0.19028998  0.80945452  0.49592793
   0.19092398  0.95260201  0.49616963
   0.33444033  0.09618577  0.49625747
   0.33568486  0.23933962  0.49664663
   0.33047767  0.38045122  0.49620134
   0.32990113  0.52280417  0.49658574
   0.33631652  0.67011453  0.49615625
   0.33256188  0.80962136  0.49552220
   0.33321656  0.95253400  0.49568479
   0.47649148  0.09496701  0.49643990
   0.47767036  0.23935607  0.49797133
   0.47182410  0.80547851  0.49660219
   0.47568651  0.95173248  0.49562600
   0.61857808  0.09399114  0.49631426
   0.61981213  0.23741615  0.49817171
   0.61853441  0.81024503  0.50132481
   0.61740777  0.95026870  0.49712926
   0.76108137  0.09344077  0.49658983
   0.76190597  0.23637382  0.49695072
   0.76137180  0.37902988  0.49960776
   0.75993908  0.52189153  0.50523613
   0.76292144  0.66517809  0.51026104
   0.76118481  0.80666872  0.50647151
   0.76062612  0.95038765  0.49985404
   0.90389759  0.09354000  0.49717680
   0.90416170  0.23671054  0.49635151
   0.90415273  0.37991858  0.49704473
   0.90423122  0.52276687  0.49867577
   0.90464436  0.66517613  0.50093753
   0.90496628  0.80861835  0.50134705
   0.90438112  0.95106085  0.49914048
   0.46817199  0.35701103  0.49844627
   0.40305586  0.41936875  0.49469808
   0.40217773  0.55955308  0.49669711
   0.64569426  0.67575445  0.52094120
   0.64340490  0.53475000  0.51619510
   0.57985710  0.73766018  0.50231368
   0.51199946  0.58879269  0.48624706
   0.55173945  0.56526867  0.40599067
   0.42644878  0.71490019  0.49662368
   0.62060484  0.37862753  0.50187954
   0.52694542  0.54459093  0.46510862
Direct configuration=     7
   0.99978040  0.99928433  0.49746442
   0.99939236  0.14183359  0.49665525
   0.99946715  0.28483678  0.49627470
   0.99943111  0.42778325  0.49638820
   0.99952824  0.57064889  0.49711029
   0.00012580  0.71354627  0.49817718
   0.00039712  0.85687330  0.49838445
   0.14338087  0.00043263  0.49636334
   0.14299970  0.14296448  0.49638655
   0.14218972  0.28518394  0.49619260
   0.14226929  0.42856845  0.49618315
   0.14245607  0.57105389  0.49603864
   0.14279794  0.71392103  0.49614444
   0.14295619  0.85716000  0.49633809
   0.28616163  0.00046074  0.49597594
   0.28684151  0.14374561  0.49631912
   0.28643414  0.28757384  0.49640961
   0.28428215  0.42841185  0.49629323
   0.28652193  0.57187988  0.49629107
   0.28562012  0.71479317  0.49575729
   0.28522091  0.85744171  0.49557936
   0.42861517  0.99978733  0.49565872
   0.42986293  0.14366114  0.49685386
   0.42922562  0.28432894  0.49766096
   0.42734509  0.85626901  0.49567684
   0.57068678  0.99883243  0.49603543
   0.57148632  0.14199026  0.49683951
   0.57539333  0.28822960  0.49941118
   0.56954692  0.85456644  0.49812704
   0.71285436  0.99774189  0.49767727
   0.71396121  0.14129875  0.49645835
   0.71454209  0.28418212  0.49816877
   0.71060532  0.42361565  0.50236217
   0.71600856  0.57048430  0.51170251
   0.71773544  0.71409292  0.51347769
   0.71195724  0.85487224  0.50305172
   0.85626714  0.99845382  0.49885434
   0.85629540  0.14131134  0.49663603
   0.85681266  0.28439343  0.49671366
   0.85669561  0.42731723  0.49846562
   0.85621747  0.56965400  0.50133342
   0.85819610  0.71344283  0.50369535
   0.85703924  0.85585271  0.50194750
   0.04754891  0.09471186  0.49673327
   0.04676083  0.23701536  0.49626433
   0.04680959  0.38026746  0.49623888
   0.04721717  0.52316142  0.49637088
   0.04746965  0.66604429  0.49698185
   0.04761387  0.80900227  0.49752281
   0.04786561  0.95209140  0.49721729
   0.19116469  0.09559191  0.49623643
   0.19042644  0.23822161  0.49633850
   0.18882967  0.38030348  0.49620224
   0.19034132  0.52409114  0.49610201
   0.19023917  0.66650430  0.49589617
   0.19029480  0.80945709  0.49593025
   0.19092763  0.95260182  0.49617068
   0.33444301  0.09618661  0.49625831
   0.33568461  0.23933938  0.49664476
   0.33047834  0.38045041  0.49620545
   0.32990148  0.52280637  0.49659835
   0.33631534  0.67011044  0.49615812
   0.33256382  0.80962133  0.49552239
   0.33322218  0.95253646  0.49568390
   0.47649259  0.09496793  0.49643774
   0.47767291  0.23935633  0.49796325
   0.47182513  0.80547766  0.49660441
   0.47568933  0.95173265  0.49562600
   0.61858291  0.09399454  0.49631021
   0.61981566  0.23741726  0.49816969
   0.61853650  0.81024304  0.50132145
   0.61740775  0.95026718  0.49712717
   0.76108306  0.09343936  0.49658834
   0.76190852  0.23637442  0.49694758
   0.76137316  0.37902988  0.49960568
   0.75994133  0.52189028  0.50522571
   0.76292360  0.66517726  0.51024649
   0.76118741  0.80666723  0.50645455
   0.76062931  0.95038765  0.49984785
   0.90390025  0.09354014  0.49717041
   0.90416446  0.23671036  0.49634782
   0.90415587  0.37991962  0.49704071
   0.90423229  0.52276633  0.49867738
   0.90464634  0.66517559  0.50093964
   0.90496962  0.80861776  0.50134763
   0.90438095  0.95106350  0.49913478
   0.46817453  0.35701079  0.49844023
   0.40305613  0.41936817  0.49471108
   0.40217502  0.55955519  0.49672210
   0.64569227  0.67574737  0.52089458
   0.64340469  0.53475143  0.51617010
   0.57985896  0.73765845  0.50231267
   0.51196208  0.58877575  0.48626050
   0.55159018  0.56524017  0.40592396
   0.42645213  0.71490105  0.49662642
   0.62060712  0.37862863  0.50186840
   0.52695800  0.54462288  0.46510143
Direct configuration=     8
   0.99978446  0.99928603  0.49746146
   0.99939617  0.14183684  0.49664582
   0.99946932  0.28483643  0.49626580
   0.99943229  0.42778462  0.49638226
   0.99953083  0.57065037  0.49710957
   0.00012772  0.71354697  0.49818074
   0.00040021  0.85687259  0.49838985
   0.14338506  0.00043489  0.49636279
   0.14299934  0.14296551  0.49638091
   0.14219239  0.28518470  0.49618769
   0.14226854  0.42856805  0.49617949
   0.14245630  0.57105445  0.49603666
   0.14279917  0.71392224  0.49614439
   0.14296107  0.85716151  0.49634216
   0.28616822  0.00046420  0.49597611
   0.28684433  0.14374664  0.49631656
   0.28643469  0.28757283  0.49640638
   0.28428300  0.42841467  0.49629742
   0.28652215  0.57188246  0.49629865
   0.28562102  0.71479443  0.49575754
   0.28522736  0.85744463  0.49558121
   0.42861778  0.99979051  0.49565735
   0.42986476  0.14366305  0.49684875
   0.42922549  0.28432644  0.49765365
   0.42734691  0.85627308  0.49567922
   0.57068987  0.99883493  0.49603413
   0.57148928  0.14199356  0.49683634
   0.57539653  0.28823008  0.49940072
   0.56954936  0.85456885  0.49812609
   0.71285253  0.99774195  0.49767580
   0.71396468  0.14130138  0.49645333
   0.71454638  0.28418390  0.49816511
   0.71060510  0.42361521  0.50235154
   0.71601112  0.57048373  0.51168502
   0.71773531  0.71408764  0.51344710
   0.71196417  0.85487614  0.50303999
   0.85626790  0.99845472  0.49884493
   0.85629633  0.14131221  0.49662912
   0.85681167  0.28439419  0.49670847
   0.85669699  0.42731951  0.49846413
   0.85621951  0.56965599  0.50133178
   0.85819895  0.71344060  0.50369401
   0.85704380  0.85585448  0.50194302
   0.04755008  0.09470889  0.49672517
   0.04676396  0.23701398  0.49625603
   0.04681579  0.38026432  0.49623388
   0.04722134  0.52316390  0.49636688
   0.04747168  0.66604488  0.49698062
   0.04761631  0.80900619  0.49752792
   0.04786591  0.95208850  0.49721567
   0.19116178  0.09558748  0.49623372
   0.19042859  0.23822234  0.49633083
   0.18883007  0.38030142  0.49620192
   0.19034336  0.52409042  0.49609911
   0.19024579  0.66650204  0.49589497
   0.19029721  0.80945634  0.49593211
   0.19092947  0.95260095  0.49617183
   0.33444538  0.09618625  0.49625904
   0.33568253  0.23933917  0.49664288
   0.33048034  0.38045157  0.49621135
   0.32989854  0.52280371  0.49661492
   0.33631933  0.67011060  0.49616082
   0.33256909  0.80962222  0.49552204
   0.33322370  0.95253644  0.49568244
   0.47649714  0.09496764  0.49643507
   0.47767577  0.23935628  0.49795281
   0.47182986  0.80547736  0.49660790
   0.47569275  0.95173044  0.49562601
   0.61858881  0.09399691  0.49630538
   0.61981796  0.23741827  0.49816501
   0.61853872  0.81023944  0.50131869
   0.61741337  0.95026298  0.49712463
   0.76108795  0.09343694  0.49658534
   0.76191381  0.23637552  0.49694369
   0.76137511  0.37903012  0.49960190
   0.75994382  0.52189298  0.50521753
   0.76292478  0.66517609  0.51022741
   0.76119008  0.80666504  0.50643358
   0.76063337  0.95038693  0.49984365
   0.90390406  0.09353803  0.49716126
   0.90416894  0.23670990  0.49634246
   0.90415832  0.37991948  0.49703589
   0.90423609  0.52276897  0.49867825
   0.90464976  0.66517729  0.50094229
   0.90497272  0.80861719  0.50134802
   0.90438433  0.95106131  0.49912813
   0.46817752  0.35701114  0.49843162
   0.40305713  0.41936795  0.49472772
   0.40217347  0.55955812  0.49675517
   0.64569083  0.67573959  0.52083553
   0.64340382  0.53475245  0.51613806
   0.57986040  0.73765536  0.50231145
   0.51191590  0.58875760  0.48627157
   0.55140533  0.56520531  0.40583187
   0.42645340  0.71489994  0.49662973
   0.62060765  0.37862829  0.50185488
   0.52697125  0.54465859  0.46509108
Direct configuration=     9
   0.99978343  0.99928391  0.49745423