  98  98   0   0
  0.3953964E+02  0.1727104E-08  0.1727104E-08  0.1500000E-08  0.0000000E+00
  1.000000000000000E-004
  CAR 
 unknown system                          
      5.91911864    -25.54431260  301     -2.41130499      1.00000000
    -25.544  0.0000E+00  0.0000E+00  0.0000E+00  0.0000E+00
    -25.439  0.0000E+00  0.0000E+00  0.0000E+00  0.0000E+00
    -25.335  0.0000E+00  0.0000E+00  0.0000E+00  0.0000E+00
    -25.230  0.0000E+00  0.0000E+00  0.0000E+00  0.0000E+00
    -25.125  0.0000E+00  0.0000E+00  0.0000E+00  0.0000E+00
    -25.020  0.0000E+00  0.0000E+00  0.0000E+00  0.0000E+00
    -24.915  0.0000E+00  0.0000E+00  0.0000E+00  0.0000E+00
    -24.810  0.0000E+00  0.0000E+00  0.0000E+00  0.0000E+00
    -24.705  0.0000E+00  0.0000E+00  0.0000E+00  0.0000E+00
    -24.600  0.0000E+00  0.0000E+00  0.0000E+00  0.0000E+00
    -24.496  0.0000E+00  0.0000E+00  0.0000E+00  0.0000E+00
    -24.391  0.2488E-16  0.2488E-16  0.2609E-17  0.2609E-17
    -24.286  0.5752E-08  0.5752E-08  0.6033E-09  0.6033E-09
    -24.181  0.2813E-03  0.2813E-03  0.2950E-04  0.2950E-04
    -24.076  0.7914E-02  0.7914E-02  0.8595E-03  0.8595E-03
    -23.971  0.1339E-02  0.1339E-02  0.1000E-02  0.1000E-02
    -23.866  0.2498E-06  0.2498E-06  0.1000E-02  0.1000E-02
    -23.761  0.1128E-13  0.1128E-13  0.1000E-02  0.1000E-02
    -23.657  0.0000E+00  0.0000E+00  0.1000E-02  0.1000E-02
    -23.552  0.0000E+00  0.0000E+00  0.1000E-02  0.1000E-02
    -23.447  0.0000E+00  0.0000E+00  0.1000E-02  0.1000E-02
    -23.342  0.0000E+00  0.0000E+00  0.1000E-02  0.1000E-02
    -23.237  0.0000E+00  0.0000E+00  0.1000E-02  0.1000E-02
    -23.132  0.0000E+00  0.0000E+00  0.1000E-02  0.1000E-02
    -23.027  0.0000E+00  0.0000E+00  0.1000E-02  0.1000E-02
    -22.922  0.0000E+00  0.0000E+00  0.1000E-02  0.1000E-02
    -22.817  0.0000E+00  0.0000E+00  0.1000E-02  0.1000E-02
    -22.713  0.0000E+00  0.0000E+00  0.1000E-02  0.1000E-02
    -22.608  0.0000E+00  0.0000E+00  0.1000E-02  0.1000E-02
    -22.503  0.7258E-14  0.7258E-14  0.1000E-02  0.1000E-02
    -22.398  0.1912E-06  0.1912E-06  0.1000E-02  0.1000E-02
    -22.293  0.1210E-02  0.1210E-02  0.1127E-02  0.1127E-02
    -22.188  0.8000E-02  0.8000E-02  0.1966E-02  0.1966E-02
    -22.083  0.3245E-03  0.3245E-03  0.2000E-02  0.2000E-02
    -21.978  0.7944E-08  0.7944E-08  0.2000E-02  0.2000E-02
    -21.874  0.2211E-07  0.2211E-07  0.2000E-02  0.2000E-02
    -21.769  0.3341E-03  0.3341E-03  0.2035E-02  0.2035E-02
    -21.664  0.6970E-02  0.6970E-02  0.2766E-02  0.2766E-02
    -21.559  0.7899E-02  0.7899E-02  0.3594E-02  0.3594E-02
    -21.454  0.2153E-02  0.2153E-02  0.3820E-02  0.3820E-02
    -21.349  0.8137E-02  0.8137E-02  0.4674E-02  0.4674E-02
    -21.244  0.7009E-02  0.7009E-02  0.5409E-02  0.5409E-02
    -21.139  0.6278E-02  0.6278E-02  0.6067E-02  0.6067E-02
    -21.035  0.1855E-02  0.1855E-02  0.6262E-02  0.6262E-02
    -20.930  0.7617E-02  0.7617E-02  0.7060E-02  0.7060E-02
    -20.825  0.1451E-01  0.1451E-01  0.8582E-02  0.8582E-02
    -20.720  0.2947E-02  0.2947E-02  0.8891E-02  0.8891E-02
    -20.615  0.6230E-02  0.6230E-02  0.9544E-02  0.9544E-02
    -20.510  0.2083E-02  0.2083E-02  0.9763E-02  0.9763E-02
    -20.405  0.5311E-02  0.5311E-02  0.1032E-01  0.1032E-01
    -20.300  0.1137E-01  0.1137E-01  0.1151E-01  0.1151E-01
    -20.196  0.1292E-01  0.1292E-01  0.1287E-01  0.1287E-01
    -20.091  0.4060E-02  0.4060E-02  0.1329E-01  0.1329E-01
    -19.986  0.5361E-02  0.5361E-02  0.1386E-01  0.1386E-01
    -19.881  0.3487E-02  0.3487E-02  0.1422E-01  0.1422E-01
    -19.776  0.4121E-02  0.4121E-02  0.1465E-01  0.1465E-01
    -19.671  0.9292E-02  0.9292E-02  0.1563E-01  0.1563E-01
    -19.566  0.4218E-02  0.4218E-02  0.1607E-01  0.1607E-01
    -19.461  0.1484E-01  0.1484E-01  0.1763E-01  0.1763E-01
    -19.357  0.1008E-01  0.1008E-01  0.1868E-01  0.1868E-01
    -19.252  0.4048E-02  0.4048E-02  0.1911E-01  0.1911E-01
    -19.147  0.5612E-02  0.5612E-02  0.1970E-01  0.1970E-01
    -19.042  0.4063E-02  0.4063E-02  0.2012E-01  0.2012E-01
    -18.937  0.8428E-02  0.8428E-02  0.2101E-01  0.2101E-01
    -18.832  0.5225E-02  0.5225E-02  0.2155E-01  0.2155E-01
    -18.727  0.5315E-02  0.5315E-02  0.2211E-01  0.2211E-01
    -18.622  0.4811E-02  0.4811E-02  0.2262E-01  0.2262E-01
    -18.517  0.1613E-01  0.1613E-01  0.2431E-01  0.2431E-01
    -18.413  0.8996E-02  0.8996E-02  0.2525E-01  0.2525E-01
    -18.308  0.5281E-02  0.5281E-02  0.2581E-01  0.2581E-01
    -18.203  0.7252E-02  0.7252E-02  0.2657E-01  0.2657E-01
    -18.098  0.6220E-02  0.6220E-02  0.2722E-01  0.2722E-01
    -17.993  0.8081E-02  0.8081E-02  0.2807E-01  0.2807E-01
    -17.888  0.6664E-02  0.6664E-02  0.2876E-01  0.2876E-01
    -17.783  0.5368E-02  0.5368E-02  0.2933E-01  0.2933E-01
    -17.678  0.2195E-02  0.2195E-02  0.2956E-01  0.2956E-01
    -17.574  0.6364E-02  0.6364E-02  0.3023E-01  0.3023E-01
    -17.469  0.1194E-01  0.1194E-01  0.3148E-01  0.3148E-01
    -17.364  0.1402E-01  0.1402E-01  0.3295E-01  0.3295E-01
    -17.259  0.9062E-02  0.9062E-02  0.3390E-01  0.3390E-01
    -17.154  0.1122E-01  0.1122E-01  0.3508E-01  0.3508E-01
    -17.049  0.7085E-02  0.7085E-02  0.3582E-01  0.3582E-01
    -16.944  0.4478E-02  0.4478E-02  0.3629E-01  0.3629E-01
    -16.839  0.1094E-01  0.1094E-01  0.3744E-01  0.3744E-01
    -16.735  0.5521E-02  0.5521E-02  0.3801E-01  0.3801E-01
    -16.630  0.2521E-02  0.2521E-02  0.3828E-01  0.3828E-01
    -16.525  0.5470E-02  0.5470E-02  0.3885E-01  0.3885E-01
    -16.420  0.9018E-02  0.9018E-02  0.3980E-01  0.3980E-01
    -16.315  0.1837E-01  0.1837E-01  0.4172E-01  0.4172E-01
    -16.210  0.7184E-02  0.7184E-02  0.4248E-01  0.4248E-01
    -16.105  0.4233E-02  0.4233E-02  0.4292E-01  0.4292E-01
    -16.000  0.8676E-03  0.8676E-03  0.4301E-01  0.4301E-01
    -15.896  0.3499E-02  0.3499E-02  0.4338E-01  0.4338E-01
    -15.791  0.4170E-02  0.4170E-02  0.4382E-01  0.4382E-01
    -15.686  0.3931E-02  0.3931E-02  0.4423E-01  0.4423E-01
    -15.581  0.1760E-02  0.1760E-02  0.4441E-01  0.4441E-01
    -15.476  0.3754E-02  0.3754E-02  0.4481E-01  0.4481E-01
    -15.371  0.8987E-02  0.8987E-02  0.4575E-01  0.4575E-01
    -15.266  0.6161E-02  0.6161E-02  0.4640E-01  0.4640E-01
    -15.161  0.7797E-02  0.7797E-02  0.4721E-01  0.4721E-01
    -15.057  0.6747E-02  0.6747E-02  0.4792E-01  0.4792E-01
    -14.952  0.8364E-02  0.8364E-02  0.4880E-01  0.4880E-01
    -14.847  0.1583E-01  0.1583E-01  0.5046E-01  0.5046E-01
    -14.742  0.5468E-02  0.5468E-02  0.5103E-01  0.5103E-01
    -14.637  0.5621E-02  0.5621E-02  0.5162E-01  0.5162E-01
    -14.532  0.1105E-01  0.1105E-01  0.5278E-01  0.5278E-01
    -14.427  0.1044E-01  0.1044E-01  0.5388E-01  0.5388E-01
    -14.322  0.6388E-02  0.6388E-02  0.5455E-01  0.5455E-01
    -14.217  0.9121E-02  0.9121E-02  0.5550E-01  0.5550E-01
    -14.113  0.1140E-01  0.1140E-01  0.5670E-01  0.5670E-01
    -14.008  0.8927E-02  0.8927E-02  0.5763E-01  0.5763E-01
    -13.903  0.5582E-02  0.5582E-02  0.5822E-01  0.5822E-01
    -13.798  0.5083E-02  0.5083E-02  0.5875E-01  0.5875E-01
    -13.693  0.3508E-02  0.3508E-02  0.5912E-01  0.5912E-01
    -13.588  0.6979E-02  0.6979E-02  0.5985E-01  0.5985E-01
    -13.483  0.7786E-02  0.7786E-02  0.6067E-01  0.6067E-01
    -13.378  0.9903E-02  0.9903E-02  0.6171E-01  0.6171E-01
    -13.274  0.8421E-02  0.8421E-02  0.6259E-01  0.6259E-01
    -13.169  0.7333E-02  0.7333E-02  0.6336E-01  0.6336E-01
    -13.064  0.4741E-02  0.4741E-02  0.6386E-01  0.6386E-01
    -12.959  0.5961E-02  0.5961E-02  0.6448E-01  0.6448E-01
    -12.854  0.5671E-03  0.5671E-03  0.6454E-01  0.6454E-01
    -12.749  0.9191E-02  0.9191E-02  0.6551E-01  0.6551E-01
    -12.644  0.6146E-02  0.6146E-02  0.6615E-01  0.6615E-01
    -12.539  0.7851E-02  0.7851E-02  0.6697E-01  0.6697E-01
    -12.435  0.1536E-01  0.1536E-01  0.6858E-01  0.6858E-01
    -12.330  0.1330E-01  0.1330E-01  0.6998E-01  0.6998E-01
    -12.225  0.1024E-01  0.1024E-01  0.7105E-01  0.7105E-01
    -12.120  0.5786E-02  0.5786E-02  0.7166E-01  0.7166E-01
    -12.015  0.6405E-02  0.6405E-02  0.7233E-01  0.7233E-01
    -11.910  0.8224E-02  0.8224E-02  0.7319E-01  0.7319E-01
    -11.805  0.9457E-02  0.9457E-02  0.7419E-01  0.7419E-01
    -11.700  0.7152E-02  0.7152E-02  0.7494E-01  0.7494E-01
    -11.596  0.7202E-02  0.7202E-02  0.7569E-01  0.7569E-01
    -11.491  0.1039E-01  0.1039E-01  0.7678E-01  0.7678E-01
    -11.386  0.1152E-01  0.1152E-01  0.7799E-01  0.7799E-01
    -11.281  0.1186E-01  0.1186E-01  0.7923E-01  0.7923E-01
    -11.176  0.1118E-01  0.1118E-01  0.8041E-01  0.8041E-01
    -11.071  0.1067E-01  0.1067E-01  0.8153E-01  0.8153E-01
    -10.966  0.7417E-02  0.7417E-02  0.8230E-01  0.8230E-01
    -10.861  0.1163E-01  0.1163E-01  0.8352E-01  0.8352E-01
    -10.756  0.1254E-01  0.1254E-01  0.8484E-01  0.8484E-01
    -10.652  0.7272E-02  0.7272E-02  0.8560E-01  0.8560E-01
    -10.547  0.7497E-02  0.7497E-02  0.8639E-01  0.8639E-01
    -10.442  0.5598E-02  0.5598E-02  0.8698E-01  0.8698E-01
    -10.337  0.2487E-02  0.2487E-02  0.8724E-01  0.8724E-01
    -10.232  0.4590E-02  0.4590E-02  0.8772E-01  0.8772E-01
    -10.127  0.1692E-01  0.1692E-01  0.8949E-01  0.8949E-01
    -10.022  0.1745E-01  0.1745E-01  0.9132E-01  0.9132E-01
     -9.917  0.1510E-01  0.1510E-01  0.9291E-01  0.9291E-01
     -9.813  0.1765E-01  0.1765E-01  0.9476E-01  0.9476E-01
     -9.708  0.1893E-01  0.1893E-01  0.9674E-01  0.9674E-01
     -9.603  0.1631E-01  0.1631E-01  0.9845E-01  0.9845E-01
     -9.498  0.1133E-01  0.1133E-01  0.9964E-01  0.9964E-01
     -9.393  0.1843E-01  0.1843E-01  0.1016E+00  0.1016E+00
     -9.288  0.1834E-01  0.1834E-01  0.1035E+00  0.1035E+00
     -9.183  0.1325E-01  0.1325E-01  0.1049E+00  0.1049E+00
     -9.078  0.1784E-01  0.1784E-01  0.1068E+00  0.1068E+00
     -8.974  0.1967E-01  0.1967E-01  0.1088E+00  0.1088E+00
     -8.869  0.3261E-01  0.3261E-01  0.1122E+00  0.1122E+00
     -8.764  0.2681E-01  0.2681E-01  0.1151E+00  0.1151E+00
     -8.659  0.2264E-01  0.2264E-01  0.1174E+00  0.1174E+00
     -8.554  0.1761E-01  0.1761E-01  0.1193E+00  0.1193E+00
     -8.449  0.1964E-01  0.1964E-01  0.1213E+00  0.1213E+00
     -8.344  0.1683E-01  0.1683E-01  0.1231E+00  0.1231E+00
     -8.239  0.2048E-01  0.2048E-01  0.1252E+00  0.1252E+00
     -8.135  0.2298E-01  0.2298E-01  0.1277E+00  0.1277E+00
     -8.030  0.2491E-01  0.2491E-01  0.1303E+00  0.1303E+00
     -7.925  0.1637E-01  0.1637E-01  0.1320E+00  0.1320E+00
     -7.820  0.1573E-01  0.1573E-01  0.1336E+00  0.1336E+00
     -7.715  0.1875E-01  0.1875E-01  0.1356E+00  0.1356E+00
     -7.610  0.1656E-01  0.1656E-01  0.1373E+00  0.1373E+00
     -7.505  0.1184E-01  0.1184E-01  0.1386E+00  0.1386E+00
     -7.400  0.5053E-02  0.5053E-02  0.1391E+00  0.1391E+00
     -7.296  0.1130E-01  0.1130E-01  0.1403E+00  0.1403E+00
     -7.191  0.2763E-01  0.2763E-01  0.1432E+00  0.1432E+00
     -7.086  0.1954E-01  0.1954E-01  0.1452E+00  0.1452E+00
     -6.981  0.1787E-01  0.1787E-01  0.1471E+00  0.1471E+00
     -6.876  0.1213E-01  0.1213E-01  0.1484E+00  0.1484E+00
     -6.771  0.1137E-01  0.1137E-01  0.1496E+00  0.1496E+00
     -6.666  0.1255E-01  0.1255E-01  0.1509E+00  0.1509E+00
     -6.561  0.8299E-02  0.8299E-02  0.1518E+00  0.1518E+00
     -6.456  0.1329E-01  0.1329E-01  0.1532E+00  0.1532E+00
     -6.352  0.9935E-02  0.9935E-02  0.1542E+00  0.1542E+00
     -6.247  0.1365E-01  0.1365E-01  0.1556E+00  0.1556E+00
     -6.142  0.1846E-01  0.1846E-01  0.1576E+00  0.1576E+00
     -6.037  0.2153E-01  0.2153E-01  0.1598E+00  0.1598E+00
     -5.932  0.1535E-01  0.1535E-01  0.1614E+00  0.1614E+00
     -5.827  0.1197E-01  0.1197E-01  0.1627E+00  0.1627E+00
     -5.722  0.1444E-01  0.1444E-01  0.1642E+00  0.1642E+00
     -5.617  0.1543E-01  0.1543E-01  0.1658E+00  0.1658E+00
     -5.513  0.8891E-02  0.8891E-02  0.1668E+00  0.1668E+00
     -5.408  0.5695E-02  0.5695E-02  0.1674E+00  0.1674E+00
     -5.303  0.3817E-02  0.3817E-02  0.1678E+00  0.1678E+00
     -5.198  0.2171E-02  0.2171E-02  0.1680E+00  0.1680E+00
     -5.093  0.4474E-02  0.4474E-02  0.1685E+00  0.1685E+00
     -4.988  0.2095E-01  0.2095E-01  0.1707E+00  0.1707E+00
     -4.883  0.1734E-01  0.1734E-01  0.1725E+00  0.1725E+00
     -4.778  0.1858E-01  0.1858E-01  0.1744E+00  0.1744E+00
     -4.674  0.7776E-02  0.7776E-02  0.1752E+00  0.1752E+00
     -4.569  0.6593E-02  0.6593E-02  0.1759E+00  0.1759E+00
     -4.464  0.1218E-01  0.1218E-01  0.1772E+00  0.1772E+00
     -4.359  0.5014E-03  0.5014E-03  0.1773E+00  0.1773E+00
     -4.254  0.4969E-02  0.4969E-02  0.1778E+00  0.1778E+00
     -4.149  0.8759E-02  0.8759E-02  0.1787E+00  0.1787E+00
     -4.044  0.7608E-02  0.7608E-02  0.1795E+00  0.1795E+00
     -3.939  0.7599E-02  0.7599E-02  0.1803E+00  0.1803E+00
     -3.835  0.7864E-02  0.7864E-02  0.1811E+00  0.1811E+00
     -3.730  0.5959E-02  0.5959E-02  0.1817E+00  0.1817E+00
     -3.625  0.2449E-02  0.2449E-02  0.1820E+00  0.1820E+00
     -3.520  0.3624E-04  0.3624E-04  0.1820E+00  0.1820E+00
     -3.415  0.3010E-03  0.3010E-03  0.1820E+00  0.1820E+00
     -3.310  0.2498E-02  0.2498E-02  0.1823E+00  0.1823E+00
     -3.205  0.6531E-02  0.6531E-02  0.1830E+00  0.1830E+00
     -3.100  0.2704E-02  0.2704E-02  0.1833E+00  0.1833E+00
     -2.996  0.2124E-02  0.2124E-02  0.1835E+00  0.1835E+00
     -2.891  0.1447E-03  0.1447E-03  0.1835E+00  0.1835E+00
     -2.786  0.2786E-07  0.2786E-07  0.1835E+00  0.1835E+00
     -2.681  0.2221E-03  0.2221E-03  0.1835E+00  0.1835E+00
     -2.576  0.3328E-02  0.3328E-02  0.1839E+00  0.1839E+00
     -2.471  0.1215E-02  0.1215E-02  0.1840E+00  0.1840E+00
     -2.366  0.3177E-05  0.3177E-05  0.1840E+00  0.1840E+00
     -2.261  0.9901E-03  0.9901E-03  0.1841E+00  0.1841E+00
     -2.156  0.3668E-02  0.3668E-02  0.1845E+00  0.1845E+00
     -2.052  0.1086E-03  0.1086E-03  0.1845E+00  0.1845E+00
     -1.947  0.7619E-06  0.7619E-06  0.1845E+00  0.1845E+00
     -1.842  0.7874E-03  0.7874E-03  0.1846E+00  0.1846E+00
     -1.737  0.3067E-02  0.3067E-02  0.1849E+00  0.1849E+00
     -1.632  0.3241E-02  0.3241E-02  0.1852E+00  0.1852E+00
     -1.527  0.6471E-02  0.6471E-02  0.1859E+00  0.1859E+00
     -1.422  0.7395E-03  0.7395E-03  0.1860E+00  0.1860E+00
     -1.317  0.1543E-02  0.1543E-02  0.1862E+00  0.1862E+00
     -1.213  0.5759E-02  0.5759E-02  0.1868E+00  0.1868E+00
     -1.108  0.6175E-02  0.6175E-02  0.1874E+00  0.1874E+00
     -1.003  0.9858E-03  0.9858E-03  0.1875E+00  0.1875E+00
     -0.898  0.4966E-02  0.4966E-02  0.1880E+00  0.1880E+00
     -0.793  0.1673E-01  0.1673E-01  0.1898E+00  0.1898E+00
     -0.688  0.1080E-01  0.1080E-01  0.1909E+00  0.1909E+00
     -0.583  0.6355E-02  0.6355E-02  0.1916E+00  0.1916E+00
     -0.478  0.1071E-01  0.1071E-01  0.1927E+00  0.1927E+00
     -0.374  0.8575E-02  0.8575E-02  0.1936E+00  0.1936E+00
     -0.269  0.5695E-02  0.5695E-02  0.1942E+00  0.1942E+00
     -0.164  0.3217E-02  0.3217E-02  0.1945E+00  0.1945E+00
     -0.059  0.1143E-01  0.1143E-01  0.1957E+00  0.1957E+00
      0.046  0.8240E-02  0.8240E-02  0.1966E+00  0.1966E+00
      0.151  0.1072E-01  0.1072E-01  0.1977E+00  0.1977E+00
      0.256  0.1200E-01  0.1200E-01  0.1990E+00  0.1990E+00
      0.361  0.6257E-02  0.6257E-02  0.1997E+00  0.1997E+00
      0.465  0.3170E-02  0.3170E-02  0.2000E+00  0.2000E+00
      0.570  0.3398E-02  0.3398E-02  0.2003E+00  0.2003E+00
      0.675  0.6094E-02  0.6094E-02  0.2010E+00  0.2010E+00
      0.780  0.1204E-01  0.1204E-01  0.2022E+00  0.2022E+00
      0.885  0.1222E-01  0.1222E-01  0.2035E+00  0.2035E+00
      0.990  0.3347E-02  0.3347E-02  0.2039E+00  0.2039E+00
      1.095  0.1220E-01  0.1220E-01  0.2052E+00  0.2052E+00
      1.200  0.5870E-02  0.5870E-02  0.2058E+00  0.2058E+00
      1.304  0.8913E-02  0.8913E-02  0.2067E+00  0.2067E+00
      1.409  0.1022E-01  0.1022E-01  0.2078E+00  0.2078E+00
      1.514  0.1276E-01  0.1276E-01  0.2091E+00  0.2091E+00
      1.619  0.1948E-01  0.1948E-01  0.2112E+00  0.2112E+00
      1.724  0.1237E-01  0.1237E-01  0.2125E+00  0.2125E+00
      1.829  0.1064E-01  0.1064E-01  0.2136E+00  0.2136E+00
      1.934  0.1117E-01  0.1117E-01  0.2147E+00  0.2147E+00
      2.039  0.2004E-01  0.2004E-01  0.2168E+00  0.2168E+00
      2.144  0.1606E-01  0.1606E-01  0.2185E+00  0.2185E+00
      2.248  0.1724E-01  0.1724E-01  0.2203E+00  0.2203E+00
      2.353  0.2179E-01  0.2179E-01  0.2226E+00  0.2226E+00
      2.458  0.2773E-01  0.2773E-01  0.2255E+00  0.2255E+00
      2.563  0.4704E-02  0.4704E-02  0.2260E+00  0.2260E+00
      2.668  0.7908E-02  0.7908E-02  0.2269E+00  0.2269E+00
      2.773  0.2142E-01  0.2142E-01  0.2291E+00  0.2291E+00
      2.878  0.3205E-01  0.3205E-01  0.2325E+00  0.2325E+00
      2.983  0.3869E-01  0.3869E-01  0.2365E+00  0.2365E+00
      3.087  0.1809E-01  0.1809E-01  0.2384E+00  0.2384E+00
      3.192  0.2077E-01  0.2077E-01  0.2406E+00  0.2406E+00
      3.297  0.2418E-01  0.2418E-01  0.2431E+00  0.2431E+00
      3.402  0.1324E-01  0.1324E-01  0.2445E+00  0.2445E+00
      3.507  0.2462E-01  0.2462E-01  0.2471E+00  0.2471E+00
      3.612  0.2007E-01  0.2007E-01  0.2492E+00  0.2492E+00
      3.717  0.1497E-01  0.1497E-01  0.2508E+00  0.2508E+00
      3.822  0.2506E-01  0.2507E-01  0.2534E+00  0.2534E+00
      3.926  0.2362E-01  0.2362E-01  0.2559E+00  0.2559E+00
      4.031  0.2385E-01  0.2385E-01  0.2584E+00  0.2584E+00
      4.136  0.1522E-01  0.1522E-01  0.2600E+00  0.2600E+00
      4.241  0.1742E-01  0.1742E-01  0.2618E+00  0.2618E+00
      4.346  0.3268E-01  0.3268E-01  0.2652E+00  0.2652E+00
      4.451  0.3322E-01  0.3322E-01  0.2687E+00  0.2687E+00
      4.556  0.1212E-01  0.1212E-01  0.2700E+00  0.2700E+00
      4.661  0.1019E-03  0.1019E-03  0.2700E+00  0.2700E+00
      4.765  0.1511E-08  0.1511E-08  0.2700E+00  0.2700E+00
      4.870  0.6352E-17  0.6352E-17  0.2700E+00  0.2700E+00
      4.975  0.0000E+00  0.0000E+00  0.2700E+00  0.2700E+00
      5.080  0.0000E+00  0.0000E+00  0.2700E+00  0.2700E+00
      5.185  0.0000E+00  0.0000E+00  0.2700E+00  0.2700E+00
      5.290  0.0000E+00  0.0000E+00  0.2700E+00  0.2700E+00
      5.395  0.0000E+00  0.0000E+00  0.2700E+00  0.2700E+00
      5.500  0.0000E+00  0.0000E+00  0.2700E+00  0.2700E+00
      5.604  0.0000E+00  0.0000E+00  0.2700E+00  0.2700E+00
      5.709  0.0000E+00  0.0000E+00  0.2700E+00  0.2700E+00
      5.814  0.0000E+00  0.0000E+00  0.2700E+00  0.2700E+00
      5.919  0.0000E+00  0.0000E+00  0.2700E+00  0.2700E+00
