<?xml version="1.0" encoding="ISO-8859-1"?>
<modeling>
 <generator>
  <i name="program" type="string">vasp </i>
  <i name="version" type="string">6.4.2  </i>
  <i name="subversion" type="string">20Jul23 (build Aug 26 2025 15:10:52) complex                          parallel </i>
  <i name="platform" type="string">LinuxIFC </i>
  <i name="date" type="string">2025 12 19 </i>
  <i name="time" type="string">05:36:36 </i>
 </generator>
 <incar>
  <i type="int" name="ISTART">     0</i>
  <i type="string" name="ALGO">Normal</i>
  <i type="logical" name="ADDGRID"> T  </i>
  <i type="int" name="ISPIN">     2</i>
  <i type="int" name="IMIX">     4</i>
  <i name="AMIX">      0.20000000</i>
  <i name="BMIX">      0.00010000</i>
  <i name="AMIX_MAG">      0.80000000</i>
  <i name="BMIX_MAG">      0.00010000</i>
  <i type="int" name="ICHARG">     2</i>
  <i type="int" name="NELM">   200</i>
  <i type="int" name="IBRION">     3</i>
  <i name="EDIFF">      0.00000100</i>
  <i name="EDIFFG">     -0.03000000</i>
  <i type="int" name="NSW">  1000</i>
  <i type="int" name="ISIF">     2</i>
  <i type="int" name="ISYM">     0</i>
  <i name="ENCUT">    520.00000000</i>
  <i name="POTIM">      0.00000000</i>
  <v name="MAGMOM">      0.60000000      0.60000000      0.60000000      0.60000000      0.60000000      0.60000000      0.60000000      0.60000000      0.60000000      0.60000000      0.60000000      0.60000000      0.60000000      0.60000000      0.60000000      0.60000000      0.60000000      0.60000000      0.60000000      0.60000000
      0.60000000      0.60000000      0.60000000      0.60000000      0.60000000      0.60000000      0.60000000      0.60000000      0.60000000      0.60000000      0.60000000      0.60000000      0.60000000      0.60000000      0.60000000      0.60000000      0.60000000      0.60000000      0.60000000      0.60000000
      0.60000000      0.60000000      0.60000000      0.60000000      0.60000000      0.60000000      0.60000000      0.60000000      0.60000000      0.60000000      0.60000000      0.60000000      0.60000000      0.60000000      0.60000000      0.60000000      0.60000000      0.60000000      0.60000000      0.60000000
      0.60000000      0.60000000      0.60000000      0.60000000      0.60000000      0.60000000      0.60000000      0.60000000      0.60000000      0.60000000      0.60000000      0.60000000      0.60000000      0.60000000      0.60000000      0.60000000      0.60000000      0.60000000      0.60000000      0.60000000
      0.60000000      0.60000000      0.60000000      0.60000000      0.60000000      0.60000000      0.60000000      0.60000000      0.60000000      0.60000000      0.60000000      0.60000000      0.60000000      0.60000000      0.60000000      0.60000000      0.60000000      0.60000000</v>
  <i type="string" name="LREAL">Auto</i>
  <i type="int" name="ISMEAR">     0</i>
  <i name="SIGMA">      0.05000000</i>
  <i type="logical" name="LWAVE"> F  </i>
  <i type="logical" name="LCHARG"> F  </i>
  <i type="logical" name="LASPH"> T  </i>
  <i type="int" name="IVDW">    12</i>
  <i name="SPRING">     -5.00000000</i>
 </incar>
 <primitive_cell>
  <structure name="primitive_cell" >
   <crystal>
    <varray name="basis" >
     <v>      17.27103806       0.00000000       0.00000000 </v>
     <v>      -8.63551903      14.95715771       0.00000000 </v>
     <v>       0.00000000       0.00000000      15.00000000 </v>
    </varray>
    <i name="volume">   3874.88459904 </i>
    <varray name="rec_basis" >
     <v>       0.05790040       0.03342881       0.00000000 </v>
     <v>       0.00000000       0.06685762       0.00000000 </v>
     <v>       0.00000000       0.00000000       0.06666667 </v>
    </varray>
   </crystal>
   <varray name="positions" >
    <v>       0.99978565       0.99983926       0.50099270 </v>
    <v>       0.99953092       0.14252170       0.50050947 </v>
    <v>       0.99979597       0.28559812       0.49966480 </v>
    <v>       0.00018728       0.42858571       0.49929767 </v>
    <v>       0.00053774       0.57150332       0.49940219 </v>
    <v>       0.00117458       0.71465350       0.49942089 </v>
    <v>       0.00080749       0.85765980       0.50010148 </v>
    <v>       0.14313194       0.00046381       0.50311487 </v>
    <v>       0.14273676       0.14315923       0.50264093 </v>
    <v>       0.14245375       0.28575401       0.50101837 </v>
    <v>       0.14308966       0.42922998       0.50002471 </v>
    <v>       0.14345348       0.57164803       0.50055999 </v>
    <v>       0.14351927       0.71442571       0.50150597 </v>
    <v>       0.14327556       0.85749516       0.50250090 </v>
    <v>       0.28579641       0.00009124       0.50283873 </v>
    <v>       0.28575622       0.14288401       0.50281560 </v>
    <v>       0.28606916       0.28738945       0.50086181 </v>
    <v>       0.28519213       0.42894524       0.49724603 </v>
    <v>       0.28784807       0.57244585       0.49792779 </v>
    <v>       0.28633832       0.71520300       0.50006340 </v>
    <v>       0.28559549       0.85767879       0.50182045 </v>
    <v>       0.42868535       0.99986197       0.50041527 </v>
    <v>       0.42855609       0.14247578       0.50115973 </v>
    <v>       0.42710911       0.28234421       0.50227898 </v>
    <v>       0.42779083       0.85675167       0.49920366 </v>
    <v>       0.57094468       0.99938768       0.49774599 </v>
    <v>       0.57141217       0.14222705       0.49824509 </v>
    <v>       0.57245967       0.28582941       0.49813362 </v>
    <v>       0.57003075       0.85525315       0.49621680 </v>
    <v>       0.71316137       0.99867778       0.49636834 </v>
    <v>       0.71417706       0.14226837       0.49708890 </v>
    <v>       0.71448526       0.28532911       0.49627149 </v>
    <v>       0.71418968       0.42753577       0.49285056 </v>
    <v>       0.71853596       0.57327657       0.48227514 </v>
    <v>       0.71807686       0.71518048       0.48219187 </v>
    <v>       0.71222802       0.85576691       0.49257333 </v>
    <v>       0.85647756       0.99933645       0.49721594 </v>
    <v>       0.85654007       0.14219639       0.49799475 </v>
    <v>       0.85705633       0.28527518       0.49754725 </v>
    <v>       0.85762724       0.42836071       0.49625637 </v>
    <v>       0.85819331       0.57178140       0.49443326 </v>
    <v>       0.85938474       0.71509737       0.49286224 </v>
    <v>       0.85730252       0.85678659       0.49515052 </v>
    <v>       0.04746231       0.09519107       0.50171818 </v>
    <v>       0.04698678       0.23770335       0.50066508 </v>
    <v>       0.04750010       0.38101531       0.49989109 </v>
    <v>       0.04817363       0.52391962       0.50001281 </v>
    <v>       0.04831430       0.66684837       0.50047483 </v>
    <v>       0.04815484       0.80981463       0.50096062 </v>
    <v>       0.04785499       0.95260010       0.50180813 </v>
    <v>       0.19049568       0.09536838       0.50312083 </v>
    <v>       0.19023006       0.23839783       0.50178102 </v>
    <v>       0.18959172       0.38092035       0.49987942 </v>
    <v>       0.19152489       0.52474190       0.49994348 </v>
    <v>       0.19104318       0.66701641       0.50085174 </v>
    <v>       0.19072488       0.80985312       0.50218899 </v>
    <v>       0.19078809       0.95265812       0.50312188 </v>
    <v>       0.33344973       0.09542498       0.50259559 </v>
    <v>       0.33415959       0.23815913       0.50224614 </v>
    <v>       0.33065496       0.38028881       0.49758595 </v>
    <v>       0.33159205       0.52348303       0.49472754 </v>
    <v>       0.33720895       0.67069251       0.49848202 </v>
    <v>       0.33306772       0.80998041       0.50050110 </v>
    <v>       0.33330841       0.95258954       0.50191978 </v>
    <v>       0.47624565       0.09484250       0.49990335 </v>
    <v>       0.47566582       0.23756808       0.50082923 </v>
    <v>       0.47242168       0.80613611       0.49785215 </v>
    <v>       0.47599467       0.95212256       0.49909676 </v>
    <v>       0.61875437       0.09454707       0.49752957 </v>
    <v>       0.61934996       0.23760194       0.49731418 </v>
    <v>       0.62127590       0.37914122       0.49576161 </v>
    <v>       0.61880434       0.81069406       0.49379790 </v>
    <v>       0.61775227       0.95093848       0.49666498 </v>
    <v>       0.76134384       0.09441992       0.49710225 </v>
    <v>       0.76199285       0.23746480       0.49690959 </v>
    <v>       0.76237879       0.38053049       0.49487608 </v>
    <v>       0.76253297       0.52479677       0.48966406 </v>
    <v>       0.76439358       0.66737664       0.48511566 </v>
    <v>       0.76145307       0.80764565       0.48981150 </v>
    <v>       0.76089976       0.95128322       0.49531050 </v>
    <v>       0.90408926       0.09438544       0.49870575 </v>
    <v>       0.90440821       0.23756805       0.49847360 </v>
    <v>       0.90486453       0.38081345       0.49778056 </v>
    <v>       0.90537801       0.52394975       0.49703658 </v>
    <v>       0.90604107       0.66694440       0.49558999 </v>
    <v>       0.90560471       0.80989534       0.49616663 </v>
    <v>       0.90451243       0.95186038       0.49818884 </v>
    <v>       0.46331667       0.35486049       0.50337601 </v>
    <v>       0.40330674       0.41861339       0.49636835 </v>
    <v>       0.40412934       0.56021629       0.48794710 </v>
    <v>       0.64579290       0.67639603       0.47446485 </v>
    <v>       0.64619390       0.53961356       0.47536930 </v>
    <v>       0.58540835       0.41579752       0.49717187 </v>
    <v>       0.58012440       0.73802892       0.49315250 </v>
    <v>       0.48793142       0.56405075       0.57208714 </v>
    <v>       0.58113122       0.58145927       0.59997863 </v>
    <v>       0.42725363       0.71560808       0.49792394 </v>
    <v>       0.53006269       0.54295230       0.56275984 </v>
   </varray>
  </structure>
  <varray name="primitive_index" >
   <v type="int" >        1 </v>
   <v type="int" >        2 </v>
   <v type="int" >        3 </v>
   <v type="int" >        4 </v>
   <v type="int" >        5 </v>
   <v type="int" >        6 </v>
   <v type="int" >        7 </v>
   <v type="int" >        8 </v>
   <v type="int" >        9 </v>
   <v type="int" >       10 </v>
   <v type="int" >       11 </v>
   <v type="int" >       12 </v>
   <v type="int" >       13 </v>
   <v type="int" >       14 </v>
   <v type="int" >       15 </v>
   <v type="int" >       16 </v>
   <v type="int" >       17 </v>
   <v type="int" >       18 </v>
   <v type="int" >       19 </v>
   <v type="int" >       20 </v>
   <v type="int" >       21 </v>
   <v type="int" >       22 </v>
   <v type="int" >       23 </v>
   <v type="int" >       24 </v>
   <v type="int" >       25 </v>
   <v type="int" >       26 </v>
   <v type="int" >       27 </v>
   <v type="int" >       28 </v>
   <v type="int" >       29 </v>
   <v type="int" >       30 </v>
   <v type="int" >       31 </v>
   <v type="int" >       32 </v>
   <v type="int" >       33 </v>
   <v type="int" >       34 </v>
   <v type="int" >       35 </v>
   <v type="int" >       36 </v>
   <v type="int" >       37 </v>
   <v type="int" >       38 </v>
   <v type="int" >       39 </v>
   <v type="int" >       40 </v>
   <v type="int" >       41 </v>
   <v type="int" >       42 </v>
   <v type="int" >       43 </v>
   <v type="int" >       44 </v>
   <v type="int" >       45 </v>
   <v type="int" >       46 </v>
   <v type="int" >       47 </v>
   <v type="int" >       48 </v>
   <v type="int" >       49 </v>
   <v type="int" >       50 </v>
   <v type="int" >       51 </v>
   <v type="int" >       52 </v>
   <v type="int" >       53 </v>
   <v type="int" >       54 </v>
   <v type="int" >       55 </v>
   <v type="int" >       56 </v>
   <v type="int" >       57 </v>
   <v type="int" >       58 </v>
   <v type="int" >       59 </v>
   <v type="int" >       60 </v>
   <v type="int" >       61 </v>
   <v type="int" >       62 </v>
   <v type="int" >       63 </v>
   <v type="int" >       64 </v>
   <v type="int" >       65 </v>
   <v type="int" >       66 </v>
   <v type="int" >       67 </v>
   <v type="int" >       68 </v>
   <v type="int" >       69 </v>
   <v type="int" >       70 </v>
   <v type="int" >       71 </v>
   <v type="int" >       72 </v>
   <v type="int" >       73 </v>
   <v type="int" >       74 </v>
   <v type="int" >       75 </v>
   <v type="int" >       76 </v>
   <v type="int" >       77 </v>
   <v type="int" >       78 </v>
   <v type="int" >       79 </v>
   <v type="int" >       80 </v>
   <v type="int" >       81 </v>
   <v type="int" >       82 </v>
   <v type="int" >       83 </v>
   <v type="int" >       84 </v>
   <v type="int" >       85 </v>
   <v type="int" >       86 </v>
   <v type="int" >       87 </v>
   <v type="int" >       88 </v>
   <v type="int" >       89 </v>
   <v type="int" >       90 </v>
   <v type="int" >       91 </v>
   <v type="int" >       92 </v>
   <v type="int" >       93 </v>
   <v type="int" >       94 </v>
   <v type="int" >       95 </v>
   <v type="int" >       96 </v>
   <v type="int" >       97 </v>
   <v type="int" >       98 </v>
  </varray>
 </primitive_cell>
 <kpoints>
  <generation param="Gamma">
   <v type="int" name="divisions">       2        2        1 </v>
   <v name="usershift">      0.00000000       0.00000000       0.00000000 </v>
   <v name="genvec1">      0.50000000       0.00000000       0.00000000 </v>
   <v name="genvec2">      0.00000000       0.50000000       0.00000000 </v>
   <v name="genvec3">      0.00000000       0.00000000       1.00000000 </v>
   <v name="shift">      0.00000000       0.00000000       0.00000000 </v>
  </generation>
  <varray name="kpointlist" >
   <v>       0.00000000       0.00000000       0.00000000 </v>
   <v>       0.50000000       0.00000000       0.00000000 </v>
   <v>       0.00000000       0.50000000       0.00000000 </v>
   <v>       0.50000000       0.50000000       0.00000000 </v>
  </varray>
  <varray name="weights" >
   <v>       0.25000000 </v>
   <v>       0.25000000 </v>
   <v>       0.25000000 </v>
   <v>       0.25000000 </v>
  </varray>
 </kpoints>
 <parameters>
  <separator name="general" >
   <i type="string" name="SYSTEM">unknown system</i>
   <i type="logical" name="LCOMPAT"> F  </i>
  </separator>
  <separator name="electronic" >
   <i type="string" name="PREC">normal</i>
   <i name="ENMAX">    520.00000000</i>
   <i name="ENAUG">    644.87300000</i>
   <i name="EDIFF">      0.00000100</i>
   <i type="int" name="IALGO">    38</i>
   <i type="int" name="IWAVPR">    11</i>
   <i type="int" name="NBANDS">   270</i>
   <i type="int" name="NBANDSLOW">    -1</i>
   <i type="int" name="NBANDSHIGH">    -1</i>
   <i name="NELECT">    368.00000000</i>
   <i type="int" name="TURBO">     0</i>
   <i type="int" name="IRESTART">     0</i>
   <i type="int" name="NREBOOT">     0</i>
   <i type="int" name="NMIN">     0</i>
   <i name="EREF">      0.00000000</i>
   <separator name="electronic smearing" >
    <i type="int" name="ISMEAR">     0</i>
    <i name="SIGMA">      0.05000000</i>
    <i name="KSPACING">      0.50000000</i>
    <i type="logical" name="KGAMMA"> T  </i>
    <i type="logical" name="KBLOWUP"> T  </i>
   </separator>
   <separator name="electronic projectors" >
    <i type="logical" name="LREAL"> T  </i>
    <v name="ROPT">     -0.00050000     -0.00050000     -0.00050000     -0.00050000</v>
    <i type="int" name="LMAXPAW">  -100</i>
    <i type="int" name="LMAXMIX">     2</i>
    <i type="logical" name="NLSPLINE"> F  </i>
   </separator>
   <separator name="electronic startup" >
    <i type="int" name="ISTART">     0</i>
    <i type="int" name="ICHARG">     2</i>
    <i type="int" name="INIWAV">     1</i>
   </separator>
   <separator name="electronic spin" >
    <i type="int" name="ISPIN">     2</i>
    <i type="logical" name="LNONCOLLINEAR"> F  </i>
    <v name="MAGMOM">      0.60000000      0.60000000      0.60000000      0.60000000      0.60000000      0.60000000      0.60000000      0.60000000      0.60000000      0.60000000      0.60000000      0.60000000      0.60000000      0.60000000      0.60000000      0.60000000      0.60000000      0.60000000      0.60000000      0.60000000
      0.60000000      0.60000000      0.60000000      0.60000000      0.60000000      0.60000000      0.60000000      0.60000000      0.60000000      0.60000000      0.60000000      0.60000000      0.60000000      0.60000000      0.60000000      0.60000000      0.60000000      0.60000000      0.60000000      0.60000000
      0.60000000      0.60000000      0.60000000      0.60000000      0.60000000      0.60000000      0.60000000      0.60000000      0.60000000      0.60000000      0.60000000      0.60000000      0.60000000      0.60000000      0.60000000      0.60000000      0.60000000      0.60000000      0.60000000      0.60000000
      0.60000000      0.60000000      0.60000000      0.60000000      0.60000000      0.60000000      0.60000000      0.60000000      0.60000000      0.60000000      0.60000000      0.60000000      0.60000000      0.60000000      0.60000000      0.60000000      0.60000000      0.60000000      0.60000000      0.60000000
      0.60000000      0.60000000      0.60000000      0.60000000      0.60000000      0.60000000      0.60000000      0.60000000      0.60000000      0.60000000      0.60000000      0.60000000      0.60000000      0.60000000      0.60000000      0.60000000      0.60000000      0.60000000</v>
    <i name="NUPDOWN">     -1.00000000</i>
    <i type="logical" name="LSORBIT"> F  </i>
    <v name="SAXIS">      0.00000000      0.00000000      1.00000000</v>
    <i type="logical" name="LSPIRAL"> F  </i>
    <v name="QSPIRAL">      0.00000000      0.00000000      0.00000000</v>
    <i type="logical" name="LZEROZ"> F  </i>
   </separator>
   <separator name="electronic exchange-correlation" >
    <i type="logical" name="LASPH"> T  </i>
    <i type="logical" name="LMETAGGA"> F  </i>
   </separator>
   <separator name="electronic convergence" >
    <i type="int" name="NELM">   200</i>
    <i type="int" name="NELMDL">    -5</i>
    <i type="int" name="NELMIN">     2</i>
    <i name="ENINI">    520.00000000</i>
    <separator name="electronic convergence detail" >
     <i type="logical" name="LDIAG"> T  </i>
     <i type="logical" name="LSUBROT"> F  </i>
     <i name="WEIMIN">      0.00100000</i>
     <i name="EBREAK">      0.00000000</i>
     <i name="DEPER">      0.30000000</i>
     <i type="int" name="NRMM">     4</i>
     <i name="TIME">      0.40000000</i>
    </separator>
   </separator>
   <separator name="electronic mixer" >
    <i name="AMIX">      0.20000000</i>
    <i name="BMIX">      0.00010000</i>
    <i name="AMIN">      0.10000000</i>
    <i name="AMIX_MAG">      0.80000000</i>
    <i name="BMIX_MAG">      0.00010000</i>
    <separator name="electronic mixer details" >
     <i type="int" name="IMIX">     4</i>
     <i type="logical" name="MIXFIRST"> F  </i>
     <i type="int" name="MAXMIX">   -45</i>
     <i name="WC">    100.00000000</i>
     <i type="int" name="INIMIX">     1</i>
     <i type="int" name="MIXPRE">     1</i>
     <i type="int" name="MREMOVE">     5</i>
    </separator>
   </separator>
   <separator name="electronic dipolcorrection" >
    <i type="logical" name="LDIPOL"> F  </i>
    <i type="logical" name="LMONO"> F  </i>
    <i type="int" name="IDIPOL">     0</i>
    <i name="EPSILON">      1.00000000</i>
    <v name="DIPOL">   -100.00000000   -100.00000000   -100.00000000</v>
    <i name="EFIELD">      0.00000000</i>
   </separator>
  </separator>
  <separator name="grids" >
   <i type="int" name="NGX">    96</i>
   <i type="int" name="NGY">    96</i>
   <i type="int" name="NGZ">    84</i>
   <i type="int" name="NGXF">   192</i>
   <i type="int" name="NGYF">   192</i>
   <i type="int" name="NGZF">   168</i>
   <i type="logical" name="ADDGRID"> T  </i>
  </separator>
  <separator name="ionic" >
   <i type="int" name="NSW">  1000</i>
   <i type="int" name="IBRION">     3</i>
   <i type="int" name="MDALGO">     0</i>
   <i type="int" name="ISIF">     2</i>
   <i name="PSTRESS">      0.00000000</i>
   <i name="EDIFFG">     -0.03000000</i>
   <i type="int" name="NFREE">     0</i>
   <i name="POTIM">      0.00000000</i>
   <i name="SMASS">     -3.00000000</i>
   <i name="SCALEE">      1.00000000</i>
  </separator>
  <separator name="ionic md" >
   <i name="TEBEG">      0.00010000</i>
   <i name="TEEND">      0.00010000</i>
   <i type="int" name="NBLOCK">     1</i>
   <i type="int" name="KBLOCK">  1000</i>
   <i type="int" name="NPACO">   256</i>
   <i name="APACO">     10.00000000</i>
  </separator>
  <separator name="symmetry" >
   <i type="int" name="ISYM">     0</i>
   <i name="SYMPREC">      0.00001000</i>
  </separator>
  <separator name="dos" >
   <i type="int" name="LORBIT">     0</i>
   <v name="RWIGS">     -1.00000000     -1.00000000     -1.00000000     -1.00000000</v>
   <i type="int" name="NEDOS">   301</i>
   <i name="EMIN">     10.00000000</i>
   <i name="EMAX">    -10.00000000</i>
   <i name="EFERMI">      0.00000000</i>
  </separator>
  <separator name="writing" >
   <i type="int" name="NWRITE">     2</i>
   <i type="logical" name="LWAVE"> F  </i>
   <i type="logical" name="LDOWNSAMPLE"> F  </i>
   <i type="logical" name="LCHARG"> F  </i>
   <i type="logical" name="LPARD"> F  </i>
   <i type="logical" name="LVTOT"> F  </i>
   <i type="logical" name="LVHAR"> F  </i>
   <i type="logical" name="LELF"> F  </i>
   <i type="logical" name="LOPTICS"> F  </i>
   <v name="STM">      0.00000000      0.00000000      0.00000000      0.00000000      0.00000000      0.00000000      0.00000000</v>
  </separator>
  <separator name="performance" >
   <i type="int" name="NPAR">    10</i>
   <i type="int" name="NSIM">     4</i>
   <i type="int" name="NBLK">    -1</i>
   <i type="logical" name="LPLANE"> T  </i>
   <i type="logical" name="LSCALAPACK"> T  </i>
   <i type="logical" name="LSCAAWARE"> F  </i>
   <i type="logical" name="LSCALU"> F  </i>
   <i type="logical" name="LASYNC"> F  </i>
   <i type="logical" name="LORBITALREAL"> F  </i>
  </separator>
  <separator name="miscellaneous" >
   <i type="int" name="IDIOT">     3</i>
   <i type="int" name="PHON_NSTRUCT">    -1</i>
   <i type="logical" name="LMUSIC"> F  </i>
   <v name="POMASS">     12.01100000      1.00000000     14.00100000     16.00000000</v>
   <v name="DARWINR">      0.00000000      0.00000000      0.00000000      0.00000000</v>
   <v name="DARWINV">      1.00000000      1.00000000      1.00000000      1.00000000</v>
   <i type="logical" name="LCORR"> T  </i>
  </separator>
  <i type="logical" name="GGA_COMPAT"> T  </i>
  <i type="logical" name="LBERRY"> F  </i>
  <i type="int" name="ICORELEVEL">     0</i>
  <i type="logical" name="LDAU"> F  </i>
  <i type="int" name="I_CONSTRAINED_M">     0</i>
  <separator name="electronic exchange-correlation" >
   <i type="string" name="GGA">--</i>
   <i type="int" name="VOSKOWN">     0</i>
   <i type="logical" name="LHFCALC"> F  </i>
   <i type="string" name="PRECFOCK"></i>
   <i type="logical" name="LSYMGRAD"> F  </i>
   <i type="logical" name="LHFONE"> F  </i>
   <i type="logical" name="LRHFCALC"> F  </i>
   <i type="logical" name="LTHOMAS"> F  </i>
   <i type="logical" name="LMODELHF"> F  </i>
   <i type="logical" name="LFOCKACE"> F  </i>
   <i name="ENCUT4O">     -1.00000000</i>
   <i type="int" name="EXXOEP">     0</i>
   <i type="int" name="FOURORBIT">     0</i>
   <i name="AEXX">      0.00000000</i>
   <i name="HFALPHA">      0.00000000</i>
   <i name="MCALPHA">      0.00000000</i>
   <i name="ALDAX">      1.00000000</i>
   <i name="AGGAX">      1.00000000</i>
   <i name="ALDAC">      1.00000000</i>
   <i name="AGGAC">      1.00000000</i>
   <i type="int" name="NKREDX">     1</i>
   <i type="int" name="NKREDY">     1</i>
   <i type="int" name="NKREDZ">     1</i>
   <i type="logical" name="SHIFTRED"> F  </i>
   <i type="logical" name="ODDONLY"> F  </i>
   <i type="logical" name="EVENONLY"> F  </i>
   <i type="int" name="LMAXFOCK">     0</i>
   <i type="int" name="NMAXFOCKAE">     0</i>
   <i type="logical" name="LFOCKAEDFT"> F  </i>
   <i name="HFSCREEN">      0.00000000</i>
   <i name="HFSCREENC">      0.00000000</i>
   <i type="int" name="NBANDSGWLOW">     0</i>
  </separator>
  <separator name="vdW DFT" >
   <i type="logical" name="LUSE_VDW"> F  </i>
   <i type="int" name="IVDW_NL">     1</i>
   <i type="logical" name="LSPIN_VDW"> F  </i>
   <i name="Zab_VDW">     -0.84910000</i>
   <i name="PARAM1">      0.12340000</i>
   <i name="PARAM2">      1.00000000</i>
   <i name="PARAM3">      0.00000000</i>
  </separator>
  <separator name="model GW" >
   <i type="int" name="MODEL_GW">     0</i>
   <i name="MODEL_EPS0">     23.72378326</i>
   <i name="MODEL_ALPHA">      1.00000000</i>
  </separator>
  <separator name="linear response parameters" >
   <i type="logical" name="LEPSILON"> F  </i>
   <i type="logical" name="LRPA"> F  </i>
   <i type="logical" name="LNABLA"> F  </i>
   <i type="logical" name="LVEL"> F  </i>
   <i name="CSHIFT">      0.10000000</i>
   <i name="OMEGAMAX">     -1.00000000</i>
   <i name="DEG_THRESHOLD">      0.00200000</i>
   <i name="RTIME">     -0.10000000</i>
   <i name="WPLASMAI">      0.00000000</i>
   <v name="DFIELD">      0.00000000      0.00000000      0.00000000</v>
   <v name="WPLASMA">      0.00000000      0.00000000      0.00000000      0.00000000      0.00000000      0.00000000      0.00000000      0.00000000      0.00000000</v>
  </separator>
  <separator name="orbital magnetization" >
   <i type="logical" name="NUCIND"> F  </i>
   <v name="MAGPOS">      0.00000000      0.00000000      0.00000000</v>
   <i type="logical" name="LNICSALL"> T  </i>
   <i type="logical" name="ORBITALMAG"> F  </i>
   <i type="logical" name="LMAGBLOCH"> F  </i>
   <i type="logical" name="LCHIMAG"> F  </i>
   <i type="logical" name="LGAUGE"> T  </i>
   <i type="int" name="MAGATOM">     0</i>
   <v name="MAGDIPOL">      0.00000000      0.00000000      0.00000000</v>
   <v name="AVECCONST">      0.00000000      0.00000000      0.00000000</v>
  </separator>
  <separator name="response functions" >
   <i type="logical" name="LALL_IN_ONE"> F  </i>
   <i type="int" name="IALL_IN_ONE">    -1</i>
   <i type="int" name="NBANDS_WAVE">    -1</i>
   <i type="logical" name="LFINITE_TEMPERATURE"> F  </i>
   <i type="logical" name="LADDER"> F  </i>
   <i type="logical" name="LRPAFORCE"> F  </i>
   <i type="logical" name="LFXC"> F  </i>
   <i type="logical" name="LHARTREE"> T  </i>
   <i type="int" name="IBSE">     0</i>
   <v type="int" name="KPOINT">    -1     0     0     0</v>
   <i type="logical" name="LTCTC"> F  </i>
   <i type="logical" name="LTCTE"> F  </i>
   <i type="logical" name="LTETE"> F  </i>
   <i type="logical" name="LTRIPLET"> F  </i>
   <i type="logical" name="LFXCEPS"> F  </i>
   <i type="logical" name="LFXHEG"> F  </i>
   <i type="int" name="NATURALO">     2</i>
   <i type="logical" name="LHOLEGF"> F  </i>
   <i type="logical" name="L2ORDER"> F  </i>
   <i type="logical" name="LDMP1"> F  </i>
   <i type="logical" name="LMP2LT"> F  </i>
   <i type="logical" name="LSMP2LT"> F  </i>
   <i type="logical" name="LGWLF"> F  </i>
   <i name="ENCUTGW">     -1.60000002</i>
   <i name="ENCUTGWSOFT">     -1.60000002</i>
   <i name="ENCUTLF">     -1.00000000</i>
   <i type="logical" name="LESF_SPLINES"> F  </i>
   <i type="int" name="LMAXMP2">    -1</i>
   <i name="SCISSOR">      0.00000000</i>
   <i type="int" name="NOMEGA">     0</i>
   <i type="int" name="NOMEGAR">     0</i>
   <i type="int" name="NBANDSGW">    -1</i>
   <i type="int" name="NBANDSO">    -1</i>
   <i type="int" name="NBANDSV">    -1</i>
   <i type="int" name="NELMGW">     1</i>
   <i type="int" name="NELMHF">     1</i>
   <i type="int" name="DIM">     3</i>
   <i type="int" name="IESPILON">     4</i>
   <i type="int" name="ANTIRES">     0</i>
   <i name="OMEGAMAX">    -30.00000000</i>
   <i name="OMEGAMIN">    -30.00000000</i>
   <i name="OMEGATL">   -200.00000000</i>
   <i type="int" name="OMEGAGRID">     0</i>
   <i name="CSHIFT">     -0.10000000</i>
   <i type="logical" name="LSELFENERGY"> F  </i>
   <i type="logical" name="LSPECTRAL"> F  </i>
   <i type="logical" name="LSPECTRALGW"> F  </i>
   <i type="logical" name="LSINGLES"> F  </i>
   <i type="logical" name="LFERMIGW"> F  </i>
   <i type="logical" name="ODDONLYGW"> F  </i>
   <i type="logical" name="EVENONLYGW"> F  </i>
   <i type="int" name="NKREDLFX">     1</i>
   <i type="int" name="NKREDLFY">     1</i>
   <i type="int" name="NKREDLFZ">     1</i>
   <i type="int" name="MAXMEM">  2800</i>
   <i type="int" name="TELESCOPE">     0</i>
   <i type="int" name="NTAUPAR">    -1</i>
   <i type="int" name="NOMEGAPAR">    -1</i>
   <i name="DAMP_NEWTON">      0.80000001</i>
   <i name="LAMBDA">      1.00000000</i>
  </separator>
  <separator name="External order field" >
   <i name="OFIELD_KAPPA">      0.00000000</i>
   <v name="OFIELD_K">      0.00000000      0.00000000      0.00000000</v>
   <i name="OFIELD_Q6_NEAR">      0.00000000</i>
   <i name="OFIELD_Q6_FAR">      0.00000000</i>
   <i name="OFIELD_A">      0.00000000</i>
  </separator>
  <separator name="optional k-points parameters" >
   <i type="int" name="KPOINTS_OPT_MODE">     1</i>
   <i type="logical" name="LKPOINTS_OPT"> F  </i>
  </separator>
 </parameters>
 <atominfo>
  <atoms>      98 </atoms>
  <types>       4 </types>
  <array name="atoms" >
   <dimension dim="1">ion</dimension>
   <field type="string">element</field>
   <field type="int">atomtype</field>
   <set>
    <rc><c>C </c><c>   1</c></rc>
    <rc><c>C </c><c>   1</c></rc>
    <rc><c>C </c><c>   1</c></rc>
    <rc><c>C </c><c>   1</c></rc>
    <rc><c>C </c><c>   1</c></rc>
    <rc><c>C </c><c>   1</c></rc>
    <rc><c>C </c><c>   1</c></rc>
    <rc><c>C </c><c>   1</c></rc>
    <rc><c>C </c><c>   1</c></rc>
    <rc><c>C </c><c>   1</c></rc>
    <rc><c>C </c><c>   1</c></rc>
    <rc><c>C </c><c>   1</c></rc>
    <rc><c>C </c><c>   1</c></rc>
    <rc><c>C </c><c>   1</c></rc>
    <rc><c>C </c><c>   1</c></rc>
    <rc><c>C </c><c>   1</c></rc>
    <rc><c>C </c><c>   1</c></rc>
    <rc><c>C </c><c>   1</c></rc>
    <rc><c>C </c><c>   1</c></rc>
    <rc><c>C </c><c>   1</c></rc>
    <rc><c>C </c><c>   1</c></rc>
    <rc><c>C </c><c>   1</c></rc>
    <rc><c>C </c><c>   1</c></rc>
    <rc><c>C </c><c>   1</c></rc>
    <rc><c>C </c><c>   1</c></rc>
    <rc><c>C </c><c>   1</c></rc>
    <rc><c>C </c><c>   1</c></rc>
    <rc><c>C </c><c>   1</c></rc>
    <rc><c>C </c><c>   1</c></rc>
    <rc><c>C </c><c>   1</c></rc>
    <rc><c>C </c><c>   1</c></rc>
    <rc><c>C </c><c>   1</c></rc>
    <rc><c>C </c><c>   1</c></rc>
    <rc><c>C </c><c>   1</c></rc>
    <rc><c>C </c><c>   1</c></rc>
    <rc><c>C </c><c>   1</c></rc>
    <rc><c>C </c><c>   1</c></rc>
    <rc><c>C </c><c>   1</c></rc>
    <rc><c>C </c><c>   1</c></rc>
    <rc><c>C </c><c>   1</c></rc>
    <rc><c>C </c><c>   1</c></rc>
    <rc><c>C </c><c>   1</c></rc>
    <rc><c>C </c><c>   1</c></rc>
    <rc><c>C </c><c>   1</c></rc>
    <rc><c>C </c><c>   1</c></rc>
    <rc><c>C </c><c>   1</c></rc>
    <rc><c>C </c><c>   1</c></rc>
    <rc><c>C </c><c>   1</c></rc>
    <rc><c>C </c><c>   1</c></rc>
    <rc><c>C </c><c>   1</c></rc>
    <rc><c>C </c><c>   1</c></rc>
    <rc><c>C </c><c>   1</c></rc>
    <rc><c>C </c><c>   1</c></rc>
    <rc><c>C </c><c>   1</c></rc>
    <rc><c>C </c><c>   1</c></rc>
    <rc><c>C </c><c>   1</c></rc>
    <rc><c>C </c><c>   1</c></rc>
    <rc><c>C </c><c>   1</c></rc>
    <rc><c>C </c><c>   1</c></rc>
    <rc><c>C </c><c>   1</c></rc>
    <rc><c>C </c><c>   1</c></rc>
    <rc><c>C </c><c>   1</c></rc>
    <rc><c>C </c><c>   1</c></rc>
    <rc><c>C </c><c>   1</c></rc>
    <rc><c>C </c><c>   1</c></rc>
    <rc><c>C </c><c>   1</c></rc>
    <rc><c>C </c><c>   1</c></rc>
    <rc><c>C </c><c>   1</c></rc>
    <rc><c>C </c><c>   1</c></rc>
    <rc><c>C </c><c>   1</c></rc>
    <rc><c>C </c><c>   1</c></rc>
    <rc><c>C </c><c>   1</c></rc>
    <rc><c>C </c><c>   1</c></rc>
    <rc><c>C </c><c>   1</c></rc>
    <rc><c>C </c><c>   1</c></rc>
    <rc><c>C </c><c>   1</c></rc>
    <rc><c>C </c><c>   1</c></rc>
    <rc><c>C </c><c>   1</c></rc>
    <rc><c>C </c><c>   1</c></rc>
    <rc><c>C </c><c>   1</c></rc>
    <rc><c>C </c><c>   1</c></rc>
    <rc><c>C </c><c>   1</c></rc>
    <rc><c>C </c><c>   1</c></rc>
    <rc><c>C </c><c>   1</c></rc>
    <rc><c>C </c><c>   1</c></rc>
    <rc><c>C </c><c>   1</c></rc>
    <rc><c>C </c><c>   1</c></rc>
    <rc><c>H </c><c>   2</c></rc>
    <rc><c>H </c><c>   2</c></rc>
    <rc><c>H </c><c>   2</c></rc>
    <rc><c>H </c><c>   2</c></rc>
    <rc><c>H </c><c>   2</c></rc>
    <rc><c>H </c><c>   2</c></rc>
    <rc><c>H </c><c>   2</c></rc>
    <rc><c>H </c><c>   2</c></rc>
    <rc><c>H </c><c>   2</c></rc>
    <rc><c>N </c><c>   3</c></rc>
    <rc><c>O </c><c>   4</c></rc>
   </set>
  </array>
  <array name="atomtypes" >
   <dimension dim="1">type</dimension>
   <field type="int">atomspertype</field>
   <field type="string">element</field>
   <field>mass</field>
   <field>valence</field>
   <field type="string">pseudopotential</field>
   <set>
    <rc><c>  87</c><c>C </c><c>     12.01100000</c><c>      4.00000000</c><c>  PAW_PBE C 08Apr2002                   </c></rc>
    <rc><c>   9</c><c>H </c><c>      1.00000000</c><c>      1.00000000</c><c>  PAW_PBE H 15Jun2001                   </c></rc>
    <rc><c>   1</c><c>N </c><c>     14.00100000</c><c>      5.00000000</c><c>  PAW_PBE N 08Apr2002                   </c></rc>
    <rc><c>   1</c><c>O </c><c>     16.00000000</c><c>      6.00000000</c><c>  PAW_PBE O 08Apr2002                   </c></rc>
   </set>
  </array>
 </atominfo>
 <structure name="initialpos" >
  <crystal>
   <varray name="basis" >
    <v>      17.27103806       0.00000000       0.00000000 </v>
    <v>      -8.63551903      14.95715771       0.00000000 </v>
    <v>       0.00000000       0.00000000      15.00000000 </v>
   </varray>
   <i name="volume">   3874.88459904 </i>
   <varray name="rec_basis" >
    <v>       0.05790040       0.03342881       0.00000000 </v>
    <v>       0.00000000       0.06685762       0.00000000 </v>
    <v>       0.00000000       0.00000000       0.06666667 </v>
   </varray>
  </crystal>
  <varray name="positions" >
   <v>       0.99978565       0.99983926       0.50099270 </v>
   <v>       0.99953092       0.14252170       0.50050947 </v>
   <v>       0.99979597       0.28559812       0.49966480 </v>
   <v>       0.00018728       0.42858571       0.49929767 </v>
   <v>       0.00053774       0.57150332       0.49940219 </v>
   <v>       0.00117458       0.71465350       0.49942089 </v>
   <v>       0.00080749       0.85765980       0.50010148 </v>
   <v>       0.14313194       0.00046381       0.50311487 </v>
   <v>       0.14273676       0.14315923       0.50264093 </v>
   <v>       0.14245375       0.28575401       0.50101837 </v>
   <v>       0.14308966       0.42922998       0.50002471 </v>
   <v>       0.14345348       0.57164803       0.50055999 </v>
   <v>       0.14351927       0.71442571       0.50150597 </v>
   <v>       0.14327556       0.85749516       0.50250090 </v>
   <v>       0.28579641       0.00009124       0.50283873 </v>
   <v>       0.28575622       0.14288401       0.50281560 </v>
   <v>       0.28606916       0.28738945       0.50086181 </v>
   <v>       0.28519213       0.42894524       0.49724603 </v>
   <v>       0.28784807       0.57244585       0.49792779 </v>
   <v>       0.28633832       0.71520300       0.50006340 </v>
   <v>       0.28559549       0.85767879       0.50182045 </v>
   <v>       0.42868535       0.99986197       0.50041527 </v>
   <v>       0.42855609       0.14247578       0.50115973 </v>
   <v>       0.42710911       0.28234421       0.50227898 </v>
   <v>       0.42779083       0.85675167       0.49920366 </v>
   <v>       0.57094468       0.99938768       0.49774599 </v>
   <v>       0.57141217       0.14222705       0.49824509 </v>
   <v>       0.57245967       0.28582941       0.49813362 </v>
   <v>       0.57003075       0.85525315       0.49621680 </v>
   <v>       0.71316137       0.99867778       0.49636834 </v>
   <v>       0.71417706       0.14226837       0.49708890 </v>
   <v>       0.71448526       0.28532911       0.49627149 </v>
   <v>       0.71418968       0.42753577       0.49285056 </v>
   <v>       0.71853596       0.57327657       0.48227514 </v>
   <v>       0.71807686       0.71518048       0.48219187 </v>
   <v>       0.71222802       0.85576691       0.49257333 </v>
   <v>       0.85647756       0.99933645       0.49721594 </v>
   <v>       0.85654007       0.14219639       0.49799475 </v>
   <v>       0.85705633       0.28527518       0.49754725 </v>
   <v>       0.85762724       0.42836071       0.49625637 </v>
   <v>       0.85819331       0.57178140       0.49443326 </v>
   <v>       0.85938474       0.71509737       0.49286224 </v>
   <v>       0.85730252       0.85678659       0.49515052 </v>
   <v>       0.04746231       0.09519107       0.50171818 </v>
   <v>       0.04698678       0.23770335       0.50066508 </v>
   <v>       0.04750010       0.38101531       0.49989109 </v>
   <v>       0.04817363       0.52391962       0.50001281 </v>
   <v>       0.04831430       0.66684837       0.50047483 </v>
   <v>       0.04815484       0.80981463       0.50096062 </v>
   <v>       0.04785499       0.95260010       0.50180813 </v>
   <v>       0.19049568       0.09536838       0.50312083 </v>
   <v>       0.19023006       0.23839783       0.50178102 </v>
   <v>       0.18959172       0.38092035       0.49987942 </v>
   <v>       0.19152489       0.52474190       0.49994348 </v>
   <v>       0.19104318       0.66701641       0.50085174 </v>
   <v>       0.19072488       0.80985312       0.50218899 </v>
   <v>       0.19078809       0.95265812       0.50312188 </v>
   <v>       0.33344973       0.09542498       0.50259559 </v>
   <v>       0.33415959       0.23815913       0.50224614 </v>
   <v>       0.33065496       0.38028881       0.49758595 </v>
   <v>       0.33159205       0.52348303       0.49472754 </v>
   <v>       0.33720895       0.67069251       0.49848202 </v>
   <v>       0.33306772       0.80998041       0.50050110 </v>
   <v>       0.33330841       0.95258954       0.50191978 </v>
   <v>       0.47624565       0.09484250       0.49990335 </v>
   <v>       0.47566582       0.23756808       0.50082923 </v>
   <v>       0.47242168       0.80613611       0.49785215 </v>
   <v>       0.47599467       0.95212256       0.49909676 </v>
   <v>       0.61875437       0.09454707       0.49752957 </v>
   <v>       0.61934996       0.23760194       0.49731418 </v>
   <v>       0.62127590       0.37914122       0.49576161 </v>
   <v>       0.61880434       0.81069406       0.49379790 </v>
   <v>       0.61775227       0.95093848       0.49666498 </v>
   <v>       0.76134384       0.09441992       0.49710225 </v>
   <v>       0.76199285       0.23746480       0.49690959 </v>
   <v>       0.76237879       0.38053049       0.49487608 </v>
   <v>       0.76253297       0.52479677       0.48966406 </v>
   <v>       0.76439358       0.66737664       0.48511566 </v>
   <v>       0.76145307       0.80764565       0.48981150 </v>
   <v>       0.76089976       0.95128322       0.49531050 </v>
   <v>       0.90408926       0.09438544       0.49870575 </v>
   <v>       0.90440821       0.23756805       0.49847360 </v>
   <v>       0.90486453       0.38081345       0.49778056 </v>
   <v>       0.90537801       0.52394975       0.49703658 </v>
   <v>       0.90604107       0.66694440       0.49558999 </v>
   <v>       0.90560471       0.80989534       0.49616663 </v>
   <v>       0.90451243       0.95186038       0.49818884 </v>
   <v>       0.46331667       0.35486049       0.50337601 </v>
   <v>       0.40330674       0.41861339       0.49636835 </v>
   <v>       0.40412934       0.56021629       0.48794710 </v>
   <v>       0.64579290       0.67639603       0.47446485 </v>
   <v>       0.64619390       0.53961356       0.47536930 </v>
   <v>       0.58540835       0.41579752       0.49717187 </v>
   <v>       0.58012440       0.73802892       0.49315250 </v>
   <v>       0.48793142       0.56405075       0.57208714 </v>
   <v>       0.58113122       0.58145927       0.59997863 </v>
   <v>       0.42725363       0.71560808       0.49792394 </v>
   <v>       0.53006269       0.54295230       0.56275984 </v>
  </varray>
  <varray name="selective"  type="logical" >
   <v type="logical" >  T  T  T </v>
   <v type="logical" >  T  T  T </v>
   <v type="logical" >  T  T  T </v>
   <v type="logical" >  T  T  T </v>
   <v type="logical" >  T  T  T </v>
   <v type="logical" >  T  T  T </v>
   <v type="logical" >  T  T  T </v>
   <v type="logical" >  T  T  T </v>
   <v type="logical" >  T  T  T </v>
   <v type="logical" >  T  T  T </v>
   <v type="logical" >  T  T  T </v>
   <v type="logical" >  T  T  T </v>
   <v type="logical" >  T  T  T </v>
   <v type="logical" >  T  T  T </v>
   <v type="logical" >  T  T  T </v>
   <v type="logical" >  T  T  T </v>
   <v type="logical" >  T  T  T </v>
   <v type="logical" >  T  T  T </v>
   <v type="logical" >  T  T  T </v>
   <v type="logical" >  T  T  T </v>
   <v type="logical" >  T  T  T </v>
   <v type="logical" >  T  T  T </v>
   <v type="logical" >  T  T  T </v>
   <v type="logical" >  T  T  T </v>
   <v type="logical" >  T  T  T </v>
   <v type="logical" >  T  T  T </v>
   <v type="logical" >  T  T  T </v>
   <v type="logical" >  T  T  T </v>
   <v type="logical" >  T  T  T </v>
   <v type="logical" >  T  T  T </v>
   <v type="logical" >  T  T  T </v>
   <v type="logical" >  T  T  T </v>
   <v type="logical" >  T  T  T </v>
   <v type="logical" >  T  T  T </v>
   <v type="logical" >  T  T  T </v>
   <v type="logical" >  T  T  T </v>
   <v type="logical" >  T  T  T </v>
   <v type="logical" >  T  T  T </v>
   <v type="logical" >  T  T  T </v>
   <v type="logical" >  T  T  T </v>
   <v type="logical" >  T  T  T </v>
   <v type="logical" >  T  T  T </v>
   <v type="logical" >  T  T  T </v>
   <v type="logical" >  T  T  T </v>
   <v type="logical" >  T  T  T </v>
   <v type="logical" >  T  T  T </v>
   <v type="logical" >  T  T  T </v>
   <v type="logical" >  T  T  T </v>
   <v type="logical" >  T  T  T </v>
   <v type="logical" >  T  T  T </v>
   <v type="logical" >  T  T  T </v>
   <v type="logical" >  T  T  T </v>
   <v type="logical" >  T  T  T </v>
   <v type="logical" >  T  T  T </v>
   <v type="logical" >  T  T  T </v>
   <v type="logical" >  T  T  T </v>
   <v type="logical" >  T  T  T </v>
   <v type="logical" >  T  T  T </v>
   <v type="logical" >  T  T  T </v>
   <v type="logical" >  T  T  T </v>
   <v type="logical" >  T  T  T </v>
   <v type="logical" >  T  T  T </v>
   <v type="logical" >  T  T  T </v>
   <v type="logical" >  T  T  T </v>
   <v type="logical" >  T  T  T </v>
   <v type="logical" >  T  T  T </v>
   <v type="logical" >  T  T  T </v>
   <v type="logical" >  T  T  T </v>
   <v type="logical" >  T  T  T </v>
   <v type="logical" >  T  T  T </v>
   <v type="logical" >  T  T  T </v>
   <v type="logical" >  T  T  T </v>
   <v type="logical" >  T  T  T </v>
   <v type="logical" >  T  T  T </v>
   <v type="logical" >  T  T  T </v>
   <v type="logical" >  T  T  T </v>
   <v type="logical" >  T  T  T </v>
   <v type="logical" >  T  T  T </v>
   <v type="logical" >  T  T  T </v>
   <v type="logical" >  T  T  T </v>
   <v type="logical" >  T  T  T </v>
   <v type="logical" >  T  T  T </v>
   <v type="logical" >  T  T  T </v>
   <v type="logical" >  T  T  T </v>
   <v type="logical" >  T  T  T </v>
   <v type="logical" >  T  T  T </v>
   <v type="logical" >  T  T  T </v>
   <v type="logical" >  T  T  T </v>
   <v type="logical" >  T  T  T </v>
   <v type="logical" >  T  T  T </v>
   <v type="logical" >  T  T  T </v>
   <v type="logical" >  T  T  T </v>
   <v type="logical" >  T  T  T </v>
   <v type="logical" >  T  T  T </v>
   <v type="logical" >  T  T  T </v>
   <v type="logical" >  T  T  T </v>
   <v type="logical" >  T  T  T </v>
   <v type="logical" >  T  T  T </v>
  </varray>
  <nose>
   <v>      -3.00000000       0.00000000       0.00010000       0.00010000 </v>
  </nose>
 </structure>
 <calculation>
  <scstep>
   <time name="dav">   38.81   39.70</time>
   <time name="total">   41.60   42.63</time>
   <energy>
    <i name="alphaZ">    176.01131809 </i>
    <i name="ewald">  36522.27826424 </i>
    <i name="hartreedc"> -46615.51122886 </i>
    <i name="XCdc">   1220.42632665 </i>
    <i name="pawpsdc">  10007.03170968 </i>
    <i name="pawaedc"> -10059.36457306 </i>
    <i name="eentropy">     -0.03861306 </i>
    <i name="bandstr">  -1596.06756615 </i>
    <i name="atom">  13611.23051297 </i>
    <i name="e_fr_energy">   3265.99615049 </i>
    <i name="e_wo_entrp">   3266.03476355 </i>
    <i name="e_0_energy">   3266.01545702 </i>
   </energy>
  </scstep>
  <scstep>
   <time name="dav">   51.18   52.66</time>
   <time name="total">   51.18   52.70</time>
   <energy>
    <i name="e_fr_energy">   -256.99635278 </i>
    <i name="e_wo_entrp">   -256.99285467 </i>
    <i name="e_0_energy">   -256.99460372 </i>
   </energy>
  </scstep>
  <scstep>
   <time name="dav">   44.19   45.29</time>
   <time name="total">   44.19   45.33</time>
   <energy>
    <i name="e_fr_energy">   -869.91790043 </i>
    <i name="e_wo_entrp">   -869.91789472 </i>
    <i name="e_0_energy">   -869.91789758 </i>
   </energy>
  </scstep>
  <scstep>
   <time name="dav">   45.02   46.07</time>
   <time name="total">   45.02   46.13</time>
   <energy>
    <i name="e_fr_energy">   -892.09393793 </i>
    <i name="e_wo_entrp">   -892.09392663 </i>
    <i name="e_0_energy">   -892.09393228 </i>
   </energy>
  </scstep>
  <scstep>
   <time name="dav">   48.50   49.60</time>
   <time name="total">   51.64   52.80</time>
   <energy>
    <i name="e_fr_energy">   -892.71622417 </i>
    <i name="e_wo_entrp">   -892.71621197 </i>
    <i name="e_0_energy">   -892.71621807 </i>
   </energy>
  </scstep>
  <scstep>
   <time name="dav">   42.95   43.79</time>
   <time name="total">   48.95   50.01</time>
   <energy>
    <i name="e_fr_energy">   -874.97179883 </i>
    <i name="e_wo_entrp">   -874.96902522 </i>
    <i name="e_0_energy">   -874.97041203 </i>
   </energy>
  </scstep>
  <scstep>
   <time name="dav">   42.62   43.78</time>
   <time name="total">   48.63   49.91</time>
   <energy>
    <i name="e_fr_energy">   -852.25735526 </i>
    <i name="e_wo_entrp">   -852.25733367 </i>
    <i name="e_0_energy">   -852.25734447 </i>
   </energy>
  </scstep>
  <scstep>
   <time name="dav">   43.11   44.19</time>
   <time name="total">   49.11   50.35</time>
   <energy>
    <i name="e_fr_energy">   -847.39038945 </i>
    <i name="e_wo_entrp">   -847.39038914 </i>
    <i name="e_0_energy">   -847.39038930 </i>
   </energy>
  </scstep>
  <scstep>
   <time name="dav">   41.55   43.18</time>
   <time name="total">   47.51   49.33</time>
   <energy>
    <i name="e_fr_energy">   -847.24786312 </i>
    <i name="e_wo_entrp">   -847.24786288 </i>
    <i name="e_0_energy">   -847.24786300 </i>
   </energy>
  </scstep>
  <scstep>
   <time name="dav">   41.69   43.05</time>
   <time name="total">   47.63   49.19</time>
   <energy>
    <i name="e_fr_energy">   -847.17001656 </i>
    <i name="e_wo_entrp">   -847.17001639 </i>
    <i name="e_0_energy">   -847.17001647 </i>
   </energy>
  </scstep>
  <scstep>
   <time name="dav">   40.66   41.70</time>
   <time name="total">   46.59   47.82</time>
   <energy>
    <i name="e_fr_energy">   -847.15673360 </i>
    <i name="e_wo_entrp">   -847.15673344 </i>
    <i name="e_0_energy">   -847.15673352 </i>
   </energy>
  </scstep>
  <scstep>
   <time name="dav">   43.82   44.82</time>
   <time name="total">   49.72   50.98</time>
   <energy>
    <i name="e_fr_energy">   -847.15553566 </i>
    <i name="e_wo_entrp">   -847.15553550 </i>
    <i name="e_0_energy">   -847.15553558 </i>
   </energy>
  </scstep>
  <scstep>
   <time name="dav">   43.18   44.33</time>
   <time name="total">   49.21   50.51</time>
   <energy>
    <i name="e_fr_energy">   -847.15525251 </i>
    <i name="e_wo_entrp">   -847.15525234 </i>
    <i name="e_0_energy">   -847.15525243 </i>
   </energy>
  </scstep>
  <scstep>
   <time name="dav">   41.84   43.02</time>
   <time name="total">   47.85   49.21</time>
   <energy>
    <i name="e_fr_energy">   -847.15536658 </i>
    <i name="e_wo_entrp">   -847.15536641 </i>
    <i name="e_0_energy">   -847.15536649 </i>
   </energy>
  </scstep>
  <scstep>
   <time name="dav">   42.55   43.67</time>
   <time name="total">   48.34   49.66</time>
   <energy>
    <i name="e_fr_energy">   -847.15540457 </i>
    <i name="e_wo_entrp">   -847.15540441 </i>
    <i name="e_0_energy">   -847.15540449 </i>
   </energy>
  </scstep>
  <scstep>
   <time name="dav">   40.76   41.83</time>
   <time name="total">   46.75   48.07</time>
   <energy>
    <i name="e_fr_energy">   -847.15541287 </i>
    <i name="e_wo_entrp">   -847.15541270 </i>
    <i name="e_0_energy">   -847.15541278 </i>
   </energy>
  </scstep>
  <scstep>
   <time name="dav">   44.30   45.34</time>
   <time name="total">   47.07   48.17</time>
   <energy>
    <i name="alphaZ">    176.01131809 </i>
    <i name="ewald">  36522.27826424 </i>
    <i name="hartreedc"> -48149.16408173 </i>
    <i name="XCdc">   1270.90220845 </i>
    <i name="pawpsdc">  37342.55154421 </i>
    <i name="pawaedc"> -37405.76298574 </i>
    <i name="eentropy">     -0.00000017 </i>
    <i name="bandstr">  -4215.20219311 </i>
    <i name="atom">  13611.23051297 </i>
    <i name="e_fr_energy">   -847.15541279 </i>
    <i name="e_wo_entrp">   -847.15541262 </i>
    <i name="e_0_energy">   -847.15541270 </i>
   </energy>
  </scstep>
  <structure>
   <crystal>
    <varray name="basis" >
     <v>      17.27103806       0.00000000       0.00000000 </v>
     <v>      -8.63551903      14.95715771       0.00000000 </v>
     <v>       0.00000000       0.00000000      15.00000000 </v>
    </varray>
    <i name="volume">   3874.88459904 </i>
    <varray name="rec_basis" >
     <v>       0.05790040       0.03342881       0.00000000 </v>
     <v>       0.00000000       0.06685762       0.00000000 </v>
     <v>       0.00000000       0.00000000       0.06666667 </v>
    </varray>
   </crystal>
   <varray name="positions" >
    <v>       0.99978565       0.99983926       0.50099270 </v>
    <v>       0.99953092       0.14252170       0.50050947 </v>
    <v>       0.99979597       0.28559812       0.49966480 </v>
    <v>       0.00018728       0.42858571       0.49929767 </v>
    <v>       0.00053774       0.57150332       0.49940219 </v>
    <v>       0.00117458       0.71465350       0.49942089 </v>
    <v>       0.00080749       0.85765980       0.50010148 </v>
    <v>       0.14313194       0.00046381       0.50311487 </v>
    <v>       0.14273676       0.14315923       0.50264093 </v>
    <v>       0.14245375       0.28575401       0.50101837 </v>
    <v>       0.14308966       0.42922998       0.50002471 </v>
    <v>       0.14345348       0.57164803       0.50055999 </v>
    <v>       0.14351927       0.71442571       0.50150597 </v>
    <v>       0.14327556       0.85749516       0.50250090 </v>
    <v>       0.28579641       0.00009124       0.50283873 </v>
    <v>       0.28575622       0.14288401       0.50281560 </v>
    <v>       0.28606916       0.28738945       0.50086181 </v>
    <v>       0.28519213       0.42894524       0.49724603 </v>
    <v>       0.28784807       0.57244585       0.49792779 </v>
    <v>       0.28633832       0.71520300       0.50006340 </v>
    <v>       0.28559549       0.85767879       0.50182045 </v>
    <v>       0.42868535       0.99986197       0.50041527 </v>
    <v>       0.42855609       0.14247578       0.50115973 </v>
    <v>       0.42710911       0.28234421       0.50227898 </v>
    <v>       0.42779083       0.85675167       0.49920366 </v>
    <v>       0.57094468       0.99938768       0.49774599 </v>
    <v>       0.57141217       0.14222705       0.49824509 </v>
    <v>       0.57245967       0.28582941       0.49813362 </v>
    <v>       0.57003075       0.85525315       0.49621680 </v>
    <v>       0.71316137       0.99867778       0.49636834 </v>
    <v>       0.71417706       0.14226837       0.49708890 </v>
    <v>       0.71448526       0.28532911       0.49627149 </v>
    <v>       0.71418968       0.42753577       0.49285056 </v>
    <v>       0.71853596       0.57327657       0.48227514 </v>
    <v>       0.71807686       0.71518048       0.48219187 </v>
    <v>       0.71222802       0.85576691       0.49257333 </v>
    <v>       0.85647756       0.99933645       0.49721594 </v>
    <v>       0.85654007       0.14219639       0.49799475 </v>
    <v>       0.85705633       0.28527518       0.49754725 </v>
    <v>       0.85762724       0.42836071       0.49625637 </v>
    <v>       0.85819331       0.57178140       0.49443326 </v>
    <v>       0.85938474       0.71509737       0.49286224 </v>
    <v>       0.85730252       0.85678659       0.49515052 </v>
    <v>       0.04746231       0.09519107       0.50171818 </v>
    <v>       0.04698678       0.23770335       0.50066508 </v>
    <v>       0.04750010       0.38101531       0.49989109 </v>
    <v>       0.04817363       0.52391962       0.50001281 </v>
    <v>       0.04831430       0.66684837       0.50047483 </v>
    <v>       0.04815484       0.80981463       0.50096062 </v>
    <v>       0.04785499       0.95260010       0.50180813 </v>
    <v>       0.19049568       0.09536838       0.50312083 </v>
    <v>       0.19023006       0.23839783       0.50178102 </v>
    <v>       0.18959172       0.38092035       0.49987942 </v>
    <v>       0.19152489       0.52474190       0.49994348 </v>
    <v>       0.19104318       0.66701641       0.50085174 </v>
    <v>       0.19072488       0.80985312       0.50218899 </v>
    <v>       0.19078809       0.95265812       0.50312188 </v>
    <v>       0.33344973       0.09542498       0.50259559 </v>
    <v>       0.33415959       0.23815913       0.50224614 </v>
    <v>       0.33065496       0.38028881       0.49758595 </v>
    <v>       0.33159205       0.52348303       0.49472754 </v>
    <v>       0.33720895       0.67069251       0.49848202 </v>
    <v>       0.33306772       0.80998041       0.50050110 </v>
    <v>       0.33330841       0.95258954       0.50191978 </v>
    <v>       0.47624565       0.09484250       0.49990335 </v>
    <v>       0.47566582       0.23756808       0.50082923 </v>
    <v>       0.47242168       0.80613611       0.49785215 </v>
    <v>       0.47599467       0.95212256       0.49909676 </v>
    <v>       0.61875437       0.09454707       0.49752957 </v>
    <v>       0.61934996       0.23760194       0.49731418 </v>
    <v>       0.62127590       0.37914122       0.49576161 </v>
    <v>       0.61880434       0.81069406       0.49379790 </v>
    <v>       0.61775227       0.95093848       0.49666498 </v>
    <v>       0.76134384       0.09441992       0.49710225 </v>
    <v>       0.76199285       0.23746480       0.49690959 </v>
    <v>       0.76237879       0.38053049       0.49487608 </v>
    <v>       0.76253297       0.52479677       0.48966406 </v>
    <v>       0.76439358       0.66737664       0.48511566 </v>
    <v>       0.76145307       0.80764565       0.48981150 </v>
    <v>       0.76089976       0.95128322       0.49531050 </v>
    <v>       0.90408926       0.09438544       0.49870575 </v>
    <v>       0.90440821       0.23756805       0.49847360 </v>
    <v>       0.90486453       0.38081345       0.49778056 </v>
    <v>       0.90537801       0.52394975       0.49703658 </v>
    <v>       0.90604107       0.66694440       0.49558999 </v>
    <v>       0.90560471       0.80989534       0.49616663 </v>
    <v>       0.90451243       0.95186038       0.49818884 </v>
    <v>       0.46331667       0.35486049       0.50337601 </v>
    <v>       0.40330674       0.41861339       0.49636835 </v>
    <v>       0.40412934       0.56021629       0.48794710 </v>
    <v>       0.64579290       0.67639603       0.47446485 </v>
    <v>       0.64619390       0.53961356       0.47536930 </v>
    <v>       0.58540835       0.41579752       0.49717187 </v>
    <v>       0.58012440       0.73802892       0.49315250 </v>
    <v>       0.48793142       0.56405075       0.57208714 </v>
    <v>       0.58113122       0.58145927       0.59997863 </v>
    <v>       0.42725363       0.71560808       0.49792394 </v>
    <v>       0.53006269       0.54295230       0.56275984 </v>
   </varray>
  </structure>
  <varray name="forces" >
   <v>      -0.00058175      -0.00020111      -0.00123713 </v>
   <v>      -0.00045877      -0.00074502      -0.00020264 </v>
   <v>      -0.00035155      -0.00478818      -0.00090270 </v>
   <v>      -0.00080321       0.00093797      -0.00093464 </v>
   <v>      -0.00108482      -0.00049937      -0.00157558 </v>
   <v>      -0.00025306      -0.00058592      -0.00502007 </v>
   <v>      -0.00020805      -0.00057732      -0.00385112 </v>
   <v>      -0.00033600      -0.00016317       0.00040518 </v>
   <v>      -0.00029923      -0.00181274       0.00147431 </v>
   <v>       0.00149429       0.00109946       0.00073624 </v>
   <v>       0.00321290       0.00345008      -0.00265707 </v>
   <v>       0.00066559       0.00093692      -0.00072543 </v>
   <v>       0.00043806      -0.00044137      -0.00119635 </v>
   <v>       0.00048757      -0.00110015      -0.00150477 </v>
   <v>       0.00011756      -0.00158580       0.00113638 </v>
   <v>      -0.00010311       0.00029915       0.00296688 </v>
   <v>       0.00115893       0.00181913      -0.00021517 </v>
   <v>       0.00725619       0.00461896      -0.00762643 </v>
   <v>       0.00287235       0.00049804      -0.00481540 </v>
   <v>       0.00076934       0.00024739      -0.00128397 </v>
   <v>       0.00070062      -0.00236793      -0.00027856 </v>
   <v>       0.00098753      -0.00286267       0.00097082 </v>
   <v>      -0.00082358       0.00040024       0.00284352 </v>
   <v>      -0.00040564       0.00058536       0.00381132 </v>
   <v>       0.00392697      -0.00331010      -0.00112805 </v>
   <v>       0.00369722      -0.00265770      -0.00139735 </v>
   <v>       0.00046276      -0.00004546       0.00175708 </v>
   <v>      -0.00246424       0.00748367       0.00144914 </v>
   <v>       0.00054519      -0.00045794      -0.00117365 </v>
   <v>       0.00034943      -0.00115096      -0.00151229 </v>
   <v>       0.00283032      -0.00233096      -0.00111308 </v>
   <v>      -0.00008650       0.00100497      -0.00110006 </v>
   <v>      -0.00083952       0.00005724      -0.00156345 </v>
   <v>      -0.00198880      -0.00043477      -0.00443617 </v>
   <v>      -0.00646093      -0.00368711      -0.00378342 </v>
   <v>      -0.00131727      -0.00122713      -0.00250202 </v>
   <v>      -0.00067564      -0.00010801      -0.00246739 </v>
   <v>       0.00058862      -0.00107152      -0.00178542 </v>
   <v>      -0.00038556      -0.00086665      -0.00077119 </v>
   <v>      -0.00152026       0.00007487      -0.00217032 </v>
   <v>      -0.00434065      -0.00097209      -0.00364997 </v>
   <v>      -0.00154225      -0.00156260      -0.00435166 </v>
   <v>      -0.00156956      -0.00105674      -0.00402081 </v>
   <v>       0.00040499       0.00078895       0.00061910 </v>
   <v>       0.00016434       0.00201219       0.00021721 </v>
   <v>       0.00003555       0.00104471      -0.00050142 </v>
   <v>       0.00048886      -0.00041910      -0.00089551 </v>
   <v>      -0.00059395      -0.00017777      -0.00275511 </v>
   <v>       0.00260155      -0.00044673      -0.00296986 </v>
   <v>      -0.00023426      -0.00016550      -0.00150948 </v>
   <v>      -0.00104269      -0.00134566      -0.00027879 </v>
   <v>      -0.00072066       0.00105322       0.00111504 </v>
   <v>      -0.00278992      -0.00381026      -0.00071137 </v>
   <v>      -0.00035029      -0.00109594      -0.00105239 </v>
   <v>      -0.00058201      -0.00046017      -0.00091120 </v>
   <v>      -0.00078351       0.00018021      -0.00108444 </v>
   <v>      -0.00051358       0.00030507       0.00007763 </v>
   <v>       0.00016399      -0.00018898       0.00275021 </v>
   <v>      -0.00026560      -0.00110514       0.00334041 </v>
   <v>      -0.00129666      -0.00146687      -0.00680446 </v>
   <v>      -0.00311808      -0.00261454      -0.01072714 </v>
   <v>      -0.00157300       0.00009601      -0.00278061 </v>
   <v>      -0.00174330       0.00079615      -0.00045139 </v>
   <v>      -0.00127902       0.00493334       0.00077316 </v>
   <v>      -0.00022433       0.00032726       0.00235727 </v>
   <v>       0.00021001      -0.00110954       0.00270956 </v>
   <v>      -0.00150552       0.00116537      -0.00099896 </v>
   <v>      -0.00317142       0.00581320       0.00035646 </v>
   <v>      -0.00169713       0.00146121       0.00044895 </v>
   <v>       0.00050634      -0.00164463       0.00110556 </v>
   <v>       0.00106975      -0.00305297      -0.00068153 </v>
   <v>      -0.00003703       0.00048928      -0.00207007 </v>
   <v>      -0.00136435       0.00139169      -0.00089534 </v>
   <v>      -0.00339064       0.00339498      -0.00021517 </v>
   <v>      -0.00000900       0.00020294      -0.00116634 </v>
   <v>       0.00052204      -0.00103233      -0.00145403 </v>
   <v>       0.00293104       0.00097036      -0.00253711 </v>
   <v>       0.00242027       0.00099323      -0.00469811 </v>
   <v>       0.00145025       0.00358705      -0.00234101 </v>
   <v>       0.00004646       0.00050466      -0.00222834 </v>
   <v>       0.00013445       0.00076779      -0.00183162 </v>
   <v>       0.00094216       0.00200474      -0.00170742 </v>
   <v>       0.00255668      -0.00251100      -0.00176691 </v>
   <v>       0.00252343       0.00104729      -0.00229972 </v>
   <v>       0.00092736       0.00065408      -0.00568562 </v>
   <v>       0.00025309       0.00076720      -0.00469318 </v>
   <v>       0.00117823       0.00105802      -0.00144704 </v>
   <v>      -0.00006292      -0.00039463       0.00739765 </v>
   <v>       0.00236909       0.00046876      -0.01316694 </v>
   <v>       0.00241531       0.00211037      -0.02420657 </v>
   <v>       0.00109200      -0.00052721      -0.00080276 </v>
   <v>      -0.00046358       0.00027746      -0.00566199 </v>
   <v>      -0.00103443       0.00026636      -0.00181433 </v>
   <v>      -0.00005503      -0.00064050      -0.00346786 </v>
   <v>      -0.03617498      -0.00299041       0.09500026 </v>
   <v>       0.03805807      -0.00797842       0.03335855 </v>
   <v>       0.00070761       0.00046337      -0.00206376 </v>
   <v>      -0.00375754       0.00893888       0.02711036 </v>
  </varray>
  <varray name="stress" >
   <v>       2.98531577      -1.08136375       0.00780021 </v>
   <v>      -1.08136436      -0.91529841      -0.00624324 </v>
   <v>       0.00780047      -0.00624317      -0.22547652 </v>
  </varray>
  <energy>
   <i name="e_fr_energy">   -854.96685068 </i>
   <i name="e_wo_entrp">   -854.96685051 </i>
   <i name="e_0_energy">   -854.96685060 </i>
  </energy>
  <time name="totalsc">  944.42  969.54</time>
 </calculation>
 <calculation>
  <scstep>
   <time name="dav">   38.81   40.04</time>
   <time name="total">   45.01   46.48</time>
   <energy>
    <i name="alphaZ">    176.01131809 </i>
    <i name="ewald">  36522.28197896 </i>
    <i name="hartreedc"> -48149.15317884 </i>
    <i name="XCdc">   1270.90220800 </i>
    <i name="pawpsdc">  37342.29380235 </i>
    <i name="pawaedc"> -37405.50511533 </i>
    <i name="eentropy">     -0.00000017 </i>
    <i name="bandstr">  -4215.21694307 </i>
    <i name="atom">  13611.23051297 </i>
    <i name="e_fr_energy">   -847.15541705 </i>
    <i name="e_wo_entrp">   -847.15541688 </i>
    <i name="e_0_energy">   -847.15541697 </i>
   </energy>
  </scstep>
  <scstep>
   <time name="dav">   41.17   42.10</time>
   <time name="total">   44.04   45.05</time>
   <energy>
    <i name="alphaZ">    176.01131809 </i>
    <i name="ewald">  36522.28197896 </i>
    <i name="hartreedc"> -48149.14663852 </i>
    <i name="XCdc">   1270.90213414 </i>
    <i name="pawpsdc">  37342.22481693 </i>
    <i name="pawaedc"> -37405.43614012 </i>
    <i name="eentropy">     -0.00000017 </i>
    <i name="bandstr">  -4215.22339968 </i>
    <i name="atom">  13611.23051297 </i>
    <i name="e_fr_energy">   -847.15541741 </i>
    <i name="e_wo_entrp">   -847.15541725 </i>
    <i name="e_0_energy">   -847.15541733 </i>
   </energy>
  </scstep>
  <structure>
   <crystal>
    <varray name="basis" >
     <v>      17.27103806       0.00000000       0.00000000 </v>
     <v>      -8.63551903      14.95715771       0.00000000 </v>
     <v>       0.00000000       0.00000000      15.00000000 </v>
    </varray>
    <i name="volume">   3874.88459904 </i>
    <varray name="rec_basis" >
     <v>       0.05790040       0.03342881       0.00000000 </v>
     <v>       0.00000000       0.06685762       0.00000000 </v>
     <v>       0.00000000       0.00000000       0.06666667 </v>
    </varray>
   </crystal>
   <varray name="positions" >
    <v>       0.99978522       0.99983910       0.50099215 </v>
    <v>       0.99953021       0.14252110       0.50050896 </v>
    <v>       0.99979392       0.28559480       0.49966330 </v>
    <v>       0.00018694       0.42858626       0.49929589 </v>
    <v>       0.00053693       0.57150298       0.49940048 </v>
    <v>       0.00117435       0.71465313       0.49941757 </v>
    <v>       0.00080727       0.85765945       0.50009934 </v>
    <v>       0.14313165       0.00046367       0.50311550 </v>
    <v>       0.14273575       0.14315788       0.50264260 </v>
    <v>       0.14245461       0.28575455       0.50101995 </v>
    <v>       0.14309233       0.42923214       0.50002355 </v>
    <v>       0.14345398       0.57164858       0.50055921 </v>
    <v>       0.14351939       0.71442539       0.50150479 </v>
    <v>       0.14327551       0.85749443       0.50249972 </v>
    <v>       0.28579591       0.00009017       0.50283974 </v>
    <v>       0.28575610       0.14288414       0.50281920 </v>
    <v>       0.28606994       0.28739040       0.50086620 </v>
    <v>       0.28519726       0.42894803       0.49724809 </v>
    <v>       0.28784949       0.57244601       0.49792869 </v>
    <v>       0.28633878       0.71520308       0.50006367 </v>
    <v>       0.28559508       0.85767717       0.50182025 </v>
    <v>       0.42868489       0.99986003       0.50041621 </v>
    <v>       0.42855566       0.14247606       0.50116268 </v>
    <v>       0.42710886       0.28234455       0.50228379 </v>
    <v>       0.42779193       0.85674938       0.49920383 </v>
    <v>       0.57094583       0.99938586       0.49774536 </v>
    <v>       0.57141232       0.14222700       0.49824666 </v>
    <v>       0.57246066       0.28583445       0.49813581 </v>
    <v>       0.57003083       0.85525281       0.49621754 </v>
    <v>       0.71316110       0.99867696       0.49636755 </v>
    <v>       0.71417779       0.14226675       0.49708786 </v>
    <v>       0.71448541       0.28532974       0.49627102 </v>
    <v>       0.71418920       0.42753584       0.49285109 </v>
    <v>       0.71853487       0.57327633       0.48227546 </v>
    <v>       0.71807235       0.71517818       0.48219280 </v>
    <v>       0.71222690       0.85576608       0.49257355 </v>
    <v>       0.85647706       0.99933633       0.49721452 </v>
    <v>       0.85653989       0.14219558       0.49799280 </v>
    <v>       0.85705565       0.28527453       0.49754588 </v>
    <v>       0.85762628       0.42836071       0.49625473 </v>
    <v>       0.85819061       0.57178076       0.49443165 </v>
    <v>       0.85938354       0.71509638       0.49286094 </v>
    <v>       0.85730143       0.85678598       0.49514915 </v>
    <v>       0.04746265       0.09519153       0.50171865 </v>
    <v>       0.04698727       0.23770456       0.50066486 </v>
    <v>       0.04750020       0.38101589       0.49988993 </v>
    <v>       0.04817363       0.52391927       0.50001126 </v>
    <v>       0.04831394       0.66684824       0.50047249 </v>
    <v>       0.04815628       0.80981434       0.50095870 </v>
    <v>       0.04785479       0.95259999       0.50180744 </v>
    <v>       0.19049448       0.09536741       0.50312161 </v>
    <v>       0.19022960       0.23839832       0.50178356 </v>
    <v>       0.18958835       0.38091758       0.49988127 </v>
    <v>       0.19152398       0.52474103       0.49994370 </v>
    <v>       0.19104262       0.66701603       0.50085126 </v>
    <v>       0.19072449       0.80985322       0.50218802 </v>
    <v>       0.19078787       0.95265831       0.50312204 </v>
    <v>       0.33344967       0.09542484       0.50259836 </v>
    <v>       0.33415881       0.23815832       0.50225135 </v>
    <v>       0.33065303       0.38028747       0.49759037 </v>
    <v>       0.33158867       0.52348097       0.49472976 </v>
    <v>       0.33720793       0.67069242       0.49848296 </v>
    <v>       0.33306691       0.80998088       0.50050142 </v>
    <v>       0.33330927       0.95259281       0.50192038 </v>
    <v>       0.47624553       0.09484272       0.49990547 </v>
    <v>       0.47566545       0.23756736       0.50083253 </v>
    <v>       0.47242110       0.80613677       0.49785322 </v>
    <v>       0.47599468       0.95212638       0.49909743 </v>
    <v>       0.61875375       0.09454801       0.49752993 </v>
    <v>       0.61934959       0.23760083       0.49731557 </v>
    <v>       0.62127548       0.37913925       0.49576283 </v>
    <v>       0.61880457       0.81069452       0.49379888 </v>
    <v>       0.61775185       0.95093939       0.49666495 </v>
    <v>       0.76134287       0.09442213       0.49710168 </v>
    <v>       0.76199275       0.23746487       0.49690843 </v>
    <v>       0.76237865       0.38052975       0.49487570 </v>
    <v>       0.76253517       0.52479745       0.48966427 </v>
    <v>       0.76439553       0.66737729       0.48511542 </v>
    <v>       0.76145533       0.80764817       0.48981224 </v>
    <v>       0.76089991       0.95128355       0.49530972 </v>
    <v>       0.90408944       0.09438587       0.49870406 </v>
    <v>       0.90440922       0.23756930       0.49847140 </v>
    <v>       0.90486502       0.38081171       0.49777848 </v>
    <v>       0.90537985       0.52395041       0.49703494 </v>
    <v>       0.90604197       0.66694485       0.49558704 </v>
    <v>       0.90560525       0.80989590       0.49616461 </v>
    <v>       0.90451349       0.95186111       0.49818844 </v>
    <v>       0.46331626       0.35486019       0.50338291 </v>
    <v>       0.40330732       0.41861334       0.49637336 </v>
    <v>       0.40413063       0.56021741       0.48794864 </v>
    <v>       0.64579388       0.67639617       0.47446887 </v>
    <v>       0.64619390       0.53961387       0.47537138 </v>
    <v>       0.58540788       0.41579782       0.49717265 </v>
    <v>       0.58012414       0.73802865       0.49315368 </v>
    <v>       0.48792794       0.56404941       0.57208675 </v>
    <v>       0.58112280       0.58145117       0.59998820 </v>
    <v>       0.42725409       0.71560824       0.49792523 </v>
    <v>       0.53006141       0.54295366       0.56275608 </v>
   </varray>
  </structure>
  <varray name="forces" >
   <v>      -0.00003605       0.00023279      -0.00125615 </v>
   <v>       0.00006858       0.00052569      -0.00030083 </v>
   <v>       0.00010736      -0.00100365      -0.00101660 </v>
   <v>       0.00024895       0.00006299      -0.00108964 </v>
   <v>       0.00009920      -0.00009176      -0.00178733 </v>
   <v>       0.00021568      -0.00027342      -0.00510211 </v>
   <v>       0.00036592      -0.00034857      -0.00391571 </v>
   <v>      -0.00034189      -0.00041979       0.00019435 </v>
   <v>       0.00000706       0.00127229       0.00042571 </v>
   <v>       0.00011708       0.00046975       0.00071989 </v>
   <v>      -0.00077352      -0.00111706       0.00019525 </v>
   <v>       0.00011607      -0.00010031      -0.00081359 </v>
   <v>      -0.00029433      -0.00033039      -0.00137146 </v>
   <v>       0.00032870      -0.00012745      -0.00158339 </v>
   <v>       0.00081639       0.00183898       0.00024298 </v>
   <v>      -0.00030512      -0.00052363       0.00290746 </v>
   <v>       0.00016665      -0.00008606      -0.00004969 </v>
   <v>       0.00192916       0.00045378      -0.00720757 </v>
   <v>      -0.00000562       0.00051194      -0.00469564 </v>
   <v>      -0.00031505       0.00005999      -0.00133023 </v>
   <v>      -0.00037667       0.00045455      -0.00032724 </v>
   <v>       0.00210453       0.00267737      -0.00020355 </v>
   <v>      -0.00003118      -0.00021509       0.00286124 </v>
   <v>      -0.00013765      -0.00041504       0.00407448 </v>
   <v>       0.00082613       0.00018713      -0.00103910 </v>
   <v>      -0.00204021       0.00100740       0.00081522 </v>
   <v>      -0.00040164       0.00006380       0.00173326 </v>
   <v>       0.00108128      -0.00372251       0.00247552 </v>
   <v>      -0.00039099       0.00013114      -0.00119701 </v>
   <v>      -0.00037788       0.00052043      -0.00153934 </v>
   <v>      -0.00156989       0.00135605      -0.00029778 </v>
   <v>      -0.00001704      -0.00050939      -0.00110751 </v>
   <v>       0.00046339      -0.00007233      -0.00161027 </v>
   <v>      -0.00014541      -0.00000257      -0.00421915 </v>
   <v>      -0.00006998       0.00125290      -0.00424215 </v>
   <v>      -0.00029680       0.00017868      -0.00246886 </v>
   <v>      -0.00003208       0.00021950      -0.00248639 </v>
   <v>      -0.00018019       0.00055301      -0.00188643 </v>
   <v>       0.00008229      -0.00052791      -0.00105830 </v>
   <v>       0.00047271      -0.00033218      -0.00224115 </v>
   <v>       0.00201583       0.00015097      -0.00299086 </v>
   <v>       0.00026290       0.00017272      -0.00454408 </v>
   <v>      -0.00001096       0.00037721      -0.00392673 </v>
   <v>      -0.00022327      -0.00000596       0.00050018 </v>
   <v>      -0.00048517      -0.00119316       0.00143824 </v>
   <v>       0.00051385       0.00040040      -0.00076075 </v>
   <v>       0.00007624       0.00037434      -0.00102726 </v>
   <v>      -0.00024217      -0.00027248      -0.00290452 </v>
   <v>      -0.00329343       0.00085437      -0.00289033 </v>
   <v>      -0.00038251      -0.00040367      -0.00164045 </v>
   <v>      -0.00050549      -0.00073049      -0.00000454 </v>
   <v>      -0.00037279       0.00075207      -0.00020742 </v>
   <v>       0.00050597       0.00199940      -0.00102457 </v>
   <v>       0.00068413       0.00072868      -0.00128616 </v>
   <v>      -0.00007972      -0.00004548      -0.00100736 </v>
   <v>       0.00016061      -0.00050311      -0.00120827 </v>
   <v>      -0.00041781      -0.00045691       0.00001086 </v>
   <v>      -0.00043665      -0.00022545       0.00278356 </v>
   <v>      -0.00014500      -0.00002109       0.00335823 </v>
   <v>       0.00165874       0.00083067      -0.00683501 </v>
   <v>       0.00287437       0.00228182      -0.01175192 </v>
   <v>       0.00045406       0.00045356      -0.00287914 </v>
   <v>       0.00007356       0.00002440      -0.00059648 </v>
   <v>       0.00074679      -0.00146047       0.00152807 </v>
   <v>      -0.00019811      -0.00024523       0.00232682 </v>
   <v>      -0.00047557       0.00092340       0.00280911 </v>
   <v>       0.00023404      -0.00007536      -0.00115314 </v>
   <v>       0.00111715      -0.00280028       0.00017661 </v>
   <v>       0.00038059      -0.00032908       0.00024477 </v>
   <v>      -0.00044391       0.00063962       0.00104860 </v>
   <v>      -0.00058587       0.00111347      -0.00077304 </v>
   <v>      -0.00015947      -0.00053300      -0.00214450 </v>
   <v>       0.00033467      -0.00012833      -0.00107278 </v>
   <v>       0.00183631      -0.00157114      -0.00182999 </v>
   <v>       0.00195409      -0.00016734      -0.00001397 </v>
   <v>      -0.00037837       0.00017192      -0.00160965 </v>
   <v>      -0.00041510      -0.00016511      -0.00286177 </v>
   <v>      -0.00120947      -0.00018239      -0.00494255 </v>
   <v>      -0.00085863      -0.00022082      -0.00283542 </v>
   <v>      -0.00035658      -0.00008993      -0.00235914 </v>
   <v>      -0.00019257      -0.00001616      -0.00196387 </v>
   <v>       0.00024453      -0.00051731      -0.00180087 </v>
   <v>       0.00031970      -0.00109838      -0.00187464 </v>
   <v>      -0.00150585      -0.00106320      -0.00173948 </v>
   <v>      -0.00059861      -0.00003864      -0.00581912 </v>
   <v>      -0.00033185      -0.00029244      -0.00486524 </v>
   <v>      -0.00000947       0.00028858      -0.00178390 </v>
   <v>      -0.00012944      -0.00012765       0.00728599 </v>
   <v>       0.00145935      -0.00025730      -0.01317947 </v>
   <v>       0.00060193       0.00111894      -0.02404299 </v>
   <v>      -0.00106855      -0.00185265      -0.00112385 </v>
   <v>      -0.00091482       0.00008184      -0.00576734 </v>
   <v>      -0.00016561      -0.00029203      -0.00191211 </v>
   <v>      -0.00009396      -0.00034387      -0.00352243 </v>
   <v>      -0.03621256      -0.00291205       0.09505496 </v>
   <v>       0.03810991      -0.00785042       0.03338792 </v>
   <v>      -0.00059014       0.00027625      -0.00217518 </v>
   <v>      -0.00460775       0.01066271       0.02949714 </v>
  </varray>
  <varray name="stress" >
   <v>       2.98391174      -1.07925010       0.00654969 </v>
   <v>      -1.07925072      -0.91703595      -0.00778441 </v>
   <v>       0.00654994      -0.00778433      -0.22384479 </v>
  </varray>
  <energy>
   <i name="e_fr_energy">   -854.96685540 </i>
   <i name="e_wo_entrp">   -854.96685524 </i>
   <i name="e_0_energy">   -854.96685532 </i>
  </energy>
  <time name="totalsc">  201.26  206.04</time>
 </calculation>
 <calculation>
  <scstep>
   <time name="dav">   38.41   39.45</time>
   <time name="total">   44.58   45.86</time>
   <energy>
    <i name="alphaZ">    176.01131809 </i>
    <i name="ewald">  36522.29180430 </i>
    <i name="hartreedc"> -48149.15049676 </i>
    <i name="XCdc">   1270.90204914 </i>
    <i name="pawpsdc">  37342.12976820 </i>
    <i name="pawaedc"> -37405.34109092 </i>
    <i name="eentropy">     -0.00000017 </i>
    <i name="bandstr">  -4215.22928565 </i>
    <i name="atom">  13611.23051297 </i>
    <i name="e_fr_energy">   -847.15542080 </i>
    <i name="e_wo_entrp">   -847.15542063 </i>
    <i name="e_0_energy">   -847.15542072 </i>
   </energy>
  </scstep>
  <scstep>
   <time name="dav">   39.12   40.11</time>
   <time name="total">   45.17   46.29</time>
   <energy>
    <i name="e_fr_energy">   -847.15542109 </i>
    <i name="e_wo_entrp">   -847.15542093 </i>
    <i name="e_0_energy">   -847.15542101 </i>
   </energy>
  </scstep>
  <scstep>
   <time name="dav">   25.64   26.18</time>
   <time name="total">   28.33   29.13</time>
   <energy>
    <i name="alphaZ">    176.01131809 </i>
    <i name="ewald">  36522.29180430 </i>
    <i name="hartreedc"> -48149.14791035 </i>
    <i name="XCdc">   1270.90194062 </i>
    <i name="pawpsdc">  37341.91469892 </i>
    <i name="pawaedc"> -37405.12602699 </i>
    <i name="eentropy">     -0.00000017 </i>
    <i name="bandstr">  -4215.23175791 </i>
[...]
       <r>   -13.9028     5.5815    58.2200 </r>
       <r>   -13.7980     5.0830    58.7531 </r>
       <r>   -13.6931     3.5076    59.1210 </r>
       <r>   -13.5882     6.9793    59.8530 </r>
       <r>   -13.4833     7.7856    60.6695 </r>
       <r>   -13.3785     9.9028    61.7081 </r>
       <r>   -13.2736     8.4206    62.5913 </r>
       <r>   -13.1687     7.3327    63.3603 </r>
       <r>   -13.0638     4.7405    63.8575 </r>
       <r>   -12.9589     5.9614    64.4827 </r>
       <r>   -12.8541     0.5671    64.5422 </r>
       <r>   -12.7492     9.1910    65.5061 </r>
       <r>   -12.6443     6.1457    66.1506 </r>
       <r>   -12.5394     7.8509    66.9740 </r>
       <r>   -12.4345    15.3576    68.5847 </r>
       <r>   -12.3297    13.3019    69.9798 </r>
       <r>   -12.2248    10.2366    71.0534 </r>
       <r>   -12.1199     5.7860    71.6602 </r>
       <r>   -12.0150     6.4049    72.3319 </r>
       <r>   -11.9102     8.2241    73.1945 </r>
       <r>   -11.8053     9.4566    74.1862 </r>
       <r>   -11.7004     7.1516    74.9363 </r>
       <r>   -11.5955     7.2023    75.6917 </r>
       <r>   -11.4906    10.3867    76.7810 </r>
       <r>   -11.3858    11.5199    77.9892 </r>
       <r>   -11.2809    11.8647    79.2335 </r>
       <r>   -11.1760    11.1826    80.4063 </r>
       <r>   -11.0711    10.6721    81.5256 </r>
       <r>   -10.9663     7.4171    82.3035 </r>
       <r>   -10.8614    11.6335    83.5236 </r>
       <r>   -10.7565    12.5419    84.8390 </r>
       <r>   -10.6516     7.2718    85.6016 </r>
       <r>   -10.5467     7.4969    86.3879 </r>
       <r>   -10.4419     5.5984    86.9750 </r>
       <r>   -10.3370     2.4868    87.2358 </r>
       <r>   -10.2321     4.5903    87.7173 </r>
       <r>   -10.1272    16.9225    89.4921 </r>
       <r>   -10.0224    17.4492    91.3221 </r>
       <r>    -9.9175    15.0953    92.9053 </r>
       <r>    -9.8126    17.6471    94.7561 </r>
       <r>    -9.7077    18.9311    96.7415 </r>
       <r>    -9.6028    16.3122    98.4523 </r>
       <r>    -9.4980    11.3329    99.6409 </r>
       <r>    -9.3931    18.4279   101.5736 </r>
       <r>    -9.2882    18.3401   103.4970 </r>
       <r>    -9.1833    13.2529   104.8870 </r>
       <r>    -9.0785    17.8356   106.7575 </r>
       <r>    -8.9736    19.6686   108.8203 </r>
       <r>    -8.8687    32.6096   112.2404 </r>
       <r>    -8.7638    26.8111   115.0523 </r>
       <r>    -8.6589    22.6353   117.4262 </r>
       <r>    -8.5541    17.6113   119.2733 </r>
       <r>    -8.4492    19.6444   121.3335 </r>
       <r>    -8.3443    16.8333   123.0990 </r>
       <r>    -8.2394    20.4815   125.2470 </r>
       <r>    -8.1345    22.9848   127.6576 </r>
       <r>    -8.0297    24.9139   130.2706 </r>
       <r>    -7.9248    16.3664   131.9870 </r>
       <r>    -7.8199    15.7302   133.6368 </r>
       <r>    -7.7150    18.7486   135.6031 </r>
       <r>    -7.6102    16.5581   137.3397 </r>
       <r>    -7.5053    11.8385   138.5813 </r>
       <r>    -7.4004     5.0531   139.1112 </r>
       <r>    -7.2955    11.2996   140.2963 </r>
       <r>    -7.1906    27.6288   143.1940 </r>
       <r>    -7.0858    19.5439   145.2437 </r>
       <r>    -6.9809    17.8659   147.1175 </r>
       <r>    -6.8760    12.1337   148.3900 </r>
       <r>    -6.7711    11.3703   149.5825 </r>
       <r>    -6.6663    12.5457   150.8983 </r>
       <r>    -6.5614     8.2986   151.7686 </r>
       <r>    -6.4565    13.2935   153.1628 </r>
       <r>    -6.3516     9.9351   154.2048 </r>
       <r>    -6.2467    13.6476   155.6361 </r>
       <r>    -6.1419    18.4564   157.5718 </r>
       <r>    -6.0370    21.5339   159.8302 </r>
       <r>    -5.9321    15.3452   161.4396 </r>
       <r>    -5.8272    11.9733   162.6953 </r>
       <r>    -5.7224    14.4420   164.2100 </r>
       <r>    -5.6175    15.4258   165.8278 </r>
       <r>    -5.5126     8.8910   166.7603 </r>
       <r>    -5.4077     5.6955   167.3576 </r>
       <r>    -5.3028     3.8170   167.7579 </r>
       <r>    -5.1980     2.1709   167.9856 </r>
       <r>    -5.0931     4.4742   168.4549 </r>
       <r>    -4.9882    20.9481   170.6519 </r>
       <r>    -4.8833    17.3362   172.4701 </r>
       <r>    -4.7784    18.5766   174.4183 </r>
       <r>    -4.6736     7.7759   175.2339 </r>
       <r>    -4.5687     6.5932   175.9253 </r>
       <r>    -4.4638    12.1765   177.2024 </r>
       <r>    -4.3589     0.5014   177.2550 </r>
       <r>    -4.2541     4.9693   177.7761 </r>
       <r>    -4.1492     8.7585   178.6947 </r>
       <r>    -4.0443     7.6080   179.4926 </r>
       <r>    -3.9394     7.5992   180.2896 </r>
       <r>    -3.8345     7.8643   181.1144 </r>
       <r>    -3.7297     5.9591   181.7394 </r>
       <r>    -3.6248     2.4486   181.9962 </r>
       <r>    -3.5199     0.0362   182.0000 </r>
       <r>    -3.4150     0.3010   182.0316 </r>
       <r>    -3.3102     2.4980   182.2936 </r>
       <r>    -3.2053     6.5307   182.9785 </r>
       <r>    -3.1004     2.7036   183.2620 </r>
       <r>    -2.9955     2.1243   183.4848 </r>
       <r>    -2.8906     0.1447   183.5000 </r>
       <r>    -2.7858     0.0000   183.5000 </r>
       <r>    -2.6809     0.2221   183.5233 </r>
       <r>    -2.5760     3.3282   183.8724 </r>
       <r>    -2.4711     1.2146   183.9997 </r>
       <r>    -2.3663     0.0032   184.0001 </r>
       <r>    -2.2614     0.9901   184.1039 </r>
       <r>    -2.1565     3.6681   184.4886 </r>
       <r>    -2.0516     0.1086   184.5000 </r>
       <r>    -1.9467     0.0008   184.5001 </r>
       <r>    -1.8419     0.7874   184.5827 </r>
       <r>    -1.7370     3.0669   184.9043 </r>
       <r>    -1.6321     3.2406   185.2442 </r>
       <r>    -1.5272     6.4706   185.9228 </r>
       <r>    -1.4223     0.7395   186.0004 </r>
       <r>    -1.3175     1.5430   186.1622 </r>
       <r>    -1.2126     5.7594   186.7662 </r>
       <r>    -1.1077     6.1754   187.4139 </r>
       <r>    -1.0028     0.9858   187.5173 </r>
       <r>    -0.8980     4.9665   188.0382 </r>
       <r>    -0.7931    16.7317   189.7929 </r>
       <r>    -0.6882    10.7992   190.9256 </r>
       <r>    -0.5833     6.3547   191.5920 </r>
       <r>    -0.4784    10.7057   192.7148 </r>
       <r>    -0.3736     8.5747   193.6141 </r>
       <r>    -0.2687     5.6948   194.2114 </r>
       <r>    -0.1638     3.2173   194.5488 </r>
       <r>    -0.0589    11.4320   195.7478 </r>
       <r>     0.0459     8.2401   196.6120 </r>
       <r>     0.1508    10.7247   197.7368 </r>
       <r>     0.2557    12.0012   198.9954 </r>
       <r>     0.3606     6.2570   199.6517 </r>
       <r>     0.4655     3.1703   199.9841 </r>
       <r>     0.5703     3.3981   200.3405 </r>
       <r>     0.6752     6.0936   200.9796 </r>
       <r>     0.7801    12.0440   202.2428 </r>
       <r>     0.8850    12.2179   203.5242 </r>
       <r>     0.9898     3.3467   203.8752 </r>
       <r>     1.0947    12.1980   205.1545 </r>
       <r>     1.1996     5.8699   205.7701 </r>
       <r>     1.3045     8.9131   206.7049 </r>
       <r>     1.4094    10.2194   207.7767 </r>
       <r>     1.5142    12.7595   209.1149 </r>
       <r>     1.6191    19.4790   211.1578 </r>
       <r>     1.7240    12.3749   212.4556 </r>
       <r>     1.8289    10.6426   213.5718 </r>
       <r>     1.9338    11.1727   214.7436 </r>
       <r>     2.0386    20.0391   216.8452 </r>
       <r>     2.1435    16.0583   218.5294 </r>
       <r>     2.2484    17.2436   220.3379 </r>
       <r>     2.3533    21.7914   222.6233 </r>
       <r>     2.4581    27.7274   225.5313 </r>
       <r>     2.5630     4.7042   226.0247 </r>
       <r>     2.6679     7.9076   226.8540 </r>
       <r>     2.7728    21.4237   229.1009 </r>
       <r>     2.8777    32.0461   232.4618 </r>
       <r>     2.9825    38.6935   236.5199 </r>
       <r>     3.0874    18.0928   238.4175 </r>
       <r>     3.1923    20.7670   240.5955 </r>
       <r>     3.2972    24.1760   243.1310 </r>
       <r>     3.4020    13.2413   244.5197 </r>
       <r>     3.5069    24.6213   247.1020 </r>
       <r>     3.6118    20.0656   249.2064 </r>
       <r>     3.7167    14.9746   250.7769 </r>
       <r>     3.8216    25.0650   253.4057 </r>
       <r>     3.9264    23.6152   255.8824 </r>
       <r>     4.0313    23.8485   258.3836 </r>
       <r>     4.1362    15.2206   259.9799 </r>
       <r>     4.2411    17.4237   261.8073 </r>
       <r>     4.3459    32.6752   265.2342 </r>
       <r>     4.4508    33.2175   268.7180 </r>
       <r>     4.5557    12.1219   269.9893 </r>
       <r>     4.6606     0.1019   270.0000 </r>
       <r>     4.7655     0.0000   270.0000 </r>
       <r>     4.8703     0.0000   270.0000 </r>
       <r>     4.9752     0.0000   270.0000 </r>
       <r>     5.0801     0.0000   270.0000 </r>
       <r>     5.1850     0.0000   270.0000 </r>
       <r>     5.2899     0.0000   270.0000 </r>
       <r>     5.3947     0.0000   270.0000 </r>
       <r>     5.4996     0.0000   270.0000 </r>
       <r>     5.6045     0.0000   270.0000 </r>
       <r>     5.7094     0.0000   270.0000 </r>
       <r>     5.8142     0.0000   270.0000 </r>
       <r>     5.9191     0.0000   270.0000 </r>
      </set>
     </set>
    </array>
   </total>
  </dos>
 </calculation>
 <structure name="finalpos" >
  <crystal>
   <varray name="basis" >
    <v>      17.27103806       0.00000000       0.00000000 </v>
    <v>      -8.63551903      14.95715771       0.00000000 </v>
    <v>       0.00000000       0.00000000      15.00000000 </v>
   </varray>
   <i name="volume">   3874.88459904 </i>
   <varray name="rec_basis" >
    <v>       0.05790040       0.03342881       0.00000000 </v>
    <v>       0.00000000       0.06685762       0.00000000 </v>
    <v>       0.00000000       0.00000000       0.06666667 </v>
   </varray>
  </crystal>
  <varray name="positions" >
   <v>       0.99976205       0.99983407       0.50083202 </v>
   <v>       0.99950575       0.14251844       0.50035913 </v>
   <v>       0.99977653       0.28559492       0.49928431 </v>
   <v>       0.00016186       0.42857324       0.49880424 </v>
   <v>       0.00049843       0.57149020       0.49869666 </v>
   <v>       0.00114492       0.71462572       0.49856819 </v>
   <v>       0.00079093       0.85764834       0.49965107 </v>
   <v>       0.14308439       0.00043764       0.50325015 </v>
   <v>       0.14269654       0.14314591       0.50312223 </v>
   <v>       0.14244084       0.28576584       0.50130181 </v>
   <v>       0.14307682       0.42922951       0.49992479 </v>
   <v>       0.14341525       0.57163388       0.50029933 </v>
   <v>       0.14348362       0.71439640       0.50098522 </v>
   <v>       0.14323290       0.85746737       0.50213730 </v>
   <v>       0.28574567       0.00006105       0.50319901 </v>
   <v>       0.28570103       0.14284417       0.50388864 </v>
   <v>       0.28604481       0.28736688       0.50210203 </v>
   <v>       0.28522634       0.42896494       0.49786015 </v>
   <v>       0.28781543       0.57244386       0.49816435 </v>
   <v>       0.28630135       0.71519391       0.50008665 </v>
   <v>       0.28555425       0.85765567       0.50176145 </v>
   <v>       0.42864139       0.99983863       0.50075293 </v>
   <v>       0.42851552       0.14244839       0.50209266 </v>
   <v>       0.42707756       0.28230572       0.50400249 </v>
   <v>       0.42776243       0.85672774       0.49938258 </v>
   <v>       0.57091322       0.99935407       0.49789138 </v>
   <v>       0.57138353       0.14219291       0.49874632 </v>
   <v>       0.57242727       0.28580281       0.49889082 </v>
   <v>       0.57000890       0.85522428       0.49638843 </v>
   <v>       0.71313433       0.99864815       0.49619574 </v>
   <v>       0.71414701       0.14224078       0.49700993 </v>
   <v>       0.71445630       0.28530499       0.49635507 </v>
   <v>       0.71415102       0.42750971       0.49284782 </v>
   <v>       0.71847330       0.57325540       0.48230704 </v>
   <v>       0.71800879       0.71513053       0.48238961 </v>
   <v>       0.71219722       0.85573145       0.49256699 </v>
   <v>       0.85644779       0.99931979       0.49692200 </v>
   <v>       0.85651026       0.14217984       0.49758157 </v>
   <v>       0.85703442       0.28525996       0.49713373 </v>
   <v>       0.85759317       0.42833250       0.49578060 </v>
   <v>       0.85816298       0.57174996       0.49374341 </v>
   <v>       0.85937410       0.71508527       0.49229729 </v>
   <v>       0.85729232       0.85677895       0.49485927 </v>
   <v>       0.04743450       0.09518470       0.50175681 </v>
   <v>       0.04696797       0.23770631       0.50055577 </v>
   <v>       0.04748109       0.38101058       0.49949925 </v>
   <v>       0.04812940       0.52390844       0.49951770 </v>
   <v>       0.04828411       0.66683150       0.49968620 </v>
   <v>       0.04812207       0.80978544       0.50036569 </v>
   <v>       0.04781899       0.95258156       0.50163845 </v>
   <v>       0.19043326       0.09533934       0.50370655 </v>
   <v>       0.19019027       0.23839141       0.50252278 </v>
   <v>       0.18959691       0.38093320       0.50009317 </v>
   <v>       0.19149068       0.52473337       0.49991991 </v>
   <v>       0.19100584       0.66699888       0.50058204 </v>
   <v>       0.19068170       0.80982553       0.50184050 </v>
   <v>       0.19073718       0.95263044       0.50316487 </v>
   <v>       0.33340777       0.09538606       0.50345621 </v>
   <v>       0.33412399       0.23812742       0.50375989 </v>
   <v>       0.33065764       0.38026787       0.49872211 </v>
   <v>       0.33159892       0.52351018       0.49519654 </v>
   <v>       0.33716956       0.67068900       0.49870876 </v>
   <v>       0.33303664       0.80996975       0.50055651 </v>
   <v>       0.33326153       0.95256896       0.50210291 </v>
   <v>       0.47621622       0.09482323       0.50050386 </v>
   <v>       0.47563830       0.23754841       0.50205162 </v>
   <v>       0.47239938       0.80611649       0.49810231 </v>
   <v>       0.47595823       0.95210101       0.49930478 </v>
   <v>       0.61872237       0.09451437       0.49773098 </v>
   <v>       0.61931903       0.23756825       0.49782877 </v>
   <v>       0.62123676       0.37909952       0.49614443 </v>
   <v>       0.61877645       0.81065941       0.49393104 </v>
   <v>       0.61772662       0.95091430       0.49669536 </v>
   <v>       0.76131556       0.09439614       0.49680763 </v>
   <v>       0.76196675       0.23744146       0.49674985 </v>
   <v>       0.76234072       0.38050171       0.49473796 </v>
   <v>       0.76248845       0.52476495       0.48939091 </v>
   <v>       0.76435979       0.66735535       0.48497376 </v>
   <v>       0.76142961       0.80761672       0.48975550 </v>
   <v>       0.76086909       0.95125118       0.49513158 </v>
   <v>       0.90405834       0.09437073       0.49835650 </v>
   <v>       0.90438447       0.23755677       0.49800062 </v>
   <v>       0.90484373       0.38079670       0.49728458 </v>
   <v>       0.90534901       0.52392150       0.49635956 </v>
   <v>       0.90602568       0.66691473       0.49477110 </v>
   <v>       0.90559576       0.80989323       0.49571787 </v>
   <v>       0.90449846       0.95186210       0.49791121 </v>
   <v>       0.46328916       0.35481976       0.50542126 </v>
   <v>       0.40331361       0.41855395       0.49780570 </v>
   <v>       0.40413577       0.56032119       0.48841630 </v>
   <v>       0.64567090       0.67625479       0.47534781 </v>
   <v>       0.64609272       0.53963263       0.47587023 </v>
   <v>       0.58536009       0.41575124       0.49746464 </v>
   <v>       0.58011623       0.73799235       0.49337525 </v>
   <v>       0.48701694       0.56391110       0.57226228 </v>
   <v>       0.57888021       0.57940469       0.60275499 </v>
   <v>       0.42721735       0.71559100       0.49824732 </v>
   <v>       0.52984229       0.54381767       0.56217052 </v>
  </varray>
  <varray name="selective"  type="logical" >
   <v type="logical" >  T  T  T </v>
   <v type="logical" >  T  T  T </v>
   <v type="logical" >  T  T  T </v>
   <v type="logical" >  T  T  T </v>
   <v type="logical" >  T  T  T </v>
   <v type="logical" >  T  T  T </v>
   <v type="logical" >  T  T  T </v>
   <v type="logical" >  T  T  T </v>
   <v type="logical" >  T  T  T </v>
   <v type="logical" >  T  T  T </v>
   <v type="logical" >  T  T  T </v>
   <v type="logical" >  T  T  T </v>
   <v type="logical" >  T  T  T </v>
   <v type="logical" >  T  T  T </v>
   <v type="logical" >  T  T  T </v>
   <v type="logical" >  T  T  T </v>
   <v type="logical" >  T  T  T </v>
   <v type="logical" >  T  T  T </v>
   <v type="logical" >  T  T  T </v>
   <v type="logical" >  T  T  T </v>
   <v type="logical" >  T  T  T </v>
   <v type="logical" >  T  T  T </v>
   <v type="logical" >  T  T  T </v>
   <v type="logical" >  T  T  T </v>
   <v type="logical" >  T  T  T </v>
   <v type="logical" >  T  T  T </v>
   <v type="logical" >  T  T  T </v>
   <v type="logical" >  T  T  T </v>
   <v type="logical" >  T  T  T </v>
   <v type="logical" >  T  T  T </v>
   <v type="logical" >  T  T  T </v>
   <v type="logical" >  T  T  T </v>
   <v type="logical" >  T  T  T </v>
   <v type="logical" >  T  T  T </v>
   <v type="logical" >  T  T  T </v>
   <v type="logical" >  T  T  T </v>
   <v type="logical" >  T  T  T </v>
   <v type="logical" >  T  T  T </v>
   <v type="logical" >  T  T  T </v>
   <v type="logical" >  T  T  T </v>
   <v type="logical" >  T  T  T </v>
   <v type="logical" >  T  T  T </v>
   <v type="logical" >  T  T  T </v>
   <v type="logical" >  T  T  T </v>
   <v type="logical" >  T  T  T </v>
   <v type="logical" >  T  T  T </v>
   <v type="logical" >  T  T  T </v>
   <v type="logical" >  T  T  T </v>
   <v type="logical" >  T  T  T </v>
   <v type="logical" >  T  T  T </v>
   <v type="logical" >  T  T  T </v>
   <v type="logical" >  T  T  T </v>
   <v type="logical" >  T  T  T </v>
   <v type="logical" >  T  T  T </v>
   <v type="logical" >  T  T  T </v>
   <v type="logical" >  T  T  T </v>
   <v type="logical" >  T  T  T </v>
   <v type="logical" >  T  T  T </v>
   <v type="logical" >  T  T  T </v>
   <v type="logical" >  T  T  T </v>
   <v type="logical" >  T  T  T </v>
   <v type="logical" >  T  T  T </v>
   <v type="logical" >  T  T  T </v>
   <v type="logical" >  T  T  T </v>
   <v type="logical" >  T  T  T </v>
   <v type="logical" >  T  T  T </v>
   <v type="logical" >  T  T  T </v>
   <v type="logical" >  T  T  T </v>
   <v type="logical" >  T  T  T </v>
   <v type="logical" >  T  T  T </v>
   <v type="logical" >  T  T  T </v>
   <v type="logical" >  T  T  T </v>
   <v type="logical" >  T  T  T </v>
   <v type="logical" >  T  T  T </v>
   <v type="logical" >  T  T  T </v>
   <v type="logical" >  T  T  T </v>
   <v type="logical" >  T  T  T </v>
   <v type="logical" >  T  T  T </v>
   <v type="logical" >  T  T  T </v>
   <v type="logical" >  T  T  T </v>
   <v type="logical" >  T  T  T </v>
   <v type="logical" >  T  T  T </v>
   <v type="logical" >  T  T  T </v>
   <v type="logical" >  T  T  T </v>
   <v type="logical" >  T  T  T </v>
   <v type="logical" >  T  T  T </v>
   <v type="logical" >  T  T  T </v>
   <v type="logical" >  T  T  T </v>
   <v type="logical" >  T  T  T </v>
   <v type="logical" >  T  T  T </v>
   <v type="logical" >  T  T  T </v>
   <v type="logical" >  T  T  T </v>
   <v type="logical" >  T  T  T </v>
   <v type="logical" >  T  T  T </v>
   <v type="logical" >  T  T  T </v>
   <v type="logical" >  T  T  T </v>
   <v type="logical" >  T  T  T </v>
   <v type="logical" >  T  T  T </v>
  </varray>
  <nose>
   <v>      -3.00000000       0.00000000       0.00010000       0.00010000 </v>
  </nose>
 </structure>
</modeling>
