unknown system                          
           1
    17.271038    0.000000    0.000000
    -8.635519   14.957158    0.000000
     0.000000    0.000000   15.000000
   C    H    N    O 
    87     9     1     1
Direct configuration=     1
   0.99978522  0.99983910  0.50099215
   0.99953021  0.14252110  0.50050896
   0.99979392  0.28559480  0.49966330
   0.00018694  0.42858626  0.49929589
   0.00053693  0.57150298  0.49940048
   0.00117435  0.71465313  0.49941757
   0.00080727  0.85765945  0.50009934
   0.14313165  0.00046367  0.50311550
   0.14273575  0.14315788  0.50264260
   0.14245461  0.28575455  0.50101995
   0.14309233  0.42923214  0.50002355
   0.14345398  0.57164858  0.50055921
   0.14351939  0.71442539  0.50150479
   0.14327551  0.85749443  0.50249972
   0.28579591  0.00009017  0.50283974
   0.28575610  0.14288414  0.50281920
   0.28606994  0.28739040  0.50086620
   0.28519726  0.42894803  0.49724809
   0.28784949  0.57244601  0.49792869
   0.28633878  0.71520308  0.50006367
   0.28559508  0.85767717  0.50182025
   0.42868489  0.99986003  0.50041621
   0.42855566  0.14247606  0.50116268
   0.42710886  0.28234455  0.50228379
   0.42779193  0.85674938  0.49920383
   0.57094583  0.99938586  0.49774536
   0.57141232  0.14222700  0.49824666
   0.57246066  0.28583445  0.49813581
   0.57003083  0.85525281  0.49621754
   0.71316110  0.99867696  0.49636755
   0.71417779  0.14226675  0.49708786
   0.71448541  0.28532974  0.49627102
   0.71418920  0.42753584  0.49285109
   0.71853487  0.57327633  0.48227546
   0.71807235  0.71517818  0.48219280
   0.71222690  0.85576608  0.49257355
   0.85647706  0.99933633  0.49721452
   0.85653989  0.14219558  0.49799280
   0.85705565  0.28527453  0.49754588
   0.85762628  0.42836071  0.49625473
   0.85819061  0.57178076  0.49443165
   0.85938354  0.71509638  0.49286094
   0.85730143  0.85678598  0.49514915
   0.04746265  0.09519153  0.50171865
   0.04698727  0.23770456  0.50066486
   0.04750020  0.38101589  0.49988993
   0.04817363  0.52391927  0.50001126
   0.04831394  0.66684824  0.50047249
   0.04815628  0.80981434  0.50095870
   0.04785479  0.95259999  0.50180744
   0.19049448  0.09536741  0.50312161
   0.19022960  0.23839832  0.50178356
   0.18958835  0.38091758  0.49988127
   0.19152398  0.52474103  0.49994370
   0.19104262  0.66701603  0.50085126
   0.19072449  0.80985322  0.50218802
   0.19078787  0.95265831  0.50312204
   0.33344967  0.09542484  0.50259836
   0.33415881  0.23815832  0.50225135
   0.33065303  0.38028747  0.49759037
   0.33158867  0.52348097  0.49472976
   0.33720793  0.67069242  0.49848296
   0.33306691  0.80998088  0.50050142
   0.33330927  0.95259281  0.50192038
   0.47624553  0.09484272  0.49990547
   0.47566545  0.23756736  0.50083253
   0.47242110  0.80613677  0.49785322
   0.47599468  0.95212638  0.49909743
   0.61875375  0.09454801  0.49752993
   0.61934959  0.23760083  0.49731557
   0.62127548  0.37913925  0.49576283
   0.61880457  0.81069452  0.49379888
   0.61775185  0.95093939  0.49666495
   0.76134287  0.09442213  0.49710168
   0.76199275  0.23746487  0.49690843
   0.76237865  0.38052975  0.49487570
   0.76253517  0.52479745  0.48966427
   0.76439553  0.66737729  0.48511542
   0.76145533  0.80764817  0.48981224
   0.76089991  0.95128355  0.49530972
   0.90408944  0.09438587  0.49870406
   0.90440922  0.23756930  0.49847140
   0.90486502  0.38081171  0.49777848
   0.90537985  0.52395041  0.49703494
   0.90604197  0.66694485  0.49558704
   0.90560525  0.80989590  0.49616461
   0.90451349  0.95186111  0.49818844
   0.46331626  0.35486019  0.50338291
   0.40330732  0.41861334  0.49637336
   0.40413063  0.56021741  0.48794864
   0.64579388  0.67639617  0.47446887
   0.64619390  0.53961387  0.47537138
   0.58540788  0.41579782  0.49717265
   0.58012414  0.73802865  0.49315368
   0.48792794  0.56404941  0.57208675
   0.58112280  0.58145117  0.59998820
   0.42725409  0.71560824  0.49792523
   0.53006141  0.54295366  0.56275608
Direct configuration=     2
   0.99978486  0.99983912  0.50099105
   0.99952959  0.14252083  0.50050784
   0.99979150  0.28559095  0.49966019
   0.00018661  0.42858670  0.49929219
   0.00053621  0.57150258  0.49939687
   0.00117430  0.71465262  0.49941080
   0.00080730  0.85765889  0.50009498
   0.14313096  0.00046319  0.50311661
   0.14273506  0.14315745  0.50264520
   0.14245521  0.28575518  0.50102314
   0.14309342  0.42923309  0.50002333
   0.14345426  0.57164892  0.50055755
   0.14351919  0.71442483  0.50150227
   0.14327567  0.85749367  0.50249728
   0.28579663  0.00009057  0.50284112
   0.28575542  0.14288380  0.50282644
   0.28607017  0.28739089  0.50087522
   0.28520260  0.42895053  0.49725262
   0.28785048  0.57244634  0.49793062
   0.28633893  0.71520311  0.50006419
   0.28559460  0.85767602  0.50181981
   0.42868675  0.99986026  0.50041724
   0.42855506  0.14247617  0.50116865
   0.42710815  0.28234450  0.50229370
   0.42779345  0.85674736  0.49920424
   0.57094581  0.99938493  0.49774574
   0.57141209  0.14222700  0.49824979
   0.57246077  0.28583624  0.49814100
   0.57003060  0.85525257  0.49621903
   0.71316069  0.99867655  0.49636595
   0.71417778  0.14226625  0.49708636
   0.71448521  0.28532988  0.49627008
   0.71418904  0.42753586  0.49285214
   0.71853402  0.57327619  0.48227630
   0.71806922  0.71517724  0.48219437
   0.71222583  0.85576547  0.49257402
   0.85647661  0.99933633  0.49721165
   0.85653962  0.14219516  0.49798878
   0.85705470  0.28527347  0.49754290
   0.85762550  0.42836041  0.49625139
   0.85818970  0.57178031  0.49442891
   0.85938292  0.71509566  0.49285817
   0.85730079  0.85678580  0.49514648
   0.04746263  0.09519185  0.50171950
   0.04698663  0.23770460  0.50066534
   0.04750046  0.38101657  0.49988740
   0.04817366  0.52391914  0.50000804
   0.04831341  0.66684792  0.50046766
   0.04815584  0.80981474  0.50095488
   0.04785422  0.95259958  0.50180595
   0.19049262  0.09536592  0.50312339
   0.19022879  0.23839909  0.50178770
   0.18958586  0.38091634  0.49988480
   0.19152349  0.52474064  0.49994397
   0.19104197  0.66701557  0.50085024
   0.19072405  0.80985290  0.50218595
   0.19078721  0.95265813  0.50312232
   0.33344915  0.09542452  0.50260398
   0.33415774  0.23815750  0.50226188
   0.33065189  0.38028648  0.49759934
   0.33158754  0.52348047  0.49473354
   0.33720731  0.67069252  0.49848482
   0.33306618  0.80998124  0.50050197
   0.33330992  0.95259464  0.50192216
   0.47624511  0.09484272  0.49990971
   0.47566501  0.23756744  0.50083928
   0.47242060  0.80613720  0.49785528
   0.47599427  0.95212767  0.49909866
   0.61875317  0.09454857  0.49753052
   0.61934908  0.23760031  0.49731833
   0.62127511  0.37913837  0.49576525
   0.61880459  0.81069469  0.49380084
   0.61775154  0.95094007  0.49666478
   0.76134244  0.09442287  0.49709932
   0.76199370  0.23746475  0.49690696
   0.76237823  0.38052916  0.49487483
   0.76253702  0.52479796  0.48966447
   0.76439667  0.66737773  0.48511477
   0.76145697  0.80765042  0.48981337
   0.76089974  0.95128376  0.49530806
   0.90408931  0.09438616  0.49870054
   0.90440987  0.23756992  0.49846689
   0.90486509  0.38080924  0.49777421
   0.90538016  0.52395017  0.49703204
   0.90604255  0.66694523  0.49558100
   0.90560556  0.80989622  0.49616041
   0.90451458  0.95186203  0.49818741
   0.46331549  0.35485978  0.50339676
   0.40330763  0.41861269  0.49638357
   0.40413168  0.56021891  0.48795200
   0.64579396  0.67639545  0.47447678
   0.64619353  0.53961434  0.47537553
   0.58540729  0.41579801  0.49717418
   0.58012370  0.73802833  0.49315606
   0.48792107  0.56404677  0.57208549
   0.58110567  0.58143490  0.60000743
   0.42725411  0.71560842  0.49792776
   0.53005889  0.54295764  0.56275012
Direct configuration=     3
   0.99978508  0.99983945  0.50098953
   0.99952951  0.14252118  0.50050627
   0.99979280  0.28559323  0.49965570
   0.00018665  0.42858629  0.49928666
   0.00053541  0.57150275  0.49939259
   0.00117457  0.71465250  0.49940093
   0.00080747  0.85765855  0.50008864
   0.14312969  0.00046200  0.50311807
   0.14273487  0.14315833  0.50264867
   0.14245455  0.28575555  0.50102791
   0.14309179  0.42923195  0.50002416
   0.14345394  0.57164849  0.50055513
   0.14351845  0.71442407  0.50149845
   0.14327577  0.85749349  0.50249376
   0.28579778  0.00009210  0.50284311
   0.28575427  0.14288230  0.50283599
   0.28606881  0.28738984  0.50088873
   0.28520053  0.42894940  0.49726051
   0.28784988  0.57244667  0.49793367
   0.28633822  0.71520312  0.50006502
   0.28559458  0.85767693  0.50181927
   0.42868688  0.99986115  0.50041964
   0.42855455  0.14247594  0.50117758
   0.42710699  0.28234376  0.50230878
   0.42779237  0.85674856  0.49920605
   0.57094450  0.99938605  0.49774718
   0.57141114  0.14222607  0.49825348
   0.57245956  0.28583311  0.49814902
   0.57003029  0.85525282  0.49622129
   0.71316044  0.99867719  0.49636361
   0.71417680  0.14226734  0.49708452
   0.71448464  0.28532887  0.49626889
   0.71418925  0.42753591  0.49285252
   0.71853454  0.57327633  0.48227785
   0.71807193  0.71517891  0.48219719
   0.71222587  0.85576593  0.49257489
   0.85647663  0.99933654  0.49720756
   0.85653937  0.14219562  0.49798283
   0.85705439  0.28527227  0.49753830
   0.85762570  0.42835929  0.49624655
   0.85819187  0.57178058  0.49442508
   0.85938388  0.71509613  0.49285383
   0.85730182  0.85678681  0.49514280
   0.04746198  0.09519177  0.50172066
   0.04698609  0.23770359  0.50066535
   0.04750035  0.38101618  0.49988359
   0.04817367  0.52391957  0.50000326
   0.04831302  0.66684735  0.50046051
   0.04815575  0.80981466  0.50094995
   0.04785174  0.95259841  0.50180480
   0.19049106  0.09536477  0.50312652
   0.19022835  0.23839951  0.50179365
   0.18958928  0.38091922  0.49988926
   0.19152449  0.52474165  0.49994430
   0.19104189  0.66701541  0.50084873
   0.19072383  0.80985187  0.50218289
   0.19078662  0.95265739  0.50312273
   0.33344842  0.09542448  0.50261235
   0.33415726  0.23815730  0.50227629
   0.33065365  0.38028688  0.49761264
   0.33159095  0.52348275  0.49473871
   0.33720787  0.67069283  0.49848757
   0.33306665  0.80998100  0.50050269
   0.33330938  0.95259257  0.50192388
   0.47624478  0.09484277  0.49991595
   0.47566468  0.23756857  0.50084952
   0.47242105  0.80613671  0.49785825
   0.47599415  0.95212469  0.49910034
   0.61875299  0.09454810  0.49753138
   0.61934864  0.23760107  0.49732250
   0.62127523  0.37914013  0.49576892
   0.61880381  0.81069405  0.49380374
   0.61775149  0.95093963  0.49666454
   0.76134275  0.09442132  0.49709524
   0.76199329  0.23746410  0.49690413
   0.76237762  0.38052910  0.49487349
   0.76253574  0.52479771  0.48966342
   0.76439524  0.66737761  0.48511375
   0.76145515  0.80764892  0.48981324
   0.76089902  0.95128357  0.49530557
   0.90408864  0.09438596  0.49869536
   0.90440890  0.23756839  0.49846029
   0.90486411  0.38080925  0.49776750
   0.90537837  0.52394883  0.49702788
   0.90604237  0.66694500  0.49557222
   0.90560521  0.80989580  0.49615420
   0.90451474  0.95186255  0.49818554
   0.46331447  0.35485940  0.50341719
   0.40330736  0.41861118  0.49639877
   0.40413185  0.56022049  0.48795722
   0.64579195  0.67639329  0.47448824
   0.64619268  0.53961485  0.47538167
   0.58540683  0.41579790  0.49717645
   0.58012324  0.73802810  0.49315964
   0.48791083  0.56404299  0.57208350
   0.58108063  0.58141111  0.60003602
   0.42725337  0.71560836  0.49793151
   0.53005507  0.54296379  0.56274152
Direct configuration=     4
   0.99978518  0.99983981  0.50098777
   0.99952922  0.14252130  0.50050426
   0.99979635  0.28559927  0.49964973
   0.00018659  0.42858539  0.49927905
   0.00053435  0.57150280  0.49938721
   0.00117487  0.71465277  0.49938793
   0.00080700  0.85765808  0.50008044
   0.14312734  0.00045993  0.50311985
   0.14273469  0.14315974  0.50265320
   0.14245332  0.28575590  0.50103431
   0.14308940  0.42923021  0.50002597
   0.14345330  0.57164771  0.50055190
   0.14351743  0.71442313  0.50149313
   0.14327555  0.85749340  0.50248922
   0.28579798  0.00009293  0.50284616
   0.28575297  0.14288106  0.50284698
   0.28606697  0.28738828  0.50090705
   0.28519797  0.42894796  0.49727129
   0.28784910  0.57244703  0.49793789
   0.28633722  0.71520303  0.50006623
   0.28559461  0.85767823  0.50181867
   0.42868492  0.99986088  0.50042375
   0.42855409  0.14247593  0.50118986
   0.42710561  0.28234299  0.50232992
   0.42779118  0.85674989  0.49920833
   0.57094432  0.99938692  0.49774786
   0.57140992  0.14222488  0.49825804
   0.57245838  0.28583349  0.49815790
   0.57002987  0.85525304  0.49622443
   0.71316012  0.99867784  0.49636044
   0.71417540  0.14226837  0.49708227
   0.71448380  0.28532757  0.49626766
   0.71418893  0.42753597  0.49285237
   0.71853513  0.57327649  0.48228015
   0.71807553  0.71518127  0.48220101
   0.71222605  0.85576649  0.49257616
   0.85647662  0.99933669  0.49720222
   0.85653885  0.14219578  0.49797475
   0.85705447  0.28527117  0.49753165
   0.85762576  0.42835749  0.49624016
   0.85819475  0.57178085  0.49441967
   0.85938496  0.71509690  0.49284725
   0.85730335  0.85678816  0.49513802
   0.04746109  0.09519159  0.50172205
   0.04698610  0.23770297  0.50066483
   0.04749974  0.38101496  0.49987847
   0.04817315  0.52391990  0.49999690
   0.04831257  0.66684661  0.50045093
   0.04815613  0.80981394  0.50094328
   0.04785036  0.95259731  0.50180259
   0.19049004  0.09536415  0.50313157
   0.19022774  0.23839932  0.50180205
   0.18959468  0.38092209  0.49989503
   0.19152548  0.52474268  0.49994480
   0.19104201  0.66701683  0.50084776
   0.19072365  0.80985054  0.50217877
   0.19078668  0.95265669  0.50312325
   0.33344905  0.09542512  0.50262265
   0.33415646  0.23815670  0.50229515
   0.33065649  0.38028644  0.49763010
   0.33159566  0.52348596  0.49474582
   0.33720843  0.67069313  0.49849134
   0.33306735  0.80998050  0.50050369
   0.33330829  0.95259059  0.50192481
   0.47624426  0.09484267  0.49992428
   0.47566405  0.23756903  0.50086392
   0.47242157  0.80613577  0.49786228
   0.47599466  0.95212347  0.49910260
   0.61875253  0.09454716  0.49753261
   0.61934793  0.23760133  0.49732827
   0.62127527  0.37914203  0.49577418
   0.61880259  0.81069302  0.49380772
   0.61775114  0.95093892  0.49666443
   0.76134208  0.09442075  0.49709045
   0.76199275  0.23746315  0.49690095
   0.76237699  0.38052872  0.49487154
   0.76253407  0.52479719  0.48966248
   0.76439324  0.66737738  0.48511269
   0.76145204  0.80764584  0.48981205
   0.76089816  0.95128318  0.49530225
   0.90408777  0.09438550  0.49868845
   0.90440731  0.23756622  0.49845156
   0.90486287  0.38080899  0.49775886
   0.90537580  0.52394681  0.49702227
   0.90604217  0.66694434  0.49556078
   0.90560467  0.80989504  0.49614591
   0.90451389  0.95186247  0.49818248
   0.46331299  0.35485876  0.50344438
   0.40330713  0.41860914  0.49641919
   0.40413214  0.56022256  0.48796427
   0.64578911  0.67639033  0.47450347
   0.64619155  0.53961541  0.47538990
   0.58540621  0.41579769  0.49717956
   0.58012257  0.73802770  0.49316452
   0.48789681  0.56403811  0.57208094
   0.58104753  0.58137963  0.60007425
   0.42725248  0.71560819  0.49793661
   0.53004978  0.54297191  0.56272982
Direct configuration=     5
   0.99978453  0.99983989  0.50098584
   0.99952813  0.14252083  0.50050179
   0.99979595  0.28559895  0.49964227
   0.00018576  0.42858489  0.49926926
   0.00053272  0.57150201  0.49938021
   0.00117501  0.71465295  0.49937209
   0.00080596  0.85765713  0.50007066
   0.14312506  0.00045800  0.50312192
   0.14273407  0.14316037  0.50265899
   0.14245326  0.28575656  0.50104219
   0.14309174  0.42923164  0.50002613
   0.14345300  0.57164793  0.50054798
   0.14351662  0.71442252  0.50148630
   0.14327544  0.85749282  0.50248380
   0.28579703  0.00009228  0.50285045
   0.28575187  0.14288065  0.50285982
   0.28606628  0.28738755  0.50093003
   0.28520211  0.42894963  0.49728360
   0.28785009  0.57244756  0.49794329
   0.28633694  0.71520315  0.50006795
   0.28559415  0.85767760  0.50181790
   0.42868532  0.99986095  0.50042850
   0.42855344  0.14247629  0.50120420
   0.42710425  0.28234264  0.50235753
   0.42779119  0.85674955  0.49921114
   0.57094536  0.99938623  0.49774798
   0.57140892  0.14222419  0.49826386
   0.57245799  0.28583808  0.49816799
   0.57002936  0.85525260  0.49622851
   0.71315942  0.99867772  0.49635647
   0.71417431  0.14226792  0.49707962
   0.71448281  0.28532686  0.49626666
   0.71418799  0.42753615  0.49285203
   0.71853399  0.57327610  0.48228182
   0.71807445  0.71518047  0.48220541
   0.71222492  0.85576579  0.49257769
   0.85647587  0.99933660  0.49719573
   0.85653780  0.14219478  0.49796455
   0.85705423  0.28527010  0.49752272
   0.85762434  0.42835559  0.49623228
   0.85819495  0.57178014  0.49441230
   0.85938432  0.71509647  0.49283794
   0.85730318  0.85678828  0.49513200
   0.04746048  0.09519177  0.50172354
   0.04698672  0.23770479  0.50066377
   0.04749957  0.38101508  0.49987217
   0.04817190  0.52391932  0.49998908
   0.04831173  0.66684595  0.50043905
   0.04815660  0.80981329  0.50093423
   0.04785013  0.95259647  0.50179923
   0.19048902  0.09536372  0.50313879
   0.19022638  0.23839901  0.50181343
   0.18959475  0.38092162  0.49990320
   0.19152458  0.52474194  0.49994565
   0.19104142  0.66701655  0.50084596
   0.19072329  0.80984984  0.50217362
   0.19078711  0.95265662  0.50312385
   0.33345021  0.09542586  0.50263496
   0.33415460  0.23815507  0.50231872
   0.33065662  0.38028267  0.49765045
   0.33159701  0.52348740  0.49475546
   0.33720760  0.67069328  0.49849620
   0.33306707  0.80998056  0.50050506
   0.33330701  0.95259073  0.50192530
   0.47624303  0.09484209  0.49993469
   0.47566302  0.23756853  0.50088277
   0.47242113  0.80613543  0.49786744
   0.47599476  0.95212573  0.49910555
   0.61875148  0.09454673  0.49753419
   0.61934657  0.23760046  0.49733550
   0.62127468  0.37914238  0.49578102
   0.61880183  0.81069264  0.49381283
   0.61775045  0.95093896  0.49666452
   0.76134023  0.09442218  0.49708482
   0.76199228  0.23746262  0.49689730
   0.76237630  0.38052755  0.49486883
   0.76253441  0.52479723  0.48966169
   0.76439369  0.66737771  0.48511196
   0.76145254  0.80764704  0.48981186
   0.76089779  0.95128322  0.49529815
   0.90408715  0.09438522  0.49867993
   0.90440765  0.23756557  0.49844211
   0.90486272  0.38080779  0.49774840
   0.90537459  0.52394487  0.49701516
   0.90604295  0.66694412  0.49554695
   0.90560478  0.80989499  0.49613563
   0.90451296  0.95186225  0.49817804
   0.46331105  0.35485786  0.50347807
   0.40330808  0.41860727  0.49644474
   0.40413420  0.56022594  0.48797303
   0.64578765  0.67638787  0.47452254
   0.64619059  0.53961623  0.47540020
   0.58540524  0.41579785  0.49718358
   0.58012160  0.73802692  0.49317076
   0.48787910  0.56403237  0.57207766
   0.58100644  0.58134077  0.60012149
   0.42725226  0.71560819  0.49794308
   0.53004306  0.54298198  0.56271643
Direct configuration=     6
   0.99978335  0.99983957  0.50098357
   0.99952709  0.14252100  0.50049867
   0.99979222  0.28559311  0.49963329
   0.00018476  0.42858495  0.49925716
   0.00053101  0.57150038  0.49937089
   0.00117517  0.71465281  0.49935354
   0.00080529  0.85765596  0.50005931
   0.14312452  0.00045753  0.50312418
   0.14273298  0.14315973  0.50266635
   0.14245513  0.28575655  0.50105077
   0.14309516  0.42923449  0.50002580
   0.14345095  0.57164673  0.50054406
   0.14351597  0.71442225  0.50147778
   0.14327587  0.85749217  0.50247744
   0.28579598  0.00009133  0.50285600
   0.28575121  0.14288055  0.50287514
   0.28606582  0.28738630  0.50095753
   0.28521092  0.42895279  0.49729788
   0.28785171  0.57244809  0.49794996
   0.28633716  0.71520344  0.50007022
   0.28559332  0.85767571  0.50181671
   0.42868701  0.99986173  0.50043393
   0.42855459  0.14247928  0.50121867
   0.42710271  0.28234205  0.50239212
   0.42779248  0.85674878  0.49921456
   0.57094457  0.99938442  0.49774847
   0.57140790  0.14222435  0.49827137
   0.57245544  0.28583623  0.49817972
   0.57002890  0.85525189  0.49623356
   0.71315857  0.99867752  0.49635167
   0.71417331  0.14226682  0.49707651
   0.71448141  0.28532636  0.49626607
   0.71418943  0.42753692  0.49285209
   0.71853220  0.57327573  0.48228330
   0.71807016  0.71517792  0.48220931
   0.71222318  0.85576459  0.49257940
   0.85647457  0.99933624  0.49718796
   0.85653703  0.14219400  0.49795372
   0.85705376  0.28526926  0.49751135
   0.85762208  0.42835388  0.49622288
   0.85819258  0.57177875  0.49440264
   0.85938315  0.71509525  0.49282555
   0.85730037  0.85678679  0.49512597
   0.04745996  0.09519218  0.50172495
   0.04698575  0.23770636  0.50066337
   0.04750060  0.38101706  0.49986446
   0.04817043  0.52391839  0.49997976
   0.04831066  0.66684553  0.50042489
   0.04815737  0.80981318  0.50092350
   0.04784796  0.95259524  0.50179597
   0.19048756  0.09536309  0.50314821
   0.19022490  0.23839909  0.50182827
   0.18959325  0.38092177  0.49991157
   0.19152340  0.52474083  0.49994671
   0.19104045  0.66701647  0.50084428
   0.19072276  0.80984985  0.50216734
   0.19078681  0.95265674  0.50312445
   0.33345030  0.09542609  0.50264928
   0.33415232  0.23815319  0.50234735
   0.33065528  0.38027873  0.49767426
   0.33159439  0.52348582  0.49476656
   0.33720608  0.67069343  0.49850216
   0.33306834  0.80998366  0.50050583
   0.33330618  0.95259244  0.50192577
   0.47624170  0.09484163  0.49994693
   0.47566207  0.23756877  0.50090622
   0.47242033  0.80613561  0.49787223
   0.47599034  0.95212323  0.49910844
   0.61875031  0.09454679  0.49753593
   0.61934464  0.23760011  0.49734393
   0.62127388  0.37914298  0.49578922
   0.61880143  0.81069266  0.49381907
   0.61775236  0.95094152  0.49666439
   0.76133807  0.09442415  0.49707794
   0.76199197  0.23746281  0.49689284
   0.76237500  0.38052616  0.49486509
   0.76253605  0.52479782  0.48966057
   0.76439435  0.66737514  0.48511253
   0.76145571  0.80765123  0.48981247
   0.76089750  0.95128371  0.49529321
   0.90408662  0.09438513  0.49866976
   0.90440938  0.23756615  0.49843151
   0.90486258  0.38080431  0.49773745
   0.90537479  0.52394336  0.49700622
   0.90604407  0.66694442  0.49553065
   0.90560508  0.80989548  0.49612322
   0.90451253  0.95186235  0.49817196
   0.46330887  0.35485705  0.50351828
   0.40330995  0.41860526  0.49647536
   0.40413776  0.56023063  0.48798357
   0.64578726  0.67638583  0.47454526
   0.64618953  0.53961724  0.47541243
   0.58540407  0.41579862  0.49718856
   0.58012052  0.73802606  0.49317836
   0.48785785  0.56402605  0.57207332
   0.58095733  0.58129477  0.60017755
   0.42725244  0.71560830  0.49795084
   0.53003505  0.54299424  0.56270254
Direct configuration=     7
   0.99978171  0.99983884  0.50098047
   0.99952684  0.14252255  0.50049442
   0.99979282  0.28559438  0.49962201
   0.00018444  0.42858426  0.49924138
   0.00053013  0.57149871  0.49935727
   0.00117565  0.71465251  0.49933039
   0.00080567  0.85765423  0.50004701
   0.14312478  0.00045816  0.50312697
   0.14273114  0.14315786  0.50267688
   0.14245805  0.28575721  0.50105952
   0.14309500  0.42923383  0.50002687
   0.14344765  0.57164419  0.50053972
   0.14351490  0.71442209  0.50146643
   0.14327665  0.85749231  0.50246934
   0.28579556  0.00009170  0.50286352
   0.28575018  0.14287923  0.50289587
   0.28606346  0.28738259  0.50099285
   0.28521132  0.42895101  0.49731751
   0.28785070  0.57244799  0.49795898
   0.28633714  0.71520489  0.50007339
   0.28559310  0.85767593  0.50181462
   0.42868642  0.99986223  0.50044084
   0.42855570  0.14248200  0.50123586
   0.42710038  0.28234088  0.50243857
   0.42779302  0.85674816  0.49921891
   0.57094270  0.99938350  0.49774898
   0.57140638  0.14222481  0.49828214
   0.57245459  0.28583512  0.49819469
   0.57002927  0.85525254  0.49624012
   0.71315904  0.99867926  0.49634547
   0.71417163  0.14226685  0.49707256
   0.71447928  0.28532538  0.49626603
   0.71418853  0.42753638  0.49285277
   0.71853116  0.57327416  0.48228566
   0.71806948  0.71517782  0.48221453
   0.71222276  0.85576498  0.49258157
   0.85647347  0.99933567  0.49717786
   0.85653624  0.14219427  0.49794103
   0.85705328  0.28526793  0.49749630
   0.85762080  0.42835143  0.49621102
   0.85819104  0.57177797  0.49438935
   0.85938400  0.71509450  0.49280859
   0.85729874  0.85678610  0.49511911
   0.04745891  0.09519224  0.50172629
   0.04698403  0.23770483  0.50066338
   0.04750181  0.38101802  0.49985411
   0.04816880  0.52391749  0.49996779
   0.04830781  0.66684568  0.50040845
   0.04815799  0.80981336  0.50090885
   0.04784469  0.95259395  0.50179233
   0.19048571  0.09536191  0.50315926
   0.19022451  0.23839854  0.50184905
   0.18959457  0.38092348  0.49992027
   0.19152443  0.52474242  0.49994814
   0.19103951  0.66701627  0.50084223
   0.19072225  0.80984956  0.50215911
   0.19078506  0.95265620  0.50312519
   0.33344768  0.09542593  0.50266551
   0.33415082  0.23815189  0.50238515
   0.33065926  0.38027787  0.49770387
   0.33159535  0.52348221  0.49477877
   0.33720567  0.67069368  0.49851010
   0.33306789  0.80998356  0.50050743
   0.33330646  0.95259101  0.50192796
   0.47624169  0.09484282  0.49996198
   0.47566139  0.23757063  0.50093714
   0.47242053  0.80613555  0.49787755
   0.47599109  0.95212462  0.49911242
   0.61874827  0.09454598  0.49753806
   0.61934233  0.23760024  0.49735436
   0.62127364  0.37914341  0.49579957
   0.61880012  0.81069038  0.49382555
   0.61775177  0.95094049  0.49666446
   0.76133712  0.09442439  0.49706868
   0.76199107  0.23746304  0.49688668
   0.76237306  0.38052480  0.49485975
   0.76253632  0.52479814  0.48965819
   0.76439346  0.66737491  0.48511208
   0.76145440  0.80764966  0.48981129
   0.76089611  0.95128368  0.49528684
   0.90408554  0.09438486  0.49865692
   0.90440781  0.23756728  0.49841939
   0.90486091  0.38080032  0.49772424
   0.90537421  0.52394176  0.49699385
   0.90604401  0.66694424  0.49550971
   0.90560383  0.80989472  0.49610705
   0.90451234  0.95186361  0.49816492
   0.46330627  0.35485623  0.50357034
   0.40331138  0.41860154  0.49651502
   0.40413999  0.56023564  0.48799765
   0.64578502  0.67638244  0.47457403
   0.64618743  0.53961810  0.47542801
   0.58540280  0.41579997  0.49719532
   0.58011957  0.73802545  0.49318845
   0.48783019  0.56401865  0.57206707
   0.58089423  0.58123627  0.60025070
   0.42725197  0.71560821  0.49796089
   0.53002459  0.54300948  0.56268559
Direct configuration=     8
   0.99977988  0.99983840  0.50097602
   0.99952615  0.14252290  0.50048872
   0.99979044  0.28559536  0.49960930
   0.00018394  0.42858179  0.49922121
   0.00052959  0.57149850  0.49933752
   0.00117507  0.71465266  0.49930158
   0.00080292  0.85765286  0.50003451
   0.14312219  0.00045757  0.50313042
   0.14272856  0.14315548  0.50269230
   0.14245877  0.28576000  0.50106715
   0.14309242  0.42923127  0.50002902
   0.14344854  0.57164612  0.50053350
   0.14351261  0.71442153  0.50145165
   0.14327651  0.85749295  0.50245876
   0.28579542  0.00009206  0.50287334
   0.28574745  0.14287689  0.50292470
   0.28605917  0.28737920  0.50103616
   0.28521027  0.42894540  0.49734238
   0.28784918  0.57244566  0.49797068
   0.28633561  0.71520543  0.50007774
   0.28559345  0.85767753  0.50181129
   0.42868403  0.99986238  0.50044998
   0.42855295  0.14248008  0.50125676
   0.42709806  0.28234065  0.50250102
   0.42779213  0.85674900  0.49922427
   0.57094170  0.99938450  0.49775003
   0.57140501  0.14222500  0.49829749
   0.57245375  0.28583881  0.49821521
   0.57003041  0.85525294  0.49624813
   0.71315940  0.99868124  0.49633742
   0.71416929  0.14226805  0.49706724
   0.71447670  0.28532413  0.49626643
   0.71418811  0.42753562  0.49285469
   0.71853097  0.57327309  0.48228998
   0.71807154  0.71517834  0.48221993
   0.71222255  0.85576537  0.49258388
   0.85647290  0.99933574  0.49716456
   0.85653562  0.14219604  0.49792558
   0.85705053  0.28526650  0.49747940
   0.85762089  0.42834813  0.49619597
   0.85819296  0.57177833  0.49437114
   0.85938582  0.71509479  0.49278561
   0.85730013  0.85678725  0.49511012
   0.04745708  0.09519146  0.50172746
   0.04698729  0.23770514  0.50066105
   0.04750247  0.38101692  0.49984020
   0.04816816  0.52392091  0.49995311
   0.04830558  0.66684488  0.50038833
   0.04815883  0.80981306  0.50088821
   0.04784345  0.95259311  0.50178801
   0.19048455  0.09536073  0.50317307
   0.19022484  0.23839579  0.50187755
   0.18959835  0.38092425  0.49993040
   0.19152575  0.52474459  0.49995044
   0.19103778  0.66701496  0.50083907
   0.19072237  0.80984903  0.50214817
   0.19078387  0.95265578  0.50312626
   0.33344550  0.09542569  0.50268470
   0.33415099  0.23815253  0.50243474
   0.33066399  0.38027712  0.49774302
   0.33159988  0.52348066  0.49479376
   0.33720667  0.67069387  0.49852073
   0.33306665  0.80998058  0.50051020
   0.33330721  0.95259127  0.50193173
   0.47624195  0.09484563  0.49998007
   0.47566145  0.23757565  0.50097295
   0.47242200  0.80613525  0.49788456
   0.47599427  0.95212260  0.49911799
   0.61874575  0.09454494  0.49754087
   0.61934066  0.23759994  0.49736736
   0.62127287  0.37914305  0.49581259
   0.61879916  0.81068803  0.49383286
   0.61774885  0.95093692  0.49666478
   0.76133802  0.09442333  0.49705613
   0.76198818  0.23746207  0.49688022
   0.76237110  0.38052356  0.49485259
   0.76253342  0.52479637  0.48965351
   0.76439107  0.66737645  0.48510915
   0.76145002  0.80764561  0.48981067
   0.76089420  0.95128336  0.49527864
   0.90408287  0.09438382  0.49864314
   0.90440471  0.23756747  0.49840402
   0.90485910  0.38079911  0.49770683
   0.90537182  0.52393960  0.49697622
   0.90604295  0.66694270  0.49548226
   0.90559969  0.80989116  0.49608849
   0.90451070  0.95186364  0.49815631
   0.46330312  0.35485507  0.50363752
   0.40331400  0.41859661  0.49656556
   0.40413965  0.56023992  0.48801586
   0.64578006  0.67637709  0.47460994