  97  97   0   0
  0.3994726E+02  0.1727104E-08  0.1727104E-08  0.1500000E-08  0.0000000E+00
  1.000000000000000E-004
  CAR 
 unknown system                          
      5.77072375    -25.35754609  301     -2.43475027      1.00000000
    -25.358  0.0000E+00  0.0000E+00  0.0000E+00  0.0000E+00
    -25.254  0.0000E+00  0.0000E+00  0.0000E+00  0.0000E+00
    -25.150  0.0000E+00  0.0000E+00  0.0000E+00  0.0000E+00
    -25.046  0.0000E+00  0.0000E+00  0.0000E+00  0.0000E+00
    -24.943  0.0000E+00  0.0000E+00  0.0000E+00  0.0000E+00
    -24.839  0.0000E+00  0.0000E+00  0.0000E+00  0.0000E+00
    -24.735  0.0000E+00  0.0000E+00  0.0000E+00  0.0000E+00
    -24.631  0.0000E+00  0.0000E+00  0.0000E+00  0.0000E+00
    -24.527  0.0000E+00  0.0000E+00  0.0000E+00  0.0000E+00
    -24.424  0.0000E+00  0.0000E+00  0.0000E+00  0.0000E+00
    -24.320  0.0000E+00  0.0000E+00  0.0000E+00  0.0000E+00
    -24.216  0.4882E-16  0.4882E-16  0.5065E-17  0.5065E-17
    -24.112  0.7540E-08  0.7540E-08  0.7824E-09  0.7824E-09
    -24.009  0.2976E-03  0.2976E-03  0.3088E-04  0.3088E-04
    -23.905  0.7961E-02  0.7961E-02  0.8570E-03  0.8570E-03
    -23.801  0.1378E-02  0.1378E-02  0.1000E-02  0.1000E-02
    -23.697  0.3031E-06  0.3031E-06  0.1000E-02  0.1000E-02
    -23.594  0.1938E-13  0.1938E-13  0.1000E-02  0.1000E-02
    -23.490  0.0000E+00  0.0000E+00  0.1000E-02  0.1000E-02
    -23.386  0.0000E+00  0.0000E+00  0.1000E-02  0.1000E-02
    -23.282  0.0000E+00  0.0000E+00  0.1000E-02  0.1000E-02
    -23.179  0.0000E+00  0.0000E+00  0.1000E-02  0.1000E-02
    -23.075  0.0000E+00  0.0000E+00  0.1000E-02  0.1000E-02
    -22.971  0.0000E+00  0.0000E+00  0.1000E-02  0.1000E-02
    -22.867  0.0000E+00  0.0000E+00  0.1000E-02  0.1000E-02
    -22.764  0.0000E+00  0.0000E+00  0.1000E-02  0.1000E-02
    -22.660  0.0000E+00  0.0000E+00  0.1000E-02  0.1000E-02
    -22.556  0.2635E-16  0.2635E-16  0.1000E-02  0.1000E-02
    -22.452  0.4699E-08  0.4699E-08  0.1000E-02  0.1000E-02
    -22.348  0.2346E-03  0.2346E-03  0.1024E-02  0.1024E-02
    -22.245  0.1106E-01  0.1106E-01  0.2172E-02  0.2172E-02
    -22.141  0.7923E-02  0.7923E-02  0.2994E-02  0.2994E-02
    -22.037  0.5669E-04  0.5669E-04  0.3000E-02  0.3000E-02
    -21.933  0.2546E-09  0.2546E-09  0.3000E-02  0.3000E-02
    -21.830  0.1102E-06  0.1102E-06  0.3000E-02  0.3000E-02
    -21.726  0.5622E-03  0.5622E-03  0.3058E-02  0.3058E-02
    -21.622  0.7717E-02  0.7717E-02  0.3859E-02  0.3859E-02
    -21.518  0.5821E-02  0.5821E-02  0.4463E-02  0.4463E-02
    -21.415  0.5239E-02  0.5239E-02  0.5007E-02  0.5007E-02
    -21.311  0.5107E-02  0.5107E-02  0.5537E-02  0.5537E-02
    -21.207  0.8722E-02  0.8722E-02  0.6442E-02  0.6442E-02
    -21.103  0.5446E-02  0.5446E-02  0.7007E-02  0.7007E-02
    -21.000  0.2907E-02  0.2907E-02  0.7308E-02  0.7308E-02
    -20.896  0.7999E-02  0.7999E-02  0.8138E-02  0.8138E-02
    -20.792  0.8696E-02  0.8696E-02  0.9041E-02  0.9041E-02
    -20.688  0.4965E-02  0.4965E-02  0.9556E-02  0.9556E-02
    -20.585  0.7616E-02  0.7616E-02  0.1035E-01  0.1035E-01
    -20.481  0.4375E-02  0.4375E-02  0.1080E-01  0.1080E-01
    -20.377  0.2918E-02  0.2918E-02  0.1110E-01  0.1110E-01
    -20.273  0.1212E-01  0.1212E-01  0.1236E-01  0.1236E-01
    -20.170  0.9454E-02  0.9454E-02  0.1334E-01  0.1334E-01
    -20.066  0.7936E-02  0.7936E-02  0.1416E-01  0.1416E-01
    -19.962  0.3251E-02  0.3251E-02  0.1450E-01  0.1450E-01
    -19.858  0.3126E-02  0.3126E-02  0.1483E-01  0.1483E-01
    -19.754  0.5625E-02  0.5625E-02  0.1541E-01  0.1541E-01
    -19.651  0.8056E-02  0.8056E-02  0.1625E-01  0.1625E-01
    -19.547  0.6054E-02  0.6054E-02  0.1687E-01  0.1687E-01
    -19.443  0.1291E-01  0.1291E-01  0.1821E-01  0.1821E-01
    -19.339  0.1120E-01  0.1120E-01  0.1938E-01  0.1938E-01
    -19.236  0.3619E-02  0.3619E-02  0.1975E-01  0.1975E-01
    -19.132  0.2903E-02  0.2903E-02  0.2005E-01  0.2005E-01
    -19.028  0.4346E-02  0.4346E-02  0.2050E-01  0.2050E-01
    -18.924  0.1151E-01  0.1151E-01  0.2170E-01  0.2170E-01
    -18.821  0.3700E-02  0.3700E-02  0.2208E-01  0.2208E-01
    -18.717  0.3775E-02  0.3775E-02  0.2247E-01  0.2247E-01
    -18.613  0.8753E-02  0.8753E-02  0.2338E-01  0.2338E-01
    -18.509  0.1498E-01  0.1498E-01  0.2494E-01  0.2494E-01
    -18.406  0.7687E-02  0.7687E-02  0.2573E-01  0.2573E-01
    -18.302  0.6400E-02  0.6400E-02  0.2640E-01  0.2640E-01
    -18.198  0.6090E-02  0.6090E-02  0.2703E-01  0.2703E-01
    -18.094  0.5752E-02  0.5752E-02  0.2763E-01  0.2763E-01
    -17.991  0.8520E-02  0.8520E-02  0.2851E-01  0.2851E-01
    -17.887  0.6068E-02  0.6068E-02  0.2914E-01  0.2914E-01
    -17.783  0.3419E-02  0.3419E-02  0.2949E-01  0.2949E-01
    -17.679  0.1577E-02  0.1577E-02  0.2966E-01  0.2966E-01
    -17.575  0.1375E-01  0.1375E-01  0.3109E-01  0.3109E-01
    -17.472  0.9415E-02  0.9415E-02  0.3206E-01  0.3206E-01
    -17.368  0.1183E-01  0.1183E-01  0.3329E-01  0.3329E-01
    -17.264  0.1120E-01  0.1120E-01  0.3445E-01  0.3445E-01
    -17.160  0.9260E-02  0.9260E-02  0.3541E-01  0.3541E-01
    -17.057  0.5573E-02  0.5573E-02  0.3599E-01  0.3599E-01
    -16.953  0.1039E-01  0.1039E-01  0.3707E-01  0.3707E-01
    -16.849  0.7283E-02  0.7283E-02  0.3782E-01  0.3782E-01
    -16.745  0.3956E-02  0.3956E-02  0.3823E-01  0.3823E-01
    -16.642  0.1310E-02  0.1310E-02  0.3837E-01  0.3837E-01
    -16.538  0.6805E-02  0.6805E-02  0.3908E-01  0.3908E-01
    -16.434  0.1299E-01  0.1299E-01  0.4042E-01  0.4042E-01
    -16.330  0.1649E-01  0.1649E-01  0.4214E-01  0.4214E-01
    -16.227  0.7303E-02  0.7303E-02  0.4289E-01  0.4289E-01
    -16.123  0.1028E-02  0.1028E-02  0.4300E-01  0.4300E-01
    -16.019  0.9873E-03  0.9873E-03  0.4310E-01  0.4310E-01
    -15.915  0.3055E-02  0.3055E-02  0.4342E-01  0.4342E-01
    -15.812  0.5204E-02  0.5204E-02  0.4396E-01  0.4396E-01
    -15.708  0.3151E-02  0.3151E-02  0.4429E-01  0.4429E-01
    -15.604  0.2295E-02  0.2295E-02  0.4452E-01  0.4452E-01
    -15.500  0.5322E-02  0.5322E-02  0.4508E-01  0.4508E-01
    -15.396  0.8428E-02  0.8428E-02  0.4595E-01  0.4595E-01
    -15.293  0.4734E-02  0.4734E-02  0.4644E-01  0.4644E-01
    -15.189  0.7770E-02  0.7770E-02  0.4725E-01  0.4725E-01
    -15.085  0.5761E-02  0.5761E-02  0.4785E-01  0.4785E-01
    -14.981  0.1127E-01  0.1127E-01  0.4902E-01  0.4902E-01
    -14.878  0.1233E-01  0.1233E-01  0.5030E-01  0.5030E-01
    -14.774  0.8625E-02  0.8625E-02  0.5119E-01  0.5119E-01
    -14.670  0.8700E-02  0.8700E-02  0.5209E-01  0.5209E-01
    -14.566  0.6081E-02  0.6081E-02  0.5272E-01  0.5272E-01
    -14.463  0.1131E-01  0.1131E-01  0.5390E-01  0.5390E-01
    -14.359  0.5484E-02  0.5484E-02  0.5447E-01  0.5447E-01
    -14.255  0.1125E-01  0.1125E-01  0.5563E-01  0.5563E-01
    -14.151  0.8562E-02  0.8562E-02  0.5652E-01  0.5652E-01
    -14.048  0.9113E-02  0.9113E-02  0.5747E-01  0.5747E-01
    -13.944  0.7082E-02  0.7082E-02  0.5820E-01  0.5820E-01
    -13.840  0.4593E-02  0.4593E-02  0.5868E-01  0.5868E-01
    -13.736  0.3528E-02  0.3528E-02  0.5905E-01  0.5905E-01
    -13.633  0.7073E-02  0.7073E-02  0.5978E-01  0.5978E-01
    -13.529  0.7382E-02  0.7382E-02  0.6055E-01  0.6055E-01
    -13.425  0.1020E-01  0.1020E-01  0.6160E-01  0.6160E-01
    -13.321  0.9368E-02  0.9368E-02  0.6258E-01  0.6258E-01
    -13.218  0.5465E-02  0.5465E-02  0.6314E-01  0.6314E-01
    -13.114  0.7970E-02  0.7970E-02  0.6397E-01  0.6397E-01
    -13.010  0.4465E-02  0.4465E-02  0.6443E-01  0.6443E-01
    -12.906  0.7962E-03  0.7962E-03  0.6452E-01  0.6452E-01
    -12.802  0.5396E-02  0.5396E-02  0.6508E-01  0.6508E-01
    -12.699  0.7677E-02  0.7677E-02  0.6587E-01  0.6587E-01
    -12.595  0.7075E-02  0.7075E-02  0.6661E-01  0.6661E-01
    -12.491  0.1394E-01  0.1394E-01  0.6805E-01  0.6805E-01
    -12.387  0.1483E-01  0.1483E-01  0.6959E-01  0.6959E-01
    -12.284  0.9996E-02  0.9996E-02  0.7063E-01  0.7063E-01
    -12.180  0.8636E-02  0.8636E-02  0.7152E-01  0.7152E-01
    -12.076  0.2183E-02  0.2183E-02  0.7175E-01  0.7175E-01
    -11.972  0.3391E-02  0.3391E-02  0.7210E-01  0.7210E-01
    -11.869  0.1267E-01  0.1267E-01  0.7342E-01  0.7342E-01
    -11.765  0.1001E-01  0.1001E-01  0.7446E-01  0.7446E-01
    -11.661  0.8568E-02  0.8568E-02  0.7535E-01  0.7535E-01
    -11.557  0.9465E-02  0.9465E-02  0.7633E-01  0.7633E-01
    -11.454  0.1244E-01  0.1244E-01  0.7762E-01  0.7762E-01
    -11.350  0.1072E-01  0.1072E-01  0.7873E-01  0.7873E-01
    -11.246  0.1018E-01  0.1018E-01  0.7979E-01  0.7979E-01
    -11.142  0.1132E-01  0.1132E-01  0.8096E-01  0.8096E-01
    -11.039  0.8616E-02  0.8616E-02  0.8186E-01  0.8186E-01
    -10.935  0.1057E-01  0.1057E-01  0.8295E-01  0.8295E-01
    -10.831  0.9710E-02  0.9710E-02  0.8396E-01  0.8396E-01
    -10.727  0.1239E-01  0.1239E-01  0.8525E-01  0.8525E-01
    -10.623  0.7095E-02  0.7095E-02  0.8598E-01  0.8598E-01
    -10.520  0.6506E-02  0.6506E-02  0.8666E-01  0.8666E-01
    -10.416  0.5414E-02  0.5414E-02  0.8722E-01  0.8722E-01
    -10.312  0.6623E-03  0.6623E-03  0.8729E-01  0.8729E-01
    -10.208  0.9368E-02  0.9368E-02  0.8826E-01  0.8826E-01
    -10.105  0.1591E-01  0.1591E-01  0.8991E-01  0.8991E-01
    -10.001  0.1750E-01  0.1750E-01  0.9173E-01  0.9173E-01
     -9.897  0.1664E-01  0.1664E-01  0.9345E-01  0.9345E-01
     -9.793  0.1849E-01  0.1849E-01  0.9537E-01  0.9537E-01
     -9.690  0.1996E-01  0.1996E-01  0.9744E-01  0.9744E-01
     -9.586  0.1404E-01  0.1404E-01  0.9890E-01  0.9890E-01
     -9.482  0.1448E-01  0.1448E-01  0.1004E+00  0.1004E+00
     -9.378  0.1708E-01  0.1708E-01  0.1022E+00  0.1022E+00
     -9.275  0.2041E-01  0.2041E-01  0.1043E+00  0.1043E+00
     -9.171  0.1243E-01  0.1243E-01  0.1056E+00  0.1056E+00
     -9.067  0.1390E-01  0.1390E-01  0.1070E+00  0.1070E+00
     -8.963  0.2598E-01  0.2598E-01  0.1097E+00  0.1097E+00
     -8.860  0.2965E-01  0.2965E-01  0.1128E+00  0.1128E+00
     -8.756  0.2337E-01  0.2337E-01  0.1152E+00  0.1152E+00
     -8.652  0.2278E-01  0.2278E-01  0.1176E+00  0.1176E+00
     -8.548  0.1677E-01  0.1677E-01  0.1193E+00  0.1193E+00
     -8.445  0.1839E-01  0.1839E-01  0.1212E+00  0.1212E+00
     -8.341  0.1467E-01  0.1467E-01  0.1228E+00  0.1228E+00
     -8.237  0.2302E-01  0.2302E-01  0.1251E+00  0.1251E+00
     -8.133  0.1958E-01  0.1958E-01  0.1272E+00  0.1272E+00
     -8.029  0.2567E-01  0.2567E-01  0.1298E+00  0.1298E+00
     -7.926  0.2040E-01  0.2040E-01  0.1320E+00  0.1320E+00
     -7.822  0.1744E-01  0.1744E-01  0.1338E+00  0.1338E+00
     -7.718  0.1575E-01  0.1575E-01  0.1354E+00  0.1354E+00
     -7.614  0.1433E-01  0.1433E-01  0.1369E+00  0.1369E+00
     -7.511  0.1090E-01  0.1090E-01  0.1380E+00  0.1380E+00
     -7.407  0.6620E-02  0.6620E-02  0.1387E+00  0.1387E+00
     -7.303  0.1647E-01  0.1647E-01  0.1404E+00  0.1404E+00
     -7.199  0.2318E-01  0.2318E-01  0.1428E+00  0.1428E+00
     -7.096  0.2237E-01  0.2237E-01  0.1451E+00  0.1451E+00
     -6.992  0.1748E-01  0.1748E-01  0.1470E+00  0.1470E+00
     -6.888  0.8567E-02  0.8567E-02  0.1478E+00  0.1478E+00
     -6.784  0.1513E-01  0.1513E-01  0.1494E+00  0.1494E+00
     -6.681  0.1014E-01  0.1014E-01  0.1505E+00  0.1505E+00
     -6.577  0.6560E-02  0.6560E-02  0.1511E+00  0.1511E+00
     -6.473  0.1164E-01  0.1164E-01  0.1524E+00  0.1524E+00
     -6.369  0.1280E-01  0.1280E-01  0.1537E+00  0.1537E+00
     -6.266  0.1393E-01  0.1393E-01  0.1551E+00  0.1551E+00
     -6.162  0.2054E-01  0.2054E-01  0.1573E+00  0.1573E+00
     -6.058  0.1627E-01  0.1627E-01  0.1589E+00  0.1589E+00
     -5.954  0.1264E-01  0.1264E-01  0.1603E+00  0.1603E+00
     -5.850  0.1467E-01  0.1467E-01  0.1618E+00  0.1618E+00
     -5.747  0.1448E-01  0.1448E-01  0.1633E+00  0.1633E+00
     -5.643  0.1700E-01  0.1700E-01  0.1650E+00  0.1650E+00
     -5.539  0.7819E-02  0.7819E-02  0.1659E+00  0.1659E+00
     -5.435  0.6248E-02  0.6248E-02  0.1665E+00  0.1665E+00
     -5.332  0.2927E-02  0.2927E-02  0.1668E+00  0.1668E+00
     -5.228  0.1965E-02  0.1965E-02  0.1670E+00  0.1670E+00
     -5.124  0.4782E-02  0.4782E-02  0.1675E+00  0.1675E+00
     -5.020  0.1924E-01  0.1924E-01  0.1695E+00  0.1695E+00
     -4.917  0.1855E-01  0.1855E-01  0.1714E+00  0.1714E+00
     -4.813  0.1965E-01  0.1965E-01  0.1735E+00  0.1735E+00
     -4.709  0.1233E-01  0.1233E-01  0.1747E+00  0.1747E+00
     -4.605  0.3649E-02  0.3649E-02  0.1751E+00  0.1751E+00
     -4.502  0.1055E-01  0.1055E-01  0.1762E+00  0.1762E+00
     -4.398  0.9378E-02  0.9378E-02  0.1772E+00  0.1772E+00
     -4.294  0.5271E-02  0.5271E-02  0.1777E+00  0.1777E+00
     -4.190  0.7784E-02  0.7784E-02  0.1786E+00  0.1786E+00
     -4.087  0.8766E-02  0.8766E-02  0.1795E+00  0.1795E+00
     -3.983  0.8783E-02  0.8783E-02  0.1804E+00  0.1804E+00
     -3.879  0.1004E-01  0.1004E-01  0.1814E+00  0.1814E+00
     -3.775  0.3407E-02  0.3407E-02  0.1818E+00  0.1818E+00
     -3.672  0.2097E-02  0.2097E-02  0.1820E+00  0.1820E+00
     -3.568  0.1543E-03  0.1543E-03  0.1820E+00  0.1820E+00
     -3.464  0.2951E-03  0.2951E-03  0.1820E+00  0.1820E+00
     -3.360  0.2469E-02  0.2469E-02  0.1823E+00  0.1823E+00
     -3.256  0.6036E-02  0.6036E-02  0.1829E+00  0.1829E+00
     -3.153  0.3296E-02  0.3296E-02  0.1833E+00  0.1833E+00
     -3.049  0.2301E-02  0.2301E-02  0.1835E+00  0.1835E+00
     -2.945  0.5907E-04  0.5907E-04  0.1835E+00  0.1835E+00
     -2.841  0.4622E-07  0.4622E-07  0.1835E+00  0.1835E+00
     -2.738  0.2829E-03  0.2829E-03  0.1835E+00  0.1835E+00
     -2.634  0.2225E-02  0.2225E-02  0.1838E+00  0.1838E+00
     -2.530  0.2161E-02  0.2161E-02  0.1840E+00  0.1840E+00
     -2.426  0.1494E-03  0.1494E-03  0.1840E+00  0.1840E+00
     -2.323  0.3767E-03  0.3767E-03  0.1840E+00  0.1840E+00
     -2.219  0.3795E-02  0.3795E-02  0.1844E+00  0.1844E+00
     -2.115  0.6469E-03  0.6469E-03  0.1845E+00  0.1845E+00
     -2.011  0.3009E-05  0.3009E-05  0.1845E+00  0.1845E+00
     -1.908  0.1085E-02  0.1085E-02  0.1846E+00  0.1846E+00
     -1.804  0.1948E-02  0.1948E-02  0.1848E+00  0.1848E+00
     -1.700  0.3572E-02  0.3572E-02  0.1852E+00  0.1852E+00
     -1.596  0.5571E-02  0.5571E-02  0.1858E+00  0.1858E+00
     -1.493  0.2275E-02  0.2275E-02  0.1860E+00  0.1860E+00
     -1.389  0.4391E-03  0.4391E-03  0.1860E+00  0.1860E+00
     -1.285  0.6805E-02  0.6805E-02  0.1868E+00  0.1868E+00
     -1.181  0.5781E-02  0.5781E-02  0.1874E+00  0.1874E+00
     -1.077  0.1432E-02  0.1432E-02  0.1875E+00  0.1875E+00
     -0.974  0.2101E-02  0.2101E-02  0.1877E+00  0.1877E+00
     -0.870  0.1305E-01  0.1305E-01  0.1891E+00  0.1891E+00
     -0.766  0.1567E-01  0.1567E-01  0.1907E+00  0.1907E+00
     -0.662  0.5556E-02  0.5556E-02  0.1913E+00  0.1913E+00
     -0.559  0.9175E-02  0.9175E-02  0.1922E+00  0.1922E+00
     -0.455  0.1094E-01  0.1094E-01  0.1934E+00  0.1934E+00
     -0.351  0.5322E-02  0.5322E-02  0.1939E+00  0.1939E+00
     -0.247  0.3644E-02  0.3644E-02  0.1943E+00  0.1943E+00
     -0.144  0.7693E-02  0.7693E-02  0.1951E+00  0.1951E+00
     -0.040  0.1063E-01  0.1063E-01  0.1962E+00  0.1962E+00
      0.064  0.1084E-01  0.1084E-01  0.1973E+00  0.1973E+00
      0.168  0.1062E-01  0.1062E-01  0.1984E+00  0.1984E+00
      0.271  0.9639E-02  0.9639E-02  0.1994E+00  0.1994E+00
      0.375  0.4027E-02  0.4027E-02  0.1998E+00  0.1998E+00
      0.479  0.2079E-02  0.2079E-02  0.2001E+00  0.2001E+00
      0.583  0.5517E-02  0.5517E-02  0.2006E+00  0.2006E+00
      0.686  0.5579E-02  0.5579E-02  0.2012E+00  0.2012E+00
      0.790  0.1396E-01  0.1396E-01  0.2027E+00  0.2027E+00
      0.894  0.9715E-02  0.9715E-02  0.2037E+00  0.2037E+00
      0.998  0.4613E-02  0.4613E-02  0.2041E+00  0.2041E+00
      1.101  0.1196E-01  0.1196E-01  0.2054E+00  0.2054E+00
      1.205  0.6845E-02  0.6845E-02  0.2061E+00  0.2061E+00
      1.309  0.6774E-02  0.6774E-02  0.2068E+00  0.2068E+00
      1.413  0.1188E-01  0.1188E-01  0.2080E+00  0.2080E+00
      1.517  0.1642E-01  0.1642E-01  0.2097E+00  0.2097E+00
      1.620  0.1790E-01  0.1790E-01  0.2116E+00  0.2116E+00
      1.724  0.1022E-01  0.1022E-01  0.2126E+00  0.2126E+00
      1.828  0.8238E-02  0.8239E-02  0.2135E+00  0.2135E+00
      1.932  0.1338E-01  0.1338E-01  0.2149E+00  0.2149E+00
      2.035  0.2097E-01  0.2097E-01  0.2171E+00  0.2171E+00
      2.139  0.1412E-01  0.1412E-01  0.2185E+00  0.2185E+00
      2.243  0.1664E-01  0.1664E-01  0.2203E+00  0.2203E+00
      2.347  0.2381E-01  0.2381E-01  0.2227E+00  0.2227E+00
      2.450  0.2666E-01  0.2666E-01  0.2255E+00  0.2255E+00
      2.554  0.6237E-02  0.6237E-02  0.2261E+00  0.2261E+00
      2.658  0.5519E-02  0.5518E-02  0.2267E+00  0.2267E+00
      2.762  0.2255E-01  0.2255E-01  0.2291E+00  0.2291E+00
      2.865  0.3074E-01  0.3074E-01  0.2322E+00  0.2322E+00
      2.969  0.3811E-01  0.3811E-01  0.2362E+00  0.2362E+00
      3.073  0.2289E-01  0.2289E-01  0.2386E+00  0.2386E+00
      3.177  0.1657E-01  0.1657E-01  0.2403E+00  0.2403E+00
      3.280  0.2096E-01  0.2096E-01  0.2425E+00  0.2425E+00
      3.384  0.1587E-01  0.1587E-01  0.2441E+00  0.2441E+00
      3.488  0.2166E-01  0.2166E-01  0.2464E+00  0.2464E+00
      3.592  0.2192E-01  0.2192E-01  0.2486E+00  0.2486E+00
      3.696  0.1670E-01  0.1670E-01  0.2504E+00  0.2504E+00
      3.799  0.2801E-01  0.2801E-01  0.2533E+00  0.2533E+00
      3.903  0.1781E-01  0.1781E-01  0.2551E+00  0.2551E+00
      4.007  0.2691E-01  0.2691E-01  0.2579E+00  0.2579E+00
      4.111  0.1648E-01  0.1648E-01  0.2596E+00  0.2596E+00
      4.214  0.1464E-01  0.1464E-01  0.2611E+00  0.2611E+00
      4.318  0.2813E-01  0.2813E-01  0.2641E+00  0.2641E+00
      4.422  0.8948E-02  0.8948E-02  0.2650E+00  0.2650E+00
      4.526  0.9961E-04  0.9962E-04  0.2650E+00  0.2650E+00
      4.629  0.1955E-08  0.1956E-08  0.2650E+00  0.2650E+00
      4.733  0.1230E-16  0.1230E-16  0.2650E+00  0.2650E+00
      4.837  0.0000E+00  0.0000E+00  0.2650E+00  0.2650E+00
      4.941  0.0000E+00  0.0000E+00  0.2650E+00  0.2650E+00
      5.044  0.0000E+00  0.0000E+00  0.2650E+00  0.2650E+00
      5.148  0.0000E+00  0.0000E+00  0.2650E+00  0.2650E+00
      5.252  0.0000E+00  0.0000E+00  0.2650E+00  0.2650E+00
      5.356  0.0000E+00  0.0000E+00  0.2650E+00  0.2650E+00
      5.459  0.0000E+00  0.0000E+00  0.2650E+00  0.2650E+00
      5.563  0.0000E+00  0.0000E+00  0.2650E+00  0.2650E+00
      5.667  0.0000E+00  0.0000E+00  0.2650E+00  0.2650E+00
      5.771  0.0000E+00  0.0000E+00  0.2650E+00  0.2650E+00
