 vasp.6.4.2 20Jul23 (build Aug 26 2025 15:10:52) complex                        
  
 POSCAR found type information on POSCAR C H N O 
 05/POSCAR found :  4 types and      97 ions
 Reading from existing POTCAR
 scaLAPACK will be used
 -----------------------------------------------------------------------------
|                                                                             |
|           W    W    AA    RRRRR   N    N  II  N    N   GGGG   !!!           |
|           W    W   A  A   R    R  NN   N  II  NN   N  G    G  !!!           |
|           W    W  A    A  R    R  N N  N  II  N N  N  G       !!!           |
|           W WW W  AAAAAA  RRRRR   N  N N  II  N  N N  G  GGG   !            |
|           WW  WW  A    A  R   R   N   NN  II  N   NN  G    G                |
|           W    W  A    A  R    R  N    N  II  N    N   GGGG   !!!           |
|                                                                             |
|     For optimal performance we recommend to set                             |
|       NCORE = 2 up to number-of-cores-per-socket                            |
|     NCORE specifies how many cores store one orbital (NPAR=cpu/NCORE).      |
|     This setting can greatly improve the performance of VASP for DFT.       |
|     The default, NCORE=1 might be grossly inefficient on modern             |
|     multi-core architectures or massively parallel machines. Do your        |
|     own testing! More info at https://www.vasp.at/wiki/index.php/NCORE      |
|     Unfortunately you need to use the default for GW and RPA                |
|     calculations (for HF NCORE is supported but not extensively tested      |
|     yet).                                                                   |
|                                                                             |
 -----------------------------------------------------------------------------

 Reading from existing POTCAR
 LDA part: xc-table for Pade appr. of Perdew
 POSCAR found type information on POSCAR C H N O 
 00/POSCAR found :  4 types and      97 ions
 POSCAR found type information on POSCAR C H N O 
 06/POSCAR found :  4 types and      97 ions
 Jacobian:    33.6678109620489     
 POSCAR found type information on POSCAR C H N O 
 00/POSCAR found :  4 types and      97 ions
 POSCAR found type information on POSCAR C H N O 
 06/POSCAR found :  4 types and      97 ions
 POSCAR, INCAR and KPOINTS ok, starting setup
 FFT: planning ... GRIDC
 FFT: planning ... GRID_SOFT
 FFT: planning ... GRID
 WAVECAR not read
 entering main loop
       N       E                     dE             d eps       ncg     rms          rms(c)
DAV:   1     0.326345108582E+04    0.32635E+04   -0.13754E+05  4570   0.105E+03
DAV:   2    -0.251941765019E+03   -0.35154E+04   -0.33112E+04  6410   0.258E+02
DAV:   3    -0.864501728163E+03   -0.61256E+03   -0.60986E+03  5290   0.111E+02
DAV:   4    -0.886640992343E+03   -0.22139E+02   -0.22060E+02  5440   0.267E+01
DAV:   5    -0.887269301372E+03   -0.62831E+00   -0.62758E+00  6070   0.382E+00    0.518E+01
DAV:   6    -0.869921461892E+03    0.17348E+02   -0.21980E+01  5140   0.721E+00    0.337E+01
DAV:   7    -0.847728776848E+03    0.22193E+02   -0.32551E+01  5010   0.855E+00    0.204E+01
DAV:   8    -0.842895619004E+03    0.48332E+01   -0.24397E+01  5140   0.738E+00    0.818E+00
DAV:   9    -0.842777702556E+03    0.11792E+00   -0.11610E+00  5020   0.193E+00    0.314E+00
DAV:  10    -0.842690790888E+03    0.86912E-01   -0.37314E-01  4950   0.104E+00    0.872E-01
DAV:  11    -0.842678991053E+03    0.11800E-01   -0.66627E-02  4880   0.452E-01    0.287E-01
DAV:  12    -0.842678151149E+03    0.83990E-03   -0.64929E-03  5320   0.157E-01    0.140E-01
DAV:  13    -0.842677999301E+03    0.15185E-03   -0.21362E-03  5210   0.946E-02    0.658E-02
DAV:  14    -0.842678081994E+03   -0.82693E-04   -0.32291E-04  4940   0.337E-02    0.467E-02
DAV:  15    -0.842678122986E+03   -0.40992E-04   -0.88141E-05  4900   0.174E-02    0.213E-02
DAV:  16    -0.842678123459E+03   -0.47210E-06   -0.20537E-05  5130   0.851E-03    0.986E-03
DAV:  17    -0.842678123097E+03    0.36137E-06   -0.77300E-06  5150   0.559E-03
   1 F= -.85041400E+03 E0= -.85041400E+03  d E =-.850414E+03  mag=     0.0003
quench:  g(F)=  0.000E+00 g(S)=  0.000E+00 dE (1.order)= 0.000E+00
 bond charge predicted
       N       E                     dE             d eps       ncg     rms          rms(c)
DAV:   1    -0.842678122591E+03    0.86782E-06   -0.16581E-04  4550   0.251E-02    0.378E-03
DAV:   2    -0.842678122640E+03   -0.49418E-07   -0.34732E-06  4260   0.345E-03
   2 F= -.85041400E+03 E0= -.85041400E+03  d E =0.805522E-06  mag=    -0.0000
quench:  g(F)=  0.000E+00 g(S)=  0.000E+00 dE (1.order)= 0.000E+00
 bond charge predicted
       N       E                     dE             d eps       ncg     rms          rms(c)
DAV:   1    -0.842678116085E+03    0.65056E-05   -0.40366E-04  4480   0.379E-02    0.586E-03
DAV:   2    -0.842678116279E+03   -0.19337E-06   -0.65296E-06  4710   0.454E-03
   3 F= -.85041399E+03 E0= -.85041399E+03  d E =0.614577E-05  mag=     0.0000
quench:  g(F)=  0.000E+00 g(S)=  0.000E+00 dE (1.order)= 0.000E+00
 bond charge predicted
       N       E                     dE             d eps       ncg     rms          rms(c)
DAV:   1    -0.842678105039E+03    0.11047E-04   -0.70805E-04  4440   0.487E-02    0.785E-03
DAV:   2    -0.842678105574E+03   -0.53569E-06   -0.11007E-05  5010   0.565E-03    0.635E-03
DAV:   3    -0.842678105591E+03   -0.17157E-07   -0.52472E-07  2980   0.170E-03
   4 F= -.85041398E+03 E0= -.85041398E+03  d E =0.800380E-05  mag=    -0.0000
quench:  g(F)=  0.000E+00 g(S)=  0.000E+00 dE (1.order)= 0.000E+00
 bond charge predicted
       N       E                     dE             d eps       ncg     rms          rms(c)
DAV:   1    -0.842678087458E+03    0.18116E-04   -0.12602E-03  4380   0.627E-02    0.832E-03
DAV:   2    -0.842678088968E+03   -0.15097E-05   -0.20786E-05  4860   0.742E-03    0.648E-03
DAV:   3    -0.842678088907E+03    0.60543E-07   -0.61195E-07  3540   0.168E-03
   5 F= -.85041397E+03 E0= -.85041397E+03  d E =0.110044E-04  mag=     0.0000
quench:  g(F)=  0.000E+00 g(S)=  0.000E+00 dE (1.order)= 0.000E+00
 bond charge predicted
       N       E                     dE             d eps       ncg     rms          rms(c)
DAV:   1    -0.842678067688E+03    0.21280E-04   -0.17649E-03  4360   0.723E-02    0.102E-02
DAV:   2    -0.842678069673E+03   -0.19852E-05   -0.28128E-05  4810   0.847E-03    0.791E-03
DAV:   3    -0.842678069638E+03    0.35216E-07   -0.78936E-07  3610   0.190E-03
   6 F= -.85041396E+03 E0= -.85041396E+03  d E =0.137595E-04  mag=    -0.0000
quench:  g(F)=  0.000E+00 g(S)=  0.000E+00 dE (1.order)= 0.000E+00
 bond charge predicted
       N       E                     dE             d eps       ncg     rms          rms(c)
DAV:   1    -0.842678049036E+03    0.20636E-04   -0.22921E-03  4360   0.826E-02    0.112E-02
DAV:   2    -0.842678051580E+03   -0.25432E-05   -0.34893E-05  4680   0.953E-03    0.882E-03
DAV:   3    -0.842678051612E+03   -0.32545E-07   -0.89499E-07  3540   0.207E-03
   7 F= -.85041394E+03 E0= -.85041394E+03  d E =0.147569E-04  mag=     0.0000
quench:  g(F)=  0.000E+00 g(S)=  0.000E+00 dE (1.order)= 0.000E+00
 bond charge predicted
       N       E                     dE             d eps       ncg     rms          rms(c)
DAV:   1    -0.842678028473E+03    0.23106E-04   -0.37918E-03  4360   0.106E-01    0.140E-02
DAV:   2    -0.842678032750E+03   -0.42773E-05   -0.58633E-05  4660   0.123E-02    0.110E-02
DAV:   3    -0.842678032709E+03    0.41022E-07   -0.15918E-06  3890   0.275E-03
   8 F= -.85041393E+03 E0= -.85041393E+03  d E =0.169832E-04  mag=    -0.0000
quench:  g(F)=  0.000E+00 g(S)=  0.000E+00 dE (1.order)= 0.000E+00
 bond charge predicted
       N       E                     dE             d eps       ncg     rms          rms(c)
DAV:   1    -0.842678003108E+03    0.29643E-04   -0.62792E-03  4360   0.135E-01    0.180E-02
DAV:   2    -0.842678010256E+03   -0.71480E-05   -0.98029E-05  4620   0.156E-02    0.140E-02
DAV:   3    -0.842678010200E+03    0.56010E-07   -0.24518E-06  4100   0.331E-03
   9 F= -.85041391E+03 E0= -.85041391E+03  d E =0.185170E-04  mag=    -0.0000
quench:  g(F)=  0.000E+00 g(S)=  0.000E+00 dE (1.order)= 0.000E+00
 bond charge predicted
       N       E                     dE             d eps       ncg     rms          rms(c)
DAV:   1    -0.842677977229E+03    0.33026E-04   -0.94812E-03  4340   0.167E-01    0.222E-02
DAV:   2    -0.842677987888E+03   -0.10659E-04   -0.14773E-04  4660   0.195E-02    0.172E-02
DAV:   3    -0.842677987725E+03    0.16370E-06   -0.42175E-06  4400   0.433E-03
  10 F= -.85041389E+03 E0= -.85041389E+03  d E =0.176517E-04  mag=    -0.0000
quench:  g(F)=  0.000E+00 g(S)=  0.000E+00 dE (1.order)= 0.000E+00
 bond charge predicted
       N       E                     dE             d eps       ncg     rms          rms(c)
DAV:   1    -0.842677962297E+03    0.25592E-04   -0.14048E-02  4330   0.205E-01    0.272E-02
DAV:   2    -0.842677978192E+03   -0.15895E-04   -0.22277E-04  4640   0.241E-02    0.213E-02
DAV:   3    -0.842677977815E+03    0.37628E-06   -0.67286E-06  4915   0.545E-03
  11 F= -.85041388E+03 E0= -.85041388E+03  d E =0.118387E-04  mag=    -0.0000
quench:  g(F)=  0.000E+00 g(S)=  0.000E+00 dE (1.order)= 0.000E+00
 bond charge predicted
       N       E                     dE             d eps       ncg     rms          rms(c)
DAV:   1    -0.842677964896E+03    0.13296E-04   -0.20908E-02  4320   0.251E-01    0.332E-02
DAV:   2    -0.842677989286E+03   -0.24391E-04   -0.34911E-04  4600   0.302E-02    0.259E-02
DAV:   3    -0.842677988245E+03    0.10408E-05   -0.10759E-05  5035   0.680E-03    0.177E-02
DAV:   4    -0.842677993504E+03   -0.52588E-05   -0.10801E-05  4300   0.704E-03    0.497E-03
DAV:   5    -0.842677993790E+03   -0.28629E-06   -0.32995E-06  3770   0.338E-03
  12 F= -.85041389E+03 E0= -.85041389E+03  d E =-.848688E-05  mag=     0.0000
quench:  g(F)=  0.000E+00 g(S)=  0.000E+00 dE (1.order)= 0.000E+00
 bond charge predicted
       N       E                     dE             d eps       ncg     rms          rms(c)
DAV:   1    -0.842677981373E+03    0.12131E-04   -0.30794E-02  4320   0.309E-01    0.383E-02
DAV:   2    -0.842678020926E+03   -0.39553E-04   -0.55438E-04  4640   0.385E-02    0.300E-02
DAV:   3    -0.842678016642E+03    0.42842E-05   -0.16898E-05  5260   0.840E-03    0.213E-02
DAV:   4    -0.842678021297E+03   -0.46551E-05   -0.18945E-05  4340   0.934E-03    0.622E-03
DAV:   5    -0.842678021846E+03   -0.54920E-06   -0.52230E-06  4200   0.414E-03
  13 F= -.85041390E+03 E0= -.85041390E+03  d E =-.164522E-04  mag=     0.0000
quench:  g(F)=  0.000E+00 g(S)=  0.000E+00 dE (1.order)= 0.000E+00
 bond charge predicted
       N       E                     dE             d eps       ncg     rms          rms(c)
DAV:   1    -0.842678064389E+03   -0.43092E-04   -0.13041E-03  4320   0.735E-02    0.856E-03
DAV:   2    -0.842678066488E+03   -0.20993E-05   -0.32718E-05  5300   0.107E-02    0.768E-03
DAV:   3    -0.842678065704E+03    0.78430E-06   -0.14300E-06  3020   0.249E-03
  14 F= -.85041394E+03 E0= -.85041394E+03  d E =-.404031E-04  mag=     0.0000
quench:  g(F)=  0.000E+00 g(S)=  0.000E+00 dE (1.order)= 0.000E+00
 bond charge predicted
       N       E                     dE             d eps       ncg     rms          rms(c)
DAV:   1    -0.842678069312E+03   -0.28235E-05   -0.19621E-03  4320   0.889E-02    0.115E-02
DAV:   2    -0.842678072119E+03   -0.28070E-05   -0.43499E-05  5320   0.122E-02    0.980E-03
DAV:   3    -0.842678071005E+03    0.11133E-05   -0.20987E-06  3500   0.307E-03    0.696E-03
DAV:   4    -0.842678070535E+03    0.47023E-06   -0.35533E-06  3960   0.391E-03
  15 F= -.85041394E+03 E0= -.85041394E+03  d E =0.313533E-05  mag=    -0.0000
quench:  g(F)=  0.000E+00 g(S)=  0.000E+00 dE (1.order)= 0.000E+00
 bond charge predicted
       N       E                     dE             d eps       ncg     rms          rms(c)
DAV:   1    -0.842678082600E+03   -0.11595E-04   -0.58649E-05  4320   0.156E-02    0.182E-03
DAV:   2    -0.842678082686E+03   -0.85631E-07   -0.15113E-06  2660   0.237E-03
  16 F= -.85041395E+03 E0= -.85041395E+03  d E =-.116505E-04  mag=    -0.0000
quench:  g(F)=  0.000E+00 g(S)=  0.000E+00 dE (1.order)= 0.000E+00
 bond charge predicted
       N       E                     dE             d eps       ncg     rms          rms(c)
DAV:   1    -0.842678099450E+03   -0.16850E-04   -0.19559E-04  4340   0.284E-02    0.395E-03
DAV:   2    -0.842678099673E+03   -0.22293E-06   -0.47061E-06  4820   0.410E-03
  17 F= -.85041397E+03 E0= -.85041397E+03  d E =-.159081E-04  mag=    -0.0000
quench:  g(F)=  0.000E+00 g(S)=  0.000E+00 dE (1.order)= 0.000E+00
 bond charge predicted
       N       E                     dE             d eps       ncg     rms          rms(c)
DAV:   1    -0.842678112138E+03   -0.12688E-04   -0.29992E-04  4320   0.350E-02    0.598E-03
DAV:   2    -0.842678112351E+03   -0.21308E-06   -0.68811E-06  5320   0.494E-03
  18 F= -.85041398E+03 E0= -.85041398E+03  d E =-.108118E-04  mag=    -0.0000
quench:  g(F)=  0.000E+00 g(S)=  0.000E+00 dE (1.order)= 0.000E+00
 bond charge predicted
       N       E                     dE             d eps       ncg     rms          rms(c)
DAV:   1    -0.842678119926E+03   -0.77876E-05   -0.25907E-04  4310   0.318E-02    0.623E-03
DAV:   2    -0.842678120039E+03   -0.11343E-06   -0.52718E-06  4680   0.424E-03
  19 F= -.85041398E+03 E0= -.85041398E+03  d E =-.487795E-05  mag=    -0.0000
quench:  g(F)=  0.000E+00 g(S)=  0.000E+00 dE (1.order)= 0.000E+00
 bond charge predicted
       N       E                     dE             d eps       ncg     rms          rms(c)
DAV:   1    -0.842678121240E+03   -0.13144E-05   -0.26049E-06  3600   0.342E-03    0.253E-03
DAV:   2    -0.842678121250E+03   -0.99462E-08   -0.25358E-07  2240   0.957E-04
  20 F= -.85041398E+03 E0= -.85041398E+03  d E =-.101019E-05  mag=    -0.0000
quench:  g(F)=  0.000E+00 g(S)=  0.000E+00 dE (1.order)= 0.000E+00
 bond charge predicted
       N       E                     dE             d eps       ncg     rms          rms(c)
DAV:   1    -0.842678124328E+03   -0.30879E-05   -0.51310E-06  4060   0.453E-03    0.738E-04
DAV:   2    -0.842678124343E+03   -0.15287E-07   -0.16187E-07  2240   0.770E-04
  21 F= -.85041399E+03 E0= -.85041399E+03  d E =-.265521E-05  mag=    -0.0000
quench:  g(F)=  0.000E+00 g(S)=  0.000E+00 dE (1.order)= 0.000E+00
 bond charge predicted
       N       E                     dE             d eps       ncg     rms          rms(c)
DAV:   1    -0.842678128905E+03   -0.45766E-05   -0.10126E-05  4120   0.625E-03    0.983E-04
DAV:   2    -0.842678128919E+03   -0.14435E-07   -0.25398E-07  2320   0.968E-04
  22 F= -.85041399E+03 E0= -.85041399E+03  d E =-.383928E-05  mag=    -0.0000
quench:  g(F)=  0.000E+00 g(S)=  0.000E+00 dE (1.order)= 0.000E+00
 bond charge predicted
       N       E                     dE             d eps       ncg     rms          rms(c)
DAV:   1    -0.842678134937E+03   -0.60327E-05   -0.16880E-05  4240   0.793E-03    0.140E-03
DAV:   2    -0.842678134952E+03   -0.14246E-07   -0.36843E-07  2320   0.115E-03
  23 F= -.85041400E+03 E0= -.85041399E+03  d E =-.494383E-05  mag=    -0.0000
quench:  g(F)=  0.000E+00 g(S)=  0.000E+00 dE (1.order)= 0.000E+00
 bond charge predicted
       N       E                     dE             d eps       ncg     rms          rms(c)
DAV:   1    -0.842678142384E+03   -0.74468E-05   -0.24039E-05  4310   0.915E-03    0.174E-03
DAV:   2    -0.842678142401E+03   -0.16567E-07   -0.47715E-07  2405   0.126E-03
  24 F= -.85041400E+03 E0= -.85041400E+03  d E =-.592851E-05  mag=    -0.0000
quench:  g(F)=  0.000E+00 g(S)=  0.000E+00 dE (1.order)= 0.000E+00
 bond charge predicted
       N       E                     dE             d eps       ncg     rms          rms(c)
DAV:   1    -0.842678151520E+03   -0.91357E-05   -0.31914E-05  4240   0.100E-02    0.202E-03
DAV:   2    -0.842678151545E+03   -0.25197E-07   -0.63645E-07  2745   0.137E-03
  25 F= -.85041401E+03 E0= -.85041401E+03  d E =-.711114E-05  mag=    -0.0000
quench:  g(F)=  0.000E+00 g(S)=  0.000E+00 dE (1.order)= 0.000E+00
 bond charge predicted
       N       E                     dE             d eps       ncg     rms          rms(c)
DAV:   1    -0.842678164050E+03   -0.12530E-04   -0.51790E-05  4305   0.120E-02    0.253E-03
DAV:   2    -0.842678164089E+03   -0.38548E-07   -0.10080E-06  2965   0.158E-03
  26 F= -.85041402E+03 E0= -.85041402E+03  d E =-.962314E-05  mag=    -0.0000
quench:  g(F)=  0.000E+00 g(S)=  0.000E+00 dE (1.order)= 0.000E+00
 bond charge predicted
       N       E                     dE             d eps       ncg     rms          rms(c)
DAV:   1    -0.842678181317E+03   -0.17267E-04   -0.85745E-05  4290   0.141E-02    0.328E-03
DAV:   2    -0.842678181375E+03   -0.58004E-07   -0.16321E-06  3130   0.180E-03
  27 F= -.85041403E+03 E0= -.85041403E+03  d E =-.131674E-04  mag=    -0.0000
quench:  g(F)=  0.000E+00 g(S)=  0.000E+00 dE (1.order)= 0.000E+00
 bond charge predicted
       N       E                     dE             d eps       ncg     rms          rms(c)
DAV:   1    -0.842678205281E+03   -0.23964E-04   -0.14593E-04  4275   0.167E-02    0.430E-03
DAV:   2    -0.842678205371E+03   -0.90229E-07   -0.26953E-06  3200   0.203E-03
  28 F= -.85041405E+03 E0= -.85041405E+03  d E =-.182976E-04  mag=    -0.0000
quench:  g(F)=  0.000E+00 g(S)=  0.000E+00 dE (1.order)= 0.000E+00
 bond charge predicted
       N       E                     dE             d eps       ncg     rms          rms(c)
DAV:   1    -0.842678238220E+03   -0.32939E-04   -0.25306E-04  4280   0.206E-02    0.567E-03
DAV:   2    -0.842678238379E+03   -0.15822E-06   -0.45816E-06  3200   0.242E-03
  29 F= -.85041408E+03 E0= -.85041407E+03  d E =-.251940E-04  mag=    -0.0000
quench:  g(F)=  0.000E+00 g(S)=  0.000E+00 dE (1.order)= 0.000E+00
 bond charge predicted
       N       E                     dE             d eps       ncg     rms          rms(c)
DAV:   1    -0.842678282935E+03   -0.44715E-04   -0.44421E-04  4270   0.271E-02    0.753E-03
DAV:   2    -0.842678283215E+03   -0.27971E-06   -0.80382E-06  3320   0.317E-03
  30 F= -.85041411E+03 E0= -.85041411E+03  d E =-.344566E-04  mag=    -0.0000
quench:  g(F)=  0.000E+00 g(S)=  0.000E+00 dE (1.order)= 0.000E+00
 bond charge predicted
       N       E                     dE             d eps       ncg     rms          rms(c)
DAV:   1    -0.842678341522E+03   -0.58587E-04   -0.77654E-04  4270   0.362E-02    0.999E-03
DAV:   2    -0.842678342018E+03   -0.49606E-06   -0.14252E-05  3680   0.429E-03    0.739E-03
DAV:   3    -0.842678342419E+03   -0.40077E-06   -0.36537E-07  3030   0.115E-03
  31 F= -.85041416E+03 E0= -.85041415E+03  d E =-.456106E-04  mag=    -0.0000
quench:  g(F)=  0.000E+00 g(S)=  0.000E+00 dE (1.order)= 0.000E+00
 bond charge predicted
       N       E                     dE             d eps       ncg     rms          rms(c)
DAV:   1    -0.842678415910E+03   -0.73892E-04   -0.13027E-03  4250   0.468E-02    0.933E-03
DAV:   2    -0.842678417507E+03   -0.15964E-05   -0.24343E-05  4070   0.550E-03    0.616E-03
DAV:   3    -0.842678417592E+03   -0.85041E-07   -0.30787E-07  3335   0.991E-04
  32 F= -.85041421E+03 E0= -.85041421E+03  d E =-.575762E-04  mag=    -0.0000
quench:  g(F)=  0.000E+00 g(S)=  0.000E+00 dE (1.order)= 0.000E+00
 bond charge predicted
       N       E                     dE             d eps       ncg     rms          rms(c)
DAV:   1    -0.842678506724E+03   -0.89218E-04   -0.21261E-03  4240   0.586E-02    0.116E-02
DAV:   2    -0.842678509392E+03   -0.26677E-05   -0.40173E-05  4240   0.686E-03    0.761E-03
DAV:   3    -0.842678509455E+03   -0.63010E-07   -0.48796E-07  3515   0.117E-03
  33 F= -.85041428E+03 E0= -.85041428E+03  d E =-.697482E-04  mag=    -0.0000
quench:  g(F)=  0.000E+00 g(S)=  0.000E+00 dE (1.order)= 0.000E+00
 bond charge predicted
       N       E                     dE             d eps       ncg     rms          rms(c)
DAV:   1    -0.842678614319E+03   -0.10493E-03   -0.31492E-03  4260   0.702E-02    0.142E-02
DAV:   2    -0.842678618223E+03   -0.39040E-05   -0.59292E-05  4280   0.812E-03    0.922E-03
DAV:   3    -0.842678618323E+03   -0.99477E-07   -0.73756E-07  3690   0.138E-03
  34 F= -.85041436E+03 E0= -.85041436E+03  d E =-.820060E-04  mag=    -0.0000
quench:  g(F)=  0.000E+00 g(S)=  0.000E+00 dE (1.order)= 0.000E+00
 bond charge predicted
       N       E                     dE             d eps       ncg     rms          rms(c)
DAV:   1    -0.842678739484E+03   -0.12126E-03   -0.43676E-03  4260   0.838E-02    0.167E-02
DAV:   2    -0.842678744982E+03   -0.54978E-05   -0.83078E-05  4360   0.977E-03    0.109E-02
DAV:   3    -0.842678745099E+03   -0.11664E-06   -0.10988E-06  3690   0.171E-03
  35 F= -.85041446E+03 E0= -.85041446E+03  d E =-.952147E-04  mag=    -0.0000
quench:  g(F)=  0.000E+00 g(S)=  0.000E+00 dE (1.order)= 0.000E+00
 bond charge predicted
       N       E                     dE             d eps       ncg     rms          rms(c)
DAV:   1    -0.842678881090E+03   -0.13611E-03   -0.55655E-03  4260   0.974E-02    0.188E-02
DAV:   2    -0.842678888209E+03   -0.71189E-05   -0.10626E-04  4360   0.114E-02    0.124E-02
DAV:   3    -0.842678888398E+03   -0.18914E-06   -0.13574E-06  3660   0.198E-03
  36 F= -.85041457E+03 E0= -.85041457E+03  d E =-.106795E-03  mag=    -0.0000
quench:  g(F)=  0.000E+00 g(S)=  0.000E+00 dE (1.order)= 0.000E+00
 bond charge predicted
       N       E                     dE             d eps       ncg     rms          rms(c)
DAV:   1    -0.842679036363E+03   -0.14815E-03   -0.62620E-03  4260   0.106E-01    0.197E-02
DAV:   2    -0.842679044356E+03   -0.79929E-05   -0.11805E-04  4340   0.123E-02    0.131E-02
DAV:   3    -0.842679044701E+03   -0.34565E-06   -0.14316E-06  3580   0.210E-03
  37 F= -.85041468E+03 E0= -.85041468E+03  d E =-.116371E-03  mag=    -0.0000
quench:  g(F)=  0.000E+00 g(S)=  0.000E+00 dE (1.order)= 0.000E+00
 bond charge predicted
       N       E                     dE             d eps       ncg     rms          rms(c)
DAV:   1    -0.842679198249E+03   -0.15389E-03   -0.67704E-03  4260   0.116E-01    0.202E-02
DAV:   2    -0.842679206950E+03   -0.87014E-05   -0.12655E-04  4340   0.136E-02    0.136E-02
DAV:   3    -0.842679207316E+03   -0.36618E-06   -0.16783E-06  3650   0.243E-03
  38 F= -.85041480E+03 E0= -.85041480E+03  d E =-.121706E-03  mag=    -0.0000
quench:  g(F)=  0.000E+00 g(S)=  0.000E+00 dE (1.order)= 0.000E+00
 bond charge predicted
       N       E                     dE             d eps       ncg     rms          rms(c)
DAV:   1    -0.842679350142E+03   -0.14319E-03   -0.73574E-03  4260   0.126E-01    0.207E-02
DAV:   2    -0.842679359454E+03   -0.93113E-05   -0.13537E-04  4400   0.147E-02    0.140E-02
DAV:   3    -0.842679359925E+03   -0.47083E-06   -0.19058E-06  3530   0.266E-03
  39 F= -.85041492E+03 E0= -.85041492E+03  d E =-.113917E-03  mag=    -0.0000
quench:  g(F)=  0.000E+00 g(S)=  0.000E+00 dE (1.order)= 0.000E+00
 bond charge predicted
       N       E                     dE             d eps       ncg     rms          rms(c)
DAV:   1    -0.842679483281E+03   -0.12383E-03   -0.81287E-03  4260   0.138E-01    0.214E-02
DAV:   2    -0.842679493352E+03   -0.10071E-04   -0.14752E-04  4400   0.161E-02    0.146E-02
DAV:   3    -0.842679493838E+03   -0.48587E-06   -0.24550E-06  3740   0.306E-03
  40 F= -.85041502E+03 E0= -.85041502E+03  d E =-.989506E-04  mag=    -0.0000
quench:  g(F)=  0.000E+00 g(S)=  0.000E+00 dE (1.order)= 0.000E+00
 bond charge predicted
       N       E                     dE             d eps       ncg     rms          rms(c)
DAV:   1    -0.842679579193E+03   -0.85841E-04   -0.88976E-03  4240   0.151E-01    0.221E-02
DAV:   2    -0.842679589757E+03   -0.10564E-04   -0.15645E-04  4460   0.177E-02    0.157E-02
DAV:   3    -0.842679590239E+03   -0.48247E-06   -0.31839E-06  4000   0.359E-03
  41 F= -.85041509E+03 E0= -.85041509E+03  d E =-.690885E-04  mag=    -0.0000
quench:  g(F)=  0.000E+00 g(S)=  0.000E+00 dE (1.order)= 0.000E+00
 bond charge predicted
       N       E                     dE             d eps       ncg     rms          rms(c)
DAV:   1    -0.842679629581E+03   -0.39824E-04   -0.93958E-03  4260   0.164E-01    0.226E-02
DAV:   2    -0.842679639818E+03   -0.10237E-04   -0.15152E-04  4430   0.190E-02    0.172E-02
DAV:   3    -0.842679640312E+03   -0.49384E-06   -0.37500E-06  4100   0.407E-03
  42 F= -.85041512E+03 E0= -.85041512E+03  d E =-.355161E-04  mag=    -0.0000
quench:  g(F)=  0.000E+00 g(S)=  0.000E+00 dE (1.order)= 0.000E+00
 bond charge predicted
       N       E                     dE             d eps       ncg     rms          rms(c)
DAV:   1    -0.842679623095E+03    0.16723E-04   -0.12010E-02  4260   0.190E-01    0.257E-02
DAV:   2    -0.842679636149E+03   -0.13054E-04   -0.18479E-04  4480   0.220E-02    0.202E-02
DAV:   3    -0.842679636480E+03   -0.33125E-06   -0.55930E-06  4660   0.500E-03
  43 F= -.85041512E+03 E0= -.85041512E+03  d E =0.309448E-05  mag=    -0.0000
quench:  g(F)=  0.000E+00 g(S)=  0.000E+00 dE (1.order)= 0.000E+00
 bond charge predicted
       N       E                     dE             d eps       ncg     rms          rms(c)
DAV:   1    -0.842679564355E+03    0.71794E-04   -0.16874E-02  4260   0.226E-01    0.314E-02
DAV:   2    -0.842679582250E+03   -0.17895E-04   -0.25422E-04  4540   0.264E-02    0.250E-02
DAV:   3    -0.842679582795E+03   -0.54551E-06   -0.82758E-06  4780   0.614E-03
  44 F= -.85041508E+03 E0= -.85041508E+03  d E =0.399882E-04  mag=    -0.0000
quench:  g(F)=  0.000E+00 g(S)=  0.000E+00 dE (1.order)= 0.000E+00
 bond charge predicted
       N       E                     dE             d eps       ncg     rms          rms(c)
DAV:   1    -0.842679467985E+03    0.11426E-03   -0.23449E-02  4260   0.268E-01    0.370E-02
DAV:   2    -0.842679492071E+03   -0.24087E-04   -0.34465E-04  4580   0.311E-02    0.299E-02
DAV:   3    -0.842679493079E+03   -0.10078E-05   -0.12308E-05  4900   0.764E-03    0.189E-02
DAV:   4    -0.842679500678E+03   -0.75988E-05   -0.11008E-05  4390   0.688E-03    0.508E-03
DAV:   5    -0.842679500549E+03    0.12869E-06   -0.40897E-06  4400   0.402E-03
  45 F= -.85041502E+03 E0= -.85041502E+03  d E =0.600359E-04  mag=    -0.0000
quench:  g(F)=  0.000E+00 g(S)=  0.000E+00 dE (1.order)= 0.000E+00
 bond charge predicted
       N       E                     dE             d eps       ncg     rms          rms(c)
DAV:   1    -0.842679359164E+03    0.14151E-03   -0.33606E-02  4260   0.319E-01    0.417E-02
DAV:   2    -0.842679399524E+03   -0.40361E-04   -0.55913E-04  4560   0.391E-02    0.333E-02
DAV:   3    -0.842679396374E+03    0.31509E-05   -0.17489E-05  5160   0.882E-03    0.227E-02
DAV:   4    -0.842679404135E+03   -0.77612E-05   -0.19425E-05  4280   0.929E-03    0.592E-03
DAV:   5    -0.842679404329E+03   -0.19472E-06   -0.62415E-06  4620   0.452E-03
  46 F= -.85041495E+03 E0= -.85041495E+03  d E =0.708230E-04  mag=    -0.0000
quench:  g(F)=  0.000E+00 g(S)=  0.000E+00 dE (1.order)= 0.000E+00
 bond charge predicted
       N       E                     dE             d eps       ncg     rms          rms(c)
DAV:   1    -0.842679435155E+03   -0.31021E-04   -0.47941E-04  4320   0.444E-02    0.541E-03
DAV:   2    -0.842679435930E+03   -0.77426E-06   -0.12020E-05  5060   0.643E-03    0.478E-03
DAV:   3    -0.842679435635E+03    0.29492E-06   -0.51499E-07  2420   0.155E-03
  47 F= -.85041497E+03 E0= -.85041497E+03  d E =-.265661E-04  mag=    -0.0000
quench:  g(F)=  0.000E+00 g(S)=  0.000E+00 dE (1.order)= 0.000E+00
 bond charge predicted
       N       E                     dE             d eps       ncg     rms          rms(c)
DAV:   1    -0.842679467216E+03   -0.31286E-04   -0.10012E-03  4240   0.622E-02    0.814E-03
DAV:   2    -0.842679468690E+03   -0.14745E-05   -0.22100E-05  5060   0.847E-03    0.674E-03
DAV:   3    -0.842679468257E+03    0.43317E-06   -0.81400E-07  3030   0.201E-03
  48 F= -.85041500E+03 E0= -.85041500E+03  d E =-.228547E-04  mag=    -0.0000
quench:  g(F)=  0.000E+00 g(S)=  0.000E+00 dE (1.order)= 0.000E+00
 bond charge predicted
       N       E                     dE             d eps       ncg     rms          rms(c)
DAV:   1    -0.842679519476E+03   -0.50786E-04   -0.96392E-04  4240   0.495E-02    0.817E-03
DAV:   2    -0.842679520683E+03   -0.12074E-05   -0.18226E-05  4340   0.593E-03    0.596E-03
DAV:   3    -0.842679520664E+03    0.19361E-07   -0.33813E-07  3180   0.125E-03
  49 F= -.85041504E+03 E0= -.85041503E+03  d E =-.379836E-04  mag=    -0.0000
quench:  g(F)=  0.000E+00 g(S)=  0.000E+00 dE (1.order)= 0.000E+00
 bond charge predicted
       N       E                     dE             d eps       ncg     rms          rms(c)
DAV:   1    -0.842679612761E+03   -0.92078E-04   -0.19391E-03  4240   0.680E-02    0.109E-02
DAV:   2    -0.842679615395E+03   -0.26340E-05   -0.38566E-05  4380   0.855E-03    0.794E-03
DAV:   3    -0.842679615276E+03    0.11965E-06   -0.70092E-07  3640   0.170E-03
  50 F= -.85041511E+03 E0= -.85041511E+03  d E =-.757486E-04  mag=    -0.0000
quench:  g(F)=  0.000E+00 g(S)=  0.000E+00 dE (1.order)= 0.000E+00
 bond charge predicted
       N       E                     dE             d eps       ncg     rms          rms(c)
DAV:   1    -0.842679723391E+03   -0.10800E-03   -0.37956E-03  4240   0.957E-02    0.156E-02
DAV:   2    -0.842679728486E+03   -0.50949E-05   -0.75334E-05  4400   0.120E-02    0.113E-02
DAV:   3    -0.842679728229E+03    0.25697E-06   -0.14100E-06  3900   0.240E-03
  51 F= -.85041520E+03 E0= -.85041520E+03  d E =-.879043E-04  mag=    -0.0000
quench:  g(F)=  0.000E+00 g(S)=  0.000E+00 dE (1.order)= 0.000E+00
 bond charge predicted
       N       E                     dE             d eps       ncg     rms          rms(c)
DAV:   1    -0.842679858274E+03   -0.12979E-03   -0.51452E-03  4240   0.998E-02    0.187E-02
DAV:   2    -0.842679864505E+03   -0.62313E-05   -0.96428E-05  4440   0.118E-02    0.130E-02
DAV:   3    -0.842679864669E+03   -0.16465E-06   -0.13449E-06  3630   0.220E-03
  52 F= -.85041530E+03 E0= -.85041530E+03  d E =-.103107E-03  mag=    -0.0000
quench:  g(F)=  0.000E+00 g(S)=  0.000E+00 dE (1.order)= 0.000E+00
 bond charge predicted
       N       E                     dE             d eps       ncg     rms          rms(c)
DAV:   1    -0.842680046031E+03   -0.18153E-03   -0.90025E-03  4240   0.130E-01    0.243E-02
DAV:   2    -0.842680057418E+03   -0.11387E-04   -0.17235E-04  4420   0.157E-02    0.165E-02
DAV:   3    -0.842680057610E+03   -0.19259E-06   -0.25211E-06  3670   0.292E-03
  53 F= -.85041545E+03 E0= -.85041545E+03  d E =-.147100E-03  mag=    -0.0000
quench:  g(F)=  0.000E+00 g(S)=  0.000E+00 dE (1.order)= 0.000E+00
 bond charge predicted
       N       E                     dE             d eps       ncg     rms          rms(c)
DAV:   1    -0.842680257105E+03   -0.19969E-03   -0.13786E-02  4240   0.166E-01    0.302E-02
DAV:   2    -0.842680274716E+03   -0.17611E-04   -0.26618E-04  4420   0.203E-02    0.208E-02
DAV:   3    -0.842680274861E+03   -0.14452E-06   -0.43481E-06  4080   0.386E-03
  54 F= -.85041561E+03 E0= -.85041561E+03  d E =-.158973E-03  mag=    -0.0000
quench:  g(F)=  0.000E+00 g(S)=  0.000E+00 dE (1.order)= 0.000E+00
 bond charge predicted
       N       E                     dE             d eps       ncg     rms          rms(c)
DAV:   1    -0.842680494600E+03   -0.21988E-03   -0.16029E-02  4240   0.177E-01    0.327E-02
DAV:   2    -0.842680515065E+03   -0.20465E-04   -0.30899E-04  4440   0.214E-02    0.225E-02
DAV:   3    -0.842680515486E+03   -0.42081E-06   -0.50688E-06  4160   0.409E-03
  55 F= -.85041579E+03 E0= -.85041579E+03  d E =-.179459E-03  mag=    -0.0000
quench:  g(F)=  0.000E+00 g(S)=  0.000E+00 dE (1.order)= 0.000E+00
 bond charge predicted
       N       E                     dE             d eps       ncg     rms          rms(c)
DAV:   1    -0.842680522090E+03   -0.70251E-05   -0.51931E-05  4240   0.141E-02    0.344E-03
DAV:   2    -0.842680522240E+03   -0.15007E-06   -0.28862E-06  3920   0.297E-03
  56 F= -.85041580E+03 E0= -.85041579E+03  d E =-.783969E-05  mag=    -0.0000
quench:  g(F)=  0.000E+00 g(S)=  0.000E+00 dE (1.order)= 0.000E+00
 bond charge predicted
       N       E                     dE             d eps       ncg     rms          rms(c)
DAV:   1    -0.842680520781E+03    0.13097E-05   -0.11474E-04  4360   0.213E-02    0.346E-03
DAV:   2    -0.842680520879E+03   -0.98356E-07   -0.24494E-06  3500   0.305E-03
  57 F= -.85041580E+03 E0= -.85041580E+03  d E =-.554843E-06  mag=    -0.0000
quench:  g(F)=  0.000E+00 g(S)=  0.000E+00 dE (1.order)= 0.000E+00
 bond charge predicted
       N       E                     dE             d eps       ncg     rms          rms(c)
DAV:   1    -0.842680515002E+03    0.57782E-05   -0.16410E-04  4240   0.251E-02    0.429E-03
DAV:   2    -0.842680515092E+03   -0.89443E-07   -0.31597E-06  4140   0.341E-03
  58 F= -.85041579E+03 E0= -.85041579E+03  d E =0.338620E-05  mag=    -0.0000
quench:  g(F)=  0.000E+00 g(S)=  0.000E+00 dE (1.order)= 0.000E+00
 bond charge predicted
       N       E                     dE             d eps       ncg     rms          rms(c)
DAV:   1    -0.842680506736E+03    0.82660E-05   -0.14735E-04  4240   0.230E-02    0.452E-03
DAV:   2    -0.842680506767E+03   -0.30668E-07   -0.24103E-06  3800   0.292E-03
  59 F= -.85041579E+03 E0= -.85041579E+03  d E =0.607662E-05  mag=    -0.0000
quench:  g(F)=  0.000E+00 g(S)=  0.000E+00 dE (1.order)= 0.000E+00
 bond charge predicted
       N       E                     dE             d eps       ncg     rms          rms(c)
DAV:   1    -0.842680500282E+03    0.64548E-05   -0.11822E-04  4240   0.197E-02    0.399E-03
DAV:   2    -0.842680500313E+03   -0.31658E-07   -0.15553E-06  3420   0.227E-03
  60 F= -.85041578E+03 E0= -.85041578E+03  d E =0.474908E-05  mag=    -0.0000
quench:  g(F)=  0.000E+00 g(S)=  0.000E+00 dE (1.order)= 0.000E+00
 bond charge predicted
       N       E                     dE             d eps       ncg     rms          rms(c)
DAV:   1    -0.842680497878E+03    0.24040E-05   -0.13429E-04  4240   0.218E-02    0.384E-03
DAV:   2    -0.842680497963E+03   -0.85762E-07   -0.19116E-06  3460   0.260E-03
  61 F= -.85041578E+03 E0= -.85041578E+03  d E =0.146237E-05  mag=    -0.0000
quench:  g(F)=  0.000E+00 g(S)=  0.000E+00 dE (1.order)= 0.000E+00
 bond charge predicted
       N       E                     dE             d eps       ncg     rms          rms(c)
DAV:   1    -0.842680499106E+03   -0.12290E-05   -0.22512E-04  4240   0.291E-02    0.473E-03
DAV:   2    -0.842680499298E+03   -0.19167E-06   -0.38171E-06  4070   0.369E-03
  62 F= -.85041578E+03 E0= -.85041578E+03  d E =-.106955E-05  mag=    -0.0000
quench:  g(F)=  0.000E+00 g(S)=  0.000E+00 dE (1.order)= 0.000E+00
 bond charge predicted
       N       E                     dE             d eps       ncg     rms          rms(c)
DAV:   1    -0.842680504227E+03   -0.51201E-05   -0.33436E-04  4240   0.353E-02    0.605E-03
DAV:   2    -0.842680504456E+03   -0.22922E-06   -0.57107E-06  4440   0.446E-03
  63 F= -.85041578E+03 E0= -.85041578E+03  d E =-.315299E-05  mag=    -0.0000
quench:  g(F)=  0.000E+00 g(S)=  0.000E+00 dE (1.order)= 0.000E+00
 bond charge predicted
       N       E                     dE             d eps       ncg     rms          rms(c)
DAV:   1    -0.842680517547E+03   -0.13321E-04   -0.42046E-04  4240   0.378E-02    0.695E-03
DAV:   2    -0.842680517734E+03   -0.18733E-06   -0.65130E-06  4130   0.455E-03
  64 F= -.85041579E+03 E0= -.85041579E+03  d E =-.913926E-05  mag=    -0.0000
quench:  g(F)=  0.000E+00 g(S)=  0.000E+00 dE (1.order)= 0.000E+00
 bond charge predicted
       N       E                     dE             d eps       ncg     rms          rms(c)
DAV:   1    -0.842680544604E+03   -0.27057E-04   -0.67082E-04  4240   0.465E-02    0.845E-03
DAV:   2    -0.842680544931E+03   -0.32740E-06   -0.11008E-05  4360   0.564E-03    0.674E-03
DAV:   3    -0.842680545236E+03   -0.30444E-06   -0.52247E-07  2720   0.168E-03
  65 F= -.85041581E+03 E0= -.85041581E+03  d E =-.207588E-04  mag=    -0.0000
quench:  g(F)=  0.000E+00 g(S)=  0.000E+00 dE (1.order)= 0.000E+00
 bond charge predicted
       N       E                     dE             d eps       ncg     rms          rms(c)
DAV:   1    -0.842680586858E+03   -0.41927E-04   -0.12088E-03  4240   0.614E-02    0.878E-03
DAV:   2    -0.842680588103E+03   -0.12450E-05   -0.21239E-05  4440   0.754E-03    0.677E-03
DAV:   3    -0.842680588137E+03   -0.33964E-07   -0.51980E-07  3220   0.164E-03
  66 F= -.85041585E+03 E0= -.85041585E+03  d E =-.322440E-04  mag=    -0.0000
quench:  g(F)=  0.000E+00 g(S)=  0.000E+00 dE (1.order)= 0.000E+00
 bond charge predicted
       N       E                     dE             d eps       ncg     rms          rms(c)
DAV:   1    -0.842680644628E+03   -0.56525E-04   -0.19052E-03  4240   0.740E-02    0.111E-02
DAV:   2    -0.842680646473E+03   -0.18448E-05   -0.32578E-05  4420   0.885E-03    0.831E-03
DAV:   3    -0.842680646563E+03   -0.90105E-07   -0.72291E-07  3360   0.187E-03
  67 F= -.85041589E+03 E0= -.85041589E+03  d E =-.428769E-04  mag=    -0.0000
quench:  g(F)=  0.000E+00 g(S)=  0.000E+00 dE (1.order)= 0.000E+00
 bond charge predicted
       N       E                     dE             d eps       ncg     rms          rms(c)
DAV:   1    -0.842680718502E+03   -0.72029E-04   -0.30249E-03  4240   0.912E-02    0.141E-02
DAV:   2    -0.842680721531E+03   -0.30293E-05   -0.52951E-05  4420   0.110E-02    0.103E-02
DAV:   3    -0.842680721648E+03   -0.11691E-06   -0.11706E-06  3680   0.228E-03
  68 F= -.85041595E+03 E0= -.85041594E+03  d E =-.555118E-04  mag=    -0.0000
quench:  g(F)=  0.000E+00 g(S)=  0.000E+00 dE (1.order)= 0.000E+00
 bond charge predicted
       N       E                     dE             d eps       ncg     rms          rms(c)
DAV:   1    -0.842680798499E+03   -0.76968E-04   -0.43173E-03  4240   0.111E-01    0.169E-02
DAV:   2    -0.842680802651E+03   -0.41511E-05   -0.74801E-05  4440   0.133E-02    0.125E-02
DAV:   3    -0.842680802794E+03   -0.14299E-06   -0.18437E-06  3800   0.291E-03
  69 F= -.85041600E+03 E0= -.85041600E+03  d E =-.588440E-04  mag=    -0.0000
quench:  g(F)=  0.000E+00 g(S)=  0.000E+00 dE (1.order)= 0.000E+00
 bond charge predicted
       N       E                     dE             d eps       ncg     rms          rms(c)
DAV:   1    -0.842680875847E+03   -0.73196E-04   -0.50387E-03  4240   0.125E-01    0.183E-02
DAV:   2    -0.842680880226E+03   -0.43791E-05   -0.81981E-05  4480   0.150E-02    0.142E-02
DAV:   3    -0.842680880562E+03   -0.33657E-06   -0.25711E-06  3840   0.350E-03
  70 F= -.85041606E+03 E0= -.85041606E+03  d E =-.560904E-04  mag=    -0.0000
quench:  g(F)=  0.000E+00 g(S)=  0.000E+00 dE (1.order)= 0.000E+00
 bond charge predicted
       N       E                     dE             d eps       ncg     rms          rms(c)
DAV:   1    -0.842680939194E+03   -0.58968E-04   -0.65063E-03  4260   0.147E-01    0.206E-02
DAV:   2    -0.842680944645E+03   -0.54510E-05   -0.10031E-04  4550   0.177E-02    0.168E-02
DAV:   3    -0.842680944870E+03   -0.22480E-06   -0.45597E-06  4460   0.468E-03
  71 F= -.85041611E+03 E0= -.85041610E+03  d E =-.451707E-04  mag=    -0.0000
quench:  g(F)=  0.000E+00 g(S)=  0.000E+00 dE (1.order)= 0.000E+00
 bond charge predicted
       N       E                     dE             d eps       ncg     rms          rms(c)
DAV:   1    -0.842680982284E+03   -0.37639E-04   -0.90263E-03  4260   0.174E-01    0.242E-02
DAV:   2    -0.842680989433E+03   -0.71496E-05   -0.13168E-04  4490   0.209E-02    0.202E-02
DAV:   3    -0.842680990017E+03   -0.58361E-06   -0.75454E-06  4540   0.600E-03
  72 F= -.85041613E+03 E0= -.85041613E+03  d E =-.293616E-04  mag=    -0.0000
quench:  g(F)=  0.000E+00 g(S)=  0.000E+00 dE (1.order)= 0.000E+00
 bond charge predicted
       N       E                     dE             d eps       ncg     rms          rms(c)
DAV:   1    -0.842680977719E+03    0.11714E-04   -0.14092E-02  4260   0.221E-01    0.300E-02
DAV:   2    -0.842680989691E+03   -0.11971E-04   -0.21298E-04  4500   0.270E-02    0.254E-02
DAV:   3    -0.842680989192E+03    0.49921E-06   -0.14676E-05  4900   0.823E-03    0.143E-02
DAV:   4    -0.842680993265E+03   -0.40731E-05   -0.87107E-06  4380   0.578E-03    0.557E-03
DAV:   5    -0.842680993138E+03    0.12686E-06   -0.30157E-06  3920   0.348E-03
  73 F= -.85041614E+03 E0= -.85041613E+03  d E =-.162830E-06  mag=    -0.0000
quench:  g(F)=  0.000E+00 g(S)=  0.000E+00 dE (1.order)= 0.000E+00
 bond charge predicted
       N       E                     dE             d eps       ncg     rms          rms(c)
DAV:   1    -0.842680909426E+03    0.83839E-04   -0.25178E-02  4240   0.304E-01    0.375E-02
DAV:   2    -0.842680938662E+03   -0.29236E-04   -0.45419E-04  4520   0.395E-02    0.326E-02
DAV:   3    -0.842680931029E+03    0.76338E-05   -0.25451E-05  5380   0.105E-02    0.211E-02
DAV:   4    -0.842680934419E+03   -0.33905E-05   -0.20812E-05  4360   0.963E-03    0.765E-03
DAV:   5    -0.842680934550E+03   -0.13080E-06   -0.72946E-06  4620   0.496E-03
  74 F= -.85041607E+03 E0= -.85041607E+03  d E =0.684230E-04  mag=    -0.0000
quench:  g(F)=  0.000E+00 g(S)=  0.000E+00 dE (1.order)= 0.000E+00
 bond charge predicted
       N       E                     dE             d eps       ncg     rms          rms(c)
DAV:   1    -0.842680992524E+03   -0.58105E-04   -0.32372E-03  4320   0.117E-01    0.134E-02
DAV:   2    -0.842680997940E+03   -0.54160E-05   -0.82597E-05  5300   0.171E-02    0.120E-02
DAV:   3    -0.842680995998E+03    0.19416E-05   -0.39846E-06  4340   0.391E-03    0.898E-03
DAV:   4    -0.842680994418E+03    0.15800E-05   -0.50819E-06  4080   0.466E-03    0.346E-03
DAV:   5    -0.842680994361E+03    0.56891E-07   -0.94133E-07  2520   0.190E-03
  75 F= -.85041613E+03 E0= -.85041613E+03  d E =-.667537E-04  mag=     0.0000
quench:  g(F)=  0.000E+00 g(S)=  0.000E+00 dE (1.order)= 0.000E+00
 bond charge predicted
       N       E                     dE             d eps       ncg     rms          rms(c)
DAV:   1    -0.842680926232E+03    0.68186E-04   -0.33662E-03  4240   0.119E-01    0.136E-02
DAV:   2    -0.842680931967E+03   -0.57344E-05   -0.82676E-05  5340   0.172E-02    0.118E-02
DAV:   3    -0.842680930146E+03    0.18207E-05   -0.43886E-06  4680   0.414E-03    0.866E-03
DAV:   4    -0.842680929032E+03    0.11142E-05   -0.45509E-06  4020   0.440E-03    0.362E-03
DAV:   5    -0.842680928971E+03    0.60645E-07   -0.88533E-07  2500   0.191E-03
  76 F= -.85041607E+03 E0= -.85041607E+03  d E =0.584525E-04  mag=    -0.0000
quench:  g(F)=  0.000E+00 g(S)=  0.000E+00 dE (1.order)= 0.000E+00
 bond charge predicted
       N       E                     dE             d eps       ncg     rms          rms(c)
DAV:   1    -0.842680951523E+03   -0.22491E-04   -0.15733E-04  4310   0.257E-02    0.295E-03
DAV:   2    -0.842680951790E+03   -0.26613E-06   -0.43083E-06  3910   0.393E-03
  77 F= -.85041610E+03 E0= -.85041610E+03  d E =-.220506E-04  mag=    -0.0000
quench:  g(F)=  0.000E+00 g(S)=  0.000E+00 dE (1.order)= 0.000E+00
 bond charge predicted
       N       E                     dE             d eps       ncg     rms          rms(c)
DAV:   1    -0.842680977832E+03   -0.26309E-04   -0.48981E-04  4260   0.453E-02    0.694E-03
DAV:   2    -0.842680978305E+03   -0.47284E-06   -0.12243E-05  5520   0.667E-03    0.602E-03
DAV:   3    -0.842680977638E+03    0.66742E-06   -0.11469E-06  2410   0.232E-03
  78 F= -.85041612E+03 E0= -.85041612E+03  d E =-.245106E-04  mag=    -0.0000
quench:  g(F)=  0.000E+00 g(S)=  0.000E+00 dE (1.order)= 0.000E+00
 bond charge predicted
       N       E                     dE             d eps       ncg     rms          rms(c)
DAV:   1    -0.842680981970E+03   -0.36647E-05   -0.68930E-04  4260   0.538E-02    0.704E-03
DAV:   2    -0.842680983077E+03   -0.11075E-05   -0.16009E-05  5480   0.756E-03    0.613E-03
DAV:   3    -0.842680982620E+03    0.45764E-06   -0.70298E-07  2530   0.186E-03
  79 F= -.85041612E+03 E0= -.85041612E+03  d E =-.344429E-05  mag=    -0.0000
quench:  g(F)=  0.000E+00 g(S)=  0.000E+00 dE (1.order)= 0.000E+00
 bond charge predicted
       N       E                     dE             d eps       ncg     rms          rms(c)
DAV:   1    -0.842680982519E+03    0.55793E-06   -0.25711E-06  3500   0.336E-03    0.145E-03
DAV:   2    -0.842680982511E+03    0.87384E-08   -0.31387E-07  2200   0.113E-03
  80 F= -.85041612E+03 E0= -.85041612E+03  d E =0.258570E-07  mag=    -0.0000
quench:  g(F)=  0.000E+00 g(S)=  0.000E+00 dE (1.order)= 0.000E+00
 bond charge predicted
       N       E                     dE             d eps       ncg     rms          rms(c)
DAV:   1    -0.842680982543E+03   -0.24134E-07   -0.18003E-06  2720   0.279E-03    0.578E-04
DAV:   2    -0.842680982551E+03   -0.75233E-08   -0.78735E-08  2150   0.606E-04
  81 F= -.85041613E+03 E0= -.85041612E+03  d E =-.205241E-06  mag=    -0.0000
quench:  g(F)=  0.000E+00 g(S)=  0.000E+00 dE (1.order)= 0.000E+00
 bond charge predicted
       N       E                     dE             d eps       ncg     rms          rms(c)
DAV:   1    -0.842680982686E+03   -0.14227E-06   -0.39015E-06  3810   0.407E-03    0.585E-04
DAV:   2    -0.842680982691E+03   -0.57480E-08   -0.93838E-08  2150   0.635E-04
  82 F= -.85041613E+03 E0= -.85041612E+03  d E =-.366243E-06  mag=    -0.0000
quench:  g(F)=  0.000E+00 g(S)=  0.000E+00 dE (1.order)= 0.000E+00
 bond charge predicted
       N       E                     dE             d eps       ncg     rms          rms(c)
DAV:   1    -0.842680982707E+03   -0.21260E-07   -0.60074E-06  3970   0.503E-03    0.821E-04
DAV:   2    -0.842680982714E+03   -0.70067E-08   -0.13803E-07  2150   0.758E-04
  83 F= -.85041613E+03 E0= -.85041612E+03  d E =-.290724E-06  mag=    -0.0000
quench:  g(F)=  0.000E+00 g(S)=  0.000E+00 dE (1.order)= 0.000E+00
 bond charge predicted
       N       E                     dE             d eps       ncg     rms          rms(c)
DAV:   1    -0.842680982616E+03    0.91204E-07   -0.75262E-06  4030   0.561E-03    0.927E-04
DAV:   2    -0.842680982625E+03   -0.91168E-08   -0.16344E-07  2170   0.820E-04
  84 F= -.85041613E+03 E0= -.85041613E+03  d E =-.191022E-06  mag=    -0.0000
quench:  g(F)=  0.000E+00 g(S)=  0.000E+00 dE (1.order)= 0.000E+00
 bond charge predicted
       N       E                     dE             d eps       ncg     rms          rms(c)
DAV:   1    -0.842680982619E+03   -0.34779E-08   -0.86232E-06  4040   0.595E-03    0.985E-04
DAV:   2    -0.842680982630E+03   -0.10761E-07   -0.17909E-07  2150   0.855E-04
  85 F= -.85041613E+03 E0= -.85041613E+03  d E =-.203210E-06  mag=    -0.0000
quench:  g(F)=  0.000E+00 g(S)=  0.000E+00 dE (1.order)= 0.000E+00
 bond charge predicted
       N       E                     dE             d eps       ncg     rms          rms(c)
DAV:   1    -0.842680982948E+03   -0.32931E-06   -0.11364E-05  4120   0.672E-03    0.110E-03
DAV:   2    -0.842680982962E+03   -0.13308E-07   -0.21291E-07  2150   0.926E-04
  86 F= -.85041613E+03 E0= -.85041613E+03  d E =-.392297E-06  mag=    -0.0000
quench:  g(F)=  0.000E+00 g(S)=  0.000E+00 dE (1.order)= 0.000E+00
 bond charge predicted
       N       E                     dE             d eps       ncg     rms          rms(c)
DAV:   1    -0.842680984256E+03   -0.13075E-05   -0.14180E-05  4060   0.729E-03    0.122E-03
DAV:   2    -0.842680984272E+03   -0.16240E-07   -0.25786E-07  2240   0.987E-04
  87 F= -.85041613E+03 E0= -.85041613E+03  d E =-.110136E-05  mag=    -0.0000
quench:  g(F)=  0.000E+00 g(S)=  0.000E+00 dE (1.order)= 0.000E+00
 bond charge predicted
       N       E                     dE             d eps       ncg     rms          rms(c)
DAV:   1    -0.842680987322E+03   -0.30658E-05   -0.20095E-05  4160   0.838E-03    0.144E-03
DAV:   2    -0.842680987338E+03   -0.15978E-07   -0.31923E-07  2475   0.106E-03
  88 F= -.85041613E+03 E0= -.85041613E+03  d E =-.250306E-05  mag=    -0.0000
quench:  g(F)=  0.000E+00 g(S)=  0.000E+00 dE (1.order)= 0.000E+00
 bond charge predicted
       N       E                     dE             d eps       ncg     rms          rms(c)
DAV:   1    -0.842680993305E+03   -0.59834E-05   -0.33309E-05  4180   0.104E-02    0.182E-03
DAV:   2    -0.842680993331E+03   -0.25320E-07   -0.52579E-07  2600   0.128E-03
  89 F= -.85041613E+03 E0= -.85041613E+03  d E =-.480218E-05  mag=     0.0000
quench:  g(F)=  0.000E+00 g(S)=  0.000E+00 dE (1.order)= 0.000E+00
 bond charge predicted
       N       E                     dE             d eps       ncg     rms          rms(c)
DAV:   1    -0.842681003697E+03   -0.10392E-04   -0.61484E-05  4240   0.137E-02    0.251E-03
DAV:   2    -0.842681003743E+03   -0.46137E-07   -0.10178E-06  2980   0.166E-03
  90 F= -.85041614E+03 E0= -.85041614E+03  d E =-.825176E-05  mag=    -0.0000
quench:  g(F)=  0.000E+00 g(S)=  0.000E+00 dE (1.order)= 0.000E+00
 bond charge predicted
       N       E                     dE             d eps       ncg     rms          rms(c)
DAV:   1    -0.842681020711E+03   -0.17014E-04   -0.11930E-04  4240   0.181E-02    0.361E-03
DAV:   2    -0.842681020789E+03   -0.78253E-07   -0.20495E-06  3140   0.219E-03
  91 F= -.85041616E+03 E0= -.85041616E+03  d E =-.131433E-04  mag=    -0.0000
quench:  g(F)=  0.000E+00 g(S)=  0.000E+00 dE (1.order)= 0.000E+00
 bond charge predicted
       N       E                     dE             d eps       ncg     rms          rms(c)
DAV:   1    -0.842681047543E+03   -0.26832E-04   -0.24101E-04  4240   0.241E-02    0.521E-03
DAV:   2    -0.842681047677E+03   -0.13416E-06   -0.42663E-06  3180   0.290E-03
  92 F= -.85041618E+03 E0= -.85041618E+03  d E =-.206461E-04  mag=    -0.0000
quench:  g(F)=  0.000E+00 g(S)=  0.000E+00 dE (1.order)= 0.000E+00
 bond charge predicted
       N       E                     dE             d eps       ncg     rms          rms(c)
DAV:   1    -0.842681088405E+03   -0.40861E-04   -0.50347E-04  4240   0.326E-02    0.761E-03
DAV:   2    -0.842681088668E+03   -0.26307E-06   -0.90618E-06  3640   0.387E-03
  93 F= -.85041621E+03 E0= -.85041621E+03  d E =-.312763E-04  mag=    -0.0000
quench:  g(F)=  0.000E+00 g(S)=  0.000E+00 dE (1.order)= 0.000E+00
 bond charge predicted
       N       E                     dE             d eps       ncg     rms          rms(c)
DAV:   1    -0.842681149056E+03   -0.60651E-04   -0.10478E-03  4280   0.449E-02    0.111E-02
DAV:   2    -0.842681149634E+03   -0.57797E-06   -0.18759E-05  4040   0.523E-03    0.819E-03
DAV:   3    -0.842681150049E+03   -0.41522E-06   -0.45445E-07  2980   0.133E-03
  94 F= -.85041625E+03 E0= -.85041625E+03  d E =-.464642E-04  mag=     0.0000
quench:  g(F)=  0.000E+00 g(S)=  0.000E+00 dE (1.order)= 0.000E+00
 bond charge predicted
       N       E                     dE             d eps       ncg     rms          rms(c)
DAV:   1    -0.842681233541E+03   -0.83907E-04   -0.20164E-03  4240   0.604E-02    0.116E-02
DAV:   2    -0.842681235814E+03   -0.22724E-05   -0.36813E-05  4240   0.699E-03    0.770E-03
DAV:   3    -0.842681235957E+03   -0.14329E-06   -0.45740E-07  3400   0.121E-03
  95 F= -.85041632E+03 E0= -.85041632E+03  d E =-.650428E-04  mag=    -0.0000
quench:  g(F)=  0.000E+00 g(S)=  0.000E+00 dE (1.order)= 0.000E+00
 bond charge predicted
       N       E                     dE             d eps       ncg     rms          rms(c)
DAV:   1    -0.842681344271E+03   -0.10846E-03   -0.36679E-03  4260   0.798E-02    0.153E-02
DAV:   2    -0.842681348604E+03   -0.43335E-05   -0.67856E-05  4300   0.928E-03    0.101E-02
DAV:   3    -0.842681348716E+03   -0.11191E-06   -0.86814E-07  3660   0.161E-03
  96 F= -.85041640E+03 E0= -.85041640E+03  d E =-.848213E-04  mag=    -0.0000
quench:  g(F)=  0.000E+00 g(S)=  0.000E+00 dE (1.order)= 0.000E+00
 bond charge predicted
       N       E                     dE             d eps       ncg     rms          rms(c)
DAV:   1    -0.842681483493E+03   -0.13489E-03   -0.59242E-03  4240   0.101E-01    0.196E-02
DAV:   2    -0.842681490481E+03   -0.69883E-05   -0.11007E-04  4300   0.117E-02    0.129E-02
DAV:   3    -0.842681490717E+03   -0.23592E-06   -0.14877E-06  3700   0.207E-03
  97 F= -.85041651E+03 E0= -.85041651E+03  d E =-.106372E-03  mag=    -0.0000
quench:  g(F)=  0.000E+00 g(S)=  0.000E+00 dE (1.order)= 0.000E+00
 bond charge predicted
       N       E                     dE             d eps       ncg     rms          rms(c)
DAV:   1    -0.842681650522E+03   -0.16004E-03   -0.83247E-03  4280   0.120E-01    0.234E-02
DAV:   2    -0.842681660376E+03   -0.98539E-05   -0.15510E-04  4340   0.140E-02    0.155E-02
DAV:   3    -0.842681660801E+03   -0.42513E-06   -0.21195E-06  3740   0.250E-03
  98 F= -.85041664E+03 E0= -.85041664E+03  d E =-.126890E-03  mag=    -0.0000
quench:  g(F)=  0.000E+00 g(S)=  0.000E+00 dE (1.order)= 0.000E+00
 bond charge predicted
       N       E                     dE             d eps       ncg     rms          rms(c)
DAV:   1    -0.842681838016E+03   -0.17764E-03   -0.92817E-03  4260   0.132E-01    0.248E-02
DAV:   2    -0.842681849152E+03   -0.11136E-04   -0.17368E-04  4340   0.156E-02    0.168E-02
DAV:   3    -0.842681849680E+03   -0.52799E-06   -0.23889E-06  3720   0.283E-03
  99 F= -.85041678E+03 E0= -.85041678E+03  d E =-.139662E-03  mag=    -0.0000
quench:  g(F)=  0.000E+00 g(S)=  0.000E+00 dE (1.order)= 0.000E+00
 bond charge predicted
       N       E                     dE             d eps       ncg     rms          rms(c)
DAV:   1    -0.842681853503E+03   -0.43509E-05   -0.14212E-05  4030   0.680E-03    0.212E-03
DAV:   2    -0.842681853526E+03   -0.23399E-07   -0.11329E-06  3500   0.180E-03
 100 F= -.85041678E+03 E0= -.85041678E+03  d E =-.417532E-05  mag=     0.0000
quench:  g(F)=  0.000E+00 g(S)=  0.000E+00 dE (1.order)= 0.000E+00
 bond charge predicted
       N       E                     dE             d eps       ncg     rms          rms(c)
DAV:   1    -0.842681852847E+03    0.65585E-06   -0.22530E-05  4330   0.907E-03    0.163E-03
DAV:   2    -0.842681852863E+03   -0.16415E-07   -0.39790E-07  2410   0.124E-03
 101 F= -.85041678E+03 E0= -.85041678E+03  d E =0.117514E-06  mag=    -0.0000
quench:  g(F)=  0.000E+00 g(S)=  0.000E+00 dE (1.order)= 0.000E+00
 bond charge predicted
       N       E                     dE             d eps       ncg     rms          rms(c)
DAV:   1    -0.842681851102E+03    0.17449E-05   -0.38229E-05  4240   0.114E-02    0.185E-03
DAV:   2    -0.842681851133E+03   -0.30319E-07   -0.61373E-07  2940   0.146E-03
 102 F= -.85041678E+03 E0= -.85041678E+03  d E =0.101794E-05  mag=     0.0000
quench:  g(F)=  0.000E+00 g(S)=  0.000E+00 dE (1.order)= 0.000E+00
 bond charge predicted
       N       E                     dE             d eps       ncg     rms          rms(c)
DAV:   1    -0.842681848838E+03    0.22639E-05   -0.45266E-05  4220   0.118E-02    0.234E-03
DAV:   2    -0.842681848862E+03   -0.23814E-07   -0.70246E-07  3160   0.148E-03
 103 F= -.85041678E+03 E0= -.85041678E+03  d E =0.162506E-05  mag=    -0.0000
quench:  g(F)=  0.000E+00 g(S)=  0.000E+00 dE (1.order)= 0.000E+00
 bond charge predicted
       N       E                     dE             d eps       ncg     rms          rms(c)
DAV:   1    -0.842681847359E+03    0.14789E-05   -0.48641E-05  4180   0.121E-02    0.250E-03
DAV:   2    -0.842681847387E+03   -0.27940E-07   -0.68651E-07  3210   0.146E-03
 104 F= -.85041678E+03 E0= -.85041678E+03  d E =0.124388E-05  mag=    -0.0000
quench:  g(F)=  0.000E+00 g(S)=  0.000E+00 dE (1.order)= 0.000E+00
 bond charge predicted
       N       E                     dE             d eps       ncg     rms          rms(c)
DAV:   1    -0.842681847326E+03    0.33018E-07   -0.53533E-05  4240   0.132E-02    0.260E-03
DAV:   2    -0.842681847361E+03   -0.35070E-07   -0.70938E-07  3090   0.156E-03
 105 F= -.85041678E+03 E0= -.85041678E+03  d E =0.316012E-06  mag=    -0.0000
quench:  g(F)=  0.000E+00 g(S)=  0.000E+00 dE (1.order)= 0.000E+00
 bond charge predicted
       N       E                     dE             d eps       ncg     rms          rms(c)
DAV:   1    -0.842681849229E+03   -0.19022E-05   -0.78245E-05  4240   0.166E-02    0.290E-03
DAV:   2    -0.842681849287E+03   -0.58419E-07   -0.10702E-06  3100   0.201E-03
 106 F= -.85041678E+03 E0= -.85041678E+03  d E =-.963457E-06  mag=     0.0000
quench:  g(F)=  0.000E+00 g(S)=  0.000E+00 dE (1.order)= 0.000E+00
 bond charge predicted
       N       E                     dE             d eps       ncg     rms          rms(c)
DAV:   1    -0.842681854192E+03   -0.49633E-05   -0.10853E-04  4240   0.192E-02    0.334E-03
DAV:   2    -0.842681854271E+03   -0.78828E-07   -0.15573E-06  3250   0.233E-03
 107 F= -.85041678E+03 E0= -.85041678E+03  d E =-.297110E-05  mag=    -0.0000
quench:  g(F)=  0.000E+00 g(S)=  0.000E+00 dE (1.order)= 0.000E+00
 bond charge predicted
       N       E                     dE             d eps       ncg     rms          rms(c)
DAV:   1    -0.842681865315E+03   -0.11123E-04   -0.18006E-04  4240   0.240E-02    0.419E-03
DAV:   2    -0.842681865437E+03   -0.12176E-06   -0.28567E-06  3460   0.293E-03
 108 F= -.85041679E+03 E0= -.85041679E+03  d E =-.768800E-05  mag=     0.0000
quench:  g(F)=  0.000E+00 g(S)=  0.000E+00 dE (1.order)= 0.000E+00
 bond charge predicted
       N       E                     dE             d eps       ncg     rms          rms(c)
DAV:   1    -0.842681885598E+03   -0.20283E-04   -0.33768E-04  4260   0.318E-02    0.594E-03
DAV:   2    -0.842681885819E+03   -0.22043E-06   -0.57177E-06  3980   0.388E-03
 109 F= -.85041680E+03 E0= -.85041680E+03  d E =-.149388E-04  mag=    -0.0000
quench:  g(F)=  0.000E+00 g(S)=  0.000E+00 dE (1.order)= 0.000E+00
 bond charge predicted
       N       E                     dE             d eps       ncg     rms          rms(c)
DAV:   1    -0.842681920230E+03   -0.34632E-04   -0.61557E-04  4240   0.411E-02    0.829E-03
DAV:   2    -0.842681920593E+03   -0.36331E-06   -0.10695E-05  4130   0.497E-03    0.638E-03
DAV:   3    -0.842681920842E+03   -0.24874E-06   -0.39060E-07  2820   0.141E-03
 110 F= -.85041683E+03 E0= -.85041683E+03  d E =-.261014E-04  mag=    -0.0000
quench:  g(F)=  0.000E+00 g(S)=  0.000E+00 dE (1.order)= 0.000E+00
 bond charge predicted
       N       E                     dE             d eps       ncg     rms          rms(c)
DAV:   1    -0.842681974905E+03   -0.54311E-04   -0.11753E-03  4240   0.546E-02    0.862E-03
DAV:   2    -0.842681976209E+03   -0.13044E-05   -0.20807E-05  4300   0.650E-03    0.618E-03
DAV:   3    -0.842681976281E+03   -0.71610E-07   -0.34457E-07  3240   0.124E-03
 111 F= -.85041687E+03 E0= -.85041687E+03  d E =-.413963E-04  mag=     0.0000
quench:  g(F)=  0.000E+00 g(S)=  0.000E+00 dE (1.order)= 0.000E+00
 bond charge predicted
       N       E                     dE             d eps       ncg     rms          rms(c)
DAV:   1    -0.842682055963E+03   -0.79754E-04   -0.22911E-03  4240   0.727E-02    0.120E-02
DAV:   2    -0.842682058543E+03   -0.25800E-05   -0.41283E-05  4400   0.861E-03    0.841E-03
DAV:   3    -0.842682058630E+03   -0.87181E-07   -0.62289E-07  3280   0.159E-03
 112 F= -.85041693E+03 E0= -.85041693E+03  d E =-.620396E-04  mag=    -0.0000
quench:  g(F)=  0.000E+00 g(S)=  0.000E+00 dE (1.order)= 0.000E+00
 bond charge predicted
       N       E                     dE             d eps       ncg     rms          rms(c)
DAV:   1    -0.842682169861E+03   -0.11132E-03   -0.45475E-03  4240   0.984E-02    0.170E-02
DAV:   2    -0.842682175130E+03   -0.52696E-05   -0.83323E-05  4400   0.117E-02    0.116E-02
DAV:   3    -0.842682175279E+03   -0.14875E-06   -0.12057E-06  3610   0.212E-03
 113 F= -.85041702E+03 E0= -.85041702E+03  d E =-.885359E-04  mag=    -0.0000
quench:  g(F)=  0.000E+00 g(S)=  0.000E+00 dE (1.order)= 0.000E+00
 bond charge predicted
       N       E                     dE             d eps       ncg     rms          rms(c)
DAV:   1    -0.842682323660E+03   -0.14853E-03   -0.87141E-03  4240   0.131E-01    0.235E-02
DAV:   2    -0.842682333970E+03   -0.10310E-04   -0.16058E-04  4400   0.154E-02    0.158E-02
DAV:   3    -0.842682334232E+03   -0.26126E-06   -0.22907E-06  3680   0.277E-03
 114 F= -.85041714E+03 E0= -.85041714E+03  d E =-.120458E-03  mag=    -0.0000
quench:  g(F)=  0.000E+00 g(S)=  0.000E+00 dE (1.order)= 0.000E+00
 bond charge predicted
       N       E                     dE             d eps       ncg     rms          rms(c)
DAV:   1    -0.842682523542E+03   -0.18957E-03   -0.14653E-02  4240   0.168E-01    0.306E-02
DAV:   2    -0.842682541516E+03   -0.17974E-04   -0.27233E-04  4360   0.199E-02    0.206E-02
DAV:   3    -0.842682541864E+03   -0.34762E-06   -0.39140E-06  3990   0.358E-03
 115 F= -.85041730E+03 E0= -.85041730E+03  d E =-.156967E-03  mag=    -0.0000
quench:  g(F)=  0.000E+00 g(S)=  0.000E+00 dE (1.order)= 0.000E+00
 bond charge predicted
       N       E                     dE             d eps       ncg     rms          rms(c)
DAV:   1    -0.842682778089E+03   -0.23657E-03   -0.20748E-02  4240   0.201E-01    0.367E-02
DAV:   2    -0.842682804221E+03   -0.26133E-04   -0.38580E-04  4360   0.239E-02    0.251E-02
DAV:   3    -0.842682804743E+03   -0.52225E-06   -0.53683E-06  4130   0.429E-03
 116 F= -.85041750E+03 E0= -.85041750E+03  d E =-.198321E-03  mag=    -0.0000
quench:  g(F)=  0.000E+00 g(S)=  0.000E+00 dE (1.order)= 0.000E+00
 bond charge predicted
       N       E                     dE             d eps       ncg     rms          rms(c)
DAV:   1    -0.842683083562E+03   -0.27934E-03   -0.31040E-02  4240   0.248E-01    0.449E-02
DAV:   2    -0.842683123629E+03   -0.40066E-04   -0.58339E-04  4360   0.296E-02    0.306E-02
DAV:   3    -0.842683124293E+03   -0.66392E-06   -0.86127E-06  4450   0.546E-03
 117 F= -.85041774E+03 E0= -.85041774E+03  d E =-.240859E-03  mag=    -0.0000
quench:  g(F)=  0.000E+00 g(S)=  0.000E+00 dE (1.order)= 0.000E+00
 bond charge predicted
       N       E                     dE             d eps       ncg     rms          rms(c)
DAV:   1    -0.842683425492E+03   -0.30186E-03   -0.40664E-02  4240   0.294E-01    0.516E-02
DAV:   2    -0.842683478334E+03   -0.52842E-04   -0.77550E-04  4400   0.359E-02    0.357E-02
DAV:   3    -0.842683479304E+03   -0.97034E-06   -0.13136E-05  4740   0.695E-03    0.257E-02
DAV:   4    -0.842683493633E+03   -0.14329E-04   -0.21608E-05  4210   0.872E-03    0.578E-03
DAV:   5    -0.842683493859E+03   -0.22603E-06   -0.43232E-06  4100   0.375E-03
 118 F= -.85041802E+03 E0= -.85041802E+03  d E =-.277839E-03  mag=     0.0000
quench:  g(F)=  0.000E+00 g(S)=  0.000E+00 dE (1.order)= 0.000E+00
 bond charge predicted
       N       E                     dE             d eps       ncg     rms          rms(c)
DAV:   1    -0.842683495162E+03   -0.15290E-05   -0.24617E-04  4340   0.321E-02    0.389E-03
DAV:   2    -0.842683495519E+03   -0.35666E-06   -0.58155E-06  5060   0.455E-03
 119 F= -.85041802E+03 E0= -.85041802E+03  d E =-.396066E-05  mag=     0.0000
quench:  g(F)=  0.000E+00 g(S)=  0.000E+00 dE (1.order)= 0.000E+00
 bond charge predicted
       N       E                     dE             d eps       ncg     rms          rms(c)
DAV:   1    -0.842683478633E+03    0.16529E-04   -0.55347E-04  4260   0.474E-02    0.763E-03
DAV:   2    -0.842683479119E+03   -0.48562E-06   -0.12557E-05  5280   0.673E-03    0.644E-03
DAV:   3    -0.842683478533E+03    0.58552E-06   -0.12402E-06  2660   0.240E-03
 120 F= -.85041801E+03 E0= -.85041801E+03  d E =0.127369E-04  mag=     0.0000
quench:  g(F)=  0.000E+00 g(S)=  0.000E+00 dE (1.order)= 0.000E+00
 bond charge predicted
       N       E                     dE             d eps       ncg     rms          rms(c)
DAV:   1    -0.842683451876E+03    0.27243E-04   -0.39125E-04  4240   0.352E-02    0.592E-03
DAV:   2    -0.842683452277E+03   -0.40105E-06   -0.63704E-06  4340   0.422E-03
 121 F= -.85041799E+03 E0= -.85041798E+03  d E =0.223563E-04  mag=    -0.0000
quench:  g(F)=  0.000E+00 g(S)=  0.000E+00 dE (1.order)= 0.000E+00
 bond charge predicted
       N       E                     dE             d eps       ncg     rms          rms(c)
DAV:   1    -0.842683431759E+03    0.20117E-04   -0.55515E-04  4240   0.399E-02    0.782E-03
DAV:   2    -0.842683432270E+03   -0.51169E-06   -0.94895E-06  4470   0.496E-03
 122 F= -.85041797E+03 E0= -.85041797E+03  d E =0.160331E-04  mag=     0.0000
quench:  g(F)=  0.000E+00 g(S)=  0.000E+00 dE (1.order)= 0.000E+00
 bond charge predicted
       N       E                     dE             d eps       ncg     rms          rms(c)
DAV:   1    -0.842683404499E+03    0.27259E-04   -0.97055E-04  4240   0.567E-02    0.106E-02
DAV:   2    -0.842683405452E+03   -0.95283E-06   -0.18462E-05  5050   0.745E-03    0.849E-03
DAV:   3    -0.842683405409E+03    0.43714E-07   -0.12379E-06  3180   0.243E-03
 123 F= -.85041795E+03 E0= -.85041795E+03  d E =0.218818E-04  mag=     0.0000
quench:  g(F)=  0.000E+00 g(S)=  0.000E+00 dE (1.order)= 0.000E+00
 bond charge predicted
       N       E                     dE             d eps       ncg     rms          rms(c)
DAV:   1    -0.842683367254E+03    0.38199E-04   -0.88616E-04  4240   0.509E-02    0.839E-03
DAV:   2    -0.842683368260E+03   -0.10060E-05   -0.14654E-05  4720   0.620E-03    0.650E-03
DAV:   3    -0.842683368312E+03   -0.51979E-07   -0.39579E-07  3110   0.144E-03
 124 F= -.85041792E+03 E0= -.85041792E+03  d E =0.294906E-04  mag=    -0.0000
quench:  g(F)=  0.000E+00 g(S)=  0.000E+00 dE (1.order)= 0.000E+00
 bond charge predicted
       N       E                     dE             d eps       ncg     rms          rms(c)
DAV:   1    -0.842683332298E+03    0.35961E-04   -0.10635E-03  4260   0.556E-02    0.842E-03
DAV:   2    -0.842683333488E+03   -0.11897E-05   -0.17046E-05  4530   0.672E-03    0.657E-03
DAV:   3    -0.842683333479E+03    0.87603E-08   -0.46788E-07  3130   0.155E-03
 125 F= -.85041789E+03 E0= -.85041789E+03  d E =0.244542E-04  mag=     0.0000
quench:  g(F)=  0.000E+00 g(S)=  0.000E+00 dE (1.order)= 0.000E+00
 bond charge predicted
       N       E                     dE             d eps       ncg     rms          rms(c)
DAV:   1    -0.842683294604E+03    0.38884E-04   -0.16091E-03  4240   0.735E-02    0.102E-02
DAV:   2    -0.842683296571E+03   -0.19674E-05   -0.27303E-05  4630   0.920E-03    0.835E-03
DAV:   3    -0.842683296425E+03    0.14577E-06   -0.96435E-07  3500   0.220E-03
 126 F= -.85041787E+03 E0= -.85041787E+03  d E =0.272347E-04  mag=     0.0000
quench:  g(F)=  0.000E+00 g(S)=  0.000E+00 dE (1.order)= 0.000E+00
 bond charge predicted
       N       E                     dE             d eps       ncg     rms          rms(c)
DAV:   1    -0.842683265842E+03    0.30729E-04   -0.18703E-03  4260   0.763E-02    0.112E-02
DAV:   2    -0.842683267633E+03   -0.17907E-05   -0.27199E-05  4620   0.904E-03    0.915E-03
DAV:   3    -0.842683267781E+03   -0.14795E-06   -0.11109E-06  3470   0.236E-03
 127 F= -.85041784E+03 E0= -.85041784E+03  d E =0.230628E-04  mag=     0.0000
quench:  g(F)=  0.000E+00 g(S)=  0.000E+00 dE (1.order)= 0.000E+00
 bond charge predicted
       N       E                     dE             d eps       ncg     rms          rms(c)
DAV:   1    -0.842683248026E+03    0.19606E-04   -0.30142E-03  4260   0.100E-01    0.135E-02
DAV:   2    -0.842683251429E+03   -0.34021E-05   -0.48684E-05  4560   0.123E-02    0.111E-02
DAV:   3    -0.842683251299E+03    0.12953E-06   -0.19841E-06  3980   0.306E-03
 128 F= -.85041783E+03 E0= -.85041783E+03  d E =0.134377E-04  mag=     0.0000
quench:  g(F)=  0.000E+00 g(S)=  0.000E+00 dE (1.order)= 0.000E+00
 bond charge predicted
       N       E                     dE             d eps       ncg     rms          rms(c)
DAV:   1    -0.842683239236E+03    0.12193E-04   -0.42238E-03  4260   0.115E-01    0.162E-02
DAV:   2    -0.842683243583E+03   -0.43477E-05   -0.65670E-05  4560   0.137E-02    0.131E-02
DAV:   3    -0.842683243612E+03   -0.28740E-07   -0.24441E-06  4120   0.337E-03
 129 F= -.85041783E+03 E0= -.85041783E+03  d E =0.122928E-05  mag=     0.0000
quench:  g(F)=  0.000E+00 g(S)=  0.000E+00 dE (1.order)= 0.000E+00
 bond charge predicted
       N       E                     dE             d eps       ncg     rms          rms(c)
DAV:   1    -0.842683244851E+03   -0.12674E-05   -0.69221E-03  4260   0.150E-01    0.203E-02
DAV:   2    -0.842683252581E+03   -0.77303E-05   -0.11424E-04  4540   0.183E-02    0.163E-02
DAV:   3    -0.842683252283E+03    0.29826E-06   -0.41346E-06  4660   0.430E-03
 130 F= -.85041784E+03 E0= -.85041784E+03  d E =-.100458E-04  mag=    -0.0000
quench:  g(F)=  0.000E+00 g(S)=  0.000E+00 dE (1.order)= 0.000E+00
 bond charge predicted
       N       E                     dE             d eps       ncg     rms          rms(c)
DAV:   1    -0.842683286230E+03   -0.33648E-04   -0.10134E-02  4260   0.181E-01    0.248E-02
DAV:   2    -0.842683297059E+03   -0.10829E-04   -0.16946E-04  4540   0.221E-02    0.198E-02
DAV:   3    -0.842683296631E+03    0.42723E-06   -0.66486E-06  4920   0.534E-03
 131 F= -.85041787E+03 E0= -.85041787E+03  d E =-.313701E-04  mag=    -0.0000
quench:  g(F)=  0.000E+00 g(S)=  0.000E+00 dE (1.order)= 0.000E+00
 bond charge predicted
       N       E                     dE             d eps       ncg     rms          rms(c)
DAV:   1    -0.842683328041E+03   -0.30982E-04   -0.15494E-02  4260   0.220E-01    0.307E-02
DAV:   2    -0.842683346043E+03   -0.18003E-04   -0.27220E-04  4550   0.271E-02    0.244E-02
DAV:   3    -0.842683344897E+03    0.11466E-05   -0.93801E-06  4910   0.629E-03    0.164E-02
DAV:   4    -0.842683348966E+03   -0.40691E-05   -0.99917E-06  4260   0.651E-03    0.492E-03
DAV:   5    -0.842683349133E+03   -0.16659E-06   -0.30012E-06  3630   0.318E-03
 132 F= -.85041791E+03 E0= -.85041791E+03  d E =-.447227E-04  mag=    -0.0000
quench:  g(F)=  0.000E+00 g(S)=  0.000E+00 dE (1.order)= 0.000E+00
 bond charge predicted
       N       E                     dE             d eps       ncg     rms          rms(c)
DAV:   1    -0.842683372931E+03   -0.23965E-04   -0.21380E-02  4280   0.268E-01    0.341E-02
DAV:   2    -0.842683398362E+03   -0.25431E-04   -0.38787E-04  4540   0.342E-02    0.278E-02
DAV:   3    -0.842683394424E+03    0.39388E-05   -0.15981E-05  5140   0.833E-03    0.187E-02
DAV:   4    -0.842683397728E+03   -0.33040E-05   -0.15393E-05  4360   0.827E-03    0.614E-03
DAV:   5    -0.842683397976E+03   -0.24821E-06   -0.46076E-06  4020   0.398E-03
 133 F= -.85041794E+03 E0= -.85041794E+03  d E =-.270941E-04  mag=     0.0000
quench:  g(F)=  0.000E+00 g(S)=  0.000E+00 dE (1.order)= 0.000E+00
 bond charge predicted
       N       E                     dE             d eps       ncg     rms          rms(c)
DAV:   1    -0.842683423282E+03   -0.25555E-04   -0.14074E-03  4300   0.755E-02    0.859E-03
DAV:   2    -0.842683425823E+03   -0.25403E-05   -0.37428E-05  4970   0.111E-02    0.782E-03
DAV:   3    -0.842683425099E+03    0.72419E-06   -0.13779E-06  3260   0.240E-03
 134 F= -.85041797E+03 E0= -.85041797E+03  d E =-.311846E-04  mag=     0.0000
quench:  g(F)=  0.000E+00 g(S)=  0.000E+00 dE (1.order)= 0.000E+00
 bond charge predicted
       N       E                     dE             d eps       ncg     rms          rms(c)
DAV:   1    -0.842683390663E+03    0.35159E-04   -0.18482E-03  4270   0.863E-02    0.113E-02
DAV:   2    -0.842683393414E+03   -0.27511E-05   -0.42484E-05  5000   0.120E-02    0.980E-03
DAV:   3    -0.842683392288E+03    0.11262E-05   -0.20347E-06  3820   0.300E-03    0.711E-03
DAV:   4    -0.842683391773E+03    0.51547E-06   -0.39335E-06  4070   0.406E-03
 135 F= -.85041794E+03 E0= -.85041794E+03  d E =0.280402E-04  mag=    -0.0000
quench:  g(F)=  0.000E+00 g(S)=  0.000E+00 dE (1.order)= 0.000E+00
 bond charge predicted
       N       E                     dE             d eps       ncg     rms          rms(c)
DAV:   1    -0.842683401440E+03   -0.91519E-05   -0.65413E-05  4340   0.164E-02    0.165E-03
DAV:   2    -0.842683401555E+03   -0.11529E-06   -0.17024E-06  2980   0.248E-03
 136 F= -.85041795E+03 E0= -.85041795E+03  d E =-.933602E-05  mag=     0.0000
quench:  g(F)=  0.000E+00 g(S)=  0.000E+00 dE (1.order)= 0.000E+00
 bond charge predicted
       N       E                     dE             d eps       ncg     rms          rms(c)
DAV:   1    -0.842683411759E+03   -0.10319E-04   -0.21472E-04  4360   0.295E-02    0.408E-03
DAV:   2    -0.842683412026E+03   -0.26736E-06   -0.55386E-06  4740   0.440E-03
 137 F= -.85041796E+03 E0= -.85041796E+03  d E =-.990897E-05  mag=     0.0000
quench:  g(F)=  0.000E+00 g(S)=  0.000E+00 dE (1.order)= 0.000E+00
 bond charge predicted
       N       E                     dE             d eps       ncg     rms          rms(c)
DAV:   1    -0.842683412156E+03   -0.39730E-06   -0.30535E-04  4330   0.352E-02    0.624E-03
DAV:   2    -0.842683412359E+03   -0.20255E-06   -0.74365E-06  5160   0.509E-03
 138 F= -.85041796E+03 E0= -.85041796E+03  d E =-.233141E-07  mag=    -0.0000
quench:  g(F)=  0.000E+00 g(S)=  0.000E+00 dE (1.order)= 0.000E+00
 bond charge predicted
       N       E                     dE             d eps       ncg     rms          rms(c)
DAV:   1    -0.842683400434E+03    0.11722E-04   -0.23474E-04  4330   0.307E-02    0.634E-03
DAV:   2    -0.842683400512E+03   -0.77242E-07   -0.49080E-06  4640   0.418E-03
 139 F= -.85041795E+03 E0= -.85041795E+03  d E =0.114157E-04  mag=     0.0000
quench:  g(F)=  0.000E+00 g(S)=  0.000E+00 dE (1.order)= 0.000E+00
 bond charge predicted
       N       E                     dE             d eps       ncg     rms          rms(c)
DAV:   1    -0.842683400257E+03    0.17758E-06   -0.31629E-06  3630   0.373E-03    0.237E-03
DAV:   2    -0.842683400280E+03   -0.23036E-07   -0.34463E-07  2230   0.109E-03
 140 F= -.85041795E+03 E0= -.85041795E+03  d E =0.449660E-07  mag=    -0.0000
quench:  g(F)=  0.000E+00 g(S)=  0.000E+00 dE (1.order)= 0.000E+00
 bond charge predicted
       N       E                     dE             d eps       ncg     rms          rms(c)
DAV:   1    -0.842683400398E+03   -0.14094E-06   -0.48462E-06  3930   0.440E-03    0.734E-04
DAV:   2    -0.842683400414E+03   -0.15963E-07   -0.15404E-07  2150   0.735E-04
 141 F= -.85041795E+03 E0= -.85041795E+03  d E =-.525031E-06  mag=     0.0000
quench:  g(F)=  0.000E+00 g(S)=  0.000E+00 dE (1.order)= 0.000E+00
 bond charge predicted
       N       E                     dE             d eps       ncg     rms          rms(c)
DAV:   1    -0.842683399990E+03    0.40778E-06   -0.96561E-06  4090   0.618E-03    0.872E-04
DAV:   2    -0.842683400003E+03   -0.12762E-07   -0.25945E-07  2230   0.970E-04
 142 F= -.85041795E+03 E0= -.85041795E+03  d E =-.187109E-06  mag=     0.0000
quench:  g(F)=  0.000E+00 g(S)=  0.000E+00 dE (1.order)= 0.000E+00
 bond charge predicted
       N       E                     dE             d eps       ncg     rms          rms(c)
DAV:   1    -0.842683398801E+03    0.11888E-05   -0.15008E-05  4340   0.764E-03    0.133E-03
DAV:   2    -0.842683398811E+03   -0.10179E-07   -0.36732E-07  2295   0.115E-03
 143 F= -.85041795E+03 E0= -.85041795E+03  d E =0.394894E-06  mag=    -0.0000
quench:  g(F)=  0.000E+00 g(S)=  0.000E+00 dE (1.order)= 0.000E+00
 bond charge predicted
       N       E                     dE             d eps       ncg     rms          rms(c)
DAV:   1    -0.842683396777E+03    0.20242E-05   -0.19584E-05  4340   0.866E-03    0.163E-03
DAV:   2    -0.842683396787E+03   -0.10361E-07   -0.42626E-07  2320   0.124E-03
 144 F= -.85041795E+03 E0= -.85041795E+03  d E =0.106893E-05  mag=     0.0000
quench:  g(F)=  0.000E+00 g(S)=  0.000E+00 dE (1.order)= 0.000E+00
 bond charge predicted
       N       E                     dE             d eps       ncg     rms          rms(c)
DAV:   1    -0.842683393755E+03    0.30215E-05   -0.22384E-05  4335   0.919E-03    0.176E-03
DAV:   2    -0.842683393769E+03   -0.13832E-07   -0.48361E-07  2410   0.131E-03
 145 F= -.85041795E+03 E0= -.85041795E+03  d E =0.198001E-05  mag=    -0.0000
quench:  g(F)=  0.000E+00 g(S)=  0.000E+00 dE (1.order)= 0.000E+00
 bond charge predicted
       N       E                     dE             d eps       ncg     rms          rms(c)
DAV:   1    -0.842683390288E+03    0.34675E-05   -0.27370E-05  4295   0.101E-02    0.192E-03
DAV:   2    -0.842683390306E+03   -0.18226E-07   -0.55787E-07  2625   0.140E-03
 146 F= -.85041795E+03 E0= -.85041795E+03  d E =0.239192E-05  mag=     0.0000
quench:  g(F)=  0.000E+00 g(S)=  0.000E+00 dE (1.order)= 0.000E+00
 bond charge predicted
       N       E                     dE             d eps       ncg     rms          rms(c)
DAV:   1    -0.842683387590E+03    0.26982E-05   -0.27337E-05  4255   0.100E-02    0.197E-03
DAV:   2    -0.842683387608E+03   -0.18103E-07   -0.53123E-07  2585   0.137E-03
 147 F= -.85041795E+03 E0= -.85041794E+03  d E =0.190046E-05  mag=    -0.0000
quench:  g(F)=  0.000E+00 g(S)=  0.000E+00 dE (1.order)= 0.000E+00
 bond charge predicted
       N       E                     dE             d eps       ncg     rms          rms(c)
DAV:   1    -0.842683387998E+03   -0.40886E-06   -0.17058E-07  2145   0.900E-04    0.854E-04
DAV:   2    -0.842683388003E+03   -0.42201E-08   -0.28960E-08  2120   0.370E-04
 148 F= -.85041795E+03 E0= -.85041795E+03  d E =-.316684E-06  mag=     0.0000
quench:  g(F)=  0.000E+00 g(S)=  0.000E+00 dE (1.order)= 0.000E+00
 bond charge predicted
       N       E                     dE             d eps       ncg     rms          rms(c)
DAV:   1    -0.842683389010E+03   -0.10121E-05   -0.26674E-07  2240   0.950E-04    0.354E-04
DAV:   2    -0.842683389014E+03   -0.36598E-08   -0.12993E-08  2120   0.258E-04
 149 F= -.85041795E+03 E0= -.85041795E+03  d E =-.809251E-06  mag=     0.0000
quench:  g(F)=  0.000E+00 g(S)=  0.000E+00 dE (1.order)= 0.000E+00
 bond charge predicted
       N       E                     dE             d eps       ncg     rms          rms(c)
DAV:   1    -0.842683390798E+03   -0.17872E-05   -0.69101E-07  2520   0.141E-03    0.386E-04
DAV:   2    -0.842683390801E+03   -0.37471E-08   -0.17695E-08  2120   0.287E-04
 150 F= -.85041795E+03 E0= -.85041795E+03  d E =-.141764E-05  mag=    -0.0000
quench:  g(F)=  0.000E+00 g(S)=  0.000E+00 dE (1.order)= 0.000E+00
 bond charge predicted
       N       E                     dE             d eps       ncg     rms          rms(c)
DAV:   1    -0.842683393336E+03   -0.25381E-05   -0.13162E-06  2600   0.189E-03    0.490E-04
DAV:   2    -0.842683393341E+03   -0.53988E-08   -0.34331E-08  2120   0.375E-04
 151 F= -.85041795E+03 E0= -.85041795E+03  d E =-.200177E-05  mag=     0.0000
quench:  g(F)=  0.000E+00 g(S)=  0.000E+00 dE (1.order)= 0.000E+00
 bond charge predicted
       N       E                     dE             d eps       ncg     rms          rms(c)
DAV:   1    -0.842683396590E+03   -0.32543E-05   -0.21414E-06  2900   0.236E-03    0.607E-04
DAV:   2    -0.842683396596E+03   -0.61118E-08   -0.52752E-08  2120   0.446E-04
 152 F= -.85041795E+03 E0= -.85041795E+03  d E =-.255437E-05  mag=    -0.0000
quench:  g(F)=  0.000E+00 g(S)=  0.000E+00 dE (1.order)= 0.000E+00
 bond charge predicted
       N       E                     dE             d eps       ncg     rms          rms(c)
DAV:   1    -0.842683400539E+03   -0.39492E-05   -0.31656E-06  3235   0.281E-03    0.725E-04
DAV:   2    -0.842683400549E+03   -0.93496E-08   -0.71718E-08  2200   0.492E-04
 153 F= -.85041796E+03 E0= -.85041795E+03  d E =-.309080E-05  mag=     0.0000
quench:  g(F)=  0.000E+00 g(S)=  0.000E+00 dE (1.order)= 0.000E+00
 bond charge predicted
       N       E                     dE             d eps       ncg     rms          rms(c)
[...]
 bond charge predicted
       N       E                     dE             d eps       ncg     rms          rms(c)
DAV:   1    -0.842683505409E+03   -0.24456E-04   -0.16023E-04  4240   0.171E-02    0.469E-03
DAV:   2    -0.842683505484E+03   -0.74455E-07   -0.28105E-06  3100   0.199E-03
 161 F= -.85041804E+03 E0= -.85041804E+03  d E =-.186964E-04  mag=    -0.0000
quench:  g(F)=  0.000E+00 g(S)=  0.000E+00 dE (1.order)= 0.000E+00
 bond charge predicted
       N       E                     dE             d eps       ncg     rms          rms(c)
DAV:   1    -0.842683534805E+03   -0.29396E-04   -0.24588E-04  4240   0.212E-02    0.579E-03
DAV:   2    -0.842683534934E+03   -0.12877E-06   -0.43223E-06  3220   0.245E-03
 162 F= -.85041806E+03 E0= -.85041806E+03  d E =-.223976E-04  mag=    -0.0000
quench:  g(F)=  0.000E+00 g(S)=  0.000E+00 dE (1.order)= 0.000E+00
 bond charge predicted
       N       E                     dE             d eps       ncg     rms          rms(c)
DAV:   1    -0.842683569894E+03   -0.35089E-04   -0.36574E-04  4240   0.259E-02    0.707E-03
DAV:   2    -0.842683570116E+03   -0.22139E-06   -0.64900E-06  3330   0.303E-03
 163 F= -.85041809E+03 E0= -.85041808E+03  d E =-.267600E-04  mag=     0.0000
quench:  g(F)=  0.000E+00 g(S)=  0.000E+00 dE (1.order)= 0.000E+00
 bond charge predicted
       N       E                     dE             d eps       ncg     rms          rms(c)
DAV:   1    -0.842683611191E+03   -0.41297E-04   -0.52456E-04  4260   0.312E-02    0.852E-03
DAV:   2    -0.842683611521E+03   -0.32942E-06   -0.93459E-06  3510   0.364E-03
 164 F= -.85041812E+03 E0= -.85041812E+03  d E =-.314404E-04  mag=    -0.0000
quench:  g(F)=  0.000E+00 g(S)=  0.000E+00 dE (1.order)= 0.000E+00
 bond charge predicted
       N       E                     dE             d eps       ncg     rms          rms(c)
DAV:   1    -0.842683659631E+03   -0.48440E-04   -0.73124E-04  4280   0.372E-02    0.101E-02
DAV:   2    -0.842683660099E+03   -0.46796E-06   -0.13002E-05  3800   0.431E-03    0.753E-03
DAV:   3    -0.842683660404E+03   -0.30475E-06   -0.42960E-07  3040   0.127E-03
 165 F= -.85041815E+03 E0= -.85041815E+03  d E =-.372266E-04  mag=    -0.0000
quench:  g(F)=  0.000E+00 g(S)=  0.000E+00 dE (1.order)= 0.000E+00
 bond charge predicted
       N       E                     dE             d eps       ncg     rms          rms(c)
DAV:   1    -0.842683715448E+03   -0.55349E-04   -0.96885E-04  4240   0.433E-02    0.800E-03
DAV:   2    -0.842683716563E+03   -0.11149E-05   -0.17416E-05  4030   0.500E-03    0.541E-03
DAV:   3    -0.842683716628E+03   -0.65331E-07   -0.26923E-07  3280   0.982E-04
 166 F= -.85041820E+03 E0= -.85041820E+03  d E =-.428035E-04  mag=    -0.0000
quench:  g(F)=  0.000E+00 g(S)=  0.000E+00 dE (1.order)= 0.000E+00
 bond charge predicted
       N       E                     dE             d eps       ncg     rms          rms(c)
DAV:   1    -0.842683778327E+03   -0.61764E-04   -0.12252E-03  4260   0.498E-02    0.888E-03
DAV:   2    -0.842683779776E+03   -0.14489E-05   -0.22243E-05  4190   0.579E-03    0.607E-03
DAV:   3    -0.842683779800E+03   -0.23610E-07   -0.33130E-07  3320   0.111E-03
 167 F= -.85041824E+03 E0= -.85041824E+03  d E =-.478669E-04  mag=    -0.0000
quench:  g(F)=  0.000E+00 g(S)=  0.000E+00 dE (1.order)= 0.000E+00
 bond charge predicted
       N       E                     dE             d eps       ncg     rms          rms(c)
DAV:   1    -0.842683846433E+03   -0.66657E-04   -0.14173E-03  4240   0.557E-02    0.957E-03
DAV:   2    -0.842683848074E+03   -0.16411E-05   -0.25292E-05  4310   0.647E-03    0.668E-03
DAV:   3    -0.842683848101E+03   -0.26441E-07   -0.38996E-07  3400   0.123E-03
 168 F= -.85041830E+03 E0= -.85041830E+03  d E =-.516341E-04  mag=    -0.0000
quench:  g(F)=  0.000E+00 g(S)=  0.000E+00 dE (1.order)= 0.000E+00
 bond charge predicted
       N       E                     dE             d eps       ncg     rms          rms(c)
DAV:   1    -0.842683915353E+03   -0.67278E-04   -0.15342E-03  4240   0.609E-02    0.988E-03
DAV:   2    -0.842683917085E+03   -0.17320E-05   -0.26690E-05  4400   0.709E-03    0.710E-03
DAV:   3    -0.842683917106E+03   -0.21275E-07   -0.42897E-07  3360   0.137E-03
 169 F= -.85041835E+03 E0= -.85041835E+03  d E =-.521187E-04  mag=    -0.0000
quench:  g(F)=  0.000E+00 g(S)=  0.000E+00 dE (1.order)= 0.000E+00
 bond charge predicted
       N       E                     dE             d eps       ncg     rms          rms(c)
DAV:   1    -0.842683981316E+03   -0.64231E-04   -0.15463E-03  4240   0.648E-02    0.983E-03
DAV:   2    -0.842683982922E+03   -0.16059E-05   -0.25414E-05  4420   0.752E-03    0.733E-03
DAV:   3    -0.842683982953E+03   -0.31381E-07   -0.47333E-07  3260   0.153E-03
 170 F= -.85041840E+03 E0= -.85041840E+03  d E =-.502698E-04  mag=    -0.0000
quench:  g(F)=  0.000E+00 g(S)=  0.000E+00 dE (1.order)= 0.000E+00
 bond charge predicted
       N       E                     dE             d eps       ncg     rms          rms(c)
DAV:   1    -0.842684041103E+03   -0.58181E-04   -0.15901E-03  4260   0.691E-02    0.980E-03
DAV:   2    -0.842684042575E+03   -0.14718E-05   -0.24086E-05  4460   0.796E-03    0.765E-03
DAV:   3    -0.842684042633E+03   -0.57953E-07   -0.56188E-07  3240   0.172E-03
 171 F= -.85041844E+03 E0= -.85041844E+03  d E =-.454836E-04  mag=    -0.0000
quench:  g(F)=  0.000E+00 g(S)=  0.000E+00 dE (1.order)= 0.000E+00
 bond charge predicted
       N       E                     dE             d eps       ncg     rms          rms(c)
DAV:   1    -0.842684089519E+03   -0.46944E-04   -0.18506E-03  4260   0.769E-02    0.103E-02
DAV:   2    -0.842684091107E+03   -0.15881E-05   -0.26328E-05  4530   0.884E-03    0.834E-03
DAV:   3    -0.842684091181E+03   -0.73996E-07   -0.79703E-07  3280   0.204E-03
 172 F= -.85041848E+03 E0= -.85041848E+03  d E =-.361774E-04  mag=    -0.0000
quench:  g(F)=  0.000E+00 g(S)=  0.000E+00 dE (1.order)= 0.000E+00
 bond charge predicted
       N       E                     dE             d eps       ncg     rms          rms(c)
DAV:   1    -0.842684122731E+03   -0.31624E-04   -0.23217E-03  4260   0.871E-02    0.115E-02
DAV:   2    -0.842684124608E+03   -0.18769E-05   -0.31455E-05  4635   0.998E-03    0.948E-03
DAV:   3    -0.842684124700E+03   -0.91655E-07   -0.12372E-06  3460   0.253E-03
 173 F= -.85041851E+03 E0= -.85041850E+03  d E =-.245804E-04  mag=    -0.0000
quench:  g(F)=  0.000E+00 g(S)=  0.000E+00 dE (1.order)= 0.000E+00
 bond charge predicted
       N       E                     dE             d eps       ncg     rms          rms(c)
DAV:   1    -0.842684136639E+03   -0.12031E-04   -0.31000E-03  4280   0.101E-01    0.133E-02
DAV:   2    -0.842684138972E+03   -0.23329E-05   -0.39854E-05  4640   0.115E-02    0.113E-02
DAV:   3    -0.842684139124E+03   -0.15213E-06   -0.21080E-06  3840   0.328E-03
 174 F= -.85041852E+03 E0= -.85041852E+03  d E =-.107830E-04  mag=     0.0000
quench:  g(F)=  0.000E+00 g(S)=  0.000E+00 dE (1.order)= 0.000E+00
 bond charge predicted
       N       E                     dE             d eps       ncg     rms          rms(c)
DAV:   1    -0.842684133779E+03    0.51928E-05   -0.42417E-03  4300   0.118E-01    0.157E-02
DAV:   2    -0.842684136719E+03   -0.29396E-05   -0.51329E-05  4610   0.133E-02    0.134E-02
DAV:   3    -0.842684137122E+03   -0.40321E-06   -0.35138E-06  4240   0.418E-03
 175 F= -.85041852E+03 E0= -.85041851E+03  d E =0.510969E-06  mag=    -0.0000
quench:  g(F)=  0.000E+00 g(S)=  0.000E+00 dE (1.order)= 0.000E+00
 bond charge predicted
       N       E                     dE             d eps       ncg     rms          rms(c)
DAV:   1    -0.842684111964E+03    0.24754E-04   -0.58701E-03  4300   0.138E-01    0.188E-02
DAV:   2    -0.842684116190E+03   -0.42252E-05   -0.72312E-05  4700   0.157E-02    0.160E-02
DAV:   3    -0.842684116842E+03   -0.65242E-06   -0.50146E-06  4310   0.497E-03
 176 F= -.85041850E+03 E0= -.85041850E+03  d E =0.113639E-04  mag=     0.0000
quench:  g(F)=  0.000E+00 g(S)=  0.000E+00 dE (1.order)= 0.000E+00
 bond charge predicted
       N       E                     dE             d eps       ncg     rms          rms(c)
DAV:   1    -0.842684094467E+03    0.21723E-04   -0.79760E-03  4300   0.162E-01    0.223E-02
DAV:   2    -0.842684100495E+03   -0.60276E-05   -0.10261E-04  4650   0.187E-02    0.188E-02
DAV:   3    -0.842684101159E+03   -0.66425E-06   -0.70159E-06  4520   0.582E-03
 177 F= -.85041849E+03 E0= -.85041849E+03  d E =0.946244E-05  mag=    -0.0000
quench:  g(F)=  0.000E+00 g(S)=  0.000E+00 dE (1.order)= 0.000E+00
 bond charge predicted
       N       E                     dE             d eps       ncg     rms          rms(c)
DAV:   1    -0.842684105811E+03   -0.53164E-05   -0.11288E-02  4300   0.192E-01    0.268E-02
DAV:   2    -0.842684114513E+03   -0.87016E-05   -0.15233E-04  4640   0.224E-02    0.222E-02
DAV:   3    -0.842684114975E+03   -0.46239E-06   -0.89860E-06  4700   0.649E-03
 178 F= -.85041850E+03 E0= -.85041850E+03  d E =-.732159E-05  mag=    -0.0000
quench:  g(F)=  0.000E+00 g(S)=  0.000E+00 dE (1.order)= 0.000E+00
 bond charge predicted
       N       E                     dE             d eps       ncg     rms          rms(c)
DAV:   1    -0.842684143953E+03   -0.29440E-04   -0.15729E-02  4300   0.228E-01    0.319E-02
DAV:   2    -0.842684156461E+03   -0.12508E-04   -0.22049E-04  4600   0.269E-02    0.265E-02
DAV:   3    -0.842684156558E+03   -0.96930E-07   -0.12460E-05  4740   0.770E-03    0.152E-02
DAV:   4    -0.842684161215E+03   -0.46574E-05   -0.91865E-06  4400   0.594E-03    0.522E-03
DAV:   5    -0.842684160971E+03    0.24403E-06   -0.36076E-06  4340   0.374E-03
 179 F= -.85041854E+03 E0= -.85041854E+03  d E =-.377144E-04  mag=    -0.0000
quench:  g(F)=  0.000E+00 g(S)=  0.000E+00 dE (1.order)= 0.000E+00
 bond charge predicted
       N       E                     dE             d eps       ncg     rms          rms(c)
DAV:   1    -0.842684205122E+03   -0.43906E-04   -0.25316E-02  4260   0.295E-01    0.371E-02
DAV:   2    -0.842684231994E+03   -0.26872E-04   -0.42531E-04  4610   0.372E-02    0.312E-02
DAV:   3    -0.842684226447E+03    0.55469E-05   -0.18350E-05  5120   0.925E-03    0.205E-02
DAV:   4    -0.842684230759E+03   -0.43118E-05   -0.19617E-05  4360   0.921E-03    0.658E-03
DAV:   5    -0.842684230801E+03   -0.41960E-07   -0.65508E-06  4520   0.482E-03
 180 F= -.85041859E+03 E0= -.85041859E+03  d E =-.501526E-04  mag=    -0.0000
quench:  g(F)=  0.000E+00 g(S)=  0.000E+00 dE (1.order)= 0.000E+00
 bond charge predicted
       N       E                     dE             d eps       ncg     rms          rms(c)
DAV:   1    -0.842684270634E+03   -0.39876E-04   -0.13198E-03  4320   0.742E-02    0.865E-03
DAV:   2    -0.842684272915E+03   -0.22809E-05   -0.34387E-05  5340   0.110E-02    0.787E-03
DAV:   3    -0.842684272150E+03    0.76470E-06   -0.14146E-06  3000   0.250E-03
 181 F= -.85041863E+03 E0= -.85041863E+03  d E =-.381330E-04  mag=    -0.0000
quench:  g(F)=  0.000E+00 g(S)=  0.000E+00 dE (1.order)= 0.000E+00
 bond charge predicted
       N       E                     dE             d eps       ncg     rms          rms(c)
DAV:   1    -0.842684263002E+03    0.99129E-05   -0.17762E-03  4240   0.859E-02    0.115E-02
DAV:   2    -0.842684265517E+03   -0.25151E-05   -0.40288E-05  5320   0.121E-02    0.991E-03
DAV:   3    -0.842684264294E+03    0.12234E-05   -0.22949E-06  3790   0.328E-03    0.687E-03
DAV:   4    -0.842684263756E+03    0.53744E-06   -0.31684E-06  3860   0.371E-03
 182 F= -.85041861E+03 E0= -.85041861E+03  d E =0.134803E-04  mag=     0.0000
quench:  g(F)=  0.000E+00 g(S)=  0.000E+00 dE (1.order)= 0.000E+00
 bond charge predicted
       N       E                     dE             d eps       ncg     rms          rms(c)
DAV:   1    -0.842684273703E+03   -0.94089E-05   -0.63569E-05  4320   0.163E-02    0.187E-03
DAV:   2    -0.842684273798E+03   -0.95577E-07   -0.18135E-06  2765   0.259E-03
 183 F= -.85041862E+03 E0= -.85041862E+03  d E =-.102549E-04  mag=    -0.0000
quench:  g(F)=  0.000E+00 g(S)=  0.000E+00 dE (1.order)= 0.000E+00
 bond charge predicted
       N       E                     dE             d eps       ncg     rms          rms(c)
DAV:   1    -0.842684284841E+03   -0.11138E-04   -0.20619E-04  4325   0.293E-02    0.417E-03
DAV:   2    -0.842684285059E+03   -0.21827E-06   -0.51889E-06  5035   0.436E-03
 184 F= -.85041864E+03 E0= -.85041864E+03  d E =-.117821E-04  mag=    -0.0000
quench:  g(F)=  0.000E+00 g(S)=  0.000E+00 dE (1.order)= 0.000E+00
 bond charge predicted
       N       E                     dE             d eps       ncg     rms          rms(c)
DAV:   1    -0.842684287237E+03   -0.23960E-05   -0.30128E-04  4295   0.354E-02    0.623E-03
DAV:   2    -0.842684287407E+03   -0.16967E-06   -0.71064E-06  5480   0.510E-03
 185 F= -.85041864E+03 E0= -.85041864E+03  d E =-.316737E-05  mag=     0.0000
quench:  g(F)=  0.000E+00 g(S)=  0.000E+00 dE (1.order)= 0.000E+00
 bond charge predicted
       N       E                     dE             d eps       ncg     rms          rms(c)
DAV:   1    -0.842684287009E+03    0.22791E-06   -0.12614E-06  2320   0.252E-03    0.290E-03
DAV:   2    -0.842684286990E+03    0.19114E-07   -0.32214E-07  2185   0.115E-03
 186 F= -.85041864E+03 E0= -.85041864E+03  d E =0.395186E-06  mag=    -0.0000
quench:  g(F)=  0.000E+00 g(S)=  0.000E+00 dE (1.order)= 0.000E+00
 bond charge predicted
       N       E                     dE             d eps       ncg     rms          rms(c)
DAV:   1    -0.842684287149E+03   -0.13966E-06   -0.11022E-06  2385   0.222E-03    0.837E-04
DAV:   2    -0.842684287162E+03   -0.13162E-07   -0.10976E-07  2180   0.702E-04
 187 F= -.85041864E+03 E0= -.85041864E+03  d E =-.209683E-06  mag=     0.0000
quench:  g(F)=  0.000E+00 g(S)=  0.000E+00 dE (1.order)= 0.000E+00
 bond charge predicted
       N       E                     dE             d eps       ncg     rms          rms(c)
DAV:   1    -0.842684287394E+03   -0.24534E-06   -0.18332E-06  2800   0.276E-03    0.525E-04
DAV:   2    -0.842684287401E+03   -0.65920E-08   -0.73120E-08  2165   0.583E-04
 188 F= -.85041864E+03 E0= -.85041864E+03  d E =-.312794E-06  mag=    -0.0000
quench:  g(F)=  0.000E+00 g(S)=  0.000E+00 dE (1.order)= 0.000E+00
 bond charge predicted
       N       E                     dE             d eps       ncg     rms          rms(c)
DAV:   1    -0.842684287602E+03   -0.20755E-06   -0.29058E-06  3665   0.345E-03    0.632E-04
DAV:   2    -0.842684287607E+03   -0.52532E-08   -0.69994E-08  2150   0.566E-04
 189 F= -.85041864E+03 E0= -.85041864E+03  d E =-.310516E-06  mag=     0.0000
quench:  g(F)=  0.000E+00 g(S)=  0.000E+00 dE (1.order)= 0.000E+00
 bond charge predicted
       N       E                     dE             d eps       ncg     rms          rms(c)
DAV:   1    -0.842684287790E+03   -0.18862E-06   -0.38455E-06  3870   0.395E-03    0.704E-04
DAV:   2    -0.842684287795E+03   -0.51587E-08   -0.82424E-08  2155   0.602E-04
 190 F= -.85041864E+03 E0= -.85041864E+03  d E =-.296465E-06  mag=    -0.0000
quench:  g(F)=  0.000E+00 g(S)=  0.000E+00 dE (1.order)= 0.000E+00
 bond charge predicted
       N       E                     dE             d eps       ncg     rms          rms(c)
DAV:   1    -0.842684287914E+03   -0.12351E-06   -0.48091E-06  3845   0.438E-03    0.779E-04
DAV:   2    -0.842684287921E+03   -0.73196E-08   -0.99739E-08  2150   0.658E-04
 191 F= -.85041864E+03 E0= -.85041864E+03  d E =-.233108E-06  mag=    -0.0000
quench:  g(F)=  0.000E+00 g(S)=  0.000E+00 dE (1.order)= 0.000E+00
 bond charge predicted
       N       E                     dE             d eps       ncg     rms          rms(c)
DAV:   1    -0.842684288008E+03   -0.94282E-07   -0.65860E-06  3950   0.501E-03    0.875E-04
DAV:   2    -0.842684288017E+03   -0.85929E-08   -0.11936E-07  2165   0.706E-04
 192 F= -.85041864E+03 E0= -.85041864E+03  d E =-.219207E-06  mag=     0.0000
quench:  g(F)=  0.000E+00 g(S)=  0.000E+00 dE (1.order)= 0.000E+00
 bond charge predicted
       N       E                     dE             d eps       ncg     rms          rms(c)
DAV:   1    -0.842684288191E+03   -0.18311E-06   -0.93573E-06  4040   0.586E-03    0.100E-03
DAV:   2    -0.842684288201E+03   -0.99899E-08   -0.15079E-07  2170   0.779E-04
 193 F= -.85041864E+03 E0= -.85041864E+03  d E =-.317660E-06  mag=    -0.0000
quench:  g(F)=  0.000E+00 g(S)=  0.000E+00 dE (1.order)= 0.000E+00
 bond charge predicted
       N       E                     dE             d eps       ncg     rms          rms(c)
DAV:   1    -0.842684288473E+03   -0.28210E-06   -0.13996E-05  4080   0.707E-03    0.119E-03
DAV:   2    -0.842684288485E+03   -0.11438E-07   -0.21090E-07  2225   0.907E-04
 194 F= -.85041864E+03 E0= -.85041864E+03  d E =-.421067E-06  mag=     0.0000
quench:  g(F)=  0.000E+00 g(S)=  0.000E+00 dE (1.order)= 0.000E+00
 bond charge predicted
       N       E                     dE             d eps       ncg     rms          rms(c)
DAV:   1    -0.842684288843E+03   -0.36944E-06   -0.20984E-05  4195   0.856E-03    0.143E-03
DAV:   2    -0.842684288857E+03   -0.14217E-07   -0.30084E-07  2325   0.105E-03
 195 F= -.85041864E+03 E0= -.85041864E+03  d E =-.510711E-06  mag=    -0.0000
quench:  g(F)=  0.000E+00 g(S)=  0.000E+00 dE (1.order)= 0.000E+00
 bond charge predicted
       N       E                     dE             d eps       ncg     rms          rms(c)
DAV:   1    -0.842684289378E+03   -0.53505E-06   -0.32084E-05  4240   0.105E-02    0.178E-03
DAV:   2    -0.842684289395E+03   -0.17491E-07   -0.42132E-07  2700   0.124E-03
 196 F= -.85041864E+03 E0= -.85041864E+03  d E =-.639150E-06  mag=     0.0000
quench:  g(F)=  0.000E+00 g(S)=  0.000E+00 dE (1.order)= 0.000E+00
 bond charge predicted
       N       E                     dE             d eps       ncg     rms          rms(c)
DAV:   1    -0.842684290083E+03   -0.70487E-06   -0.46959E-05  4240   0.127E-02    0.216E-03
DAV:   2    -0.842684290105E+03   -0.22388E-07   -0.59045E-07  2780   0.148E-03
 197 F= -.85041864E+03 E0= -.85041864E+03  d E =-.717974E-06  mag=     0.0000
quench:  g(F)=  0.000E+00 g(S)=  0.000E+00 dE (1.order)= 0.000E+00
 bond charge predicted
       N       E                     dE             d eps       ncg     rms          rms(c)
DAV:   1    -0.842684291045E+03   -0.96249E-06   -0.70181E-05  4240   0.156E-02    0.257E-03
DAV:   2    -0.842684291084E+03   -0.38468E-07   -0.90216E-07  3120   0.182E-03
 198 F= -.85041864E+03 E0= -.85041864E+03  d E =-.883867E-06  mag=    -0.0000
quench:  g(F)=  0.000E+00 g(S)=  0.000E+00 dE (1.order)= 0.000E+00
 bond charge predicted
       N       E                     dE             d eps       ncg     rms          rms(c)
DAV:   1    -0.842684292337E+03   -0.12918E-05   -0.10350E-04  4240   0.187E-02    0.316E-03
DAV:   2    -0.842684292395E+03   -0.57873E-07   -0.13459E-06  3200   0.218E-03
 199 F= -.85041865E+03 E0= -.85041864E+03  d E =-.968550E-06  mag=    -0.0000
quench:  g(F)=  0.000E+00 g(S)=  0.000E+00 dE (1.order)= 0.000E+00
 bond charge predicted
       N       E                     dE             d eps       ncg     rms          rms(c)
DAV:   1    -0.842684294266E+03   -0.19286E-05   -0.14981E-04  4260   0.223E-02    0.379E-03
DAV:   2    -0.842684294351E+03   -0.85813E-07   -0.19299E-06  3520   0.258E-03
 200 F= -.85041865E+03 E0= -.85041865E+03  d E =-.121157E-05  mag=     0.0000
quench:  g(F)=  0.000E+00 g(S)=  0.000E+00 dE (1.order)= 0.000E+00
 bond charge predicted
       N       E                     dE             d eps       ncg     rms          rms(c)
DAV:   1    -0.842684296512E+03   -0.22462E-05   -0.22442E-04  4260   0.272E-02    0.465E-03
DAV:   2    -0.842684296655E+03   -0.14299E-06   -0.30300E-06  3780   0.317E-03
 201 F= -.85041865E+03 E0= -.85041865E+03  d E =-.163781E-05  mag=     0.0000
quench:  g(F)=  0.000E+00 g(S)=  0.000E+00 dE (1.order)= 0.000E+00
 reached required accuracy - stopping structural energy minimisation
