<?xml version="1.0" encoding="ISO-8859-1"?>
<modeling>
 <generator>
  <i name="program" type="string">vasp </i>
  <i name="version" type="string">6.4.2  </i>
  <i name="subversion" type="string">20Jul23 (build Aug 26 2025 15:10:52) complex                          parallel </i>
  <i name="platform" type="string">LinuxIFC </i>
  <i name="date" type="string">2025 12 07 </i>
  <i name="time" type="string">12:50:50 </i>
 </generator>
 <incar>
  <i type="int" name="ISTART">     0</i>
  <i type="string" name="ALGO">Normal</i>
  <i type="logical" name="ADDGRID"> T  </i>
  <i type="int" name="ISPIN">     2</i>
  <i type="int" name="IMIX">     4</i>
  <i name="AMIX">      0.20000000</i>
  <i name="BMIX">      0.00010000</i>
  <i name="AMIX_MAG">      0.80000000</i>
  <i name="BMIX_MAG">      0.00010000</i>
  <i type="int" name="ICHARG">     2</i>
  <i type="int" name="NELM">   200</i>
  <i type="int" name="IBRION">     3</i>
  <i name="EDIFF">      0.00000100</i>
  <i name="EDIFFG">     -0.03000000</i>
  <i type="int" name="NSW">  1000</i>
  <i type="int" name="ISIF">     2</i>
  <i type="int" name="ISYM">     0</i>
  <i name="ENCUT">    520.00000000</i>
  <i name="POTIM">      0.00000000</i>
  <v name="MAGMOM">      0.60000000      0.60000000      0.60000000      0.60000000      0.60000000      0.60000000      0.60000000      0.60000000      0.60000000      0.60000000      0.60000000      0.60000000      0.60000000      0.60000000      0.60000000      0.60000000      0.60000000      0.60000000      0.60000000      0.60000000
      0.60000000      0.60000000      0.60000000      0.60000000      0.60000000      0.60000000      0.60000000      0.60000000      0.60000000      0.60000000      0.60000000      0.60000000      0.60000000      0.60000000      0.60000000      0.60000000      0.60000000      0.60000000      0.60000000      0.60000000
      0.60000000      0.60000000      0.60000000      0.60000000      0.60000000      0.60000000      0.60000000      0.60000000      0.60000000      0.60000000      0.60000000      0.60000000      0.60000000      0.60000000      0.60000000      0.60000000      0.60000000      0.60000000      0.60000000      0.60000000
      0.60000000      0.60000000      0.60000000      0.60000000      0.60000000      0.60000000      0.60000000      0.60000000      0.60000000      0.60000000      0.60000000      0.60000000      0.60000000      0.60000000      0.60000000      0.60000000      0.60000000      0.60000000      0.60000000      0.60000000
      0.60000000      0.60000000      0.60000000      0.60000000      0.60000000      0.60000000      0.60000000      0.60000000      0.60000000      0.60000000      0.60000000      0.60000000      0.60000000      0.60000000      0.60000000      0.60000000      0.60000000</v>
  <i type="string" name="LREAL">Auto</i>
  <i type="int" name="ISMEAR">     0</i>
  <i name="SIGMA">      0.05000000</i>
  <i type="logical" name="LWAVE"> F  </i>
  <i type="logical" name="LCHARG"> F  </i>
  <i type="logical" name="LASPH"> T  </i>
  <i type="int" name="IVDW">    12</i>
  <i name="SPRING">     -5.00000000</i>
 </incar>
 <primitive_cell>
  <structure name="primitive_cell" >
   <crystal>
    <varray name="basis" >
     <v>      17.27103806       0.00000000       0.00000000 </v>
     <v>      -8.63551903      14.95715771       0.00000000 </v>
     <v>       0.00000000       0.00000000      15.00000000 </v>
    </varray>
    <i name="volume">   3874.88459904 </i>
    <varray name="rec_basis" >
     <v>       0.05790040       0.03342881       0.00000000 </v>
     <v>       0.00000000       0.06685762       0.00000000 </v>
     <v>       0.00000000       0.00000000       0.06666667 </v>
    </varray>
   </crystal>
   <varray name="positions" >
    <v>       0.99951543       0.99885576       0.49999607 </v>
    <v>       0.99944101       0.14162158       0.49850140 </v>
    <v>       0.99965101       0.28471849       0.49716828 </v>
    <v>       0.99958895       0.42762248       0.49652299 </v>
    <v>       0.99948146       0.57037681       0.49749843 </v>
    <v>       0.99982462       0.71318092       0.49952935 </v>
    <v>       0.00002725       0.85642724       0.50066963 </v>
    <v>       0.14312403       0.00004536       0.49862916 </v>
    <v>       0.14296158       0.14271024       0.49939416 </v>
    <v>       0.14247119       0.28514513       0.49950941 </v>
    <v>       0.14265065       0.42852048       0.49839080 </v>
    <v>       0.14274271       0.57085403       0.49679027 </v>
    <v>       0.14269592       0.71362033       0.49682343 </v>
    <v>       0.14271168       0.85679543       0.49757064 </v>
    <v>       0.28596159       0.00011890       0.49696872 </v>
    <v>       0.28667916       0.14338034       0.49903390 </v>
    <v>       0.28666855       0.28748409       0.50170291 </v>
    <v>       0.28484154       0.42857410       0.50354651 </v>
    <v>       0.28730562       0.57184425       0.50056144 </v>
    <v>       0.28568415       0.71459914       0.49719738 </v>
    <v>       0.28507693       0.85716713       0.49604232 </v>
    <v>       0.42849416       0.99954512       0.49599617 </v>
    <v>       0.42969612       0.14326907       0.49788179 </v>
    <v>       0.42909690       0.28384262       0.50038507 </v>
    <v>       0.42728812       0.85618014       0.49663458 </v>
    <v>       0.57064510       0.99867098       0.49634175 </v>
    <v>       0.57142485       0.14174917       0.49690071 </v>
    <v>       0.57522794       0.28784630       0.50010831 </v>
    <v>       0.56950637       0.85446679       0.49967193 </v>
    <v>       0.71282628       0.99756651       0.49857711 </v>
    <v>       0.71398134       0.14112163       0.49649261 </v>
    <v>       0.71450269       0.28393490       0.49816916 </v>
    <v>       0.71041560       0.42323668       0.50275372 </v>
    <v>       0.71535394       0.57001122       0.51155503 </v>
    <v>       0.71647883       0.71324672       0.51375559 </v>
    <v>       0.71156405       0.85453554       0.50489745 </v>
    <v>       0.85611402       0.99816025       0.50052767 </v>
    <v>       0.85634919       0.14113032       0.49725653 </v>
    <v>       0.85688743       0.28421661       0.49663007 </v>
    <v>       0.85666937       0.42707513       0.49852312 </v>
    <v>       0.85588417       0.56929013       0.50215773 </v>
    <v>       0.85761687       0.71297038       0.50545851 </v>
    <v>       0.85649177       0.85532678       0.50433578 </v>
    <v>       0.04746524       0.09437765       0.49912691 </v>
    <v>       0.04694940       0.23688663       0.49815977 </v>
    <v>       0.04709155       0.38018090       0.49706358 </v>
    <v>       0.04737907       0.52299138       0.49660958 </v>
    <v>       0.04730955       0.66575889       0.49773157 </v>
    <v>       0.04732634       0.80862684       0.49921153 </v>
    <v>       0.04757155       0.95166332       0.49974610 </v>
    <v>       0.19099082       0.09522500       0.49902195 </v>
    <v>       0.19059591       0.23807937       0.50020022 </v>
    <v>       0.18930883       0.38034942       0.50022351 </v>
    <v>       0.19094383       0.52404726       0.49808168 </v>
    <v>       0.19029688       0.66628835       0.49681174 </v>
    <v>       0.19011035       0.80914311       0.49667773 </v>
    <v>       0.19070162       0.95224313       0.49760101 </v>
    <v>       0.33426327       0.09583109       0.49780360 </v>
    <v>       0.33561188       0.23899381       0.50038397 </v>
    <v>       0.33085749       0.38043937       0.50423251 </v>
    <v>       0.33125964       0.52313382       0.50511852 </v>
    <v>       0.33656433       0.67007166       0.49879368 </v>
    <v>       0.33250314       0.80941683       0.49632330 </v>
    <v>       0.33306611       0.95225025       0.49615371 </v>
    <v>       0.47640110       0.09468780       0.49676852 </v>
    <v>       0.47753240       0.23892637       0.49938943 </v>
    <v>       0.47184494       0.80551639       0.49808142 </v>
    <v>       0.47563503       0.95159274       0.49608627 </v>
    <v>       0.61857343       0.09381464       0.49632134 </v>
    <v>       0.61975030       0.23714707       0.49833207 </v>
    <v>       0.61809881       0.80975037       0.50380124 </v>
    <v>       0.61738941       0.95012718       0.49791471 </v>
    <v>       0.76111704       0.09326557       0.49704991 </v>
    <v>       0.76194057       0.23619821       0.49683544 </v>
    <v>       0.76131049       0.37877445       0.49974400 </v>
    <v>       0.75950121       0.52147403       0.50558432 </v>
    <v>       0.76212389       0.66471171       0.51091763 </v>
    <v>       0.76051300       0.80607409       0.50816247 </v>
    <v>       0.76044285       0.95007797       0.50127045 </v>
    <v>       0.90389798       0.09330502       0.49850513 </v>
    <v>       0.90428223       0.23655627       0.49666354 </v>
    <v>       0.90424749       0.37974749       0.49695117 </v>
    <v>       0.90410322       0.52250945       0.49909721 </v>
    <v>       0.90424713       0.66481633       0.50241381 </v>
    <v>       0.90452718       0.80818386       0.50364398 </v>
    <v>       0.90406268       0.95061937       0.50147467 </v>
    <v>       0.46803069       0.35649419       0.50109559 </v>
    <v>       0.40353518       0.41948103       0.50477869 </v>
    <v>       0.40376912       0.55896242       0.51080947 </v>
    <v>       0.64395743       0.67454342       0.51848656 </v>
    <v>       0.64261978       0.53381274       0.51624750 </v>
    <v>       0.57936383       0.73713298       0.50618454 </v>
    <v>       0.50079207       0.59617515       0.40698195 </v>
    <v>       0.57200885       0.56881248       0.38904513 </v>
    <v>       0.42663209       0.71500779       0.49854471 </v>
    <v>       0.62040599       0.37823450       0.50260558 </v>
    <v>       0.52472826       0.55978189       0.43022414 </v>
   </varray>
  </structure>
  <varray name="primitive_index" >
   <v type="int" >        1 </v>
   <v type="int" >        2 </v>
   <v type="int" >        3 </v>
   <v type="int" >        4 </v>
   <v type="int" >        5 </v>
   <v type="int" >        6 </v>
   <v type="int" >        7 </v>
   <v type="int" >        8 </v>
   <v type="int" >        9 </v>
   <v type="int" >       10 </v>
   <v type="int" >       11 </v>
   <v type="int" >       12 </v>
   <v type="int" >       13 </v>
   <v type="int" >       14 </v>
   <v type="int" >       15 </v>
   <v type="int" >       16 </v>
   <v type="int" >       17 </v>
   <v type="int" >       18 </v>
   <v type="int" >       19 </v>
   <v type="int" >       20 </v>
   <v type="int" >       21 </v>
   <v type="int" >       22 </v>
   <v type="int" >       23 </v>
   <v type="int" >       24 </v>
   <v type="int" >       25 </v>
   <v type="int" >       26 </v>
   <v type="int" >       27 </v>
   <v type="int" >       28 </v>
   <v type="int" >       29 </v>
   <v type="int" >       30 </v>
   <v type="int" >       31 </v>
   <v type="int" >       32 </v>
   <v type="int" >       33 </v>
   <v type="int" >       34 </v>
   <v type="int" >       35 </v>
   <v type="int" >       36 </v>
   <v type="int" >       37 </v>
   <v type="int" >       38 </v>
   <v type="int" >       39 </v>
   <v type="int" >       40 </v>
   <v type="int" >       41 </v>
   <v type="int" >       42 </v>
   <v type="int" >       43 </v>
   <v type="int" >       44 </v>
   <v type="int" >       45 </v>
   <v type="int" >       46 </v>
   <v type="int" >       47 </v>
   <v type="int" >       48 </v>
   <v type="int" >       49 </v>
   <v type="int" >       50 </v>
   <v type="int" >       51 </v>
   <v type="int" >       52 </v>
   <v type="int" >       53 </v>
   <v type="int" >       54 </v>
   <v type="int" >       55 </v>
   <v type="int" >       56 </v>
   <v type="int" >       57 </v>
   <v type="int" >       58 </v>
   <v type="int" >       59 </v>
   <v type="int" >       60 </v>
   <v type="int" >       61 </v>
   <v type="int" >       62 </v>
   <v type="int" >       63 </v>
   <v type="int" >       64 </v>
   <v type="int" >       65 </v>
   <v type="int" >       66 </v>
   <v type="int" >       67 </v>
   <v type="int" >       68 </v>
   <v type="int" >       69 </v>
   <v type="int" >       70 </v>
   <v type="int" >       71 </v>
   <v type="int" >       72 </v>
   <v type="int" >       73 </v>
   <v type="int" >       74 </v>
   <v type="int" >       75 </v>
   <v type="int" >       76 </v>
   <v type="int" >       77 </v>
   <v type="int" >       78 </v>
   <v type="int" >       79 </v>
   <v type="int" >       80 </v>
   <v type="int" >       81 </v>
   <v type="int" >       82 </v>
   <v type="int" >       83 </v>
   <v type="int" >       84 </v>
   <v type="int" >       85 </v>
   <v type="int" >       86 </v>
   <v type="int" >       87 </v>
   <v type="int" >       88 </v>
   <v type="int" >       89 </v>
   <v type="int" >       90 </v>
   <v type="int" >       91 </v>
   <v type="int" >       92 </v>
   <v type="int" >       93 </v>
   <v type="int" >       94 </v>
   <v type="int" >       95 </v>
   <v type="int" >       96 </v>
   <v type="int" >       97 </v>
  </varray>
 </primitive_cell>
 <kpoints>
  <generation param="Gamma">
   <v type="int" name="divisions">       2        2        1 </v>
   <v name="usershift">      0.00000000       0.00000000       0.00000000 </v>
   <v name="genvec1">      0.50000000       0.00000000       0.00000000 </v>
   <v name="genvec2">      0.00000000       0.50000000       0.00000000 </v>
   <v name="genvec3">      0.00000000       0.00000000       1.00000000 </v>
   <v name="shift">      0.00000000       0.00000000       0.00000000 </v>
  </generation>
  <varray name="kpointlist" >
   <v>       0.00000000       0.00000000       0.00000000 </v>
   <v>       0.50000000       0.00000000       0.00000000 </v>
   <v>       0.00000000       0.50000000       0.00000000 </v>
   <v>       0.50000000       0.50000000       0.00000000 </v>
  </varray>
  <varray name="weights" >
   <v>       0.25000000 </v>
   <v>       0.25000000 </v>
   <v>       0.25000000 </v>
   <v>       0.25000000 </v>
  </varray>
 </kpoints>
 <parameters>
  <separator name="general" >
   <i type="string" name="SYSTEM">unknown system</i>
   <i type="logical" name="LCOMPAT"> F  </i>
  </separator>
  <separator name="electronic" >
   <i type="string" name="PREC">normal</i>
   <i name="ENMAX">    520.00000000</i>
   <i name="ENAUG">    644.87300000</i>
   <i name="EDIFF">      0.00000100</i>
   <i type="int" name="IALGO">    38</i>
   <i type="int" name="IWAVPR">    11</i>
   <i type="int" name="NBANDS">   265</i>
   <i type="int" name="NBANDSLOW">    -1</i>
   <i type="int" name="NBANDSHIGH">    -1</i>
   <i name="NELECT">    368.00000000</i>
   <i type="int" name="TURBO">     0</i>
   <i type="int" name="IRESTART">     0</i>
   <i type="int" name="NREBOOT">     0</i>
   <i type="int" name="NMIN">     0</i>
   <i name="EREF">      0.00000000</i>
   <separator name="electronic smearing" >
    <i type="int" name="ISMEAR">     0</i>
    <i name="SIGMA">      0.05000000</i>
    <i name="KSPACING">      0.50000000</i>
    <i type="logical" name="KGAMMA"> T  </i>
    <i type="logical" name="KBLOWUP"> T  </i>
   </separator>
   <separator name="electronic projectors" >
    <i type="logical" name="LREAL"> T  </i>
    <v name="ROPT">     -0.00050000     -0.00050000     -0.00050000     -0.00050000</v>
    <i type="int" name="LMAXPAW">  -100</i>
    <i type="int" name="LMAXMIX">     2</i>
    <i type="logical" name="NLSPLINE"> F  </i>
   </separator>
   <separator name="electronic startup" >
    <i type="int" name="ISTART">     0</i>
    <i type="int" name="ICHARG">     2</i>
    <i type="int" name="INIWAV">     1</i>
   </separator>
   <separator name="electronic spin" >
    <i type="int" name="ISPIN">     2</i>
    <i type="logical" name="LNONCOLLINEAR"> F  </i>
    <v name="MAGMOM">      0.60000000      0.60000000      0.60000000      0.60000000      0.60000000      0.60000000      0.60000000      0.60000000      0.60000000      0.60000000      0.60000000      0.60000000      0.60000000      0.60000000      0.60000000      0.60000000      0.60000000      0.60000000      0.60000000      0.60000000
      0.60000000      0.60000000      0.60000000      0.60000000      0.60000000      0.60000000      0.60000000      0.60000000      0.60000000      0.60000000      0.60000000      0.60000000      0.60000000      0.60000000      0.60000000      0.60000000      0.60000000      0.60000000      0.60000000      0.60000000
      0.60000000      0.60000000      0.60000000      0.60000000      0.60000000      0.60000000      0.60000000      0.60000000      0.60000000      0.60000000      0.60000000      0.60000000      0.60000000      0.60000000      0.60000000      0.60000000      0.60000000      0.60000000      0.60000000      0.60000000
      0.60000000      0.60000000      0.60000000      0.60000000      0.60000000      0.60000000      0.60000000      0.60000000      0.60000000      0.60000000      0.60000000      0.60000000      0.60000000      0.60000000      0.60000000      0.60000000      0.60000000      0.60000000      0.60000000      0.60000000
      0.60000000      0.60000000      0.60000000      0.60000000      0.60000000      0.60000000      0.60000000      0.60000000      0.60000000      0.60000000      0.60000000      0.60000000      0.60000000      0.60000000      0.60000000      0.60000000      0.60000000</v>
    <i name="NUPDOWN">     -1.00000000</i>
    <i type="logical" name="LSORBIT"> F  </i>
    <v name="SAXIS">      0.00000000      0.00000000      1.00000000</v>
    <i type="logical" name="LSPIRAL"> F  </i>
    <v name="QSPIRAL">      0.00000000      0.00000000      0.00000000</v>
    <i type="logical" name="LZEROZ"> F  </i>
   </separator>
   <separator name="electronic exchange-correlation" >
    <i type="logical" name="LASPH"> T  </i>
    <i type="logical" name="LMETAGGA"> F  </i>
   </separator>
   <separator name="electronic convergence" >
    <i type="int" name="NELM">   200</i>
    <i type="int" name="NELMDL">    -5</i>
    <i type="int" name="NELMIN">     2</i>
    <i name="ENINI">    520.00000000</i>
    <separator name="electronic convergence detail" >
     <i type="logical" name="LDIAG"> T  </i>
     <i type="logical" name="LSUBROT"> F  </i>
     <i name="WEIMIN">      0.00100000</i>
     <i name="EBREAK">      0.00000000</i>
     <i name="DEPER">      0.30000000</i>
     <i type="int" name="NRMM">     4</i>
     <i name="TIME">      0.40000000</i>
    </separator>
   </separator>
   <separator name="electronic mixer" >
    <i name="AMIX">      0.20000000</i>
    <i name="BMIX">      0.00010000</i>
    <i name="AMIN">      0.10000000</i>
    <i name="AMIX_MAG">      0.80000000</i>
    <i name="BMIX_MAG">      0.00010000</i>
    <separator name="electronic mixer details" >
     <i type="int" name="IMIX">     4</i>
     <i type="logical" name="MIXFIRST"> F  </i>
     <i type="int" name="MAXMIX">   -45</i>
     <i name="WC">    100.00000000</i>
     <i type="int" name="INIMIX">     1</i>
     <i type="int" name="MIXPRE">     1</i>
     <i type="int" name="MREMOVE">     5</i>
    </separator>
   </separator>
   <separator name="electronic dipolcorrection" >
    <i type="logical" name="LDIPOL"> F  </i>
    <i type="logical" name="LMONO"> F  </i>
    <i type="int" name="IDIPOL">     0</i>
    <i name="EPSILON">      1.00000000</i>
    <v name="DIPOL">   -100.00000000   -100.00000000   -100.00000000</v>
    <i name="EFIELD">      0.00000000</i>
   </separator>
  </separator>
  <separator name="grids" >
   <i type="int" name="NGX">    96</i>
   <i type="int" name="NGY">    96</i>
   <i type="int" name="NGZ">    84</i>
   <i type="int" name="NGXF">   192</i>
   <i type="int" name="NGYF">   192</i>
   <i type="int" name="NGZF">   168</i>
   <i type="logical" name="ADDGRID"> T  </i>
  </separator>
  <separator name="ionic" >
   <i type="int" name="NSW">  1000</i>
   <i type="int" name="IBRION">     3</i>
   <i type="int" name="MDALGO">     0</i>
   <i type="int" name="ISIF">     2</i>
   <i name="PSTRESS">      0.00000000</i>
   <i name="EDIFFG">     -0.03000000</i>
   <i type="int" name="NFREE">     0</i>
   <i name="POTIM">      0.00000000</i>
   <i name="SMASS">     -3.00000000</i>
   <i name="SCALEE">      1.00000000</i>
  </separator>
  <separator name="ionic md" >
   <i name="TEBEG">      0.00010000</i>
   <i name="TEEND">      0.00010000</i>
   <i type="int" name="NBLOCK">     1</i>
   <i type="int" name="KBLOCK">  1000</i>
   <i type="int" name="NPACO">   256</i>
   <i name="APACO">     10.00000000</i>
  </separator>
  <separator name="symmetry" >
   <i type="int" name="ISYM">     0</i>
   <i name="SYMPREC">      0.00001000</i>
  </separator>
  <separator name="dos" >
   <i type="int" name="LORBIT">     0</i>
   <v name="RWIGS">     -1.00000000     -1.00000000     -1.00000000     -1.00000000</v>
   <i type="int" name="NEDOS">   301</i>
   <i name="EMIN">     10.00000000</i>
   <i name="EMAX">    -10.00000000</i>
   <i name="EFERMI">      0.00000000</i>
  </separator>
  <separator name="writing" >
   <i type="int" name="NWRITE">     2</i>
   <i type="logical" name="LWAVE"> F  </i>
   <i type="logical" name="LDOWNSAMPLE"> F  </i>
   <i type="logical" name="LCHARG"> F  </i>
   <i type="logical" name="LPARD"> F  </i>
   <i type="logical" name="LVTOT"> F  </i>
   <i type="logical" name="LVHAR"> F  </i>
   <i type="logical" name="LELF"> F  </i>
   <i type="logical" name="LOPTICS"> F  </i>
   <v name="STM">      0.00000000      0.00000000      0.00000000      0.00000000      0.00000000      0.00000000      0.00000000</v>
  </separator>
  <separator name="performance" >
   <i type="int" name="NPAR">     5</i>
   <i type="int" name="NSIM">     4</i>
   <i type="int" name="NBLK">    -1</i>
   <i type="logical" name="LPLANE"> T  </i>
   <i type="logical" name="LSCALAPACK"> T  </i>
   <i type="logical" name="LSCAAWARE"> F  </i>
   <i type="logical" name="LSCALU"> F  </i>
   <i type="logical" name="LASYNC"> F  </i>
   <i type="logical" name="LORBITALREAL"> F  </i>
  </separator>
  <separator name="miscellaneous" >
   <i type="int" name="IDIOT">     3</i>
   <i type="int" name="PHON_NSTRUCT">    -1</i>
   <i type="logical" name="LMUSIC"> F  </i>
   <v name="POMASS">     12.01100000      1.00000000     14.00100000     16.00000000</v>
   <v name="DARWINR">      0.00000000      0.00000000      0.00000000      0.00000000</v>
   <v name="DARWINV">      1.00000000      1.00000000      1.00000000      1.00000000</v>
   <i type="logical" name="LCORR"> T  </i>
  </separator>
  <i type="logical" name="GGA_COMPAT"> T  </i>
  <i type="logical" name="LBERRY"> F  </i>
  <i type="int" name="ICORELEVEL">     0</i>
  <i type="logical" name="LDAU"> F  </i>
  <i type="int" name="I_CONSTRAINED_M">     0</i>
  <separator name="electronic exchange-correlation" >
   <i type="string" name="GGA">--</i>
   <i type="int" name="VOSKOWN">     0</i>
   <i type="logical" name="LHFCALC"> F  </i>
   <i type="string" name="PRECFOCK"></i>
   <i type="logical" name="LSYMGRAD"> F  </i>
   <i type="logical" name="LHFONE"> F  </i>
   <i type="logical" name="LRHFCALC"> F  </i>
   <i type="logical" name="LTHOMAS"> F  </i>
   <i type="logical" name="LMODELHF"> F  </i>
   <i type="logical" name="LFOCKACE"> F  </i>
   <i name="ENCUT4O">     -1.00000000</i>
   <i type="int" name="EXXOEP">     0</i>
   <i type="int" name="FOURORBIT">     0</i>
   <i name="AEXX">      0.00000000</i>
   <i name="HFALPHA">      0.00000000</i>
   <i name="MCALPHA">      0.00000000</i>
   <i name="ALDAX">      1.00000000</i>
   <i name="AGGAX">      1.00000000</i>
   <i name="ALDAC">      1.00000000</i>
   <i name="AGGAC">      1.00000000</i>
   <i type="int" name="NKREDX">     1</i>
   <i type="int" name="NKREDY">     1</i>
   <i type="int" name="NKREDZ">     1</i>
   <i type="logical" name="SHIFTRED"> F  </i>
   <i type="logical" name="ODDONLY"> F  </i>
   <i type="logical" name="EVENONLY"> F  </i>
   <i type="int" name="LMAXFOCK">     0</i>
   <i type="int" name="NMAXFOCKAE">     0</i>
   <i type="logical" name="LFOCKAEDFT"> F  </i>
   <i name="HFSCREEN">      0.00000000</i>
   <i name="HFSCREENC">      0.00000000</i>
   <i type="int" name="NBANDSGWLOW">     0</i>
  </separator>
  <separator name="vdW DFT" >
   <i type="logical" name="LUSE_VDW"> F  </i>
   <i type="int" name="IVDW_NL">     1</i>
   <i type="logical" name="LSPIN_VDW"> F  </i>
   <i name="Zab_VDW">     -0.84910000</i>
   <i name="PARAM1">      0.12340000</i>
   <i name="PARAM2">      1.00000000</i>
   <i name="PARAM3">      0.00000000</i>
  </separator>
  <separator name="model GW" >
   <i type="int" name="MODEL_GW">     0</i>
   <i name="MODEL_EPS0">     23.96835834</i>
   <i name="MODEL_ALPHA">      1.00000000</i>
  </separator>
  <separator name="linear response parameters" >
   <i type="logical" name="LEPSILON"> F  </i>
   <i type="logical" name="LRPA"> F  </i>
   <i type="logical" name="LNABLA"> F  </i>
   <i type="logical" name="LVEL"> F  </i>
   <i name="CSHIFT">      0.10000000</i>
   <i name="OMEGAMAX">     -1.00000000</i>
   <i name="DEG_THRESHOLD">      0.00200000</i>
   <i name="RTIME">     -0.10000000</i>
   <i name="WPLASMAI">      0.00000000</i>
   <v name="DFIELD">      0.00000000      0.00000000      0.00000000</v>
   <v name="WPLASMA">      0.00000000      0.00000000      0.00000000      0.00000000      0.00000000      0.00000000      0.00000000      0.00000000      0.00000000</v>
  </separator>
  <separator name="orbital magnetization" >
   <i type="logical" name="NUCIND"> F  </i>
   <v name="MAGPOS">      0.00000000      0.00000000      0.00000000</v>
   <i type="logical" name="LNICSALL"> T  </i>
   <i type="logical" name="ORBITALMAG"> F  </i>
   <i type="logical" name="LMAGBLOCH"> F  </i>
   <i type="logical" name="LCHIMAG"> F  </i>
   <i type="logical" name="LGAUGE"> T  </i>
   <i type="int" name="MAGATOM">     0</i>
   <v name="MAGDIPOL">      0.00000000      0.00000000      0.00000000</v>
   <v name="AVECCONST">      0.00000000      0.00000000      0.00000000</v>
  </separator>
  <separator name="response functions" >
   <i type="logical" name="LALL_IN_ONE"> F  </i>
   <i type="int" name="IALL_IN_ONE">    -1</i>
   <i type="int" name="NBANDS_WAVE">    -1</i>
   <i type="logical" name="LFINITE_TEMPERATURE"> F  </i>
   <i type="logical" name="LADDER"> F  </i>
   <i type="logical" name="LRPAFORCE"> F  </i>
   <i type="logical" name="LFXC"> F  </i>
   <i type="logical" name="LHARTREE"> T  </i>
   <i type="int" name="IBSE">     0</i>
   <v type="int" name="KPOINT">    -1     0     0     0</v>
   <i type="logical" name="LTCTC"> F  </i>
   <i type="logical" name="LTCTE"> F  </i>
   <i type="logical" name="LTETE"> F  </i>
   <i type="logical" name="LTRIPLET"> F  </i>
   <i type="logical" name="LFXCEPS"> F  </i>
   <i type="logical" name="LFXHEG"> F  </i>
   <i type="int" name="NATURALO">     2</i>
   <i type="logical" name="LHOLEGF"> F  </i>
   <i type="logical" name="L2ORDER"> F  </i>
   <i type="logical" name="LDMP1"> F  </i>
   <i type="logical" name="LMP2LT"> F  </i>
   <i type="logical" name="LSMP2LT"> F  </i>
   <i type="logical" name="LGWLF"> F  </i>
   <i name="ENCUTGW">     -1.60000002</i>
   <i name="ENCUTGWSOFT">     -1.60000002</i>
   <i name="ENCUTLF">     -1.00000000</i>
   <i type="logical" name="LESF_SPLINES"> F  </i>
   <i type="int" name="LMAXMP2">    -1</i>
   <i name="SCISSOR">      0.00000000</i>
   <i type="int" name="NOMEGA">     0</i>
   <i type="int" name="NOMEGAR">     0</i>
   <i type="int" name="NBANDSGW">    -1</i>
   <i type="int" name="NBANDSO">    -1</i>
   <i type="int" name="NBANDSV">    -1</i>
   <i type="int" name="NELMGW">     1</i>
   <i type="int" name="NELMHF">     1</i>
   <i type="int" name="DIM">     3</i>
   <i type="int" name="IESPILON">     4</i>
   <i type="int" name="ANTIRES">     0</i>
   <i name="OMEGAMAX">    -30.00000000</i>
   <i name="OMEGAMIN">    -30.00000000</i>
   <i name="OMEGATL">   -200.00000000</i>
   <i type="int" name="OMEGAGRID">     0</i>
   <i name="CSHIFT">     -0.10000000</i>
   <i type="logical" name="LSELFENERGY"> F  </i>
   <i type="logical" name="LSPECTRAL"> F  </i>
   <i type="logical" name="LSPECTRALGW"> F  </i>
   <i type="logical" name="LSINGLES"> F  </i>
   <i type="logical" name="LFERMIGW"> F  </i>
   <i type="logical" name="ODDONLYGW"> F  </i>
   <i type="logical" name="EVENONLYGW"> F  </i>
   <i type="int" name="NKREDLFX">     1</i>
   <i type="int" name="NKREDLFY">     1</i>
   <i type="int" name="NKREDLFZ">     1</i>
   <i type="int" name="MAXMEM">  2800</i>
   <i type="int" name="TELESCOPE">     0</i>
   <i type="int" name="NTAUPAR">    -1</i>
   <i type="int" name="NOMEGAPAR">    -1</i>
   <i name="DAMP_NEWTON">      0.80000001</i>
   <i name="LAMBDA">      1.00000000</i>
  </separator>
  <separator name="External order field" >
   <i name="OFIELD_KAPPA">      0.00000000</i>
   <v name="OFIELD_K">      0.00000000      0.00000000      0.00000000</v>
   <i name="OFIELD_Q6_NEAR">      0.00000000</i>
   <i name="OFIELD_Q6_FAR">      0.00000000</i>
   <i name="OFIELD_A">      0.00000000</i>
  </separator>
  <separator name="optional k-points parameters" >
   <i type="int" name="KPOINTS_OPT_MODE">     1</i>
   <i type="logical" name="LKPOINTS_OPT"> F  </i>
  </separator>
 </parameters>
 <atominfo>
  <atoms>      97 </atoms>
  <types>       4 </types>
  <array name="atoms" >
   <dimension dim="1">ion</dimension>
   <field type="string">element</field>
   <field type="int">atomtype</field>
   <set>
    <rc><c>C </c><c>   1</c></rc>
    <rc><c>C </c><c>   1</c></rc>
    <rc><c>C </c><c>   1</c></rc>
    <rc><c>C </c><c>   1</c></rc>
    <rc><c>C </c><c>   1</c></rc>
    <rc><c>C </c><c>   1</c></rc>
    <rc><c>C </c><c>   1</c></rc>
    <rc><c>C </c><c>   1</c></rc>
    <rc><c>C </c><c>   1</c></rc>
    <rc><c>C </c><c>   1</c></rc>
    <rc><c>C </c><c>   1</c></rc>
    <rc><c>C </c><c>   1</c></rc>
    <rc><c>C </c><c>   1</c></rc>
    <rc><c>C </c><c>   1</c></rc>
    <rc><c>C </c><c>   1</c></rc>
    <rc><c>C </c><c>   1</c></rc>
    <rc><c>C </c><c>   1</c></rc>
    <rc><c>C </c><c>   1</c></rc>
    <rc><c>C </c><c>   1</c></rc>
    <rc><c>C </c><c>   1</c></rc>
    <rc><c>C </c><c>   1</c></rc>
    <rc><c>C </c><c>   1</c></rc>
    <rc><c>C </c><c>   1</c></rc>
    <rc><c>C </c><c>   1</c></rc>
    <rc><c>C </c><c>   1</c></rc>
    <rc><c>C </c><c>   1</c></rc>
    <rc><c>C </c><c>   1</c></rc>
    <rc><c>C </c><c>   1</c></rc>
    <rc><c>C </c><c>   1</c></rc>
    <rc><c>C </c><c>   1</c></rc>
    <rc><c>C </c><c>   1</c></rc>
    <rc><c>C </c><c>   1</c></rc>
    <rc><c>C </c><c>   1</c></rc>
    <rc><c>C </c><c>   1</c></rc>
    <rc><c>C </c><c>   1</c></rc>
    <rc><c>C </c><c>   1</c></rc>
    <rc><c>C </c><c>   1</c></rc>
    <rc><c>C </c><c>   1</c></rc>
    <rc><c>C </c><c>   1</c></rc>
    <rc><c>C </c><c>   1</c></rc>
    <rc><c>C </c><c>   1</c></rc>
    <rc><c>C </c><c>   1</c></rc>
    <rc><c>C </c><c>   1</c></rc>
    <rc><c>C </c><c>   1</c></rc>
    <rc><c>C </c><c>   1</c></rc>
    <rc><c>C </c><c>   1</c></rc>
    <rc><c>C </c><c>   1</c></rc>
    <rc><c>C </c><c>   1</c></rc>
    <rc><c>C </c><c>   1</c></rc>
    <rc><c>C </c><c>   1</c></rc>
    <rc><c>C </c><c>   1</c></rc>
    <rc><c>C </c><c>   1</c></rc>
    <rc><c>C </c><c>   1</c></rc>
    <rc><c>C </c><c>   1</c></rc>
    <rc><c>C </c><c>   1</c></rc>
    <rc><c>C </c><c>   1</c></rc>
    <rc><c>C </c><c>   1</c></rc>
    <rc><c>C </c><c>   1</c></rc>
    <rc><c>C </c><c>   1</c></rc>
    <rc><c>C </c><c>   1</c></rc>
    <rc><c>C </c><c>   1</c></rc>
    <rc><c>C </c><c>   1</c></rc>
    <rc><c>C </c><c>   1</c></rc>
    <rc><c>C </c><c>   1</c></rc>
    <rc><c>C </c><c>   1</c></rc>
    <rc><c>C </c><c>   1</c></rc>
    <rc><c>C </c><c>   1</c></rc>
    <rc><c>C </c><c>   1</c></rc>
    <rc><c>C </c><c>   1</c></rc>
    <rc><c>C </c><c>   1</c></rc>
    <rc><c>C </c><c>   1</c></rc>
    <rc><c>C </c><c>   1</c></rc>
    <rc><c>C </c><c>   1</c></rc>
    <rc><c>C </c><c>   1</c></rc>
    <rc><c>C </c><c>   1</c></rc>
    <rc><c>C </c><c>   1</c></rc>
    <rc><c>C </c><c>   1</c></rc>
    <rc><c>C </c><c>   1</c></rc>
    <rc><c>C </c><c>   1</c></rc>
    <rc><c>C </c><c>   1</c></rc>
    <rc><c>C </c><c>   1</c></rc>
    <rc><c>C </c><c>   1</c></rc>
    <rc><c>C </c><c>   1</c></rc>
    <rc><c>C </c><c>   1</c></rc>
    <rc><c>C </c><c>   1</c></rc>
    <rc><c>C </c><c>   1</c></rc>
    <rc><c>H </c><c>   2</c></rc>
    <rc><c>H </c><c>   2</c></rc>
    <rc><c>H </c><c>   2</c></rc>
    <rc><c>H </c><c>   2</c></rc>
    <rc><c>H </c><c>   2</c></rc>
    <rc><c>H </c><c>   2</c></rc>
    <rc><c>H </c><c>   2</c></rc>
    <rc><c>H </c><c>   2</c></rc>
    <rc><c>N </c><c>   3</c></rc>
    <rc><c>N </c><c>   3</c></rc>
    <rc><c>O </c><c>   4</c></rc>
   </set>
  </array>
  <array name="atomtypes" >
   <dimension dim="1">type</dimension>
   <field type="int">atomspertype</field>
   <field type="string">element</field>
   <field>mass</field>
   <field>valence</field>
   <field type="string">pseudopotential</field>
   <set>
    <rc><c>  86</c><c>C </c><c>     12.01100000</c><c>      4.00000000</c><c>  PAW_PBE C 08Apr2002                   </c></rc>
    <rc><c>   8</c><c>H </c><c>      1.00000000</c><c>      1.00000000</c><c>  PAW_PBE H 15Jun2001                   </c></rc>
    <rc><c>   2</c><c>N </c><c>     14.00100000</c><c>      5.00000000</c><c>  PAW_PBE N 08Apr2002                   </c></rc>
    <rc><c>   1</c><c>O </c><c>     16.00000000</c><c>      6.00000000</c><c>  PAW_PBE O 08Apr2002                   </c></rc>
   </set>
  </array>
 </atominfo>
 <structure name="initialpos" >
  <crystal>
   <varray name="basis" >
    <v>      17.27103806       0.00000000       0.00000000 </v>
    <v>      -8.63551903      14.95715771       0.00000000 </v>
    <v>       0.00000000       0.00000000      15.00000000 </v>
   </varray>
   <i name="volume">   3874.88459904 </i>
   <varray name="rec_basis" >
    <v>       0.05790040       0.03342881       0.00000000 </v>
    <v>       0.00000000       0.06685762       0.00000000 </v>
    <v>       0.00000000       0.00000000       0.06666667 </v>
   </varray>
  </crystal>
  <varray name="positions" >
   <v>       0.99951543       0.99885576       0.49999607 </v>
   <v>       0.99944101       0.14162158       0.49850140 </v>
   <v>       0.99965101       0.28471849       0.49716828 </v>
   <v>       0.99958895       0.42762248       0.49652299 </v>
   <v>       0.99948146       0.57037681       0.49749843 </v>
   <v>       0.99982462       0.71318092       0.49952935 </v>
   <v>       0.00002725       0.85642724       0.50066963 </v>
   <v>       0.14312403       0.00004536       0.49862916 </v>
   <v>       0.14296158       0.14271024       0.49939416 </v>
   <v>       0.14247119       0.28514513       0.49950941 </v>
   <v>       0.14265065       0.42852048       0.49839080 </v>
   <v>       0.14274271       0.57085403       0.49679027 </v>
   <v>       0.14269592       0.71362033       0.49682343 </v>
   <v>       0.14271168       0.85679543       0.49757064 </v>
   <v>       0.28596159       0.00011890       0.49696872 </v>
   <v>       0.28667916       0.14338034       0.49903390 </v>
   <v>       0.28666855       0.28748409       0.50170291 </v>
   <v>       0.28484154       0.42857410       0.50354651 </v>
   <v>       0.28730562       0.57184425       0.50056144 </v>
   <v>       0.28568415       0.71459914       0.49719738 </v>
   <v>       0.28507693       0.85716713       0.49604232 </v>
   <v>       0.42849416       0.99954512       0.49599617 </v>
   <v>       0.42969612       0.14326907       0.49788179 </v>
   <v>       0.42909690       0.28384262       0.50038507 </v>
   <v>       0.42728812       0.85618014       0.49663458 </v>
   <v>       0.57064510       0.99867098       0.49634175 </v>
   <v>       0.57142485       0.14174917       0.49690071 </v>
   <v>       0.57522794       0.28784630       0.50010831 </v>
   <v>       0.56950637       0.85446679       0.49967193 </v>
   <v>       0.71282628       0.99756651       0.49857711 </v>
   <v>       0.71398134       0.14112163       0.49649261 </v>
   <v>       0.71450269       0.28393490       0.49816916 </v>
   <v>       0.71041560       0.42323668       0.50275372 </v>
   <v>       0.71535394       0.57001122       0.51155503 </v>
   <v>       0.71647883       0.71324672       0.51375559 </v>
   <v>       0.71156405       0.85453554       0.50489745 </v>
   <v>       0.85611402       0.99816025       0.50052767 </v>
   <v>       0.85634919       0.14113032       0.49725653 </v>
   <v>       0.85688743       0.28421661       0.49663007 </v>
   <v>       0.85666937       0.42707513       0.49852312 </v>
   <v>       0.85588417       0.56929013       0.50215773 </v>
   <v>       0.85761687       0.71297038       0.50545851 </v>
   <v>       0.85649177       0.85532678       0.50433578 </v>
   <v>       0.04746524       0.09437765       0.49912691 </v>
   <v>       0.04694940       0.23688663       0.49815977 </v>
   <v>       0.04709155       0.38018090       0.49706358 </v>
   <v>       0.04737907       0.52299138       0.49660958 </v>
   <v>       0.04730955       0.66575889       0.49773157 </v>
   <v>       0.04732634       0.80862684       0.49921153 </v>
   <v>       0.04757155       0.95166332       0.49974610 </v>
   <v>       0.19099082       0.09522500       0.49902195 </v>
   <v>       0.19059591       0.23807937       0.50020022 </v>
   <v>       0.18930883       0.38034942       0.50022351 </v>
   <v>       0.19094383       0.52404726       0.49808168 </v>
   <v>       0.19029688       0.66628835       0.49681174 </v>
   <v>       0.19011035       0.80914311       0.49667773 </v>
   <v>       0.19070162       0.95224313       0.49760101 </v>
   <v>       0.33426327       0.09583109       0.49780360 </v>
   <v>       0.33561188       0.23899381       0.50038397 </v>
   <v>       0.33085749       0.38043937       0.50423251 </v>
   <v>       0.33125964       0.52313382       0.50511852 </v>
   <v>       0.33656433       0.67007166       0.49879368 </v>
   <v>       0.33250314       0.80941683       0.49632330 </v>
   <v>       0.33306611       0.95225025       0.49615371 </v>
   <v>       0.47640110       0.09468780       0.49676852 </v>
   <v>       0.47753240       0.23892637       0.49938943 </v>
   <v>       0.47184494       0.80551639       0.49808142 </v>
   <v>       0.47563503       0.95159274       0.49608627 </v>
   <v>       0.61857343       0.09381464       0.49632134 </v>
   <v>       0.61975030       0.23714707       0.49833207 </v>
   <v>       0.61809881       0.80975037       0.50380124 </v>
   <v>       0.61738941       0.95012718       0.49791471 </v>
   <v>       0.76111704       0.09326557       0.49704991 </v>
   <v>       0.76194057       0.23619821       0.49683544 </v>
   <v>       0.76131049       0.37877445       0.49974400 </v>
   <v>       0.75950121       0.52147403       0.50558432 </v>
   <v>       0.76212389       0.66471171       0.51091763 </v>
   <v>       0.76051300       0.80607409       0.50816247 </v>
   <v>       0.76044285       0.95007797       0.50127045 </v>
   <v>       0.90389798       0.09330502       0.49850513 </v>
   <v>       0.90428223       0.23655627       0.49666354 </v>
   <v>       0.90424749       0.37974749       0.49695117 </v>
   <v>       0.90410322       0.52250945       0.49909721 </v>
   <v>       0.90424713       0.66481633       0.50241381 </v>
   <v>       0.90452718       0.80818386       0.50364398 </v>
   <v>       0.90406268       0.95061937       0.50147467 </v>
   <v>       0.46803069       0.35649419       0.50109559 </v>
   <v>       0.40353518       0.41948103       0.50477869 </v>
   <v>       0.40376912       0.55896242       0.51080947 </v>
   <v>       0.64395743       0.67454342       0.51848656 </v>
   <v>       0.64261978       0.53381274       0.51624750 </v>
   <v>       0.57936383       0.73713298       0.50618454 </v>
   <v>       0.50079207       0.59617515       0.40698195 </v>
   <v>       0.57200885       0.56881248       0.38904513 </v>
   <v>       0.42663209       0.71500779       0.49854471 </v>
   <v>       0.62040599       0.37823450       0.50260558 </v>
   <v>       0.52472826       0.55978189       0.43022414 </v>
  </varray>
  <varray name="selective"  type="logical" >
   <v type="logical" >  T  T  T </v>
   <v type="logical" >  T  T  T </v>
   <v type="logical" >  T  T  T </v>
   <v type="logical" >  T  T  T </v>
   <v type="logical" >  T  T  T </v>
   <v type="logical" >  T  T  T </v>
   <v type="logical" >  T  T  T </v>
   <v type="logical" >  T  T  T </v>
   <v type="logical" >  T  T  T </v>
   <v type="logical" >  T  T  T </v>
   <v type="logical" >  T  T  T </v>
   <v type="logical" >  T  T  T </v>
   <v type="logical" >  T  T  T </v>
   <v type="logical" >  T  T  T </v>
   <v type="logical" >  T  T  T </v>
   <v type="logical" >  T  T  T </v>
   <v type="logical" >  T  T  T </v>
   <v type="logical" >  T  T  T </v>
   <v type="logical" >  T  T  T </v>
   <v type="logical" >  T  T  T </v>
   <v type="logical" >  T  T  T </v>
   <v type="logical" >  T  T  T </v>
   <v type="logical" >  T  T  T </v>
   <v type="logical" >  T  T  T </v>
   <v type="logical" >  T  T  T </v>
   <v type="logical" >  T  T  T </v>
   <v type="logical" >  T  T  T </v>
   <v type="logical" >  T  T  T </v>
   <v type="logical" >  T  T  T </v>
   <v type="logical" >  T  T  T </v>
   <v type="logical" >  T  T  T </v>
   <v type="logical" >  T  T  T </v>
   <v type="logical" >  T  T  T </v>
   <v type="logical" >  T  T  T </v>
   <v type="logical" >  T  T  T </v>
   <v type="logical" >  T  T  T </v>
   <v type="logical" >  T  T  T </v>
   <v type="logical" >  T  T  T </v>
   <v type="logical" >  T  T  T </v>
   <v type="logical" >  T  T  T </v>
   <v type="logical" >  T  T  T </v>
   <v type="logical" >  T  T  T </v>
   <v type="logical" >  T  T  T </v>
   <v type="logical" >  T  T  T </v>
   <v type="logical" >  T  T  T </v>
   <v type="logical" >  T  T  T </v>
   <v type="logical" >  T  T  T </v>
   <v type="logical" >  T  T  T </v>
   <v type="logical" >  T  T  T </v>
   <v type="logical" >  T  T  T </v>
   <v type="logical" >  T  T  T </v>
   <v type="logical" >  T  T  T </v>
   <v type="logical" >  T  T  T </v>
   <v type="logical" >  T  T  T </v>
   <v type="logical" >  T  T  T </v>
   <v type="logical" >  T  T  T </v>
   <v type="logical" >  T  T  T </v>
   <v type="logical" >  T  T  T </v>
   <v type="logical" >  T  T  T </v>
   <v type="logical" >  T  T  T </v>
   <v type="logical" >  T  T  T </v>
   <v type="logical" >  T  T  T </v>
   <v type="logical" >  T  T  T </v>
   <v type="logical" >  T  T  T </v>
   <v type="logical" >  T  T  T </v>
   <v type="logical" >  T  T  T </v>
   <v type="logical" >  T  T  T </v>
   <v type="logical" >  T  T  T </v>
   <v type="logical" >  T  T  T </v>
   <v type="logical" >  T  T  T </v>
   <v type="logical" >  T  T  T </v>
   <v type="logical" >  T  T  T </v>
   <v type="logical" >  T  T  T </v>
   <v type="logical" >  T  T  T </v>
   <v type="logical" >  T  T  T </v>
   <v type="logical" >  T  T  T </v>
   <v type="logical" >  T  T  T </v>
   <v type="logical" >  T  T  T </v>
   <v type="logical" >  T  T  T </v>
   <v type="logical" >  T  T  T </v>
   <v type="logical" >  T  T  T </v>
   <v type="logical" >  T  T  T </v>
   <v type="logical" >  T  T  T </v>
   <v type="logical" >  T  T  T </v>
   <v type="logical" >  T  T  T </v>
   <v type="logical" >  T  T  T </v>
   <v type="logical" >  T  T  T </v>
   <v type="logical" >  T  T  T </v>
   <v type="logical" >  T  T  T </v>
   <v type="logical" >  T  T  T </v>
   <v type="logical" >  T  T  T </v>
   <v type="logical" >  T  T  T </v>
   <v type="logical" >  T  T  T </v>
   <v type="logical" >  T  T  T </v>
   <v type="logical" >  T  T  T </v>
   <v type="logical" >  T  T  T </v>
   <v type="logical" >  T  T  T </v>
  </varray>
  <nose>
   <v>      -3.00000000       0.00000000       0.00010000       0.00010000 </v>
  </nose>
 </structure>
 <calculation>
  <scstep>
   <time name="dav">   74.18   74.63</time>
   <time name="total">   79.60   80.14</time>
   <energy>
    <i name="alphaZ">    175.87611319 </i>
    <i name="ewald">  36447.36299756 </i>
    <i name="hartreedc"> -46648.83701368 </i>
    <i name="XCdc">   1223.68729805 </i>
    <i name="pawpsdc">  10101.41315093 </i>
    <i name="pawaedc"> -10154.35997595 </i>
    <i name="eentropy">     -0.04752901 </i>
    <i name="bandstr">  -1597.77467443 </i>
    <i name="atom">  13716.13071916 </i>
    <i name="e_fr_energy">   3263.45108582 </i>
    <i name="e_wo_entrp">   3263.49861482 </i>
    <i name="e_0_energy">   3263.47485032 </i>
   </energy>
  </scstep>
  <scstep>
   <time name="dav">   95.93   96.54</time>
   <time name="total">   95.93   96.56</time>
   <energy>
    <i name="e_fr_energy">   -251.94176502 </i>
    <i name="e_wo_entrp">   -251.94172402 </i>
    <i name="e_0_energy">   -251.94174452 </i>
   </energy>
  </scstep>
  <scstep>
   <time name="dav">   82.86   83.42</time>
   <time name="total">   82.86   83.44</time>
   <energy>
    <i name="e_fr_energy">   -864.50172816 </i>
    <i name="e_wo_entrp">   -864.50168806 </i>
    <i name="e_0_energy">   -864.50170811 </i>
   </energy>
  </scstep>
  <scstep>
   <time name="dav">   84.62   85.20</time>
   <time name="total">   84.62   85.21</time>
   <energy>
    <i name="e_fr_energy">   -886.64099234 </i>
    <i name="e_wo_entrp">   -886.64095647 </i>
    <i name="e_0_energy">   -886.64097440 </i>
   </energy>
  </scstep>
  <scstep>
   <time name="dav">   92.40   93.01</time>
   <time name="total">   98.01   98.67</time>
   <energy>
    <i name="e_fr_energy">   -887.26930137 </i>
    <i name="e_wo_entrp">   -887.26926424 </i>
    <i name="e_0_energy">   -887.26928281 </i>
   </energy>
  </scstep>
  <scstep>
   <time name="dav">   82.50   83.03</time>
   <time name="total">   93.76   94.40</time>
   <energy>
    <i name="e_fr_energy">   -869.92146189 </i>
    <i name="e_wo_entrp">   -869.91615880 </i>
    <i name="e_0_energy">   -869.91881034 </i>
   </energy>
  </scstep>
  <scstep>
   <time name="dav">   79.66   80.16</time>
   <time name="total">   90.67   91.27</time>
   <energy>
    <i name="e_fr_energy">   -847.72877685 </i>
    <i name="e_wo_entrp">   -847.72870741 </i>
    <i name="e_0_energy">   -847.72874213 </i>
   </energy>
  </scstep>
  <scstep>
   <time name="dav">   81.28   81.80</time>
   <time name="total">   92.49   93.11</time>
   <energy>
    <i name="e_fr_energy">   -842.89561900 </i>
    <i name="e_wo_entrp">   -842.89561650 </i>
    <i name="e_0_energy">   -842.89561775 </i>
   </energy>
  </scstep>
  <scstep>
   <time name="dav">   81.28   81.78</time>
   <time name="total">   92.39   92.98</time>
   <energy>
    <i name="e_fr_energy">   -842.77770256 </i>
    <i name="e_wo_entrp">   -842.77770048 </i>
    <i name="e_0_energy">   -842.77770152 </i>
   </energy>
  </scstep>
  <scstep>
   <time name="dav">   78.62   79.19</time>
   <time name="total">   89.60   90.28</time>
   <energy>
    <i name="e_fr_energy">   -842.69079089 </i>
    <i name="e_wo_entrp">   -842.69078882 </i>
    <i name="e_0_energy">   -842.69078985 </i>
   </energy>
  </scstep>
  <scstep>
   <time name="dav">   78.45   78.96</time>
   <time name="total">   89.87   90.49</time>
   <energy>
    <i name="e_fr_energy">   -842.67899105 </i>
    <i name="e_wo_entrp">   -842.67898927 </i>
    <i name="e_0_energy">   -842.67899016 </i>
   </energy>
  </scstep>
  <scstep>
   <time name="dav">   84.30   84.90</time>
   <time name="total">   95.47   96.18</time>
   <energy>
    <i name="e_fr_energy">   -842.67815115 </i>
    <i name="e_wo_entrp">   -842.67814940 </i>
    <i name="e_0_energy">   -842.67815027 </i>
   </energy>
  </scstep>
  <scstep>
   <time name="dav">   83.67   84.21</time>
   <time name="total">   94.08   94.70</time>
   <energy>
    <i name="e_fr_energy">   -842.67799930 </i>
    <i name="e_wo_entrp">   -842.67799751 </i>
    <i name="e_0_energy">   -842.67799840 </i>
   </energy>
  </scstep>
  <scstep>
   <time name="dav">   79.24   79.74</time>
   <time name="total">   89.96   90.55</time>
   <energy>
    <i name="e_fr_energy">   -842.67808199 </i>
    <i name="e_wo_entrp">   -842.67808020 </i>
    <i name="e_0_energy">   -842.67808110 </i>
   </energy>
  </scstep>
  <scstep>
   <time name="dav">   79.84   80.34</time>
   <time name="total">   90.42   91.01</time>
   <energy>
    <i name="e_fr_energy">   -842.67812299 </i>
    <i name="e_wo_entrp">   -842.67812119 </i>
    <i name="e_0_energy">   -842.67812209 </i>
   </energy>
  </scstep>
  <scstep>
   <time name="dav">   82.20   82.69</time>
   <time name="total">   93.53   94.14</time>
   <energy>
    <i name="e_fr_energy">   -842.67812346 </i>
    <i name="e_wo_entrp">   -842.67812166 </i>
    <i name="e_0_energy">   -842.67812256 </i>
   </energy>
  </scstep>
  <scstep>
   <time name="dav">   81.95   82.44</time>
   <time name="total">   87.72   88.30</time>
   <energy>
    <i name="alphaZ">    175.87611319 </i>
    <i name="ewald">  36447.36299756 </i>
    <i name="hartreedc"> -48169.64956499 </i>
    <i name="XCdc">   1273.76394244 </i>
    <i name="pawpsdc">  37251.67207529 </i>
    <i name="pawaedc"> -37315.48076068 </i>
    <i name="eentropy">     -0.00000179 </i>
    <i name="bandstr">  -4222.35364327 </i>
    <i name="atom">  13716.13071916 </i>
    <i name="e_fr_energy">   -842.67812310 </i>
    <i name="e_wo_entrp">   -842.67812130 </i>
    <i name="e_0_energy">   -842.67812220 </i>
   </energy>
  </scstep>
  <structure>
   <crystal>
    <varray name="basis" >
     <v>      17.27103806       0.00000000       0.00000000 </v>
     <v>      -8.63551903      14.95715771       0.00000000 </v>
     <v>       0.00000000       0.00000000      15.00000000 </v>
    </varray>
    <i name="volume">   3874.88459904 </i>
    <varray name="rec_basis" >
     <v>       0.05790040       0.03342881       0.00000000 </v>
     <v>       0.00000000       0.06685762       0.00000000 </v>
     <v>       0.00000000       0.00000000       0.06666667 </v>
    </varray>
   </crystal>
   <varray name="positions" >
    <v>       0.99951543       0.99885576       0.49999607 </v>
    <v>       0.99944101       0.14162158       0.49850140 </v>
    <v>       0.99965101       0.28471849       0.49716828 </v>
    <v>       0.99958895       0.42762248       0.49652299 </v>
    <v>       0.99948146       0.57037681       0.49749843 </v>
    <v>       0.99982462       0.71318092       0.49952935 </v>
    <v>       0.00002725       0.85642724       0.50066963 </v>
    <v>       0.14312403       0.00004536       0.49862916 </v>
    <v>       0.14296158       0.14271024       0.49939416 </v>
    <v>       0.14247119       0.28514513       0.49950941 </v>
    <v>       0.14265065       0.42852048       0.49839080 </v>
    <v>       0.14274271       0.57085403       0.49679027 </v>
    <v>       0.14269592       0.71362033       0.49682343 </v>
    <v>       0.14271168       0.85679543       0.49757064 </v>
    <v>       0.28596159       0.00011890       0.49696872 </v>
    <v>       0.28667916       0.14338034       0.49903390 </v>
    <v>       0.28666855       0.28748409       0.50170291 </v>
    <v>       0.28484154       0.42857410       0.50354651 </v>
    <v>       0.28730562       0.57184425       0.50056144 </v>
    <v>       0.28568415       0.71459914       0.49719738 </v>
    <v>       0.28507693       0.85716713       0.49604232 </v>
    <v>       0.42849416       0.99954512       0.49599617 </v>
    <v>       0.42969612       0.14326907       0.49788179 </v>
    <v>       0.42909690       0.28384262       0.50038507 </v>
    <v>       0.42728812       0.85618014       0.49663458 </v>
    <v>       0.57064510       0.99867098       0.49634175 </v>
    <v>       0.57142485       0.14174917       0.49690071 </v>
    <v>       0.57522794       0.28784630       0.50010831 </v>
    <v>       0.56950637       0.85446679       0.49967193 </v>
    <v>       0.71282628       0.99756651       0.49857711 </v>
    <v>       0.71398134       0.14112163       0.49649261 </v>
    <v>       0.71450269       0.28393490       0.49816916 </v>
    <v>       0.71041560       0.42323668       0.50275372 </v>
    <v>       0.71535394       0.57001122       0.51155503 </v>
    <v>       0.71647883       0.71324672       0.51375559 </v>
    <v>       0.71156405       0.85453554       0.50489745 </v>
    <v>       0.85611402       0.99816025       0.50052767 </v>
    <v>       0.85634919       0.14113032       0.49725653 </v>
    <v>       0.85688743       0.28421661       0.49663007 </v>
    <v>       0.85666937       0.42707513       0.49852312 </v>
    <v>       0.85588417       0.56929013       0.50215773 </v>
    <v>       0.85761687       0.71297038       0.50545851 </v>
    <v>       0.85649177       0.85532678       0.50433578 </v>
    <v>       0.04746524       0.09437765       0.49912691 </v>
    <v>       0.04694940       0.23688663       0.49815977 </v>
    <v>       0.04709155       0.38018090       0.49706358 </v>
    <v>       0.04737907       0.52299138       0.49660958 </v>
    <v>       0.04730955       0.66575889       0.49773157 </v>
    <v>       0.04732634       0.80862684       0.49921153 </v>
    <v>       0.04757155       0.95166332       0.49974610 </v>
    <v>       0.19099082       0.09522500       0.49902195 </v>
    <v>       0.19059591       0.23807937       0.50020022 </v>
    <v>       0.18930883       0.38034942       0.50022351 </v>
    <v>       0.19094383       0.52404726       0.49808168 </v>
    <v>       0.19029688       0.66628835       0.49681174 </v>
    <v>       0.19011035       0.80914311       0.49667773 </v>
    <v>       0.19070162       0.95224313       0.49760101 </v>
    <v>       0.33426327       0.09583109       0.49780360 </v>
    <v>       0.33561188       0.23899381       0.50038397 </v>
    <v>       0.33085749       0.38043937       0.50423251 </v>
    <v>       0.33125964       0.52313382       0.50511852 </v>
    <v>       0.33656433       0.67007166       0.49879368 </v>
    <v>       0.33250314       0.80941683       0.49632330 </v>
    <v>       0.33306611       0.95225025       0.49615371 </v>
    <v>       0.47640110       0.09468780       0.49676852 </v>
    <v>       0.47753240       0.23892637       0.49938943 </v>
    <v>       0.47184494       0.80551639       0.49808142 </v>
    <v>       0.47563503       0.95159274       0.49608627 </v>
    <v>       0.61857343       0.09381464       0.49632134 </v>
    <v>       0.61975030       0.23714707       0.49833207 </v>
    <v>       0.61809881       0.80975037       0.50380124 </v>
    <v>       0.61738941       0.95012718       0.49791471 </v>
    <v>       0.76111704       0.09326557       0.49704991 </v>
    <v>       0.76194057       0.23619821       0.49683544 </v>
    <v>       0.76131049       0.37877445       0.49974400 </v>
    <v>       0.75950121       0.52147403       0.50558432 </v>
    <v>       0.76212389       0.66471171       0.51091763 </v>
    <v>       0.76051300       0.80607409       0.50816247 </v>
    <v>       0.76044285       0.95007797       0.50127045 </v>
    <v>       0.90389798       0.09330502       0.49850513 </v>
    <v>       0.90428223       0.23655627       0.49666354 </v>
    <v>       0.90424749       0.37974749       0.49695117 </v>
    <v>       0.90410322       0.52250945       0.49909721 </v>
    <v>       0.90424713       0.66481633       0.50241381 </v>
    <v>       0.90452718       0.80818386       0.50364398 </v>
    <v>       0.90406268       0.95061937       0.50147467 </v>
    <v>       0.46803069       0.35649419       0.50109559 </v>
    <v>       0.40353518       0.41948103       0.50477869 </v>
    <v>       0.40376912       0.55896242       0.51080947 </v>
    <v>       0.64395743       0.67454342       0.51848656 </v>
    <v>       0.64261978       0.53381274       0.51624750 </v>
    <v>       0.57936383       0.73713298       0.50618454 </v>
    <v>       0.50079207       0.59617515       0.40698195 </v>
    <v>       0.57200885       0.56881248       0.38904513 </v>
    <v>       0.42663209       0.71500779       0.49854471 </v>
    <v>       0.62040599       0.37823450       0.50260558 </v>
    <v>       0.52472826       0.55978189       0.43022414 </v>
   </varray>
  </structure>
  <varray name="forces" >
   <v>       0.00096454      -0.00216450       0.00309876 </v>
   <v>       0.00037241       0.00175844       0.00185368 </v>
   <v>       0.00074678       0.00156871       0.00066967 </v>
   <v>      -0.00025569       0.00059949      -0.00060122 </v>
   <v>      -0.00094581       0.00053944      -0.00013279 </v>
   <v>       0.00001304      -0.00029574       0.00163879 </v>
   <v>       0.00255481       0.00120006       0.00250459 </v>
   <v>       0.00203479      -0.00104142       0.00153089 </v>
   <v>       0.00076357       0.00277358      -0.00072505 </v>
   <v>       0.00217201       0.00104097       0.00046771 </v>
   <v>       0.00183289      -0.00106068      -0.00065296 </v>
   <v>      -0.00349737       0.00306930       0.00176588 </v>
   <v>       0.00049057       0.00085710       0.00064656 </v>
   <v>      -0.00013803      -0.00098739       0.00276779 </v>
   <v>      -0.00043076      -0.00078070       0.00223900 </v>
   <v>       0.00076004      -0.00243783       0.00224530 </v>
   <v>       0.00033675      -0.00081820       0.00383936 </v>
   <v>       0.00047184      -0.00004149       0.00470308 </v>
   <v>       0.00126108      -0.00075634      -0.00097712 </v>
   <v>       0.00036955       0.00059967       0.00309225 </v>
   <v>      -0.00068109       0.00047724       0.00000563 </v>
   <v>       0.00095173      -0.00091593       0.00064983 </v>
   <v>      -0.00020507      -0.00135043       0.00103778 </v>
   <v>       0.00006777      -0.00120851       0.00131587 </v>
   <v>      -0.00313126      -0.00088761       0.00129613 </v>
   <v>      -0.00029339       0.00192116       0.00075223 </v>
   <v>      -0.00116370       0.00086636      -0.00120543 </v>
   <v>       0.00193081       0.00094450      -0.00147647 </v>
   <v>       0.00065283       0.00016743       0.00058652 </v>
   <v>       0.00024636      -0.00025509       0.00186028 </v>
   <v>      -0.00073559       0.00020586       0.00088848 </v>
   <v>       0.00128344       0.00186379       0.00049757 </v>
   <v>      -0.00046999      -0.00008330       0.00066550 </v>
   <v>      -0.00048604      -0.00100528      -0.00034754 </v>
   <v>       0.00051773      -0.00289075       0.00007299 </v>
   <v>      -0.00143119       0.00059224      -0.00027558 </v>
   <v>      -0.00001110      -0.00038029       0.00481864 </v>
   <v>      -0.00022383      -0.00159288       0.00324428 </v>
   <v>      -0.00051865       0.00017491      -0.00039019 </v>
   <v>       0.00180037      -0.00014005      -0.00029395 </v>
   <v>       0.00074076       0.00056801       0.00117448 </v>
   <v>       0.00111083      -0.00159082       0.00000513 </v>
   <v>      -0.00100823      -0.00147956       0.00121759 </v>
   <v>      -0.00039600       0.00150214       0.00353723 </v>
   <v>       0.00116427      -0.00144528       0.00074736 </v>
   <v>       0.00031979       0.00059116       0.00048395 </v>
   <v>       0.00134740      -0.00168498       0.00028889 </v>
   <v>      -0.00035300      -0.00061500       0.00017035 </v>
   <v>      -0.00255246       0.00027844       0.00317505 </v>
   <v>      -0.00030015       0.00045031       0.00045079 </v>
   <v>       0.00040055       0.00118893       0.00237258 </v>
   <v>      -0.00046841      -0.00005642       0.00240762 </v>
   <v>       0.00126845       0.00029995       0.00107955 </v>
   <v>       0.00033292      -0.00043956       0.00086348 </v>
   <v>       0.00045648      -0.00049333       0.00032952 </v>
   <v>      -0.00038873       0.00221651      -0.00055905 </v>
   <v>      -0.00195335       0.00236820       0.00306273 </v>
   <v>       0.00025001       0.00080695       0.00143818 </v>
   <v>       0.00027870       0.00055949       0.00168462 </v>
   <v>       0.00288815      -0.00003178       0.00182630 </v>
   <v>       0.00455267      -0.00218099       0.00928734 </v>
   <v>       0.00223204      -0.00054463      -0.00075034 </v>
   <v>       0.00272537      -0.00080605       0.00191822 </v>
   <v>       0.00166616       0.00145429       0.00118592 </v>
   <v>       0.00053107       0.00082586       0.00066413 </v>
   <v>      -0.00041279       0.00035251       0.00060951 </v>
   <v>      -0.00089843      -0.00007799       0.00062874 </v>
   <v>      -0.00012435       0.00096055       0.00131156 </v>
   <v>      -0.00222460      -0.00342578       0.00074875 </v>
   <v>       0.00070385      -0.00213098       0.00051210 </v>
   <v>      -0.00012837      -0.00056517      -0.00000283 </v>
   <v>       0.00149069      -0.00025231       0.00063892 </v>
   <v>      -0.00004956      -0.00067470       0.00150860 </v>
   <v>       0.00112925      -0.00206005      -0.00124487 </v>
   <v>       0.00073448       0.00000232       0.00030904 </v>
   <v>       0.00006101       0.00033385       0.00015918 </v>
   <v>      -0.00090961      -0.00005454      -0.00192301 </v>
   <v>       0.00012422       0.00161487      -0.00181398 </v>
   <v>      -0.00006250       0.00059521       0.00160161 </v>
   <v>      -0.00073183      -0.00084548       0.00408417 </v>
   <v>       0.00018911      -0.00142547       0.00135681 </v>
   <v>       0.00064020      -0.00183732      -0.00091111 </v>
   <v>       0.00033366      -0.00071150       0.00121376 </v>
   <v>       0.00011211       0.00046514       0.00118738 </v>
   <v>      -0.00025057       0.00052654       0.00219295 </v>
   <v>      -0.00151205       0.00096049       0.00309944 </v>
   <v>       0.00070795       0.00049395       0.00040885 </v>
   <v>      -0.00031829      -0.00022915       0.00395439 </v>
   <v>       0.00022257      -0.00109980       0.00743166 </v>
   <v>       0.00028910      -0.00062423      -0.00611869 </v>
   <v>      -0.00062382      -0.00067223      -0.00443467 </v>
   <v>       0.00010581      -0.00141721       0.00106623 </v>
   <v>      -0.01590905       0.00350760      -0.04490975 </v>
   <v>       0.00313053      -0.00225045      -0.01926872 </v>
   <v>      -0.00091767      -0.00036835      -0.00089423 </v>
   <v>       0.00093591      -0.00054104      -0.00082182 </v>
   <v>      -0.00865939       0.00958305      -0.03341838 </v>
  </varray>
  <varray name="stress" >
   <v>       0.91866286      -3.27818873       0.01155350 </v>
   <v>      -3.27818880      -5.31953278       0.00698369 </v>
   <v>       0.01155316       0.00698351      -0.24749594 </v>
  </varray>
  <energy>
   <i name="e_fr_energy">   -850.41399743 </i>
   <i name="e_wo_entrp">   -850.41399563 </i>
   <i name="e_0_energy">   -850.41399653 </i>
  </energy>
  <time name="totalsc"> 1802.13 1814.29</time>
 </calculation>
 <calculation>
  <scstep>
   <time name="dav">   73.90   74.34</time>
   <time name="total">   85.04   85.59</time>
   <energy>
    <i name="alphaZ">    175.87611319 </i>
    <i name="ewald">  36447.37221795 </i>
    <i name="hartreedc"> -48169.63956466 </i>
    <i name="XCdc">   1273.76467926 </i>
    <i name="pawpsdc">  37251.83267885 </i>
    <i name="pawaedc"> -37315.64116947 </i>
    <i name="eentropy">     -0.00000179 </i>
    <i name="bandstr">  -4222.37379507 </i>
    <i name="atom">  13716.13071916 </i>
    <i name="e_fr_energy">   -842.67812259 </i>
    <i name="e_wo_entrp">   -842.67812080 </i>
    <i name="e_0_energy">   -842.67812169 </i>
   </energy>
  </scstep>
  <scstep>
   <time name="dav">   70.94   71.39</time>
   <time name="total">   76.66   77.19</time>
   <energy>
    <i name="alphaZ">    175.87611319 </i>
    <i name="ewald">  36447.37221795 </i>
    <i name="hartreedc"> -48169.63716346 </i>
    <i name="XCdc">   1273.76478251 </i>
    <i name="pawpsdc">  37251.74211783 </i>
    <i name="pawaedc"> -37315.55066235 </i>
    <i name="eentropy">     -0.00000179 </i>
    <i name="bandstr">  -4222.37624568 </i>
    <i name="atom">  13716.13071916 </i>
    <i name="e_fr_energy">   -842.67812264 </i>
    <i name="e_wo_entrp">   -842.67812085 </i>
    <i name="e_0_energy">   -842.67812174 </i>
   </energy>
  </scstep>
  <structure>
   <crystal>
    <varray name="basis" >
     <v>      17.27103806       0.00000000       0.00000000 </v>
     <v>      -8.63551903      14.95715771       0.00000000 </v>
     <v>       0.00000000       0.00000000      15.00000000 </v>
    </varray>
    <i name="volume">   3874.88459904 </i>
    <varray name="rec_basis" >
     <v>       0.05790040       0.03342881       0.00000000 </v>
     <v>       0.00000000       0.06685762       0.00000000 </v>
     <v>       0.00000000       0.00000000       0.06666667 </v>
    </varray>
   </crystal>
   <varray name="positions" >
    <v>       0.99951540       0.99885453       0.49999687 </v>
    <v>       0.99944178       0.14162287       0.49850172 </v>
    <v>       0.99965187       0.28471960       0.49716828 </v>
    <v>       0.99958892       0.42762296       0.49652253 </v>
    <v>       0.99948112       0.57037731       0.49749814 </v>
    <v>       0.99982468       0.71318091       0.49952976 </v>
    <v>       0.00002931       0.85642826       0.50067014 </v>
    <v>       0.14312499       0.00004486       0.49862905 </v>
    <v>       0.14296297       0.14271222       0.49939218 </v>
    <v>       0.14247265       0.28514585       0.49950807 </v>
    <v>       0.14265116       0.42851979       0.49838926 </v>
    <v>       0.14274157       0.57085617       0.49679108 </v>
    <v>       0.14269654       0.71362105       0.49682352 </v>
    <v>       0.14271139       0.85679495       0.49757185 </v>
    <v>       0.28596118       0.00011855       0.49696971 </v>
    <v>       0.28667886       0.14337889       0.49903404 </v>
    <v>       0.28666835       0.28748359       0.50170281 </v>
    <v>       0.28484152       0.42857399       0.50354599 </v>
    <v>       0.28730570       0.57184376       0.50055863 </v>
    <v>       0.28568453       0.71459963       0.49719872 </v>
    <v>       0.28507676       0.85716759       0.49604210 </v>
    <v>       0.42849446       0.99954463       0.49599643 </v>
    <v>       0.42969563       0.14326836       0.49788197 </v>
    <v>       0.42909660       0.28384205       0.50038460 </v>
    <v>       0.42728603       0.85617959       0.49663496 </v>
    <v>       0.57064558       0.99867235       0.49634210 </v>
    <v>       0.57142449       0.14174987       0.49689989 </v>
    <v>       0.57522945       0.28784712       0.50010698 </v>
    <v>       0.56950682       0.85446695       0.49967155 </v>
    <v>       0.71282635       0.99756643       0.49857790 </v>
    <v>       0.71398096       0.14112186       0.49649320 </v>
    <v>       0.71450407       0.28393627       0.49816950 </v>
    <v>       0.71041539       0.42323682       0.50275398 </v>
    <v>       0.71535365       0.57001079       0.51155491 </v>
    <v>       0.71647879       0.71324521       0.51375555 </v>
    <v>       0.71156362       0.85453611       0.50489636 </v>
    <v>       0.85611396       0.99816015       0.50053005 </v>
    <v>       0.85634849       0.14112935       0.49725838 </v>
    <v>       0.85688714       0.28421681       0.49662986 </v>
    <v>       0.85667038       0.42707516       0.49852290 </v>
    <v>       0.85588495       0.56929069       0.50215810 </v>
    <v>       0.85761727       0.71296956       0.50545763 </v>
    <v>       0.85649097       0.85532606       0.50433540 </v>
    <v>       0.04746555       0.09437882       0.49912808 </v>
    <v>       0.04694950       0.23688573       0.49815933 </v>
    <v>       0.04709179       0.38018134       0.49706350 </v>
    <v>       0.04737920       0.52299034       0.49660966 </v>
    <v>       0.04730922       0.66575862       0.49773130 </v>
    <v>       0.04732510       0.80862722       0.49921279 </v>
    <v>       0.04757167       0.95166384       0.49974513 </v>
    <v>       0.19099154       0.09522598       0.49902214 </v>
    <v>       0.19059554       0.23807940       0.50019990 </v>
    <v>       0.18930943       0.38034959       0.50022222 </v>
    <v>       0.19094358       0.52404698       0.49808126 </v>
    <v>       0.19029694       0.66628812       0.49681151 </v>
    <v>       0.19011095       0.80914474       0.49667698 </v>
    <v>       0.19070138       0.95224489       0.49760233 </v>
    <v>       0.33426377       0.09583181       0.49780379 </v>
    <v>       0.33561226       0.23899436       0.50038322 </v>
    <v>       0.33085896       0.38043935       0.50422969 </v>
    <v>       0.33126087       0.52313220       0.50512041 </v>
    <v>       0.33656532       0.67007132       0.49879185 </v>
    <v>       0.33250448       0.80941640       0.49632417 </v>
    <v>       0.33306763       0.95225136       0.49615426 </v>
    <v>       0.47640173       0.09468849       0.49676880 </v>
    <v>       0.47753234       0.23892682       0.49938913 </v>
    <v>       0.47184438       0.80551632       0.49808110 </v>
    <v>       0.47563530       0.95159345       0.49608691 </v>
    <v>       0.61857099       0.09381244       0.49632184 </v>
    <v>       0.61975002       0.23714577       0.49833234 </v>
    <v>       0.61809877       0.80975025       0.50380000 </v>
    <v>       0.61739020       0.95012708       0.49791474 </v>
    <v>       0.76111676       0.09326520       0.49705069 </v>
    <v>       0.76194052       0.23619692       0.49683467 </v>
    <v>       0.76131094       0.37877458       0.49974414 </v>
    <v>       0.75950158       0.52147447       0.50558427 </v>
    <v>       0.76212374       0.66471191       0.51091604 </v>
    <v>       0.76051395       0.80607547       0.50816044 </v>
    <v>       0.76044310       0.95007852       0.50127081 </v>
    <v>       0.90389727       0.09330458       0.49850719 </v>
    <v>       0.90428179       0.23655539       0.49666430 </v>
    <v>       0.90424719       0.37974634       0.49695062 </v>
    <v>       0.90410324       0.52250910       0.49909780 </v>
    <v>       0.90424755       0.66481683       0.50241386 </v>
    <v>       0.90452742       0.80818443       0.50364428 </v>
    <v>       0.90406228       0.95062024       0.50147557 </v>
    <v>       0.46803133       0.35649478       0.50109453 </v>
    <v>       0.40353467       0.41948082       0.50477624 </v>
    <v>       0.40376809       0.55896198       0.51080730 </v>
    <v>       0.64395827       0.67454362       0.51848378 </v>
    <v>       0.64261959       0.53381275       0.51624456 </v>
    <v>       0.57936366       0.73713230       0.50618331 </v>
    <v>       0.50078973       0.59617381       0.40699183 </v>
    <v>       0.57199993       0.56880923       0.38904089 </v>
    <v>       0.42663134       0.71500749       0.49854314 </v>
    <v>       0.62040644       0.37823434       0.50260469 </v>
    <v>       0.52472755       0.55978062       0.43021940 </v>
   </varray>
  </structure>
  <varray name="forces" >
   <v>       0.00003172      -0.00040962       0.00301144 </v>
   <v>      -0.00001139       0.00045365       0.00204394 </v>
   <v>       0.00050886       0.00038475       0.00065094 </v>
   <v>       0.00037691      -0.00025177      -0.00059631 </v>
   <v>      -0.00007566      -0.00028364      -0.00010768 </v>
   <v>      -0.00026455       0.00002740       0.00163274 </v>
   <v>      -0.00143674      -0.00160890       0.00190804 </v>
   <v>       0.00023675       0.00051317       0.00157171 </v>
   <v>       0.00111711      -0.00050838       0.00048914 </v>
   <v>      -0.00027574      -0.00111134       0.00077495 </v>
   <v>       0.00117548      -0.00022540      -0.00056404 </v>
   <v>       0.00181524      -0.00058761       0.00292821 </v>
   <v>       0.00025543       0.00071928       0.00044979 </v>
   <v>      -0.00092470       0.00019687       0.00267657 </v>
   <v>      -0.00006100       0.00020788       0.00221125 </v>
   <v>       0.00044123      -0.00065168       0.00217812 </v>
   <v>       0.00070615      -0.00012946       0.00344275 </v>
   <v>       0.00165823      -0.00028093       0.00460910 </v>
   <v>       0.00194054      -0.00114634      -0.00057275 </v>
   <v>       0.00114239      -0.00032297       0.00275497 </v>
   <v>       0.00053443       0.00073780       0.00004616 </v>
   <v>       0.00106131       0.00018746       0.00071415 </v>
   <v>       0.00013348      -0.00021827       0.00097838 </v>
   <v>       0.00006029      -0.00006420       0.00116629 </v>
   <v>      -0.00070819       0.00005790       0.00135540 </v>
   <v>       0.00005565       0.00001228       0.00076975 </v>
   <v>      -0.00060238      -0.00012022      -0.00102537 </v>
   <v>       0.00107951      -0.00017161      -0.00134415 </v>
   <v>       0.00006890       0.00008241       0.00045451 </v>
   <v>       0.00030192      -0.00014146       0.00177775 </v>
   <v>      -0.00067250      -0.00099536       0.00076902 </v>
   <v>       0.00103144       0.00016601       0.00032952 </v>
   <v>       0.00017192       0.00015371       0.00049532 </v>
   <v>      -0.00039090      -0.00059622      -0.00073327 </v>
   <v>       0.00023883      -0.00070244      -0.00060172 </v>
   <v>       0.00000704       0.00138252       0.00259502 </v>
   <v>      -0.00011986       0.00007222       0.00466782 </v>
   <v>      -0.00004957      -0.00110622       0.00318972 </v>
   <v>       0.00040679      -0.00088082      -0.00048962 </v>
   <v>       0.00125539      -0.00043361      -0.00027420 </v>
   <v>       0.00049635       0.00016621       0.00114776 </v>
   <v>       0.00026720      -0.00027228       0.00002046 </v>
   <v>      -0.00067594      -0.00026695       0.00109684 </v>
   <v>       0.00032503       0.00074396       0.00317965 </v>
   <v>      -0.00005159       0.00198145       0.00171481 </v>
   <v>       0.00041920       0.00053007       0.00027051 </v>
   <v>      -0.00023423      -0.00013214       0.00024064 </v>
   <v>       0.00008236       0.00008320       0.00019269 </v>
   <v>      -0.00040843      -0.00009339       0.00308485 </v>
   <v>       0.00080888       0.00013247       0.00063469 </v>
   <v>       0.00054461       0.00037589       0.00208587 </v>
   <v>       0.00029786       0.00062537       0.00213423 </v>
   <v>       0.00131426       0.00023643       0.00093705 </v>
   <v>       0.00006167       0.00031024       0.00055699 </v>
   <v>      -0.00011976       0.00087111       0.00055230 </v>
   <v>      -0.00029173       0.00117913      -0.00038218 </v>
   <v>      -0.00042994       0.00036630       0.00298731 </v>
   <v>       0.00032178      -0.00043130       0.00149354 </v>
   <v>       0.00018446      -0.00053816       0.00171826 </v>
   <v>       0.00133339      -0.00061050       0.00196070 </v>
   <v>      -0.00162476       0.00119789       0.00883428 </v>
   <v>       0.00060157      -0.00078108      -0.00069655 </v>
   <v>       0.00014199      -0.00048148       0.00185905 </v>
   <v>       0.00075491      -0.00165091       0.00137791 </v>
   <v>       0.00006702       0.00029259       0.00051025 </v>
   <v>       0.00052371      -0.00012330       0.00041480 </v>
   <v>      -0.00088401       0.00015353       0.00054621 </v>
   <v>      -0.00022801       0.00017188       0.00122061 </v>
   <v>      -0.00128325      -0.00084346       0.00062508 </v>
   <v>       0.00101520      -0.00025662       0.00028275 </v>
   <v>      -0.00017716      -0.00083032      -0.00011893 </v>
   <v>       0.00072119       0.00008021       0.00063393 </v>
   <v>      -0.00040230      -0.00034161       0.00164863 </v>
   <v>       0.00033974      -0.00061630      -0.00108512 </v>
   <v>       0.00072075       0.00050684       0.00032281 </v>
   <v>       0.00012571       0.00011906       0.00018495 </v>
   <v>      -0.00021025      -0.00077140      -0.00180222 </v>
   <v>      -0.00033847      -0.00024311      -0.00155852 </v>
   <v>      -0.00016035       0.00026726       0.00170571 </v>
   <v>      -0.00017174      -0.00030795       0.00413782 </v>
   <v>       0.00035756      -0.00048059       0.00134173 </v>
   <v>       0.00055177      -0.00074212      -0.00097066 </v>
   <v>       0.00034582      -0.00015998       0.00106351 </v>
   <v>       0.00056346      -0.00009643       0.00110072 </v>
   <v>       0.00043733      -0.00005830       0.00201407 </v>
   <v>      -0.00049822      -0.00007621       0.00318080 </v>
   <v>       0.00072739       0.00009527       0.00035670 </v>
   <v>       0.00053778       0.00023356       0.00381269 </v>
   <v>       0.00139751      -0.00064682       0.00768814 </v>
   <v>      -0.00008305      -0.00098920      -0.00606084 </v>
   <v>      -0.00073467      -0.00075736      -0.00441446 </v>
   <v>       0.00014864      -0.00117775       0.00096601 </v>
   <v>      -0.01786024       0.00541127      -0.04654607 </v>
   <v>       0.00696484      -0.00119428      -0.02284248 </v>
   <v>       0.00048780       0.00010850      -0.00107260 </v>
   <v>       0.00069560      -0.00002622      -0.00088789 </v>
   <v>      -0.01003600       0.00735101      -0.02973318 </v>
  </varray>
  <varray name="stress" >
   <v>       0.91734024      -3.27654538       0.00973558 </v>
   <v>      -3.27654546      -5.32180159       0.00656762 </v>
   <v>       0.00973524       0.00656745      -0.24474231 </v>
  </varray>
  <energy>
   <i name="e_fr_energy">   -850.41399662 </i>
   <i name="e_wo_entrp">   -850.41399483 </i>
   <i name="e_0_energy">   -850.41399573 </i>
  </energy>
  <time name="totalsc">  487.62  490.30</time>
 </calculation>
 <calculation>
  <scstep>
   <time name="dav">   73.43   73.90</time>
   <time name="total">   84.42   84.95</time>
   <energy>
    <i name="alphaZ">    175.87611319 </i>
    <i name="ewald">  36447.39024845 </i>
    <i name="hartreedc"> -48169.64084727 </i>
    <i name="XCdc">   1273.76535753 </i>
    <i name="pawpsdc">  37251.61657348 </i>
    <i name="pawaedc"> -37315.42518745 </i>
    <i name="eentropy">     -0.00000180 </i>
    <i name="bandstr">  -4222.39109138 </i>
    <i name="atom">  13716.13071916 </i>
    <i name="e_fr_energy">   -842.67811609 </i>
    <i name="e_wo_entrp">   -842.67811429 </i>
    <i name="e_0_energy">   -842.67811519 </i>
   </energy>
  </scstep>
  <scstep>
   <time name="dav">   75.99   76.45</time>
   <time name="total">   81.63   82.16</time>
   <energy>
    <i name="alphaZ">    175.87611319 </i>
    <i name="ewald">  36447.39024845 </i>
    <i name="hartreedc"> -48169.64100988 </i>
    <i name="XCdc">   1273.76550231 </i>
    <i name="pawpsdc">  37251.56079916 </i>
    <i name="pawaedc"> -37315.36948207 </i>
    <i name="eentropy">     -0.00000180 </i>
    <i name="bandstr">  -4222.39100480 </i>
    <i name="atom">  13716.13071916 </i>
    <i name="e_fr_energy">   -842.67811628 </i>
    <i name="e_wo_entrp">   -842.67811448 </i>
    <i name="e_0_energy">   -842.67811538 </i>
   </energy>
  </scstep>
  <structure>
   <crystal>
    <varray name="basis" >
     <v>      17.27103806       0.00000000       0.00000000 </v>
     <v>      -8.63551903      14.95715771       0.00000000 </v>
     <v>       0.00000000       0.00000000      15.00000000 </v>
    </varray>
    <i name="volume">   3874.88459904 </i>
    <varray name="rec_basis" >
     <v>       0.05790040       0.03342881       0.00000000 </v>
     <v>       0.00000000       0.06685762       0.00000000 </v>
     <v>       0.00000000       0.00000000       0.06666667 </v>
    </varray>
   </crystal>
   <varray name="positions" >
[...]
       <r>   -14.0476     9.1132    57.4680 </r>
       <r>   -13.9438     7.0818    58.2028 </r>
       <r>   -13.8401     4.5926    58.6793 </r>
       <r>   -13.7363     3.5280    59.0454 </r>
       <r>   -13.6326     7.0725    59.7792 </r>
       <r>   -13.5288     7.3821    60.5452 </r>
       <r>   -13.4250    10.2020    61.6038 </r>
       <r>   -13.3213     9.3683    62.5758 </r>
       <r>   -13.2175     5.4648    63.1429 </r>
       <r>   -13.1138     7.9698    63.9698 </r>
       <r>   -13.0100     4.4647    64.4331 </r>
       <r>   -12.9062     0.7962    64.5157 </r>
       <r>   -12.8025     5.3962    65.0756 </r>
       <r>   -12.6987     7.6770    65.8722 </r>
       <r>   -12.5950     7.0749    66.6063 </r>
       <r>   -12.4912    13.9379    68.0525 </r>
       <r>   -12.3874    14.8307    69.5913 </r>
       <r>   -12.2837     9.9957    70.6285 </r>
       <r>   -12.1799     8.6363    71.5246 </r>
       <r>   -12.0762     2.1827    71.7511 </r>
       <r>   -11.9724     3.3913    72.1030 </r>
       <r>   -11.8686    12.6749    73.4181 </r>
       <r>   -11.7649    10.0101    74.4568 </r>
       <r>   -11.6611     8.5680    75.3458 </r>
       <r>   -11.5573     9.4649    76.3279 </r>
       <r>   -11.4536    12.4444    77.6191 </r>
       <r>   -11.3498    10.7193    78.7314 </r>
       <r>   -11.2461    10.1811    79.7878 </r>
       <r>   -11.1423    11.3214    80.9625 </r>
       <r>   -11.0385     8.6160    81.8565 </r>
       <r>   -10.9348    10.5685    82.9531 </r>
       <r>   -10.8310     9.7102    83.9607 </r>
       <r>   -10.7273    12.3939    85.2467 </r>
       <r>   -10.6235     7.0945    85.9828 </r>
       <r>   -10.5197     6.5058    86.6578 </r>
       <r>   -10.4160     5.4144    87.2196 </r>
       <r>   -10.3122     0.6623    87.2884 </r>
       <r>   -10.2085     9.3682    88.2604 </r>
       <r>   -10.1047    15.9072    89.9110 </r>
       <r>   -10.0009    17.4996    91.7267 </r>
       <r>    -9.8972    16.6450    93.4538 </r>
       <r>    -9.7934    18.4855    95.3719 </r>
       <r>    -9.6897    19.9642    97.4434 </r>
       <r>    -9.5859    14.0386    98.9001 </r>
       <r>    -9.4821    14.4796   100.4025 </r>
       <r>    -9.3784    17.0829   102.1750 </r>
       <r>    -9.2746    20.4068   104.2925 </r>
       <r>    -9.1708    12.4304   105.5822 </r>
       <r>    -9.0671    13.8985   107.0244 </r>
       <r>    -8.9633    25.9764   109.7197 </r>
       <r>    -8.8596    29.6502   112.7962 </r>
       <r>    -8.7558    23.3737   115.2215 </r>
       <r>    -8.6520    22.7811   117.5853 </r>
       <r>    -8.5483    16.7716   119.3255 </r>
       <r>    -8.4445    18.3859   121.2333 </r>
       <r>    -8.3408    14.6669   122.7551 </r>
       <r>    -8.2370    23.0176   125.1435 </r>
       <r>    -8.1332    19.5766   127.1747 </r>
       <r>    -8.0295    25.6657   129.8378 </r>
       <r>    -7.9257    20.4038   131.9549 </r>
       <r>    -7.8220    17.4370   133.7642 </r>
       <r>    -7.7182    15.7498   135.3984 </r>
       <r>    -7.6144    14.3324   136.8856 </r>
       <r>    -7.5107    10.8992   138.0165 </r>
       <r>    -7.4069     6.6202   138.7034 </r>
       <r>    -7.3031    16.4732   140.4127 </r>
       <r>    -7.1994    23.1817   142.8180 </r>
       <r>    -7.0956    22.3746   145.1396 </r>
       <r>    -6.9919    17.4773   146.9531 </r>
       <r>    -6.8881     8.5667   147.8420 </r>
       <r>    -6.7843    15.1277   149.4117 </r>
       <r>    -6.6806    10.1387   150.4637 </r>
       <r>    -6.5768     6.5597   151.1443 </r>
       <r>    -6.4731    11.6443   152.3525 </r>
       <r>    -6.3693    12.7999   153.6806 </r>
       <r>    -6.2655    13.9307   155.1261 </r>
       <r>    -6.1618    20.5386   157.2572 </r>
       <r>    -6.0580    16.2732   158.9457 </r>
       <r>    -5.9543    12.6405   160.2573 </r>
       <r>    -5.8505    14.6717   161.7797 </r>
       <r>    -5.7467    14.4779   163.2819 </r>
       <r>    -5.6430    17.0008   165.0459 </r>
       <r>    -5.5392     7.8190   165.8572 </r>
       <r>    -5.4355     6.2481   166.5055 </r>
       <r>    -5.3317     2.9265   166.8092 </r>
       <r>    -5.2279     1.9652   167.0131 </r>
       <r>    -5.1242     4.7824   167.5093 </r>
       <r>    -5.0204    19.2441   169.5061 </r>
       <r>    -4.9166    18.5464   171.4305 </r>
       <r>    -4.8129    19.6533   173.4698 </r>
       <r>    -4.7091    12.3313   174.7493 </r>
       <r>    -4.6054     3.6489   175.1279 </r>
       <r>    -4.5016    10.5526   176.2228 </r>
       <r>    -4.3978     9.3778   177.1959 </r>
       <r>    -4.2941     5.2712   177.7428 </r>
       <r>    -4.1903     7.7836   178.5504 </r>
       <r>    -4.0866     8.7661   179.4600 </r>
       <r>    -3.9828     8.7830   180.3713 </r>
       <r>    -3.8790    10.0381   181.4129 </r>
       <r>    -3.7753     3.4071   181.7664 </r>
       <r>    -3.6715     2.0967   181.9840 </r>
       <r>    -3.5678     0.1543   182.0000 </r>
       <r>    -3.4640     0.2951   182.0306 </r>
       <r>    -3.3602     2.4692   182.2868 </r>
       <r>    -3.2565     6.0363   182.9132 </r>
       <r>    -3.1527     3.2957   183.2551 </r>
       <r>    -3.0490     2.3009   183.4939 </r>
       <r>    -2.9452     0.0591   183.5000 </r>
       <r>    -2.8414     0.0000   183.5000 </r>
       <r>    -2.7377     0.2829   183.5294 </r>
       <r>    -2.6339     2.2252   183.7602 </r>
       <r>    -2.5301     2.1614   183.9845 </r>
       <r>    -2.4264     0.1494   184.0000 </r>
       <r>    -2.3226     0.3767   184.0391 </r>
       <r>    -2.2189     3.7948   184.4328 </r>
       <r>    -2.1151     0.6469   184.5000 </r>
       <r>    -2.0113     0.0030   184.5003 </r>
       <r>    -1.9076     1.0848   184.6128 </r>
       <r>    -1.8038     1.9479   184.8149 </r>
       <r>    -1.7001     3.5719   185.1856 </r>
       <r>    -1.5963     5.5708   185.7636 </r>
       <r>    -1.4925     2.2753   185.9997 </r>
       <r>    -1.3888     0.4391   186.0453 </r>
       <r>    -1.2850     6.8052   186.7514 </r>
       <r>    -1.1813     5.7808   187.3512 </r>
       <r>    -1.0775     1.4319   187.4998 </r>
       <r>    -0.9737     2.1007   187.7177 </r>
       <r>    -0.8700    13.0495   189.0718 </r>
       <r>    -0.7662    15.6725   190.6980 </r>
       <r>    -0.6625     5.5561   191.2745 </r>
       <r>    -0.5587     9.1754   192.2265 </r>
       <r>    -0.4549    10.9353   193.3612 </r>
       <r>    -0.3512     5.3216   193.9133 </r>
       <r>    -0.2474     3.6436   194.2914 </r>
       <r>    -0.1436     7.6934   195.0897 </r>
       <r>    -0.0399    10.6316   196.1928 </r>
       <r>     0.0639    10.8353   197.3171 </r>
       <r>     0.1676    10.6173   198.4188 </r>
       <r>     0.2714     9.6394   199.4190 </r>
       <r>     0.3752     4.0274   199.8369 </r>
       <r>     0.4789     2.0789   200.0526 </r>
       <r>     0.5827     5.5167   200.6250 </r>
       <r>     0.6864     5.5787   201.2038 </r>
       <r>     0.7902    13.9622   202.6526 </r>
       <r>     0.8940     9.7151   203.6606 </r>
       <r>     0.9977     4.6134   204.1393 </r>
       <r>     1.1015    11.9636   205.3806 </r>
       <r>     1.2052     6.8452   206.0909 </r>
       <r>     1.3090     6.7741   206.7938 </r>
       <r>     1.4128    11.8766   208.0261 </r>
       <r>     1.5165    16.4198   209.7298 </r>
       <r>     1.6203    17.8963   211.5868 </r>
       <r>     1.7240    10.2162   212.6468 </r>
       <r>     1.8278     8.2385   213.5017 </r>
       <r>     1.9316    13.3762   214.8896 </r>
       <r>     2.0353    20.9685   217.0653 </r>
       <r>     2.1391    14.1153   218.5299 </r>
       <r>     2.2429    16.6383   220.2563 </r>
       <r>     2.3466    23.8071   222.7266 </r>
       <r>     2.4504    26.6569   225.4925 </r>
       <r>     2.5541     6.2367   226.1396 </r>
       <r>     2.6579     5.5185   226.7122 </r>
       <r>     2.7617    22.5457   229.0516 </r>
       <r>     2.8654    30.7420   232.2414 </r>
       <r>     2.9692    38.1065   236.1954 </r>
       <r>     3.0729    22.8880   238.5703 </r>
       <r>     3.1767    16.5703   240.2896 </r>
       <r>     3.2805    20.9551   242.4639 </r>
       <r>     3.3842    15.8697   244.1106 </r>
       <r>     3.4880    21.6618   246.3582 </r>
       <r>     3.5917    21.9244   248.6331 </r>
       <r>     3.6955    16.7028   250.3662 </r>
       <r>     3.7993    28.0128   253.2729 </r>
       <r>     3.9030    17.8117   255.1210 </r>
       <r>     4.0068    26.9056   257.9128 </r>
       <r>     4.1105    16.4825   259.6230 </r>
       <r>     4.2143    14.6426   261.1423 </r>
       <r>     4.3181    28.1310   264.0612 </r>
       <r>     4.4218     8.9478   264.9897 </r>
       <r>     4.5256     0.0996   265.0000 </r>
       <r>     4.6294     0.0000   265.0000 </r>
       <r>     4.7331     0.0000   265.0000 </r>
       <r>     4.8369     0.0000   265.0000 </r>
       <r>     4.9406     0.0000   265.0000 </r>
       <r>     5.0444     0.0000   265.0000 </r>
       <r>     5.1482     0.0000   265.0000 </r>
       <r>     5.2519     0.0000   265.0000 </r>
       <r>     5.3557     0.0000   265.0000 </r>
       <r>     5.4594     0.0000   265.0000 </r>
       <r>     5.5632     0.0000   265.0000 </r>
       <r>     5.6670     0.0000   265.0000 </r>
       <r>     5.7707     0.0000   265.0000 </r>
      </set>
     </set>
    </array>
   </total>
  </dos>
 </calculation>
 <structure name="finalpos" >
  <crystal>
   <varray name="basis" >
    <v>      17.27103806       0.00000000       0.00000000 </v>
    <v>      -8.63551903      14.95715771       0.00000000 </v>
    <v>       0.00000000       0.00000000      15.00000000 </v>
   </varray>
   <i name="volume">   3874.88459904 </i>
   <varray name="rec_basis" >
    <v>       0.05790040       0.03342881       0.00000000 </v>
    <v>       0.00000000       0.06685762       0.00000000 </v>
    <v>       0.00000000       0.00000000       0.06666667 </v>
   </varray>
  </crystal>
  <varray name="positions" >
   <v>       0.99967595       0.99895006       0.50087337 </v>
   <v>       0.99956364       0.14168720       0.49921468 </v>
   <v>       0.99975036       0.28474679       0.49742483 </v>
   <v>       0.99964769       0.42762306       0.49635421 </v>
   <v>       0.99953303       0.57037970       0.49740050 </v>
   <v>       0.99989862       0.71319741       0.49977985 </v>
   <v>       0.00013797       0.85647731       0.50127860 </v>
   <v>       0.14325345       0.00009473       0.49923547 </v>
   <v>       0.14311018       0.14279894       0.49977362 </v>
   <v>       0.14259431       0.28520522       0.49954151 </v>
   <v>       0.14271949       0.42853774       0.49818507 </v>
   <v>       0.14279679       0.57086207       0.49651886 </v>
   <v>       0.14276150       0.71362386       0.49694308 </v>
   <v>       0.14280725       0.85682114       0.49813636 </v>
   <v>       0.28607744       0.00014305       0.49729788 </v>
   <v>       0.28679380       0.14342298       0.49909863 </v>
   <v>       0.28682212       0.28756112       0.50143171 </v>
   <v>       0.28496219       0.42862833       0.50323764 </v>
   <v>       0.28734450       0.57184496       0.50026311 </v>
   <v>       0.28574396       0.71459352       0.49707657 </v>
   <v>       0.28516135       0.85717194       0.49625283 </v>
   <v>       0.42859063       0.99953514       0.49608033 </v>
   <v>       0.42979247       0.14327217       0.49782236 </v>
   <v>       0.42923184       0.28387846       0.50000773 </v>
   <v>       0.42735834       0.85615892       0.49658818 </v>
   <v>       0.57073113       0.99864576       0.49647164 </v>
   <v>       0.57152166       0.14173374       0.49688052 </v>
   <v>       0.57532582       0.28782718       0.49966044 </v>
   <v>       0.56959104       0.85444385       0.49955833 </v>
   <v>       0.71292306       0.99756969       0.49908085 </v>
   <v>       0.71406580       0.14109981       0.49682680 </v>
   <v>       0.71460305       0.28393617       0.49797483 </v>
   <v>       0.71046154       0.42325270       0.50207944 </v>
   <v>       0.71532130       0.57001660       0.50998232 </v>
   <v>       0.71650504       0.71319311       0.51227537 </v>
   <v>       0.71167635       0.85455092       0.50479885 </v>
   <v>       0.85623866       0.99820939       0.50132761 </v>
   <v>       0.85645318       0.14114712       0.49798753 </v>
   <v>       0.85697202       0.28421721       0.49674136 </v>
   <v>       0.85673005       0.42708020       0.49825218 </v>
   <v>       0.85592009       0.56929006       0.50186883 </v>
   <v>       0.85769220       0.71298185       0.50518560 </v>
   <v>       0.85661079       0.85536657       0.50462348 </v>
   <v>       0.04762278       0.09447139       0.49987781 </v>
   <v>       0.04706835       0.23694210       0.49850472 </v>
   <v>       0.04715919       0.38019454       0.49701484 </v>
   <v>       0.04743257       0.52299271       0.49636526 </v>
   <v>       0.04737216       0.66576440       0.49783438 </v>
   <v>       0.04741362       0.80865749       0.49974080 </v>
   <v>       0.04770441       0.95172064       0.50046345 </v>
   <v>       0.19112417       0.09528896       0.49936988 </v>
   <v>       0.19074040       0.23816289       0.50023820 </v>
   <v>       0.18941636       0.38040025       0.50002742 </v>
   <v>       0.19099128       0.52405195       0.49776791 </v>
   <v>       0.19035276       0.66629101       0.49671449 </v>
   <v>       0.19019038       0.80915595       0.49701767 </v>
   <v>       0.19082082       0.95228223       0.49816247 </v>
   <v>       0.33437192       0.09585576       0.49793751 </v>
   <v>       0.33574537       0.23904964       0.50015800 </v>
   <v>       0.33101700       0.38052660       0.50372939 </v>
   <v>       0.33131934       0.52316905       0.50492538 </v>
   <v>       0.33660622       0.67005739       0.49850846 </v>
   <v>       0.33257633       0.80940805       0.49632464 </v>
   <v>       0.33316580       0.95225748       0.49636855 </v>
   <v>       0.47649875       0.09468283       0.49675437 </v>
   <v>       0.47763424       0.23892617       0.49909481 </v>
   <v>       0.47192307       0.80548727       0.49787201 </v>
   <v>       0.47572044       0.95157161       0.49612637 </v>
   <v>       0.61865702       0.09378515       0.49649293 </v>
   <v>       0.61985080       0.23713347       0.49812778 </v>
   <v>       0.61820890       0.80975201       0.50349253 </v>
   <v>       0.61748684       0.95011640       0.49810266 </v>
   <v>       0.76121518       0.09326436       0.49769137 </v>
   <v>       0.76202872       0.23618497       0.49694087 </v>
   <v>       0.76137740       0.37878442       0.49934792 </v>
   <v>       0.75950255       0.52147766       0.50478525 </v>
   <v>       0.76216934       0.66470311       0.50974841 </v>
   <v>       0.76060478       0.80607249       0.50775051 </v>
   <v>       0.76055438       0.95010283       0.50175385 </v>
   <v>       0.90402415       0.09335221       0.49939310 </v>
   <v>       0.90438154       0.23656780       0.49708082 </v>
   <v>       0.90430909       0.37974703       0.49680745 </v>
   <v>       0.90414785       0.52251119       0.49891677 </v>
   <v>       0.90431005       0.66482016       0.50233659 </v>
   <v>       0.90462669       0.80821226       0.50386584 </v>
   <v>       0.90420949       0.95068526       0.50226298 </v>
   <v>       0.46819762       0.35653120       0.50051081 </v>
   <v>       0.40369334       0.41957200       0.50404876 </v>
   <v>       0.40379767       0.55902586       0.51087621 </v>
   <v>       0.64392465       0.67437371       0.51585214 </v>
   <v>       0.64253752       0.53392045       0.51375654 </v>
   <v>       0.57951481       0.73712589       0.50556074 </v>
   <v>       0.49818667       0.59585167       0.40692614 </v>
   <v>       0.56720591       0.56726215       0.38234849 </v>
   <v>       0.42668460       0.71497339       0.49815662 </v>
   <v>       0.62046286       0.37821590       0.50190097 </v>
   <v>       0.52384276       0.56009718       0.42762635 </v>
  </varray>
  <varray name="selective"  type="logical" >
   <v type="logical" >  T  T  T </v>
   <v type="logical" >  T  T  T </v>
   <v type="logical" >  T  T  T </v>
   <v type="logical" >  T  T  T </v>
   <v type="logical" >  T  T  T </v>
   <v type="logical" >  T  T  T </v>
   <v type="logical" >  T  T  T </v>
   <v type="logical" >  T  T  T </v>
   <v type="logical" >  T  T  T </v>
   <v type="logical" >  T  T  T </v>
   <v type="logical" >  T  T  T </v>
   <v type="logical" >  T  T  T </v>
   <v type="logical" >  T  T  T </v>
   <v type="logical" >  T  T  T </v>
   <v type="logical" >  T  T  T </v>
   <v type="logical" >  T  T  T </v>
   <v type="logical" >  T  T  T </v>
   <v type="logical" >  T  T  T </v>
   <v type="logical" >  T  T  T </v>
   <v type="logical" >  T  T  T </v>
   <v type="logical" >  T  T  T </v>
   <v type="logical" >  T  T  T </v>
   <v type="logical" >  T  T  T </v>
   <v type="logical" >  T  T  T </v>
   <v type="logical" >  T  T  T </v>
   <v type="logical" >  T  T  T </v>
   <v type="logical" >  T  T  T </v>
   <v type="logical" >  T  T  T </v>
   <v type="logical" >  T  T  T </v>
   <v type="logical" >  T  T  T </v>
   <v type="logical" >  T  T  T </v>
   <v type="logical" >  T  T  T </v>
   <v type="logical" >  T  T  T </v>
   <v type="logical" >  T  T  T </v>
   <v type="logical" >  T  T  T </v>
   <v type="logical" >  T  T  T </v>
   <v type="logical" >  T  T  T </v>
   <v type="logical" >  T  T  T </v>
   <v type="logical" >  T  T  T </v>
   <v type="logical" >  T  T  T </v>
   <v type="logical" >  T  T  T </v>
   <v type="logical" >  T  T  T </v>
   <v type="logical" >  T  T  T </v>
   <v type="logical" >  T  T  T </v>
   <v type="logical" >  T  T  T </v>
   <v type="logical" >  T  T  T </v>
   <v type="logical" >  T  T  T </v>
   <v type="logical" >  T  T  T </v>
   <v type="logical" >  T  T  T </v>
   <v type="logical" >  T  T  T </v>
   <v type="logical" >  T  T  T </v>
   <v type="logical" >  T  T  T </v>
   <v type="logical" >  T  T  T </v>
   <v type="logical" >  T  T  T </v>
   <v type="logical" >  T  T  T </v>
   <v type="logical" >  T  T  T </v>
   <v type="logical" >  T  T  T </v>
   <v type="logical" >  T  T  T </v>
   <v type="logical" >  T  T  T </v>
   <v type="logical" >  T  T  T </v>
   <v type="logical" >  T  T  T </v>
   <v type="logical" >  T  T  T </v>
   <v type="logical" >  T  T  T </v>
   <v type="logical" >  T  T  T </v>
   <v type="logical" >  T  T  T </v>
   <v type="logical" >  T  T  T </v>
   <v type="logical" >  T  T  T </v>
   <v type="logical" >  T  T  T </v>
   <v type="logical" >  T  T  T </v>
   <v type="logical" >  T  T  T </v>
   <v type="logical" >  T  T  T </v>
   <v type="logical" >  T  T  T </v>
   <v type="logical" >  T  T  T </v>
   <v type="logical" >  T  T  T </v>
   <v type="logical" >  T  T  T </v>
   <v type="logical" >  T  T  T </v>
   <v type="logical" >  T  T  T </v>
   <v type="logical" >  T  T  T </v>
   <v type="logical" >  T  T  T </v>
   <v type="logical" >  T  T  T </v>
   <v type="logical" >  T  T  T </v>
   <v type="logical" >  T  T  T </v>
   <v type="logical" >  T  T  T </v>
   <v type="logical" >  T  T  T </v>
   <v type="logical" >  T  T  T </v>
   <v type="logical" >  T  T  T </v>
   <v type="logical" >  T  T  T </v>
   <v type="logical" >  T  T  T </v>
   <v type="logical" >  T  T  T </v>
   <v type="logical" >  T  T  T </v>
   <v type="logical" >  T  T  T </v>
   <v type="logical" >  T  T  T </v>
   <v type="logical" >  T  T  T </v>
   <v type="logical" >  T  T  T </v>
   <v type="logical" >  T  T  T </v>
   <v type="logical" >  T  T  T </v>
   <v type="logical" >  T  T  T </v>
  </varray>
  <nose>
   <v>      -3.00000000       0.00000000       0.00010000       0.00010000 </v>
  </nose>
 </structure>
</modeling>
