unknown system                          
           1
    17.271038    0.000000    0.000000
    -8.635519   14.957158    0.000000
     0.000000    0.000000   15.000000
   C    H    N    O 
    86     8     2     1
Direct configuration=     1
   0.99951540  0.99885453  0.49999687
   0.99944178  0.14162287  0.49850172
   0.99965187  0.28471960  0.49716828
   0.99958892  0.42762296  0.49652253
   0.99948112  0.57037731  0.49749814
   0.99982468  0.71318091  0.49952976
   0.00002931  0.85642826  0.50067014
   0.14312499  0.00004486  0.49862905
   0.14296297  0.14271222  0.49939218
   0.14247265  0.28514585  0.49950807
   0.14265116  0.42851979  0.49838926
   0.14274157  0.57085617  0.49679108
   0.14269654  0.71362105  0.49682352
   0.14271139  0.85679495  0.49757185
   0.28596118  0.00011855  0.49696971
   0.28667886  0.14337889  0.49903404
   0.28666835  0.28748359  0.50170281
   0.28484152  0.42857399  0.50354599
   0.28730570  0.57184376  0.50055863
   0.28568453  0.71459963  0.49719872
   0.28507676  0.85716759  0.49604210
   0.42849446  0.99954463  0.49599643
   0.42969563  0.14326836  0.49788197
   0.42909660  0.28384205  0.50038460
   0.42728603  0.85617959  0.49663496
   0.57064558  0.99867235  0.49634210
   0.57142449  0.14174987  0.49689989
   0.57522945  0.28784712  0.50010698
   0.56950682  0.85446695  0.49967155
   0.71282635  0.99756643  0.49857790
   0.71398096  0.14112186  0.49649320
   0.71450407  0.28393627  0.49816950
   0.71041539  0.42323682  0.50275398
   0.71535365  0.57001079  0.51155491
   0.71647879  0.71324521  0.51375555
   0.71156362  0.85453611  0.50489636
   0.85611396  0.99816015  0.50053005
   0.85634849  0.14112935  0.49725838
   0.85688714  0.28421681  0.49662986
   0.85667038  0.42707516  0.49852290
   0.85588495  0.56929069  0.50215810
   0.85761727  0.71296956  0.50545763
   0.85649097  0.85532606  0.50433540
   0.04746555  0.09437882  0.49912808
   0.04694950  0.23688573  0.49815933
   0.04709179  0.38018134  0.49706350
   0.04737920  0.52299034  0.49660966
   0.04730922  0.66575862  0.49773130
   0.04732510  0.80862722  0.49921279
   0.04757167  0.95166384  0.49974513
   0.19099154  0.09522598  0.49902214
   0.19059554  0.23807940  0.50019990
   0.18930943  0.38034959  0.50022222
   0.19094358  0.52404698  0.49808126
   0.19029694  0.66628812  0.49681151
   0.19011095  0.80914474  0.49667698
   0.19070138  0.95224489  0.49760233
   0.33426377  0.09583181  0.49780379
   0.33561226  0.23899436  0.50038322
   0.33085896  0.38043935  0.50422969
   0.33126087  0.52313220  0.50512041
   0.33656532  0.67007132  0.49879185
   0.33250448  0.80941640  0.49632417
   0.33306763  0.95225136  0.49615426
   0.47640173  0.09468849  0.49676880
   0.47753234  0.23892682  0.49938913
   0.47184438  0.80551632  0.49808110
   0.47563530  0.95159345  0.49608691
   0.61857099  0.09381244  0.49632184
   0.61975002  0.23714577  0.49833234
   0.61809877  0.80975025  0.50380000
   0.61739020  0.95012708  0.49791474
   0.76111676  0.09326520  0.49705069
   0.76194052  0.23619692  0.49683467
   0.76131094  0.37877458  0.49974414
   0.75950158  0.52147447  0.50558427
   0.76212374  0.66471191  0.51091604
   0.76051395  0.80607547  0.50816044
   0.76044310  0.95007852  0.50127081
   0.90389727  0.09330458  0.49850719
   0.90428179  0.23655539  0.49666430
   0.90424719  0.37974634  0.49695062
   0.90410324  0.52250910  0.49909780
   0.90424755  0.66481683  0.50241386
   0.90452742  0.80818443  0.50364428
   0.90406228  0.95062024  0.50147557
   0.46803133  0.35649478  0.50109453
   0.40353467  0.41948082  0.50477624
   0.40376809  0.55896198  0.51080730
   0.64395827  0.67454362  0.51848378
   0.64261959  0.53381275  0.51624456
   0.57936366  0.73713230  0.50618331
   0.50078973  0.59617381  0.40699183
   0.57199993  0.56880923  0.38904089
   0.42663134  0.71500749  0.49854314
   0.62040644  0.37823434  0.50260469
   0.52472755  0.55978062  0.43021940
Direct configuration=     2
   0.99951538  0.99885337  0.49999838
   0.99944262  0.14162448  0.49850250
   0.99965300  0.28472095  0.49716827
   0.99958895  0.42762330  0.49652161
   0.99948067  0.57037771  0.49749758
   0.99982474  0.71318113  0.49953056
   0.00002984  0.85642824  0.50067071
   0.14312633  0.00004501  0.49862881
   0.14296477  0.14271377  0.49938904
   0.14247321  0.28514568  0.49950555
   0.14265207  0.42851902  0.49838619
   0.14274132  0.57085778  0.49679357
   0.14269759  0.71362242  0.49682353
   0.14271073  0.85679488  0.49757423
   0.28596095  0.00011858  0.49697168
   0.28667873  0.14337732  0.49903423
   0.28666844  0.28748309  0.50170225
   0.28484215  0.42857360  0.50354480
   0.28730615  0.57184249  0.50055323
   0.28568544  0.71459995  0.49720115
   0.28507731  0.85716871  0.49604166
   0.42849555  0.99954446  0.49599700
   0.42969528  0.14326779  0.49788228
   0.42909641  0.28384178  0.50038349
   0.42728374  0.85617919  0.49663575
   0.57064607  0.99867367  0.49634282
   0.57142376  0.14175054  0.49689836
   0.57523154  0.28784795  0.50010441
   0.56950732  0.85446722  0.49967066
   0.71282656  0.99756635  0.49857943
   0.71397980  0.14112142  0.49649428
   0.71450605  0.28393777  0.49817005
   0.71041548  0.42323727  0.50275438
   0.71535328  0.57001022  0.51155438
   0.71647938  0.71324382  0.51375497
   0.71156397  0.85453785  0.50489627
   0.85611394  0.99816028  0.50053472
   0.85634738  0.14112774  0.49726207
   0.85688677  0.28421644  0.49662936
   0.85667194  0.42707500  0.49852247
   0.85588623  0.56929153  0.50215882
   0.85761803  0.71296888  0.50545584
   0.85649002  0.85532551  0.50433451
   0.04746636  0.09438062  0.49913013
   0.04695018  0.23688647  0.49815915
   0.04709230  0.38018217  0.49706315
   0.04737902  0.52298940  0.49660978
   0.04730910  0.66575861  0.49773077
   0.04732384  0.80862771  0.49921524
   0.04757251  0.95166465  0.49974328
   0.19099277  0.09522735  0.49902227
   0.19059552  0.23807998  0.50019899
   0.18931063  0.38034990  0.50021946
   0.19094316  0.52404699  0.49808016
   0.19029722  0.66628869  0.49681118
   0.19011184  0.80914728  0.49667558
   0.19070116  0.95224696  0.49760491
   0.33426437  0.09583233  0.49780417
   0.33561257  0.23899465  0.50038168
   0.33086071  0.38043889  0.50422400
   0.33126059  0.52313144  0.50512377
   0.33656617  0.67007045  0.49878817
   0.33250562  0.80941576  0.49632588
   0.33306895  0.95225129  0.49615552
   0.47640249  0.09468949  0.49676925
   0.47753266  0.23892738  0.49938838
   0.47184335  0.80551635  0.49808036
   0.47563548  0.95159430  0.49608813
   0.61856765  0.09380992  0.49632276
   0.61975036  0.23714457  0.49833269
   0.61809855  0.80974980  0.50379738
   0.61739141  0.95012712  0.49791479
   0.76111610  0.09326472  0.49705235
   0.76194043  0.23619540  0.49683325
   0.76131204  0.37877522  0.49974443
   0.75950228  0.52147519  0.50558418
   0.76212364  0.66471178  0.51091291
   0.76051488  0.80607688  0.50815650
   0.76044343  0.95007940  0.50127161
   0.90389641  0.09330408  0.49851138
   0.90428138  0.23655433  0.49666580
   0.90424695  0.37974486  0.49694946
   0.90410349  0.52250882  0.49909888
   0.90424848  0.66481741  0.50241387
   0.90452815  0.80818515  0.50364474
   0.90406175  0.95062121  0.50147742
   0.46803249  0.35649568  0.50109234
   0.40353438  0.41948074  0.50477108
   0.40376691  0.55896143  0.51080294
   0.64395960  0.67454377  0.51847825
   0.64261910  0.53381274  0.51623863
   0.57936344  0.73713111  0.50618070
   0.50078458  0.59617243  0.40701148
   0.57198458  0.56880343  0.38902989
   0.42663092  0.71500724  0.49853983
   0.62040741  0.37823439  0.50260282
   0.52472442  0.55977621  0.43021301
Direct configuration=     3
   0.99951556  0.99885381  0.50000058
   0.99944276  0.14162568  0.49850413
   0.99965356  0.28472185  0.49716842
   0.99958928  0.42762169  0.49652092
   0.99948048  0.57037764  0.49749693
   0.99982490  0.71318179  0.49953184
   0.00002850  0.85642791  0.50067145
   0.14312727  0.00004686  0.49862865
   0.14296605  0.14271447  0.49938542
   0.14247247  0.28514601  0.49950320
   0.14265306  0.42851903  0.49838195
   0.14274198  0.57085784  0.49679733
   0.14269861  0.71362434  0.49682338
   0.14270982  0.85679619  0.49757769
   0.28596138  0.00011921  0.49697469
   0.28667920  0.14337712  0.49903450
   0.28666901  0.28748292  0.50170082
   0.28484361  0.42857279  0.50354295
   0.28730644  0.57184082  0.50054602
   0.28568654  0.71459945  0.49720427
   0.28507880  0.85717008  0.49604125
   0.42849732  0.99954535  0.49599810
   0.42969563  0.14326822  0.49788275
   0.42909678  0.28384253  0.50038175
   0.42728308  0.85617964  0.49663715
   0.57064522  0.99867200  0.49634333
   0.57142275  0.14175055  0.49689655
   0.57523304  0.28784800  0.50010100
   0.56950722  0.85446737  0.49966929
   0.71282677  0.99756647  0.49858167
   0.71397739  0.14111962  0.49649582
   0.71450762  0.28393821  0.49817074
   0.71041647  0.42323826  0.50275483
   0.71535304  0.57000985  0.51155311
   0.71648099  0.71324431  0.51375319
   0.71156469  0.85453769  0.50489580
   0.85611394  0.99816095  0.50054149
   0.85634660  0.14112620  0.49726638
   0.85688642  0.28421478  0.49662861
   0.85667332  0.42707460  0.49852201
   0.85588739  0.56929218  0.50215998
   0.85761888  0.71296924  0.50545338
   0.85648968  0.85532603  0.50433316
   0.04746751  0.09438212  0.49913273
   0.04695156  0.23688789  0.49815827
   0.04709308  0.38018319  0.49706243
   0.04737832  0.52298961  0.49661010
   0.04730961  0.66575941  0.49773018
   0.04732341  0.80862790  0.49921882
   0.04757394  0.95166529  0.49974097
   0.19099404  0.09522832  0.49902217
   0.19059631  0.23808113  0.50019737
   0.18931216  0.38034995  0.50021530
   0.19094282  0.52404741  0.49807827
   0.19029790  0.66629066  0.49681130
   0.19011254  0.80914980  0.49667396
   0.19070319  0.95224768  0.49760822
   0.33426460  0.09583186  0.49780498
   0.33561230  0.23899394  0.50037961
   0.33086150  0.38043800  0.50421595
   0.33125906  0.52313242  0.50512515
   0.33656600  0.67006904  0.49878301
   0.33250506  0.80941526  0.49632843
   0.33306809  0.95224972  0.49615517
   0.47640261  0.09469025  0.49676980
   0.47753357  0.23892773  0.49938710
   0.47184214  0.80551668  0.49807928
   0.47563611  0.95159365  0.49608755
   0.61856885  0.09381078  0.49632424
   0.61975210  0.23714488  0.49833297
   0.61809816  0.80974914  0.50379363
   0.61739234  0.95012756  0.49791501
   0.76111478  0.09326429  0.49705516
   0.76194015  0.23619458  0.49683156
   0.76131377  0.37877650  0.49974502
   0.75950319  0.52147608  0.50558424
   0.76212393  0.66471105  0.51090863
   0.76051531  0.80607560  0.50815226
   0.76044369  0.95008044  0.50127326
   0.90389605  0.09330400  0.49851775
   0.90428133  0.23655363  0.49666813
   0.90424808  0.37974545  0.49694787
   0.90410401  0.52250891  0.49910036
   0.90424971  0.66481772  0.50241389
   0.90452882  0.80818537  0.50364519
   0.90406135  0.95062152  0.50148038
   0.46803382  0.35649651  0.50108914
   0.40353495  0.41948112  0.50476326
   0.40376603  0.55896107  0.51079690
   0.64396090  0.67454360  0.51847034
   0.64261818  0.53381266  0.51623004
   0.57936328  0.73712979  0.50617679
   0.50077615  0.59617249  0.40703976
   0.57196569  0.56879601  0.38900992
   0.42663156  0.71500751  0.49853486
   0.62040862  0.37823487  0.50260016
   0.52471681  0.55976662  0.43020916
Direct configuration=     4
   0.99951632  0.99885608  0.50000333
   0.99944251  0.14162630  0.49850694
   0.99965340  0.28472203  0.49716877
   0.99958978  0.42762128  0.49651992
   0.99948099  0.57037764  0.49749637
   0.99982572  0.71318278  0.49953361
   0.00002662  0.85642793  0.50067241
   0.14312705  0.00004962  0.49862981
   0.14296674  0.14271471  0.49938193
   0.14247176  0.28514708  0.49950088
   0.14265418  0.42852017  0.49837686
   0.14274143  0.57085835  0.49680053
   0.14269823  0.71362339  0.49682336
   0.14270945  0.85679874  0.49758198
   0.28596270  0.00011961  0.49697844
   0.28668051  0.14337832  0.49903480
   0.28666968  0.28748262  0.50169797
   0.28484547  0.42857196  0.50354018
   0.28730578  0.57183989  0.50053771
   0.28568719  0.71459828  0.49720749
   0.28507995  0.85717050  0.49604092
   0.42849857  0.99954655  0.49599950
   0.42969651  0.14326959  0.49788333
   0.42909785  0.28384392  0.50037929
   0.42728388  0.85618041  0.49663905
   0.57064498  0.99867000  0.49634439
   0.57142283  0.14175030  0.49689489
   0.57523400  0.28784757  0.50009712
   0.56950636  0.85446717  0.49966738
   0.71282689  0.99756692  0.49858456
   0.71397512  0.14111755  0.49649771
   0.71450793  0.28393726  0.49817008
   0.71041875  0.42323972  0.50275516
   0.71535297  0.57000978  0.51155068
   0.71648319  0.71324591  0.51374956
   0.71156521  0.85453561  0.50489455
   0.85611395  0.99816194  0.50055003
   0.85634599  0.14112529  0.49727007
   0.85688634  0.28421260  0.49662759
   0.85667342  0.42707578  0.49852293
   0.85588825  0.56929238  0.50216154
   0.85761963  0.71297017  0.50545046
   0.85649051  0.85532727  0.50433143
   0.04746851  0.09438283  0.49913546
   0.04695259  0.23688955  0.49815673
   0.04709434  0.38018363  0.49706121
   0.04737771  0.52299041  0.49661075
   0.04731083  0.66576101  0.49772967
   0.04732366  0.80862806  0.49922330
   0.04757516  0.95166583  0.49973865
   0.19099500  0.09522884  0.49902161
   0.19059763  0.23808246  0.50019494
   0.18931376  0.38034987  0.50020993
   0.19094277  0.52404758  0.49807542
   0.19029908  0.66629311  0.49681233
   0.19011285  0.80915185  0.49667254
   0.19070619  0.95224754  0.49761219
   0.33426481  0.09583096  0.49780638
   0.33561202  0.23899264  0.50037718
   0.33086182  0.38043740  0.50420622
   0.33125880  0.52313111  0.50512330
   0.33656549  0.67006740  0.49877672
   0.33250333  0.80941514  0.49633170
   0.33306887  0.95225136  0.49615463
   0.47640200  0.09469031  0.49677034
   0.47753499  0.23892808  0.49938517
   0.47184310  0.80551668  0.49807685
   0.47563637  0.95159319  0.49608668
   0.61857215  0.09381336  0.49632606
   0.61975477  0.23714655  0.49833285
   0.61809795  0.80974837  0.50378895
   0.61739229  0.95012774  0.49791548
   0.76111318  0.09326377  0.49705921
   0.76193977  0.23619429  0.49682996
   0.76131584  0.37877785  0.49974592
   0.75950433  0.52147695  0.50558455
   0.76212500  0.66471011  0.51090358
   0.76051596  0.80607438  0.50814823
   0.76044389  0.95008091  0.50127612
   0.90389661  0.09330454  0.49852617
   0.90428182  0.23655309  0.49667113
   0.90424889  0.37974475  0.49694582
   0.90410470  0.52250920  0.49910201
   0.90425085  0.66481786  0.50241392
   0.90452867  0.80818522  0.50364535
   0.90406139  0.95062125  0.50148452
   0.46803519  0.35649718  0.50108498
   0.40353648  0.41948189  0.50475280
   0.40376541  0.55896103  0.51078957
   0.64396212  0.67454309  0.51846030
   0.64261696  0.53381257  0.51621901
   0.57936332  0.73712863  0.50617154
   0.50076434  0.59617458  0.40707566
   0.57194351  0.56878725  0.38898067
   0.42663267  0.71500803  0.49852813
   0.62040996  0.37823550  0.50259670
   0.52470427  0.55975052  0.43020880
Direct configuration=     5
   0.99951764  0.99885868  0.50000651
   0.99944289  0.14162676  0.49851122
   0.99965318  0.28472172  0.49716930
   0.99959046  0.42762234  0.49651858
   0.99948219  0.57037852  0.49749606
   0.99982753  0.71318389  0.49953587
   0.00002860  0.85643068  0.50067418
   0.14312853  0.00005120  0.49863089
   0.14296738  0.14271525  0.49937910
   0.14247252  0.28514860  0.49949821
   0.14265568  0.42852156  0.49837116
   0.14274051  0.57085835  0.49679923
   0.14269898  0.71362588  0.49682290
   0.14271051  0.85680123  0.49758684
   0.28596493  0.00011956  0.49698265
   0.28668233  0.14337941  0.49903503
   0.28666988  0.28748115  0.50169443
   0.28484704  0.42857119  0.50353591
   0.28730479  0.57183949  0.50052886
   0.28568709  0.71459726  0.49720888
   0.28507965  0.85717026  0.49604074
   0.42849860  0.99954743  0.49600087
   0.42969735  0.14327088  0.49788391
   0.42909949  0.28384476  0.50037595
   0.42728497  0.85618049  0.49664121
   0.57064635  0.99866983  0.49634589
   0.57142493  0.14175065  0.49689379
   0.57523530  0.28784778  0.50009311
   0.56950585  0.85446651  0.49966481
   0.71282676  0.99756715  0.49858820
   0.71397529  0.14111730  0.49649991
   0.71450796  0.28393735  0.49816852
   0.71042173  0.42324099  0.50275518
   0.71535308  0.57000979  0.51154655
   0.71648523  0.71324653  0.51374344
   0.71156546  0.85453518  0.50489340
   0.85611410  0.99816249  0.50056019
   0.85634560  0.14112530  0.49727369
   0.85688663  0.28421106  0.49662632
   0.85667446  0.42707636  0.49852370
   0.85588903  0.56929240  0.50216348
   0.85762031  0.71297051  0.50544730
   0.85649242  0.85532832  0.50432962
   0.04746906  0.09438313  0.49913804
   0.04695221  0.23689035  0.49815478
   0.04709408  0.38018271  0.49705906
   0.04737790  0.52299118  0.49661172
   0.04731209  0.66576204  0.49772942
   0.04732394  0.80862892  0.49922852
   0.04757512  0.95166667  0.49973696
   0.19099560  0.09522952  0.49902053
   0.19059862  0.23808322  0.50019164
   0.18931512  0.38035035  0.50020360
   0.19094282  0.52404770  0.49807139
   0.19030014  0.66629386  0.49681462
   0.19011321  0.80915197  0.49667297
   0.19070591  0.95224851  0.49761753
   0.33426575  0.09583116  0.49780857
   0.33561303  0.23899210  0.50037451
   0.33086274  0.38043883  0.50419629
   0.33125789  0.52313010  0.50511789
   0.33656579  0.67006626  0.49876966
   0.33250275  0.80941429  0.49633423
   0.33307080  0.95225266  0.49615459
   0.47640188  0.09469014  0.49677080
   0.47753666  0.23892899  0.49938245
   0.47184381  0.80551715  0.49807418
   0.47563631  0.95159314  0.49608732
   0.61856975  0.09381250  0.49632778
   0.61975674  0.23714781  0.49833191
   0.61809827  0.80974752  0.50378344
   0.61739122  0.95012698  0.49791628
   0.76111232  0.09326312  0.49706445
   0.76193951  0.23619366  0.49682863
   0.76131739  0.37877840  0.49974710
   0.75950572  0.52147753  0.50558512
   0.76212672  0.66470979  0.51089797
   0.76051381  0.80607486  0.50814738
   0.76044393  0.95008004  0.50128053
   0.90389780  0.09330551  0.49853642
   0.90428252  0.23655211  0.49667449
   0.90425005  0.37974448  0.49694357
   0.90410566  0.52250979  0.49910374
   0.90425173  0.66481816  0.50241397
   0.90452765  0.80818530  0.50364484
   0.90406234  0.95062151  0.50148989
   0.46803672  0.35649788  0.50107991
   0.40353853  0.41948262  0.50473977
   0.40376535  0.55896131  0.51078147
   0.64396351  0.67454234  0.51844823
   0.64261583  0.53381255  0.51620570
   0.57936365  0.73712772  0.50616495
   0.50075030  0.59617736  0.40711859
   0.57191475  0.56877658  0.38894517
   0.42663348  0.71500780  0.49851943
   0.62041151  0.37823592  0.50259245
   0.52468941  0.55973009  0.43020771
Direct configuration=     6
   0.99951872  0.99886014  0.50000998
   0.99944415  0.14162751  0.49851706
   0.99965315  0.28472128  0.49716983
   0.99959120  0.42762400  0.49651686
   0.99948362  0.57038049  0.49749619
   0.99982932  0.71318485  0.49953857
   0.00002971  0.85643208  0.50067618
   0.14313075  0.00005116  0.49863190
   0.14296648  0.14271540  0.49937860
   0.14247437  0.28514994  0.49949465
   0.14265661  0.42852197  0.49836493
   0.14274136  0.57085658  0.49679805
   0.14269964  0.71362646  0.49682281
   0.14271216  0.85680239  0.49759223
   0.28596685  0.00011963  0.49698714
   0.28668368  0.14337943  0.49903512
   0.28667031  0.28748024  0.50168968
   0.28484750  0.42857128  0.50352947
   0.28730427  0.57183929  0.50051980
   0.28568651  0.71459797  0.49720687
   0.28507869  0.85716980  0.49604087
   0.42849823  0.99954769  0.49600202
   0.42969822  0.14327153  0.49788435
   0.42910154  0.28384494  0.50037161
   0.42728516  0.85617975  0.49664339
   0.57064723  0.99867122  0.49634776
   0.57142717  0.14175168  0.49689491
   0.57523729  0.28784932  0.50008905
   0.56950618  0.85446537  0.49966144
   0.71282598  0.99756614  0.49859274
   0.71397680  0.14111864  0.49650237
   0.71451020  0.28393887  0.49816717
   0.71042415  0.42324149  0.50275472
   0.71535323  0.57000969  0.51154022
   0.71648623  0.71324581  0.51373452
   0.71156459  0.85453651  0.50489232
   0.85611461  0.99816233  0.50057186
   0.85634566  0.14112579  0.49727809
   0.85688719  0.28421111  0.49662635
   0.85667679  0.42707603  0.49852420
   0.85588995  0.56929288  0.50216572
   0.85762115  0.71297013  0.50544407
   0.85649319  0.85532854  0.50432840
   0.04746948  0.09438412  0.49914039
   0.04695122  0.23689014  0.49815285
   0.04709311  0.38018183  0.49705584
   0.04737882  0.52299177  0.49661252
   0.04731319  0.66576267  0.49772951
   0.04732661  0.80863235  0.49923323
   0.04757488  0.95166887  0.49973647
   0.19099652  0.09523105  0.49901896
   0.19059880  0.23808321  0.50018754
   0.18931600  0.38035172  0.50019662
   0.19094244  0.52404819  0.49806565
   0.19030004  0.66629274  0.49681767
   0.19011293  0.80915210  0.49667409
   0.19070629  0.95225093  0.49762345
   0.33426754  0.09583263  0.49781161
   0.33561564  0.23899316  0.50037161
   0.33086489  0.38044056  0.50418657
   0.33125591  0.52312868  0.50511148
   0.33656716  0.67006619  0.49876201
   0.33250392  0.80941322  0.49633581
   0.33307204  0.95225244  0.49615400
   0.47640329  0.09469107  0.49677113
   0.47753823  0.23893060  0.49937886
   0.47184387  0.80551753  0.49807112
   0.47563646  0.95159379  0.49608961
   0.61856860  0.09381078  0.49632949
   0.61975716  0.23714774  0.49832976
   0.61809869  0.80974703  0.50377711
   0.61739034  0.95012570  0.49791748
   0.76111269  0.09326286  0.49707063
   0.76193973  0.23619283  0.49682762
   0.76131820  0.37877801  0.49974835
   0.75950706  0.52147780  0.50558580
   0.76212837  0.66471043  0.51089174
   0.76051424  0.80607735  0.50814867
   0.76044377  0.95007888  0.50128662
   0.90389860  0.09330645  0.49854814
   0.90428253  0.23655085  0.49667775
   0.90425088  0.37974465  0.49694124
   0.90410703  0.52251067  0.49910548
   0.90425270  0.66481894  0.50241407
   0.90452750  0.80818642  0.50364332
   0.90406431  0.95062330  0.50149646
   0.46803835  0.35649872  0.50107393
   0.40354050  0.41948321  0.50472430
   0.40376533  0.55896178  0.51077303
   0.64396505  0.67454131  0.51843412
   0.64261505  0.53381289  0.51619019
   0.57936428  0.73712721  0.50615700
   0.50073546  0.59617861  0.40716827
   0.57187627  0.56876358  0.38890616
   0.42663344  0.71500664  0.49850871
   0.62041364  0.37823635  0.50258743
   0.52467375  0.55970836  0.43020085
Direct configuration=     7
   0.99951935  0.99886079  0.50001417
   0.99944537  0.14162843  0.49852530
   0.99965293  0.28472068  0.49717020
   0.99959241  0.42762322  0.49651533
   0.99948517  0.57038280  0.49749712
   0.99983113  0.71318673  0.49954199
   0.00002933  0.85643285  0.50067863
   0.14313205  0.00005131  0.49863321
   0.14296490  0.14271544  0.49938037
   0.14247579  0.28515044  0.49948918
   0.14265552  0.42852084  0.49835739
   0.14274178  0.57085864  0.49679634
   0.14270019  0.71362406  0.49682370
   0.14271424  0.85680310  0.49759881
   0.28596791  0.00012084  0.49699235
   0.28668449  0.14337936  0.49903511
   0.28667232  0.28748183  0.50168274
   0.28484692  0.42857222  0.50351947
   0.28730455  0.57183940  0.50050974
   0.28568653  0.71459800  0.49720308
   0.28507872  0.85716911  0.49604158
   0.42849901  0.99954772  0.49600300
   0.42970027  0.14327237  0.49788460
   0.42910427  0.28384582  0.50036565
   0.42728526  0.85617934  0.49664397
   0.57064515  0.99867018  0.49634939
   0.57142775  0.14175247  0.49689654
   0.57523965  0.28785162  0.50008442
   0.56950669  0.85446386  0.49965680
   0.71282487  0.99756396  0.49859915
   0.71397806  0.14111950  0.49650543
   0.71451339  0.28394043  0.49816594
   0.71042549  0.42324109  0.50275367
   0.71535358  0.57000949  0.51153047
   0.71648703  0.71324582  0.51372153
   0.71156325  0.85453876  0.50489170
   0.85611583  0.99816218  0.50058658
   0.85634629  0.14112582  0.49728499
   0.85688818  0.28421239  0.49662776
   0.85667828  0.42707711  0.49852635
   0.85589145  0.56929405  0.50216856
   0.85762267  0.71297043  0.50544065
   0.85649228  0.85532907  0.50432876
   0.04746994  0.09438600  0.49914322
   0.04695194  0.23688994  0.49815148
   0.04709513  0.38018323  0.49705152
   0.04738052  0.52299240  0.49661283
   0.04731435  0.66576363  0.49773033
   0.04733105  0.80863695  0.49923793
   0.04757603  0.95167189  0.49973788
   0.19099798  0.09523286  0.49901711
   0.19059653  0.23808257  0.50018383
   0.18931639  0.38035344  0.50018836
   0.19094224  0.52404821  0.49805720
   0.19029864  0.66629033  0.49682102
   0.19011260  0.80915265  0.49667639
   0.19070964  0.95225059  0.49763037
   0.33426985  0.09583405  0.49781587
   0.33561911  0.23899524  0.50036808
   0.33086738  0.38044078  0.50417607
   0.33125422  0.52312828  0.50510280
   0.33656832  0.67006716  0.49875271
   0.33250542  0.80941290  0.49633621
   0.33307116  0.95225009  0.49615346
   0.47640622  0.09469332  0.49677164
   0.47754026  0.23893233  0.49937396
   0.47184356  0.80551684  0.49806703
   0.47563795  0.95159357  0.49609058
   0.61857169  0.09381070  0.49633161
   0.61975754  0.23714745  0.49832627
   0.61809849  0.80974672  0.50376928
   0.61739041  0.95012452  0.49791934
   0.76111401  0.09326318  0.49707835
   0.76194474  0.23619631  0.49682798
   0.76131988  0.37877758  0.49974960
   0.75950818  0.52147791  0.50558640
   0.76212845  0.66471077  0.51088554
   0.76051755  0.80607682  0.50814795
   0.76044359  0.95007911  0.50129541
   0.90389862  0.09330672  0.49856251
   0.90428173  0.23655057  0.49668106
   0.90425157  0.37974515  0.49693895
   0.90410905  0.52251160  0.49910749
   0.90425467  0.66482027  0.50241445
   0.90452920  0.80818775  0.50364050
   0.90406669  0.95062601  0.50150516
   0.46804014  0.35649958  0.50106635
   0.40354264  0.41948385  0.50470474
   0.40376410  0.55896194  0.51076381
   0.64396637  0.67453948  0.51841620
   0.64261481  0.53381386  0.51617069
   0.57936541  0.73712720  0.50614672
   0.50071865  0.59617752  0.40723006
   0.57182403  0.56874697  0.38885779
   0.42663318  0.71500536  0.49849480
   0.62041703  0.37823754  0.50258126
   0.52465339  0.55968308  0.43018663
Direct configuration=     8
   0.99952053  0.99886249  0.50001938
   0.99944525  0.14162912  0.49853611
   0.99965312  0.28472057  0.49716998
   0.99959402  0.42762384  0.49651264
   0.99948680  0.57038317  0.49749912
   0.99983450  0.71319125  0.49954589
   0.00003042  0.85643512  0.50068133
   0.14313311  0.00005277  0.49863525
   0.14296691  0.14271726  0.49938168
   0.14247538  0.28515023  0.49948113
   0.14265434  0.42852057  0.49834790
   0.14274347  0.57085665  0.49679497
   0.14270288  0.71362711  0.49682568
   0.14271759  0.85680405  0.49760668
   0.28596932  0.00012237  0.49699834
   0.28668634  0.14338146  0.49903502
   0.28667501  0.28748491  0.50167303
   0.28484727  0.42857449  0.50350722
   0.28730379  0.57183895  0.50050028
   0.28568793  0.71459664  0.49720017
   0.28507990  0.85716754  0.49604300
   0.42850140  0.99954750  0.49600357
   0.42970434  0.14327454  0.49788457
   0.42910754  0.28384843  0.50035764
   0.42728941  0.85618162  0.49664146
   0.57064412  0.99866705  0.49635092
   0.57142890  0.14175257  0.49689813
   0.57524206  0.28785290  0.50007849
   0.56950600  0.85446265  0.49965059
   0.71282510  0.99756342  0.49860823
   0.71398110  0.14112015  0.49650938
   0.71451379  0.28394055  0.49816322
   0.71042717  0.42324065  0.50275178
   0.71535439  0.57001137  0.51151873
   0.71648810  0.71324634  0.51370397
   0.71156483  0.85453627  0.50489225
   0.85611762  0.99816358  0.50060505
   0.85634722  0.14112500  0.49729606
   0.85689155  0.28421523  0.49662824
   0.85667927  0.42707965  0.49853013
   0.85589216  0.56929490  0.50217027
   0.85762462  0.71297234  0.50543726
   0.85649318  0.85533104  0.50433157
   0.04746980  0.09438692  0.49914760
   0.04695485  0.23689308  0.49815304
   0.04709522  0.38018317  0.49704559
   0.04738173  0.52299314  0.49661224
   0.04731580  0.66576526  0.49773245
   0.04733137  0.80863776  0.49924428
   0.04757896  0.95167344  0.49974189
   0.19099901  0.09523316  0.49901567
   0.19059531  0.23808275  0.50018072
   0.18931634  0.38035366  0.50017817
   0.19094273  0.52404783  0.49804550
   0.19029859  0.66628958  0.49682338
   0.19011335  0.80915092  0.49668043
   0.19071486  0.95225239  0.49763837
   0.33427214  0.09583445  0.49782115
   0.33562180  0.23899685  0.50036330
   0.33086853  0.38044018  0.50416373
   0.33125453  0.52312960  0.50509054
   0.33656748  0.67006776  0.49874097
   0.33250097  0.80941080  0.49633265
   0.33307317  0.95225251  0.49615569
   0.47640868  0.09469429  0.49677261
   0.47754383  0.23893334  0.49936755
   0.47184368  0.80551457  0.49806074
   0.47563871  0.95159212  0.49609004
   0.61857051  0.09381002  0.49633407
   0.61976035  0.23714895  0.49832165
   0.61809815  0.80974618  0.50375970
   0.61739048  0.95012318  0.49792189
   0.76111494  0.09326284  0.49708777
   0.76194753  0.23619843  0.49682932
   0.76132326  0.37877860  0.49975073
   0.75950963  0.52147805  0.50558616
   0.76212819  0.66471007  0.51087797
   0.76051587  0.80607700  0.50814614
   0.76044424  0.95008108  0.50130764
   0.90389880  0.09330595  0.49857991
   0.90428205  0.23655224  0.49668450
   0.90425159  0.37974370  0.49693736
   0.90411132  0.52251305  0.49911019
   0.90425806  0.66482212  0.50241541
   0.90453147  0.80818813  0.50363653
   0.90406751  0.95062698  0.50151648
   0.46804247  0.35650051  0.50105677
   0.40354528  0.41948462  0.50468052
   0.40376091  0.55896131  0.51075401
   0.64396702  0.67453660  0.51839345
   0.64261538  0.53381545  0.51614625
   0.57936732  0.73712751  0.50613349
   0.50069766  0.59617707  0.40730384
   0.57176134  0.56872737  0.38879246
   0.42663404  0.71500518  0.49847752
   0.62042092  0.37823967  0.50257400
   0.52462308  0.55964855  0.43017123
Direct configuration=     9
   0.99952284  0.99886458  0.50002670