  93  93   0   0
  0.4166543E+02  0.1727104E-08  0.1727104E-08  0.1500000E-08  0.0000000E+00
  1.000000000000000E-004
  CAR 
 unknown system                          
      5.76938709    -31.05442611  301     -2.84065155      1.00000000
    -31.054  0.0000E+00  0.0000E+00  0.0000E+00  0.0000E+00
    -30.932  0.0000E+00  0.0000E+00  0.0000E+00  0.0000E+00
    -30.809  0.0000E+00  0.0000E+00  0.0000E+00  0.0000E+00
    -30.686  0.0000E+00  0.0000E+00  0.0000E+00  0.0000E+00
    -30.563  0.0000E+00  0.0000E+00  0.0000E+00  0.0000E+00
    -30.441  0.0000E+00  0.0000E+00  0.0000E+00  0.0000E+00
    -30.318  0.0000E+00  0.0000E+00  0.0000E+00  0.0000E+00
    -30.195  0.0000E+00  0.0000E+00  0.0000E+00  0.0000E+00
    -30.072  0.0000E+00  0.0000E+00  0.0000E+00  0.0000E+00
    -29.950  0.0000E+00  0.0000E+00  0.0000E+00  0.0000E+00
    -29.827  0.0000E+00  0.0000E+00  0.0000E+00  0.0000E+00
    -29.704  0.0000E+00  0.0000E+00  0.0000E+00  0.0000E+00
    -29.581  0.5430E-10  0.5430E-10  0.6665E-11  0.6665E-11
    -29.459  0.1104E-03  0.1104E-03  0.1355E-04  0.1355E-04
    -29.336  0.7505E-02  0.7505E-02  0.9347E-03  0.9347E-03
    -29.213  0.8316E-02  0.8316E-02  0.1955E-02  0.1955E-02
    -29.090  0.3627E-03  0.3627E-03  0.2000E-02  0.2000E-02
    -28.968  0.9420E-09  0.9420E-09  0.2000E-02  0.2000E-02
    -28.845  0.0000E+00  0.0000E+00  0.2000E-02  0.2000E-02
    -28.722  0.0000E+00  0.0000E+00  0.2000E-02  0.2000E-02
    -28.600  0.0000E+00  0.0000E+00  0.2000E-02  0.2000E-02
    -28.477  0.0000E+00  0.0000E+00  0.2000E-02  0.2000E-02
    -28.354  0.0000E+00  0.0000E+00  0.2000E-02  0.2000E-02
    -28.231  0.0000E+00  0.0000E+00  0.2000E-02  0.2000E-02
    -28.109  0.0000E+00  0.0000E+00  0.2000E-02  0.2000E-02
    -27.986  0.0000E+00  0.0000E+00  0.2000E-02  0.2000E-02
    -27.863  0.0000E+00  0.0000E+00  0.2000E-02  0.2000E-02
    -27.740  0.0000E+00  0.0000E+00  0.2000E-02  0.2000E-02
    -27.618  0.0000E+00  0.0000E+00  0.2000E-02  0.2000E-02
    -27.495  0.0000E+00  0.0000E+00  0.2000E-02  0.2000E-02
    -27.372  0.0000E+00  0.0000E+00  0.2000E-02  0.2000E-02
    -27.249  0.0000E+00  0.0000E+00  0.2000E-02  0.2000E-02
    -27.127  0.0000E+00  0.0000E+00  0.2000E-02  0.2000E-02
    -27.004  0.0000E+00  0.0000E+00  0.2000E-02  0.2000E-02
    -26.881  0.0000E+00  0.0000E+00  0.2000E-02  0.2000E-02
    -26.758  0.0000E+00  0.0000E+00  0.2000E-02  0.2000E-02
    -26.636  0.0000E+00  0.0000E+00  0.2000E-02  0.2000E-02
    -26.513  0.0000E+00  0.0000E+00  0.2000E-02  0.2000E-02
    -26.390  0.0000E+00  0.0000E+00  0.2000E-02  0.2000E-02
    -26.267  0.0000E+00  0.0000E+00  0.2000E-02  0.2000E-02
    -26.145  0.0000E+00  0.0000E+00  0.2000E-02  0.2000E-02
    -26.022  0.0000E+00  0.0000E+00  0.2000E-02  0.2000E-02
    -25.899  0.0000E+00  0.0000E+00  0.2000E-02  0.2000E-02
    -25.776  0.0000E+00  0.0000E+00  0.2000E-02  0.2000E-02
    -25.654  0.0000E+00  0.0000E+00  0.2000E-02  0.2000E-02
    -25.531  0.0000E+00  0.0000E+00  0.2000E-02  0.2000E-02
    -25.408  0.0000E+00  0.0000E+00  0.2000E-02  0.2000E-02
    -25.285  0.0000E+00  0.0000E+00  0.2000E-02  0.2000E-02
    -25.163  0.0000E+00  0.0000E+00  0.2000E-02  0.2000E-02
    -25.040  0.0000E+00  0.0000E+00  0.2000E-02  0.2000E-02
    -24.917  0.0000E+00  0.0000E+00  0.2000E-02  0.2000E-02
    -24.794  0.0000E+00  0.0000E+00  0.2000E-02  0.2000E-02
    -24.672  0.0000E+00  0.0000E+00  0.2000E-02  0.2000E-02
    -24.549  0.0000E+00  0.0000E+00  0.2000E-02  0.2000E-02
    -24.426  0.0000E+00  0.0000E+00  0.2000E-02  0.2000E-02
    -24.303  0.0000E+00  0.0000E+00  0.2000E-02  0.2000E-02
    -24.181  0.0000E+00  0.0000E+00  0.2000E-02  0.2000E-02
    -24.058  0.0000E+00  0.0000E+00  0.2000E-02  0.2000E-02
    -23.935  0.0000E+00  0.0000E+00  0.2000E-02  0.2000E-02
    -23.812  0.0000E+00  0.0000E+00  0.2000E-02  0.2000E-02
    -23.690  0.0000E+00  0.0000E+00  0.2000E-02  0.2000E-02
    -23.567  0.0000E+00  0.0000E+00  0.2000E-02  0.2000E-02
    -23.444  0.0000E+00  0.0000E+00  0.2000E-02  0.2000E-02
    -23.321  0.0000E+00  0.0000E+00  0.2000E-02  0.2000E-02
    -23.199  0.0000E+00  0.0000E+00  0.2000E-02  0.2000E-02
    -23.076  0.0000E+00  0.0000E+00  0.2000E-02  0.2000E-02
    -22.953  0.0000E+00  0.0000E+00  0.2000E-02  0.2000E-02
    -22.830  0.1645E-10  0.1645E-10  0.2000E-02  0.2000E-02
    -22.708  0.5212E-04  0.5212E-04  0.2006E-02  0.2006E-02
    -22.585  0.8403E-02  0.8403E-02  0.3038E-02  0.3038E-02
    -22.462  0.7860E-02  0.7860E-02  0.4003E-02  0.4003E-02
    -22.339  0.7574E-02  0.7574E-02  0.4932E-02  0.4932E-02
    -22.217  0.8628E-02  0.8628E-02  0.5991E-02  0.5991E-02
    -22.094  0.6443E-03  0.6443E-03  0.6070E-02  0.6070E-02
    -21.971  0.6244E-02  0.6244E-02  0.6837E-02  0.6837E-02
    -21.848  0.9032E-02  0.9032E-02  0.7945E-02  0.7945E-02
    -21.726  0.6827E-02  0.6827E-02  0.8783E-02  0.8783E-02
    -21.603  0.5673E-02  0.5673E-02  0.9480E-02  0.9480E-02
    -21.480  0.5567E-02  0.5567E-02  0.1016E-01  0.1016E-01
    -21.357  0.7468E-02  0.7468E-02  0.1108E-01  0.1108E-01
    -21.235  0.1244E-01  0.1244E-01  0.1261E-01  0.1261E-01
    -21.112  0.3281E-02  0.3281E-02  0.1301E-01  0.1301E-01
    -20.989  0.6428E-02  0.6428E-02  0.1380E-01  0.1380E-01
    -20.867  0.7070E-02  0.7070E-02  0.1467E-01  0.1467E-01
    -20.744  0.4697E-02  0.4697E-02  0.1524E-01  0.1524E-01
    -20.621  0.6246E-02  0.6246E-02  0.1601E-01  0.1601E-01
    -20.498  0.7054E-02  0.7054E-02  0.1688E-01  0.1688E-01
    -20.376  0.7110E-02  0.7110E-02  0.1775E-01  0.1775E-01
    -20.253  0.5671E-02  0.5671E-02  0.1844E-01  0.1844E-01
    -20.130  0.5681E-02  0.5681E-02  0.1914E-01  0.1914E-01
    -20.007  0.6723E-02  0.6723E-02  0.1997E-01  0.1997E-01
    -19.885  0.3474E-02  0.3474E-02  0.2039E-01  0.2039E-01
    -19.762  0.7644E-02  0.7644E-02  0.2133E-01  0.2133E-01
    -19.639  0.1041E-01  0.1041E-01  0.2261E-01  0.2261E-01
    -19.516  0.8976E-02  0.8976E-02  0.2371E-01  0.2371E-01
    -19.394  0.3239E-02  0.3239E-02  0.2411E-01  0.2411E-01
    -19.271  0.6467E-02  0.6467E-02  0.2490E-01  0.2490E-01
    -19.148  0.4424E-02  0.4424E-02  0.2545E-01  0.2545E-01
    -19.025  0.4484E-02  0.4484E-02  0.2600E-01  0.2600E-01
    -18.903  0.5178E-02  0.5178E-02  0.2663E-01  0.2663E-01
    -18.780  0.1394E-01  0.1394E-01  0.2834E-01  0.2834E-01
    -18.657  0.8927E-02  0.8927E-02  0.2944E-01  0.2944E-01
    -18.534  0.5739E-02  0.5739E-02  0.3014E-01  0.3014E-01
    -18.412  0.5842E-02  0.5842E-02  0.3086E-01  0.3086E-01
    -18.289  0.6812E-02  0.6812E-02  0.3170E-01  0.3170E-01
    -18.166  0.6960E-02  0.6960E-02  0.3255E-01  0.3255E-01
    -18.043  0.5691E-02  0.5691E-02  0.3325E-01  0.3325E-01
    -17.921  0.5422E-02  0.5422E-02  0.3392E-01  0.3392E-01
    -17.798  0.7914E-02  0.7914E-02  0.3489E-01  0.3489E-01
    -17.675  0.1351E-01  0.1351E-01  0.3655E-01  0.3655E-01
    -17.552  0.1168E-01  0.1168E-01  0.3798E-01  0.3798E-01
    -17.430  0.3452E-02  0.3452E-02  0.3840E-01  0.3840E-01
    -17.307  0.8125E-02  0.8125E-02  0.3940E-01  0.3940E-01
    -17.184  0.8224E-02  0.8224E-02  0.4041E-01  0.4041E-01
    -17.061  0.6559E-02  0.6559E-02  0.4121E-01  0.4121E-01
    -16.939  0.5265E-02  0.5265E-02  0.4186E-01  0.4186E-01
    -16.816  0.4254E-02  0.4254E-02  0.4238E-01  0.4238E-01
    -16.693  0.1578E-01  0.1578E-01  0.4432E-01  0.4432E-01
    -16.570  0.9876E-02  0.9876E-02  0.4553E-01  0.4553E-01
    -16.448  0.3895E-02  0.3895E-02  0.4601E-01  0.4601E-01
    -16.325  0.1912E-02  0.1912E-02  0.4624E-01  0.4624E-01
    -16.202  0.2768E-03  0.2768E-03  0.4628E-01  0.4628E-01
    -16.079  0.1896E-02  0.1896E-02  0.4651E-01  0.4651E-01
    -15.957  0.5555E-02  0.5555E-02  0.4719E-01  0.4719E-01
    -15.834  0.5485E-02  0.5485E-02  0.4787E-01  0.4787E-01
    -15.711  0.7717E-02  0.7717E-02  0.4881E-01  0.4881E-01
    -15.588  0.2659E-02  0.2659E-02  0.4914E-01  0.4914E-01
    -15.466  0.7298E-02  0.7298E-02  0.5004E-01  0.5004E-01
    -15.343  0.1362E-01  0.1362E-01  0.5171E-01  0.5171E-01
    -15.220  0.9081E-02  0.9081E-02  0.5282E-01  0.5282E-01
    -15.097  0.6769E-02  0.6769E-02  0.5365E-01  0.5365E-01
    -14.975  0.7512E-02  0.7512E-02  0.5458E-01  0.5458E-01
    -14.852  0.9881E-02  0.9881E-02  0.5579E-01  0.5579E-01
    -14.729  0.8116E-02  0.8116E-02  0.5678E-01  0.5678E-01
    -14.606  0.1300E-01  0.1300E-01  0.5838E-01  0.5838E-01
    -14.484  0.8619E-02  0.8619E-02  0.5944E-01  0.5944E-01
    -14.361  0.6572E-02  0.6572E-02  0.6024E-01  0.6024E-01
    -14.238  0.4017E-02  0.4017E-02  0.6074E-01  0.6074E-01
    -14.115  0.3148E-02  0.3148E-02  0.6112E-01  0.6112E-01
    -13.993  0.6343E-02  0.6343E-02  0.6190E-01  0.6190E-01
    -13.870  0.9907E-02  0.9907E-02  0.6312E-01  0.6312E-01
    -13.747  0.1109E-01  0.1109E-01  0.6448E-01  0.6448E-01
    -13.624  0.8973E-02  0.8973E-02  0.6558E-01  0.6558E-01
    -13.502  0.5658E-02  0.5658E-02  0.6628E-01  0.6628E-01
    -13.379  0.1834E-02  0.1834E-02  0.6650E-01  0.6650E-01
    -13.256  0.3662E-02  0.3662E-02  0.6695E-01  0.6695E-01
    -13.134  0.6409E-02  0.6409E-02  0.6774E-01  0.6774E-01
    -13.011  0.6630E-02  0.6630E-02  0.6855E-01  0.6855E-01
    -12.888  0.7868E-02  0.7868E-02  0.6952E-01  0.6952E-01
    -12.765  0.2031E-01  0.2031E-01  0.7201E-01  0.7201E-01
    -12.643  0.3074E-02  0.3074E-02  0.7239E-01  0.7239E-01
    -12.520  0.1024E-01  0.1024E-01  0.7364E-01  0.7364E-01
    -12.397  0.1100E-01  0.1100E-01  0.7499E-01  0.7499E-01
    -12.274  0.3826E-02  0.3826E-02  0.7546E-01  0.7546E-01
    -12.152  0.5564E-02  0.5564E-02  0.7615E-01  0.7615E-01
    -12.029  0.5557E-02  0.5557E-02  0.7683E-01  0.7683E-01
    -11.906  0.1045E-01  0.1045E-01  0.7811E-01  0.7811E-01
    -11.783  0.1312E-01  0.1312E-01  0.7972E-01  0.7972E-01
    -11.661  0.9103E-02  0.9103E-02  0.8084E-01  0.8084E-01
    -11.538  0.1442E-01  0.1442E-01  0.8261E-01  0.8261E-01
    -11.415  0.7216E-02  0.7216E-02  0.8349E-01  0.8349E-01
    -11.292  0.1488E-01  0.1488E-01  0.8532E-01  0.8532E-01
    -11.170  0.1050E-01  0.1050E-01  0.8661E-01  0.8661E-01
    -11.047  0.9817E-02  0.9817E-02  0.8781E-01  0.8781E-01
    -10.924  0.1868E-02  0.1868E-02  0.8804E-01  0.8804E-01
    -10.801  0.4003E-02  0.4003E-02  0.8854E-01  0.8854E-01
    -10.679  0.9696E-02  0.9696E-02  0.8973E-01  0.8973E-01
    -10.556  0.1698E-01  0.1698E-01  0.9181E-01  0.9181E-01
    -10.433  0.1121E-01  0.1121E-01  0.9319E-01  0.9319E-01
    -10.310  0.1384E-01  0.1384E-01  0.9488E-01  0.9488E-01
    -10.188  0.1758E-01  0.1758E-01  0.9704E-01  0.9704E-01
    -10.065  0.1630E-01  0.1630E-01  0.9904E-01  0.9904E-01
     -9.942  0.1781E-01  0.1781E-01  0.1012E+00  0.1012E+00
     -9.819  0.1770E-01  0.1770E-01  0.1034E+00  0.1034E+00
     -9.697  0.2070E-01  0.2070E-01  0.1059E+00  0.1059E+00
     -9.574  0.2064E-01  0.2064E-01  0.1085E+00  0.1085E+00
     -9.451  0.2235E-01  0.2235E-01  0.1112E+00  0.1112E+00
     -9.328  0.1721E-01  0.1721E-01  0.1133E+00  0.1133E+00
     -9.206  0.2235E-01  0.2235E-01  0.1161E+00  0.1161E+00
     -9.083  0.2727E-01  0.2727E-01  0.1194E+00  0.1194E+00
     -8.960  0.2138E-01  0.2138E-01  0.1220E+00  0.1220E+00
     -8.837  0.2259E-01  0.2259E-01  0.1248E+00  0.1248E+00
     -8.715  0.9083E-02  0.9083E-02  0.1259E+00  0.1259E+00
     -8.592  0.1648E-01  0.1648E-01  0.1280E+00  0.1280E+00
     -8.469  0.2401E-01  0.2401E-01  0.1309E+00  0.1309E+00
     -8.346  0.2451E-01  0.2451E-01  0.1339E+00  0.1339E+00
     -8.224  0.1518E-01  0.1518E-01  0.1358E+00  0.1358E+00
     -8.101  0.1077E-01  0.1077E-01  0.1371E+00  0.1371E+00
     -7.978  0.1146E-01  0.1146E-01  0.1385E+00  0.1385E+00
     -7.855  0.9126E-02  0.9126E-02  0.1396E+00  0.1396E+00
     -7.733  0.1000E-01  0.1000E-01  0.1409E+00  0.1409E+00
     -7.610  0.1653E-01  0.1653E-01  0.1429E+00  0.1429E+00
     -7.487  0.2246E-01  0.2246E-01  0.1456E+00  0.1456E+00
     -7.364  0.1981E-01  0.1981E-01  0.1481E+00  0.1481E+00
     -7.242  0.1503E-01  0.1503E-01  0.1499E+00  0.1499E+00
     -7.119  0.1102E-01  0.1102E-01  0.1513E+00  0.1513E+00
     -6.996  0.1307E-01  0.1307E-01  0.1529E+00  0.1529E+00
     -6.873  0.7445E-02  0.7445E-02  0.1538E+00  0.1538E+00
     -6.751  0.1144E-01  0.1144E-01  0.1552E+00  0.1552E+00
     -6.628  0.1359E-01  0.1359E-01  0.1569E+00  0.1569E+00
     -6.505  0.1337E-01  0.1337E-01  0.1585E+00  0.1585E+00
     -6.382  0.1912E-01  0.1912E-01  0.1608E+00  0.1608E+00
     -6.260  0.9322E-02  0.9322E-02  0.1620E+00  0.1620E+00
     -6.137  0.1540E-01  0.1540E-01  0.1639E+00  0.1639E+00
     -6.014  0.7116E-02  0.7116E-02  0.1648E+00  0.1648E+00
     -5.891  0.4108E-02  0.4108E-02  0.1653E+00  0.1653E+00
     -5.769  0.9966E-02  0.9966E-02  0.1665E+00  0.1665E+00
     -5.646  0.4295E-02  0.4295E-02  0.1670E+00  0.1670E+00
     -5.523  0.6855E-02  0.6855E-02  0.1679E+00  0.1679E+00
     -5.401  0.1114E-01  0.1114E-01  0.1692E+00  0.1692E+00
     -5.278  0.1980E-01  0.1980E-01  0.1716E+00  0.1716E+00
     -5.155  0.1317E-01  0.1317E-01  0.1733E+00  0.1733E+00
     -5.032  0.1917E-01  0.1917E-01  0.1756E+00  0.1756E+00
     -4.910  0.5129E-02  0.5129E-02  0.1762E+00  0.1762E+00
     -4.787  0.9452E-03  0.9452E-03  0.1764E+00  0.1764E+00
     -4.664  0.4698E-02  0.4698E-02  0.1769E+00  0.1769E+00
     -4.541  0.1326E-01  0.1326E-01  0.1786E+00  0.1786E+00
     -4.419  0.1518E-01  0.1518E-01  0.1804E+00  0.1804E+00
     -4.296  0.2113E-01  0.2113E-01  0.1830E+00  0.1830E+00
     -4.173  0.1802E-01  0.1802E-01  0.1852E+00  0.1852E+00
     -4.050  0.1337E-01  0.1337E-01  0.1869E+00  0.1869E+00
     -3.928  0.1348E-02  0.1348E-02  0.1870E+00  0.1870E+00
     -3.805  0.1788E-02  0.1788E-02  0.1873E+00  0.1873E+00
     -3.682  0.2152E-02  0.2152E-02  0.1875E+00  0.1875E+00
     -3.559  0.5338E-02  0.5338E-02  0.1882E+00  0.1882E+00
     -3.437  0.4189E-02  0.4189E-02  0.1887E+00  0.1887E+00
     -3.314  0.6519E-02  0.6519E-02  0.1895E+00  0.1895E+00
     -3.191  0.1986E-04  0.1986E-04  0.1895E+00  0.1895E+00
     -3.068  0.6284E-03  0.6284E-03  0.1896E+00  0.1896E+00
     -2.946  0.3364E-02  0.3364E-02  0.1900E+00  0.1900E+00
     -2.823  0.8106E-04  0.8106E-04  0.1900E+00  0.1900E+00
     -2.700  0.4903E-03  0.4903E-03  0.1901E+00  0.1901E+00
     -2.577  0.3421E-02  0.3421E-02  0.1905E+00  0.1905E+00
     -2.455  0.1619E-03  0.1619E-03  0.1905E+00  0.1905E+00
     -2.332  0.6224E-04  0.6224E-04  0.1905E+00  0.1905E+00
     -2.209  0.3062E-02  0.3062E-02  0.1909E+00  0.1909E+00
     -2.086  0.1596E-02  0.1596E-02  0.1911E+00  0.1911E+00
     -1.964  0.6338E-02  0.6338E-02  0.1919E+00  0.1919E+00
     -1.841  0.1164E-02  0.1164E-02  0.1920E+00  0.1920E+00
     -1.718  0.2175E-02  0.2175E-02  0.1923E+00  0.1923E+00
     -1.595  0.7165E-02  0.7165E-02  0.1931E+00  0.1931E+00
     -1.473  0.2870E-02  0.2870E-02  0.1935E+00  0.1935E+00
     -1.350  0.2005E-03  0.2005E-03  0.1935E+00  0.1935E+00
     -1.227  0.7444E-02  0.7444E-02  0.1944E+00  0.1944E+00
     -1.104  0.1671E-01  0.1671E-01  0.1965E+00  0.1965E+00
     -0.982  0.8084E-02  0.8084E-02  0.1975E+00  0.1975E+00
     -0.859  0.6919E-02  0.6919E-02  0.1983E+00  0.1983E+00
     -0.736  0.1159E-01  0.1159E-01  0.1998E+00  0.1998E+00
     -0.613  0.3810E-02  0.3810E-02  0.2002E+00  0.2002E+00
     -0.491  0.6810E-02  0.6810E-02  0.2011E+00  0.2011E+00
     -0.368  0.9287E-02  0.9287E-02  0.2022E+00  0.2022E+00
     -0.245  0.9727E-02  0.9727E-02  0.2034E+00  0.2034E+00
     -0.122  0.1258E-01  0.1258E-01  0.2049E+00  0.2049E+00
      0.000  0.8237E-02  0.8237E-02  0.2059E+00  0.2059E+00
      0.123  0.6035E-03  0.6035E-03  0.2060E+00  0.2060E+00
      0.246  0.5375E-02  0.5375E-02  0.2067E+00  0.2067E+00
      0.369  0.5042E-02  0.5042E-02  0.2073E+00  0.2073E+00
      0.491  0.9443E-02  0.9443E-02  0.2085E+00  0.2085E+00
      0.614  0.5028E-02  0.5028E-02  0.2091E+00  0.2091E+00
      0.737  0.3693E-02  0.3693E-02  0.2095E+00  0.2095E+00
      0.860  0.7146E-02  0.7146E-02  0.2104E+00  0.2104E+00
      0.982  0.8703E-02  0.8703E-02  0.2115E+00  0.2115E+00
      1.105  0.1023E-01  0.1023E-01  0.2127E+00  0.2127E+00
      1.228  0.1190E-01  0.1190E-01  0.2142E+00  0.2142E+00
      1.351  0.1769E-01  0.1769E-01  0.2164E+00  0.2164E+00
      1.473  0.1184E-01  0.1184E-01  0.2178E+00  0.2178E+00
      1.596  0.6079E-02  0.6079E-02  0.2186E+00  0.2186E+00
      1.719  0.7572E-02  0.7572E-02  0.2195E+00  0.2195E+00
      1.842  0.1424E-01  0.1424E-01  0.2212E+00  0.2212E+00
      1.964  0.2208E-01  0.2208E-01  0.2239E+00  0.2239E+00
      2.087  0.1397E-01  0.1397E-01  0.2257E+00  0.2257E+00
      2.210  0.6820E-02  0.6820E-02  0.2265E+00  0.2265E+00
      2.332  0.1962E-01  0.1962E-01  0.2289E+00  0.2289E+00
      2.455  0.2427E-01  0.2427E-01  0.2319E+00  0.2319E+00
      2.578  0.1358E-01  0.1358E-01  0.2336E+00  0.2336E+00
      2.701  0.1261E-01  0.1261E-01  0.2351E+00  0.2351E+00
      2.823  0.3334E-01  0.3334E-01  0.2392E+00  0.2392E+00
      2.946  0.4321E-01  0.4321E-01  0.2445E+00  0.2445E+00
      3.069  0.1369E-01  0.1369E-01  0.2462E+00  0.2462E+00
      3.192  0.9844E-02  0.9844E-02  0.2474E+00  0.2474E+00
      3.314  0.1742E-01  0.1742E-01  0.2495E+00  0.2495E+00
      3.437  0.2188E-01  0.2188E-01  0.2522E+00  0.2522E+00
      3.560  0.1285E-01  0.1285E-01  0.2538E+00  0.2538E+00
      3.683  0.1317E-01  0.1317E-01  0.2554E+00  0.2554E+00
      3.805  0.3050E-01  0.3050E-01  0.2591E+00  0.2591E+00
      3.928  0.2875E-01  0.2875E-01  0.2627E+00  0.2627E+00
      4.051  0.1526E-01  0.1526E-01  0.2646E+00  0.2646E+00
      4.174  0.3635E-02  0.3635E-02  0.2650E+00  0.2650E+00
      4.296  0.2856E-04  0.2856E-04  0.2650E+00  0.2650E+00
      4.419  0.1364E-10  0.1364E-10  0.2650E+00  0.2650E+00
      4.542  0.0000E+00  0.0000E+00  0.2650E+00  0.2650E+00
      4.665  0.0000E+00  0.0000E+00  0.2650E+00  0.2650E+00
      4.787  0.0000E+00  0.0000E+00  0.2650E+00  0.2650E+00
      4.910  0.0000E+00  0.0000E+00  0.2650E+00  0.2650E+00
      5.033  0.0000E+00  0.0000E+00  0.2650E+00  0.2650E+00
      5.156  0.0000E+00  0.0000E+00  0.2650E+00  0.2650E+00
      5.278  0.0000E+00  0.0000E+00  0.2650E+00  0.2650E+00
      5.401  0.0000E+00  0.0000E+00  0.2650E+00  0.2650E+00
      5.524  0.0000E+00  0.0000E+00  0.2650E+00  0.2650E+00
      5.647  0.0000E+00  0.0000E+00  0.2650E+00  0.2650E+00
      5.769  0.0000E+00  0.0000E+00  0.2650E+00  0.2650E+00
