       N       E                     dE             d eps       ncg     rms          rms(c)
DAV:   1     0.349170284288E+04    0.34917E+04   -0.14362E+05  4590   0.109E+03
DAV:   2    -0.183409795313E+03   -0.36751E+04   -0.34666E+04  6380   0.267E+02
DAV:   3    -0.839783111897E+03   -0.65637E+03   -0.65319E+03  5250   0.118E+02
DAV:   4    -0.862442512195E+03   -0.22659E+02   -0.22550E+02  5200   0.276E+01
DAV:   5    -0.863163583355E+03   -0.72107E+00   -0.72004E+00  5970   0.418E+00    0.512E+01
DAV:   6    -0.714994630863E+03    0.14817E+03   -0.16734E+02  4860   0.209E+01    0.281E+01
DAV:   7    -0.751253245634E+03   -0.36259E+02   -0.53456E+01  4840   0.119E+01    0.140E+01
DAV:   8    -0.783593160601E+03   -0.32340E+02   -0.21687E+01  4850   0.723E+00    0.688E+00
DAV:   9    -0.799730930474E+03   -0.16138E+02   -0.64769E+00  4705   0.370E+00    0.393E+00
DAV:  10    -0.811421732114E+03   -0.11691E+02   -0.43617E+00  4605   0.270E+00    0.225E+00
DAV:  11    -0.818100263810E+03   -0.66785E+01   -0.24757E+00  4550   0.187E+00    0.126E+00
DAV:  12    -0.820610635743E+03   -0.25104E+01   -0.80011E-01  4660   0.105E+00    0.745E-01
DAV:  13    -0.821978335232E+03   -0.13677E+01   -0.42096E-01  4700   0.742E-01    0.252E-01
DAV:  14    -0.822188224024E+03   -0.20989E+00   -0.43958E-02  4780   0.288E-01    0.114E-01
DAV:  15    -0.822214615297E+03   -0.26391E-01   -0.98522E-03  4775   0.142E-01    0.871E-02
DAV:  16    -0.822218814526E+03   -0.41992E-02   -0.21902E-03  4520   0.854E-02    0.585E-02
DAV:  17    -0.822235708985E+03   -0.16894E-01   -0.24286E-03  4640   0.728E-02    0.480E-02
DAV:  18    -0.822251934547E+03   -0.16226E-01   -0.11578E-03  4760   0.506E-02    0.311E-02
DAV:  19    -0.822258223815E+03   -0.62893E-02   -0.69012E-04  4700   0.330E-02    0.195E-02
DAV:  20    -0.822259764297E+03   -0.15405E-02   -0.90838E-05  4720   0.192E-02    0.113E-02
DAV:  21    -0.822261288336E+03   -0.15240E-02   -0.61006E-05  4590   0.133E-02    0.655E-03
DAV:  22    -0.822261746744E+03   -0.45841E-03   -0.12423E-05  4360   0.707E-03    0.378E-03
DAV:  23    -0.822261961438E+03   -0.21469E-03   -0.38292E-06  3920   0.458E-03    0.252E-03
DAV:  24    -0.822262061813E+03   -0.10038E-03   -0.22041E-06  3630   0.337E-03    0.157E-03
DAV:  25    -0.822262100971E+03   -0.39158E-04   -0.15844E-06  3530   0.271E-03    0.121E-03
DAV:  26    -0.822262109803E+03   -0.88325E-05   -0.44993E-07  3240   0.152E-03    0.109E-03
DAV:  27    -0.822262118784E+03   -0.89805E-05   -0.28962E-07  3220   0.114E-03    0.865E-04
DAV:  28    -0.822262123788E+03   -0.50042E-05   -0.16101E-07  3040   0.808E-04    0.847E-04
DAV:  29    -0.822262125642E+03   -0.18537E-05   -0.50287E-08  3020   0.484E-04    0.813E-04
DAV:  30    -0.822262127042E+03   -0.14006E-05   -0.37690E-08  2870   0.356E-04    0.810E-04
DAV:  31    -0.822262127462E+03   -0.41988E-06   -0.11902E-08  3030   0.214E-04
   1 F= -.82977609E+03 E0= -.82977609E+03  d E =-.829776E+03  mag=    -0.0000
       N       E                     dE             d eps       ncg     rms          rms(c)
DAV:   1    -0.822262129165E+03   -0.21226E-05   -0.88219E-05  4500   0.189E-02    0.220E-03
DAV:   2    -0.822262129395E+03   -0.23021E-06   -0.21622E-06  3910   0.279E-03
   2 F= -.82977609E+03 E0= -.82977609E+03  d E =-.187849E-05  mag=    -0.0000
       N       E                     dE             d eps       ncg     rms          rms(c)
DAV:   1    -0.822262130996E+03   -0.18310E-05   -0.16635E-04  4460   0.247E-02    0.307E-03
DAV:   2    -0.822262131349E+03   -0.35347E-06   -0.38941E-06  4110   0.349E-03
   3 F= -.82977609E+03 E0= -.82977609E+03  d E =-.202868E-05  mag=    -0.0000
       N       E                     dE             d eps       ncg     rms          rms(c)
DAV:   1    -0.822262132507E+03   -0.15113E-05   -0.37519E-04  4410   0.363E-02    0.434E-03
DAV:   2    -0.822262133235E+03   -0.72776E-06   -0.84686E-06  4570   0.505E-03
   4 F= -.82977610E+03 E0= -.82977610E+03  d E =-.361534E-05  mag=    -0.0000
       N       E                     dE             d eps       ncg     rms          rms(c)
DAV:   1    -0.822262133868E+03   -0.13609E-05   -0.60315E-04  4390   0.456E-02    0.578E-03
DAV:   2    -0.822262134944E+03   -0.10757E-05   -0.13323E-05  4620   0.629E-03    0.383E-03
DAV:   3    -0.822262134916E+03    0.27183E-07   -0.27127E-07  2950   0.121E-03
   5 F= -.82977610E+03 E0= -.82977610E+03  d E =-.356444E-05  mag=    -0.0000
       N       E                     dE             d eps       ncg     rms          rms(c)
DAV:   1    -0.822262136859E+03   -0.19156E-05   -0.81821E-04  4320   0.536E-02    0.579E-03
DAV:   2    -0.822262138490E+03   -0.16305E-05   -0.18828E-05  4650   0.738E-03    0.337E-03
DAV:   3    -0.822262138473E+03    0.16895E-07   -0.28242E-07  2980   0.120E-03
   6 F= -.82977611E+03 E0= -.82977611E+03  d E =-.521477E-05  mag=    -0.0000
       N       E                     dE             d eps       ncg     rms          rms(c)
DAV:   1    -0.822262140372E+03   -0.18820E-05   -0.11848E-03  4320   0.644E-02    0.688E-03
DAV:   2    -0.822262142745E+03   -0.23731E-05   -0.27923E-05  4620   0.889E-03    0.396E-03
DAV:   3    -0.822262142715E+03    0.30239E-07   -0.41363E-07  2940   0.144E-03
   7 F= -.82977611E+03 E0= -.82977611E+03  d E =-.617582E-05  mag=    -0.0000
       N       E                     dE             d eps       ncg     rms          rms(c)
DAV:   1    -0.822262143973E+03   -0.12280E-05   -0.21583E-03  4320   0.857E-02    0.908E-03
DAV:   2    -0.822262148282E+03   -0.43089E-05   -0.50612E-05  4500   0.118E-02    0.520E-03
DAV:   3    -0.822262148200E+03    0.81520E-07   -0.72570E-07  3200   0.182E-03
   8 F= -.82977612E+03 E0= -.82977612E+03  d E =-.838591E-05  mag=    -0.0000
       N       E                     dE             d eps       ncg     rms          rms(c)
DAV:   1    -0.822262144944E+03    0.33377E-05   -0.39174E-03  4320   0.115E-01    0.119E-02
DAV:   2    -0.822262152810E+03   -0.78661E-05   -0.91344E-05  4510   0.158E-02    0.693E-03
DAV:   3    -0.822262152601E+03    0.20930E-06   -0.13165E-06  3450   0.238E-03
   9 F= -.82977613E+03 E0= -.82977613E+03  d E =-.120353E-04  mag=    -0.0000
       N       E                     dE             d eps       ncg     rms          rms(c)
DAV:   1    -0.822262147600E+03    0.52106E-05   -0.64945E-03  4290   0.149E-01    0.150E-02
DAV:   2    -0.822262161061E+03   -0.13461E-04   -0.15348E-04  4380   0.204E-02    0.880E-03
DAV:   3    -0.822262160765E+03    0.29580E-06   -0.21013E-06  3800   0.304E-03
  10 F= -.82977615E+03 E0= -.82977615E+03  d E =-.147026E-04  mag=    -0.0000
       N       E                     dE             d eps       ncg     rms          rms(c)
DAV:   1    -0.822262148242E+03    0.12819E-04   -0.96024E-03  4290   0.184E-01    0.180E-02
DAV:   2    -0.822262168834E+03   -0.20592E-04   -0.23185E-04  4420   0.251E-02    0.106E-02
DAV:   3    -0.822262168474E+03    0.35993E-06   -0.31650E-06  4360   0.372E-03
  11 F= -.82977616E+03 E0= -.82977616E+03  d E =-.145183E-04  mag=    -0.0000
       N       E                     dE             d eps       ncg     rms          rms(c)
DAV:   1    -0.822262138564E+03    0.30269E-04   -0.13643E-02  4290   0.219E-01    0.225E-02
DAV:   2    -0.822262166297E+03   -0.27732E-04   -0.32491E-04  4420   0.304E-02    0.133E-02
DAV:   3    -0.822262165283E+03    0.10137E-05   -0.52065E-06  4220   0.481E-03    0.828E-03
DAV:   4    -0.822262165905E+03   -0.62236E-06   -0.39149E-06  3780   0.393E-03
  12 F= -.82977617E+03 E0= -.82977617E+03  d E =-.125590E-04  mag=    -0.0000
       N       E                     dE             d eps       ncg     rms          rms(c)
DAV:   1    -0.822262172858E+03   -0.75753E-05   -0.17468E-04  4490   0.276E-02    0.344E-03
DAV:   2    -0.822262173116E+03   -0.25734E-06   -0.48777E-06  4540   0.439E-03
  13 F= -.82977618E+03 E0= -.82977618E+03  d E =-.663383E-05  mag=    -0.0000
       N       E                     dE             d eps       ncg     rms          rms(c)
DAV:   1    -0.822262173346E+03   -0.48798E-06   -0.33913E-04  4400   0.385E-02    0.513E-03
DAV:   2    -0.822262173684E+03   -0.33806E-06   -0.82611E-06  4750   0.577E-03
  14 F= -.82977618E+03 E0= -.82977618E+03  d E =-.580636E-06  mag=    -0.0000
       N       E                     dE             d eps       ncg     rms          rms(c)
DAV:   1    -0.822262174306E+03   -0.95930E-06   -0.80276E-06  4440   0.594E-03    0.162E-03
DAV:   2    -0.822262174332E+03   -0.26084E-07   -0.38032E-07  2870   0.122E-03
  15 F= -.82977618E+03 E0= -.82977618E+03  d E =-.912327E-06  mag=    -0.0000
       N       E                     dE             d eps       ncg     rms          rms(c)
DAV:   1    -0.822262174983E+03   -0.67749E-06   -0.20917E-05  4530   0.940E-03    0.128E-03
DAV:   2    -0.822262175016E+03   -0.32866E-07   -0.48198E-07  2890   0.143E-03
  16 F= -.82977618E+03 E0= -.82977618E+03  d E =-.119654E-05  mag=    -0.0000
       N       E                     dE             d eps       ncg     rms          rms(c)
DAV:   1    -0.822262175037E+03   -0.54468E-07   -0.33318E-05  4480   0.118E-02    0.165E-03
DAV:   2    -0.822262175080E+03   -0.42579E-07   -0.75374E-07  2960   0.179E-03
  17 F= -.82977618E+03 E0= -.82977618E+03  d E =-.764322E-06  mag=    -0.0000
       N       E                     dE             d eps       ncg     rms          rms(c)
DAV:   1    -0.822262174569E+03    0.46864E-06   -0.34988E-05  4460   0.119E-02    0.171E-03
DAV:   2    -0.822262174610E+03   -0.41153E-07   -0.74947E-07  3020   0.175E-03
  18 F= -.82977618E+03 E0= -.82977618E+03  d E =-.300166E-06  mag=    -0.0000
       N       E                     dE             d eps       ncg     rms          rms(c)
DAV:   1    -0.822262174239E+03    0.33004E-06   -0.32480E-05  4430   0.112E-02    0.162E-03
DAV:   2    -0.822262174279E+03   -0.40178E-07   -0.66112E-07  3040   0.160E-03
  19 F= -.82977618E+03 E0= -.82977618E+03  d E =-.318288E-06  mag=    -0.0000
       N       E                     dE             d eps       ncg     rms          rms(c)
DAV:   1    -0.822262174496E+03   -0.25764E-06   -0.32667E-05  4380   0.112E-02    0.158E-03
DAV:   2    -0.822262174540E+03   -0.43270E-07   -0.64802E-07  3100   0.155E-03
  20 F= -.82977619E+03 E0= -.82977619E+03  d E =-.739969E-06  mag=    -0.0000
       N       E                     dE             d eps       ncg     rms          rms(c)
DAV:   1    -0.822262175526E+03   -0.10297E-05   -0.47265E-05  4290   0.137E-02    0.178E-03
DAV:   2    -0.822262175595E+03   -0.68962E-07   -0.97690E-07  3340   0.190E-03
  21 F= -.82977619E+03 E0= -.82977619E+03  d E =-.139458E-05  mag=    -0.0000
       N       E                     dE             d eps       ncg     rms          rms(c)
DAV:   1    -0.822262176777E+03   -0.12505E-05   -0.74163E-05  4290   0.175E-02    0.221E-03
DAV:   2    -0.822262176883E+03   -0.10629E-06   -0.15531E-06  3440   0.243E-03
  22 F= -.82977619E+03 E0= -.82977619E+03  d E =-.171652E-05  mag=    -0.0000
       N       E                     dE             d eps       ncg     rms          rms(c)
DAV:   1    -0.822262177479E+03   -0.70231E-06   -0.11626E-04  4290   0.218E-02    0.272E-03
DAV:   2    -0.822262177653E+03   -0.17435E-06   -0.24926E-06  3840   0.304E-03
  23 F= -.82977619E+03 E0= -.82977619E+03  d E =-.139583E-05  mag=     0.0000
       N       E                     dE             d eps       ncg     rms          rms(c)
DAV:   1    -0.822262178422E+03   -0.94336E-06   -0.16289E-04  4290   0.253E-02    0.316E-03
DAV:   2    -0.822262178673E+03   -0.25078E-06   -0.34384E-06  4190   0.348E-03
  24 F= -.82977619E+03 E0= -.82977619E+03  d E =-.186114E-05  mag=     0.0000
       N       E                     dE             d eps       ncg     rms          rms(c)
DAV:   1    -0.822262179985E+03   -0.15626E-05   -0.25944E-04  4290   0.318E-02    0.384E-03
DAV:   2    -0.822262180383E+03   -0.39802E-06   -0.54477E-06  4280   0.435E-03
  25 F= -.82977619E+03 E0= -.82977619E+03  d E =-.259636E-05  mag=     0.0000
       N       E                     dE             d eps       ncg     rms          rms(c)
DAV:   1    -0.822262180940E+03   -0.95495E-06   -0.38940E-04  4290   0.383E-02    0.469E-03
DAV:   2    -0.822262181523E+03   -0.58349E-06   -0.79851E-06  4540   0.526E-03
  26 F= -.82977620E+03 E0= -.82977620E+03  d E =-.223793E-05  mag=     0.0000
       N       E                     dE             d eps       ncg     rms          rms(c)
DAV:   1    -0.822262182680E+03   -0.17404E-05   -0.54585E-04  4290   0.449E-02    0.550E-03
DAV:   2    -0.822262183470E+03   -0.78951E-06   -0.10734E-05  4700   0.609E-03    0.371E-03
DAV:   3    -0.822262183436E+03    0.33695E-07   -0.28707E-07  2820   0.129E-03
  27 F= -.82977620E+03 E0= -.82977620E+03  d E =-.266679E-05  mag=     0.0000
       N       E                     dE             d eps       ncg     rms          rms(c)
DAV:   1    -0.822262184006E+03   -0.53630E-06   -0.79765E-04  4290   0.547E-02    0.547E-03
DAV:   2    -0.822262185316E+03   -0.13102E-05   -0.15995E-05  4575   0.742E-03    0.351E-03
DAV:   3    -0.822262185263E+03    0.53449E-07   -0.31260E-07  2740   0.132E-03
  28 F= -.82977620E+03 E0= -.82977620E+03  d E =-.356153E-05  mag=     0.0000
       N       E                     dE             d eps       ncg     rms          rms(c)
DAV:   1    -0.822262186185E+03   -0.86880E-06   -0.11915E-03  4280   0.674E-02    0.668E-03
DAV:   2    -0.822262188196E+03   -0.20114E-05   -0.24092E-05  4560   0.914E-03    0.422E-03
DAV:   3    -0.822262188117E+03    0.79533E-07   -0.49424E-07  3010   0.162E-03
  29 F= -.82977621E+03 E0= -.82977621E+03  d E =-.366063E-05  mag=     0.0000
       N       E                     dE             d eps       ncg     rms          rms(c)
DAV:   1    -0.822262188021E+03    0.17534E-06   -0.15772E-03  4280   0.770E-02    0.785E-03
DAV:   2    -0.822262190627E+03   -0.26060E-05   -0.31792E-05  4580   0.105E-02    0.496E-03
DAV:   3    -0.822262190501E+03    0.12655E-06   -0.72029E-07  3080   0.190E-03
  30 F= -.82977621E+03 E0= -.82977621E+03  d E =-.358279E-05  mag=     0.0000
       N       E                     dE             d eps       ncg     rms          rms(c)
DAV:   1    -0.822262186589E+03    0.40383E-05   -0.18701E-03  4280   0.820E-02    0.869E-03
DAV:   2    -0.822262189417E+03   -0.28284E-05   -0.35680E-05  4650   0.109E-02    0.564E-03
DAV:   3    -0.822262189231E+03    0.18658E-06   -0.99117E-07  3200   0.217E-03
  31 F= -.82977621E+03 E0= -.82977621E+03  d E =-.230012E-05  mag=     0.0000
       N       E                     dE             d eps       ncg     rms          rms(c)
DAV:   1    -0.822262185350E+03    0.40673E-05   -0.25635E-03  4280   0.926E-02    0.101E-02
DAV:   2    -0.822262188998E+03   -0.36476E-05   -0.46694E-05  4590   0.121E-02    0.669E-03
DAV:   3    -0.822262188680E+03    0.31806E-06   -0.14791E-06  3380   0.257E-03
  32 F= -.82977622E+03 E0= -.82977622E+03  d E =-.391126E-05  mag=    -0.0000
       N       E                     dE             d eps       ncg     rms          rms(c)
DAV:   1    -0.822262178104E+03    0.10893E-04   -0.35581E-03  4280   0.109E-01    0.121E-02
DAV:   2    -0.822262183172E+03   -0.50671E-05   -0.65278E-05  4670   0.142E-02    0.791E-03
DAV:   3    -0.822262182742E+03    0.42938E-06   -0.20334E-06  3550   0.307E-03
  33 F= -.82977622E+03 E0= -.82977622E+03  d E =-.254738E-05  mag=     0.0000
       N       E                     dE             d eps       ncg     rms          rms(c)
DAV:   1    -0.822262185953E+03   -0.27819E-05   -0.58195E-05  4500   0.160E-02    0.212E-03
DAV:   2    -0.822262186081E+03   -0.12712E-06   -0.18664E-06  3400   0.274E-03
  34 F= -.82977622E+03 E0= -.82977622E+03  d E =-.274503E-05  mag=     0.0000
       N       E                     dE             d eps       ncg     rms          rms(c)
DAV:   1    -0.822262187522E+03   -0.15686E-05   -0.14723E-04  4640   0.252E-02    0.328E-03
DAV:   2    -0.822262187802E+03   -0.27973E-06   -0.41387E-06  4380   0.391E-03
  35 F= -.82977622E+03 E0= -.82977622E+03  d E =-.111371E-05  mag=     0.0000
       N       E                     dE             d eps       ncg     rms          rms(c)
DAV:   1    -0.822262187830E+03   -0.30841E-06   -0.14817E-06  3440   0.265E-03    0.136E-03
DAV:   2    -0.822262187846E+03   -0.15498E-07   -0.11709E-07  2920   0.762E-04
  36 F= -.82977622E+03 E0= -.82977622E+03  d E =-.227449E-06  mag=    -0.0000
       N       E                     dE             d eps       ncg     rms          rms(c)
DAV:   1    -0.822262187877E+03   -0.46028E-07   -0.42780E-06  4130   0.428E-03    0.949E-04
DAV:   2    -0.822262187890E+03   -0.13853E-07   -0.12378E-07  2910   0.732E-04
  37 F= -.82977622E+03 E0= -.82977622E+03  d E =-.402930E-06  mag=    -0.0000
       N       E                     dE             d eps       ncg     rms          rms(c)
DAV:   1    -0.822262187747E+03    0.12967E-06   -0.80393E-06  4120   0.582E-03    0.108E-03
DAV:   2    -0.822262187764E+03   -0.17666E-07   -0.19890E-07  2800   0.919E-04
  38 F= -.82977622E+03 E0= -.82977622E+03  d E =-.389471E-06  mag=    -0.0000
       N       E                     dE             d eps       ncg     rms          rms(c)
DAV:   1    -0.822262187315E+03    0.43175E-06   -0.10658E-05  4360   0.660E-03    0.116E-03
DAV:   2    -0.822262187335E+03   -0.19783E-07   -0.23771E-07  2790   0.992E-04
  39 F= -.82977622E+03 E0= -.82977622E+03  d E =-.217319E-06  mag=    -0.0000
       N       E                     dE             d eps       ncg     rms          rms(c)
DAV:   1    -0.822262186949E+03    0.36573E-06   -0.10432E-05  4280   0.631E-03    0.114E-03
DAV:   2    -0.822262186964E+03   -0.15083E-07   -0.21010E-07  2860   0.917E-04
  40 F= -.82977622E+03 E0= -.82977622E+03  d E =-.218586E-06  mag=    -0.0000
       N       E                     dE             d eps       ncg     rms          rms(c)
DAV:   1    -0.822262186808E+03    0.14133E-06   -0.10979E-05  4250   0.630E-03    0.113E-03
DAV:   2    -0.822262186819E+03   -0.10848E-07   -0.19573E-07  2840   0.866E-04
  41 F= -.82977622E+03 E0= -.82977622E+03  d E =-.391750E-06  mag=    -0.0000
       N       E                     dE             d eps       ncg     rms          rms(c)
DAV:   1    -0.822262186776E+03    0.32407E-07   -0.16923E-05  4240   0.792E-03    0.123E-03
DAV:   2    -0.822262186796E+03   -0.19907E-07   -0.31823E-07  2735   0.111E-03
  42 F= -.82977622E+03 E0= -.82977622E+03  d E =-.493690E-06  mag=    -0.0000
       N       E                     dE             d eps       ncg     rms          rms(c)
DAV:   1    -0.822262186893E+03   -0.11740E-06   -0.26981E-05  4320   0.101E-02    0.145E-03
DAV:   2    -0.822262186927E+03   -0.33593E-07   -0.52761E-07  2890   0.141E-03
  43 F= -.82977623E+03 E0= -.82977623E+03  d E =-.583335E-06  mag=    -0.0000
       N       E                     dE             d eps       ncg     rms          rms(c)
DAV:   1    -0.822262186759E+03    0.13353E-06   -0.37726E-05  4380   0.116E-02    0.165E-03
DAV:   2    -0.822262186796E+03   -0.36627E-07   -0.64996E-07  2940   0.153E-03
  44 F= -.82977623E+03 E0= -.82977623E+03  d E =-.570514E-06  mag=    -0.0000
       N       E                     dE             d eps       ncg     rms          rms(c)
DAV:   1    -0.822262186533E+03    0.22649E-06   -0.53966E-05  4320   0.134E-02    0.184E-03
DAV:   2    -0.822262186589E+03   -0.56112E-07   -0.89818E-07  3080   0.172E-03
  45 F= -.82977623E+03 E0= -.82977623E+03  d E =-.827736E-06  mag=    -0.0000
       N       E                     dE             d eps       ncg     rms          rms(c)
DAV:   1    -0.822262185774E+03    0.75935E-06   -0.83880E-05  4280   0.167E-02    0.217E-03
DAV:   2    -0.822262185872E+03   -0.97876E-07   -0.14108E-06  3160   0.216E-03
  46 F= -.82977623E+03 E0= -.82977623E+03  d E =-.880987E-06  mag=    -0.0000
       N       E                     dE             d eps       ncg     rms          rms(c)
DAV:   1    -0.822262184638E+03    0.11354E-05   -0.13354E-04  4280   0.213E-02    0.268E-03
DAV:   2    -0.822262184803E+03   -0.16446E-06   -0.23399E-06  3470   0.281E-03
  47 F= -.82977623E+03 E0= -.82977623E+03  d E =-.888328E-06  mag=    -0.0000
       N       E                     dE             d eps       ncg     rms          rms(c)
DAV:   1    -0.822262184086E+03    0.55197E-06   -0.17279E-04  4290   0.237E-02    0.311E-03
DAV:   2    -0.822262184269E+03   -0.18254E-06   -0.28888E-06  3560   0.305E-03
  48 F= -.82977623E+03 E0= -.82977623E+03  d E =-.117100E-05  mag=    -0.0000
       N       E                     dE             d eps       ncg     rms          rms(c)
DAV:   1    -0.822262183378E+03    0.70842E-06   -0.25211E-04  4280   0.292E-02    0.362E-03
DAV:   2    -0.822262183677E+03   -0.29933E-06   -0.44416E-06  4110   0.383E-03
  49 F= -.82977623E+03 E0= -.82977623E+03  d E =-.162777E-05  mag=    -0.0000
       N       E                     dE             d eps       ncg     rms          rms(c)
DAV:   1    -0.822262182044E+03    0.13338E-05   -0.35074E-04  4280   0.335E-02    0.435E-03
DAV:   2    -0.822262182446E+03   -0.40168E-06   -0.60395E-06  4280   0.433E-03
  50 F= -.82977623E+03 E0= -.82977623E+03  d E =-.170821E-05  mag=    -0.0000
       N       E                     dE             d eps       ncg     rms          rms(c)
DAV:   1    -0.822262179773E+03    0.22706E-05   -0.49493E-04  4280   0.391E-02    0.512E-03
DAV:   2    -0.822262180345E+03   -0.57171E-06   -0.84073E-06  4360   0.504E-03
  51 F= -.82977623E+03 E0= -.82977623E+03  d E =-.162850E-05  mag=    -0.0000
       N       E                     dE             d eps       ncg     rms          rms(c)
DAV:   1    -0.822262177271E+03    0.25025E-05   -0.70724E-04  4280   0.466E-02    0.612E-03
DAV:   2    -0.822262178094E+03   -0.82288E-06   -0.12022E-05  4470   0.603E-03    0.420E-03
DAV:   3    -0.822262178002E+03    0.91895E-07   -0.43929E-07  3070   0.147E-03
  52 F= -.82977624E+03 E0= -.82977624E+03  d E =-.186395E-05  mag=     0.0000
       N       E                     dE             d eps       ncg     rms          rms(c)
DAV:   1    -0.822262173813E+03    0.42809E-05   -0.92493E-04  4260   0.521E-02    0.602E-03
DAV:   2    -0.822262175051E+03   -0.12383E-05   -0.16129E-05  4600   0.668E-03    0.404E-03
DAV:   3    -0.822262174941E+03    0.11002E-06   -0.42829E-07  3080   0.141E-03
  53 F= -.82977624E+03 E0= -.82977624E+03  d E =-.173755E-05  mag=     0.0000
       N       E                     dE             d eps       ncg     rms          rms(c)
DAV:   1    -0.822262171634E+03    0.34176E-05   -0.13391E-03  4260   0.616E-02    0.729E-03
DAV:   2    -0.822262173426E+03   -0.17925E-05   -0.23334E-05  4540   0.785E-03    0.481E-03
DAV:   3    -0.822262173274E+03    0.15197E-06   -0.67434E-07  3060   0.174E-03
  54 F= -.82977624E+03 E0= -.82977624E+03  d E =-.220111E-05  mag=    -0.0000
       N       E                     dE             d eps       ncg     rms          rms(c)
DAV:   1    -0.822262169774E+03    0.36525E-05   -0.18695E-03  4260   0.757E-02    0.844E-03
DAV:   2    -0.822262172401E+03   -0.26274E-05   -0.33502E-05  4420   0.985E-03    0.563E-03
DAV:   3    -0.822262172174E+03    0.22713E-06   -0.90751E-07  3140   0.202E-03
  55 F= -.82977624E+03 E0= -.82977624E+03  d E =-.298165E-05  mag=     0.0000
       N       E                     dE             d eps       ncg     rms          rms(c)
DAV:   1    -0.822262173101E+03   -0.69937E-06   -0.20750E-05  4510   0.979E-03    0.143E-03
DAV:   2    -0.822262173131E+03   -0.30108E-07   -0.54174E-07  2830   0.158E-03
  56 F= -.82977624E+03 E0= -.82977624E+03  d E =-.128903E-05  mag=     0.0000
       N       E                     dE             d eps       ncg     rms          rms(c)
DAV:   1    -0.822262173181E+03   -0.80952E-07   -0.55216E-05  4490   0.158E-02    0.198E-03
DAV:   2    -0.822262173264E+03   -0.82364E-07   -0.12506E-06  3030   0.234E-03
  57 F= -.82977625E+03 E0= -.82977625E+03  d E =-.570338E-06  mag=     0.0000
       N       E                     dE             d eps       ncg     rms          rms(c)
DAV:   1    -0.822262173399E+03   -0.21718E-06   -0.74524E-07  2910   0.192E-03    0.103E-03
DAV:   2    -0.822262173411E+03   -0.12595E-07   -0.61498E-08  2860   0.587E-04
  58 F= -.82977625E+03 E0= -.82977625E+03  d E =-.160743E-06  mag=    -0.0000
       N       E                     dE             d eps       ncg     rms          rms(c)
DAV:   1    -0.822262173602E+03   -0.20306E-06   -0.19288E-06  3470   0.292E-03    0.890E-04
DAV:   2    -0.822262173614E+03   -0.12762E-07   -0.66063E-08  2860   0.588E-04
  59 F= -.82977625E+03 E0= -.82977625E+03  d E =-.222770E-06  mag=     0.0000
       N       E                     dE             d eps       ncg     rms          rms(c)
DAV:   1    -0.822262173786E+03   -0.18406E-06   -0.31582E-06  3970   0.369E-03    0.945E-04
DAV:   2    -0.822262173798E+03   -0.12144E-07   -0.79754E-08  2830   0.618E-04
  60 F= -.82977625E+03 E0= -.82977625E+03  d E =-.225418E-06  mag=     0.0000
       N       E                     dE             d eps       ncg     rms          rms(c)
DAV:   1    -0.822262173858E+03   -0.72519E-07   -0.39909E-06  4180   0.407E-03    0.966E-04
DAV:   2    -0.822262173871E+03   -0.12471E-07   -0.86727E-08  2850   0.627E-04
  61 F= -.82977625E+03 E0= -.82977625E+03  d E =-.145437E-06  mag=     0.0000
       N       E                     dE             d eps       ncg     rms          rms(c)
DAV:   1    -0.822262173816E+03    0.42324E-07   -0.41646E-06  4050   0.400E-03    0.970E-04
DAV:   2    -0.822262173825E+03   -0.92914E-08   -0.85141E-08  2760   0.614E-04
  62 F= -.82977625E+03 E0= -.82977625E+03  d E =-.137641E-06  mag=     0.0000
       N       E                     dE             d eps       ncg     rms          rms(c)
DAV:   1    -0.822262173664E+03    0.15156E-06   -0.46414E-06  4000   0.407E-03    0.972E-04
DAV:   2    -0.822262173672E+03   -0.80472E-08   -0.91522E-08  2750   0.624E-04
  63 F= -.82977625E+03 E0= -.82977625E+03  d E =-.150836E-06  mag=    -0.0000
       N       E                     dE             d eps       ncg     rms          rms(c)
DAV:   1    -0.822262173606E+03    0.57989E-07   -0.69396E-06  4110   0.502E-03    0.103E-03
DAV:   2    -0.822262173614E+03   -0.73633E-08   -0.13313E-07  2700   0.742E-04
  64 F= -.82977625E+03 E0= -.82977625E+03  d E =-.307452E-06  mag=    -0.0000
       N       E                     dE             d eps       ncg     rms          rms(c)
DAV:   1    -0.822262173536E+03    0.70220E-07   -0.11389E-05  4320   0.653E-03    0.114E-03
DAV:   2    -0.822262173545E+03   -0.90804E-08   -0.21568E-07  2700   0.920E-04
  65 F= -.82977625E+03 E0= -.82977625E+03  d E =-.282128E-06  mag=    -0.0000
       N       E                     dE             d eps       ncg     rms          rms(c)
DAV:   1    -0.822262173382E+03    0.15429E-06   -0.15034E-05  4230   0.713E-03    0.123E-03
DAV:   2    -0.822262173394E+03   -0.11627E-07   -0.26064E-07  2860   0.961E-04
  66 F= -.82977625E+03 E0= -.82977625E+03  d E =-.226263E-06  mag=    -0.0000
       N       E                     dE             d eps       ncg     rms          rms(c)
DAV:   1    -0.822262173577E+03   -0.19556E-06   -0.21121E-05  4180   0.816E-03    0.134E-03
DAV:   2    -0.822262173600E+03   -0.22934E-07   -0.35560E-07  2770   0.109E-03
  67 F= -.82977625E+03 E0= -.82977625E+03  d E =-.403012E-06  mag=    -0.0000
       N       E                     dE             d eps       ncg     rms          rms(c)
DAV:   1    -0.822262173697E+03   -0.11962E-06   -0.30819E-05  4280   0.963E-03    0.152E-03
DAV:   2    -0.822262173728E+03   -0.31316E-07   -0.49616E-07  2920   0.123E-03
  68 F= -.82977625E+03 E0= -.82977625E+03  d E =-.450585E-06  mag=    -0.0000
       N       E                     dE             d eps       ncg     rms          rms(c)
DAV:   1    -0.822262173758E+03   -0.60871E-07   -0.43611E-05  4290   0.114E-02    0.174E-03
DAV:   2    -0.822262173798E+03   -0.39610E-07   -0.69061E-07  2830   0.145E-03
  69 F= -.82977625E+03 E0= -.82977625E+03  d E =-.526128E-06  mag=    -0.0000
       N       E                     dE             d eps       ncg     rms          rms(c)
DAV:   1    -0.822262173796E+03   -0.37777E-07   -0.62932E-05  4270   0.136E-02    0.200E-03
DAV:   2    -0.822262173858E+03   -0.62188E-07   -0.97261E-07  2940   0.170E-03
  70 F= -.82977625E+03 E0= -.82977625E+03  d E =-.574063E-06  mag=    -0.0000
       N       E                     dE             d eps       ncg     rms          rms(c)
DAV:   1    -0.822262173373E+03    0.42271E-06   -0.86549E-05  4290   0.159E-02    0.230E-03
DAV:   2    -0.822262173448E+03   -0.75022E-07   -0.13444E-06  3100   0.199E-03
  71 F= -.82977625E+03 E0= -.82977625E+03  d E =-.757932E-06  mag=    -0.0000
       N       E                     dE             d eps       ncg     rms          rms(c)
DAV:   1    -0.822262172571E+03    0.80218E-06   -0.12137E-04  4280   0.191E-02    0.268E-03
DAV:   2    -0.822262172682E+03   -0.11078E-06   -0.19003E-06  3200   0.240E-03
  72 F= -.82977625E+03 E0= -.82977625E+03  d E =-.838443E-06  mag=    -0.0000
       N       E                     dE             d eps       ncg     rms          rms(c)
DAV:   1    -0.822262171934E+03    0.63681E-06   -0.17926E-04  4300   0.230E-02    0.321E-03
DAV:   2    -0.822262172118E+03   -0.18362E-06   -0.30522E-06  3580   0.296E-03
  73 F= -.82977625E+03 E0= -.82977625E+03  d E =-.729524E-06  mag=    -0.0000
       N       E                     dE             d eps       ncg     rms          rms(c)
DAV:   1    -0.822262171567E+03    0.36665E-06   -0.25027E-04  4300   0.267E-02    0.373E-03
DAV:   2    -0.822262171815E+03   -0.24722E-06   -0.41036E-06  3640   0.342E-03
  74 F= -.82977625E+03 E0= -.82977625E+03  d E =-.132925E-05  mag=    -0.0000
       N       E                     dE             d eps       ncg     rms          rms(c)
DAV:   1    -0.822262170360E+03    0.12070E-05   -0.38711E-04  4300   0.345E-02    0.457E-03
DAV:   2    -0.822262170794E+03   -0.43381E-06   -0.68043E-06  4450   0.454E-03
  75 F= -.82977625E+03 E0= -.82977625E+03  d E =-.746584E-06  mag=     0.0000
       N       E                     dE             d eps       ncg     rms          rms(c)
DAV:   1    -0.822262171336E+03   -0.97608E-06   -0.67256E-06  4390   0.551E-03    0.174E-03
DAV:   2    -0.822262171354E+03   -0.17906E-07   -0.25774E-07  2910   0.105E-03
  76 F= -.82977625E+03 E0= -.82977625E+03  d E =-.591525E-06  mag=    -0.0000
       N       E                     dE             d eps       ncg     rms          rms(c)
DAV:   1    -0.822262171889E+03   -0.55208E-06   -0.17866E-05  4530   0.881E-03    0.132E-03
DAV:   2    -0.822262171912E+03   -0.23902E-07   -0.39931E-07  2880   0.132E-03
  77 F= -.82977625E+03 E0= -.82977625E+03  d E =-.578455E-06  mag=    -0.0000
       N       E                     dE             d eps       ncg     rms          rms(c)
DAV:   1    -0.822262171971E+03   -0.81956E-07   -0.16846E-07  2750   0.908E-04    0.897E-04
DAV:   2    -0.822262171979E+03   -0.88403E-08   -0.16102E-08  2690   0.316E-04
  78 F= -.82977625E+03 E0= -.82977625E+03  d E =-.647894E-07  mag=    -0.0000
       N       E                     dE             d eps       ncg     rms          rms(c)
DAV:   1    -0.822262172076E+03   -0.10546E-06   -0.36292E-07  2840   0.125E-03    0.855E-04
DAV:   2    -0.822262172084E+03   -0.83455E-08   -0.16247E-08  2890   0.314E-04
  79 F= -.82977625E+03 E0= -.82977625E+03  d E =-.103766E-06  mag=    -0.0000
       N       E                     dE             d eps       ncg     rms          rms(c)
DAV:   1    -0.822262172169E+03   -0.92616E-07   -0.65170E-07  2970   0.162E-03    0.867E-04
DAV:   2    -0.822262172176E+03   -0.75015E-08   -0.28259E-08  2860   0.390E-04
  80 F= -.82977626E+03 E0= -.82977625E+03  d E =-.861024E-07  mag=    -0.0000
       N       E                     dE             d eps       ncg     rms          rms(c)
DAV:   1    -0.822262172230E+03   -0.61002E-07   -0.91397E-07  3090   0.188E-03    0.877E-04
DAV:   2    -0.822262172237E+03   -0.71886E-08   -0.37140E-08  2860   0.436E-04
  81 F= -.82977626E+03 E0= -.82977626E+03  d E =-.592786E-07  mag=    -0.0000
       N       E                     dE             d eps       ncg     rms          rms(c)
DAV:   1    -0.822262172255E+03   -0.25466E-07   -0.81991E-09  2800   0.240E-04    0.849E-04
DAV:   2    -0.822262172259E+03   -0.36234E-08    0.15199E-09  2860   0.917E-05
  82 F= -.82977626E+03 E0= -.82977626E+03  d E =-.224757E-07  mag=    -0.0000
       N       E                     dE             d eps       ncg     rms          rms(c)
DAV:   1    -0.822262172290E+03   -0.35070E-07   -0.22786E-08  2800   0.344E-04    0.844E-04
DAV:   2    -0.822262172292E+03   -0.23720E-08    0.17109E-09  2880   0.917E-05
  83 F= -.82977626E+03 E0= -.82977626E+03  d E =-.360932E-07  mag=    -0.0000
       N       E                     dE             d eps       ncg     rms          rms(c)
DAV:   1    -0.822262172310E+03   -0.19456E-07   -0.53050E-08  2730   0.502E-04    0.845E-04
DAV:   2    -0.822262172311E+03   -0.14479E-08   -0.11416E-10  2760   0.132E-04
  84 F= -.82977626E+03 E0= -.82977626E+03  d E =-.240143E-07  mag=    -0.0000
       N       E                     dE             d eps       ncg     rms          rms(c)
DAV:   1    -0.822262172318E+03   -0.83892E-08   -0.44789E-08  2720   0.449E-04    0.846E-04
DAV:   2    -0.822262172319E+03   -0.95315E-09    0.29514E-10  2690   0.119E-04
  85 F= -.82977626E+03 E0= -.82977626E+03  d E =-.159044E-07  mag=    -0.0000
       N       E                     dE             d eps       ncg     rms          rms(c)
DAV:   1    -0.822262172330E+03   -0.12151E-07   -0.50437E-08  2700   0.470E-04    0.846E-04
DAV:   2    -0.822262172331E+03   -0.88767E-09   -0.19698E-11  2640   0.124E-04
  86 F= -.82977626E+03 E0= -.82977626E+03  d E =-.202227E-07  mag=    -0.0000
       N       E                     dE             d eps       ncg     rms          rms(c)
DAV:   1    -0.822262172337E+03   -0.68976E-08   -0.68677E-08  2640   0.540E-04    0.846E-04
DAV:   2    -0.822262172338E+03   -0.82218E-09   -0.12513E-09  2505   0.146E-04
  87 F= -.82977626E+03 E0= -.82977626E+03  d E =-.214324E-07  mag=    -0.0000
       N       E                     dE             d eps       ncg     rms          rms(c)
DAV:   1    -0.822262172341E+03   -0.40091E-08   -0.93612E-08  2450   0.596E-04    0.847E-04
DAV:   2    -0.822262172341E+03   -0.19645E-09   -0.28198E-09  2435   0.160E-04
  88 F= -.82977626E+03 E0= -.82977626E+03  d E =-.251997E-07  mag=    -0.0000
       N       E                     dE             d eps       ncg     rms          rms(c)
DAV:   1    -0.822262172357E+03   -0.15723E-07   -0.14569E-07  2455   0.707E-04    0.849E-04
DAV:   2    -0.822262172358E+03   -0.14261E-08   -0.41365E-09  2220   0.180E-04
  89 F= -.82977626E+03 E0= -.82977626E+03  d E =-.385883E-07  mag=    -0.0000
       N       E                     dE             d eps       ncg     rms          rms(c)
DAV:   1    -0.822262172386E+03   -0.29344E-07   -0.22216E-07  2440   0.906E-04    0.851E-04
DAV:   2    -0.822262172387E+03   -0.13970E-08   -0.82541E-09  2200   0.230E-04
  90 F= -.82977626E+03 E0= -.82977626E+03  d E =-.410954E-07  mag=    -0.0000
       N       E                     dE             d eps       ncg     rms          rms(c)
DAV:   1    -0.822262172439E+03   -0.52525E-07   -0.30473E-07  2380   0.106E-03    0.855E-04
DAV:   2    -0.822262172440E+03   -0.16371E-08   -0.11062E-08  2155   0.257E-04
  91 F= -.82977626E+03 E0= -.82977626E+03  d E =-.516375E-07  mag=    -0.0000
       N       E                     dE             d eps       ncg     rms          rms(c)
DAV:   1    -0.822262172472E+03   -0.33520E-07   -0.45424E-07  2310   0.131E-03    0.859E-04
DAV:   2    -0.822262172473E+03   -0.13315E-08   -0.17991E-08  2150   0.319E-04
  92 F= -.82977626E+03 E0= -.82977626E+03  d E =-.466561E-07  mag=    -0.0000
       N       E                     dE             d eps       ncg     rms          rms(c)
DAV:   1    -0.822262172503E+03   -0.31258E-07   -0.58286E-07  2350   0.143E-03    0.864E-04
DAV:   2    -0.822262172506E+03   -0.29322E-08   -0.21170E-08  2150   0.335E-04
  93 F= -.82977626E+03 E0= -.82977626E+03  d E =-.690653E-07  mag=    -0.0000
       N       E                     dE             d eps       ncg     rms          rms(c)
DAV:   1    -0.822262172535E+03   -0.31803E-07   -0.90845E-07  2510   0.174E-03    0.874E-04
DAV:   2    -0.822262172537E+03   -0.19572E-08   -0.26649E-08  2150   0.377E-04
  94 F= -.82977626E+03 E0= -.82977626E+03  d E =-.888327E-07  mag=    -0.0000
       N       E                     dE             d eps       ncg     rms          rms(c)
DAV:   1    -0.822262172546E+03   -0.10958E-07   -0.14715E-06  2570   0.217E-03    0.892E-04
DAV:   2    -0.822262172550E+03   -0.33979E-08   -0.42273E-08  2150   0.459E-04
  95 F= -.82977626E+03 E0= -.82977626E+03  d E =-.865866E-07  mag=    -0.0000
       N       E                     dE             d eps       ncg     rms          rms(c)
DAV:   1    -0.822262172554E+03   -0.81418E-08   -0.18469E-06  2630   0.239E-03    0.904E-04
DAV:   2    -0.822262172557E+03   -0.25029E-08   -0.47657E-08  2150   0.476E-04
  96 F= -.82977626E+03 E0= -.82977626E+03  d E =-.114144E-06  mag=    -0.0000
       N       E                     dE             d eps       ncg     rms          rms(c)
DAV:   1    -0.822262172625E+03   -0.70984E-07   -0.27320E-06  3035   0.300E-03    0.932E-04
DAV:   2    -0.822262172628E+03   -0.30195E-08   -0.63780E-08  2220   0.539E-04
  97 F= -.82977626E+03 E0= -.82977626E+03  d E =-.130330E-06  mag=    -0.0000
       N       E                     dE             d eps       ncg     rms          rms(c)
DAV:   1    -0.822262172670E+03   -0.44376E-07   -0.38869E-06  3550   0.356E-03    0.963E-04
DAV:   2    -0.822262172674E+03   -0.47003E-08   -0.75961E-08  2385   0.579E-04
  98 F= -.82977626E+03 E0= -.82977626E+03  d E =-.119544E-06  mag=    -0.0000
       N       E                     dE             d eps       ncg     rms          rms(c)
DAV:   1    -0.822262172697E+03   -0.27845E-07   -0.53364E-06  3720   0.410E-03    0.100E-03
DAV:   2    -0.822262172703E+03   -0.55443E-08   -0.97479E-08  2370   0.645E-04
  99 F= -.82977626E+03 E0= -.82977626E+03  d E =-.187946E-06  mag=    -0.0000
       N       E                     dE             d eps       ncg     rms          rms(c)
DAV:   1    -0.822262172679E+03    0.18837E-07   -0.80611E-06  3940   0.505E-03    0.107E-03
DAV:   2    -0.822262172688E+03   -0.93205E-08   -0.13838E-07  2495   0.727E-04
 100 F= -.82977626E+03 E0= -.82977626E+03  d E =-.192671E-06  mag=    -0.0000
       N       E                     dE             d eps       ncg     rms          rms(c)
DAV:   1    -0.822262172640E+03    0.38199E-07   -0.10919E-05  3890   0.543E-03    0.116E-03
DAV:   2    -0.822262172649E+03   -0.82800E-08   -0.18431E-07  2595   0.778E-04
 101 F= -.82977626E+03 E0= -.82977626E+03  d E =-.295384E-06  mag=    -0.0000
       N       E                     dE             d eps       ncg     rms          rms(c)
DAV:   1    -0.822262172426E+03    0.21448E-06   -0.17584E-05  4200   0.741E-03    0.131E-03
DAV:   2    -0.822262172440E+03   -0.14392E-07   -0.30124E-07  2905   0.101E-03
 102 F= -.82977626E+03 E0= -.82977626E+03  d E =-.283725E-06  mag=    -0.0000
       N       E                     dE             d eps       ncg     rms          rms(c)
DAV:   1    -0.822262172293E+03    0.13323E-06   -0.23333E-05  4080   0.823E-03    0.146E-03
DAV:   2    -0.822262172316E+03   -0.22977E-07   -0.38845E-07  3020   0.111E-03
 103 F= -.82977626E+03 E0= -.82977626E+03  d E =-.364007E-06  mag=    -0.0000
       N       E                     dE             d eps       ncg     rms          rms(c)
DAV:   1    -0.822262172175E+03    0.11764E-06   -0.35126E-05  4250   0.104E-02    0.166E-03
DAV:   2    -0.822262172210E+03   -0.34684E-07   -0.56763E-07  3100   0.137E-03
 104 F= -.82977626E+03 E0= -.82977626E+03  d E =-.459696E-06  mag=    -0.0000
       N       E                     dE             d eps       ncg     rms          rms(c)
DAV:   1    -0.822262172035E+03    0.14053E-06   -0.49618E-05  4360   0.124E-02    0.189E-03
DAV:   2    -0.822262172082E+03   -0.46937E-07   -0.77505E-07  3200   0.158E-03
 105 F= -.82977626E+03 E0= -.82977626E+03  d E =-.535085E-06  mag=    -0.0000
       N       E                     dE             d eps       ncg     rms          rms(c)
DAV:   1    -0.822262172069E+03   -0.34073E-07   -0.67971E-05  4340   0.147E-02    0.218E-03
DAV:   2    -0.822262172133E+03   -0.64443E-07   -0.10981E-06  3260   0.190E-03
 106 F= -.82977626E+03 E0= -.82977626E+03  d E =-.578774E-06  mag=    -0.0000
       N       E                     dE             d eps       ncg     rms          rms(c)
DAV:   1    -0.822262171942E+03    0.12642E-06   -0.10596E-04  4380   0.181E-02    0.269E-03
DAV:   2    -0.822262172043E+03   -0.10066E-06   -0.17491E-06  3180   0.233E-03
 107 F= -.82977626E+03 E0= -.82977626E+03  d E =-.606292E-06  mag=    -0.0000
       N       E                     dE             d eps       ncg     rms          rms(c)
DAV:   1    -0.822262171824E+03    0.11829E-06   -0.14158E-04  4310   0.209E-02    0.307E-03
DAV:   2    -0.822262171971E+03   -0.14744E-06   -0.23000E-06  3430   0.272E-03
 108 F= -.82977626E+03 E0= -.82977626E+03  d E =-.840204E-06  mag=    -0.0000
       N       E                     dE             d eps       ncg     rms          rms(c)
DAV:   1    -0.822262171759E+03    0.64560E-07   -0.22551E-04  4320   0.276E-02    0.384E-03
DAV:   2    -0.822262172003E+03   -0.24388E-06   -0.40232E-06  3840   0.367E-03
 109 F= -.82977626E+03 E0= -.82977626E+03  d E =-.869177E-06  mag=     0.0000
       N       E                     dE             d eps       ncg     rms          rms(c)
DAV:   1    -0.822262172222E+03   -0.46239E-06   -0.40236E-06  4240   0.430E-03    0.143E-03
DAV:   2    -0.822262172236E+03   -0.14108E-07   -0.15088E-07  2880   0.821E-04
 110 F= -.82977626E+03 E0= -.82977626E+03  d E =-.338516E-06  mag=    -0.0000
       N       E                     dE             d eps       ncg     rms          rms(c)
DAV:   1    -0.822262172282E+03   -0.60412E-07   -0.11988E-05  4480   0.728E-03    0.116E-03
DAV:   2    -0.822262172308E+03   -0.25568E-07   -0.26399E-07  2720   0.109E-03
 111 F= -.82977626E+03 E0= -.82977626E+03  d E =-.194402E-06  mag=    -0.0000
       N       E                     dE             d eps       ncg     rms          rms(c)
DAV:   1    -0.822262172273E+03    0.95970E-08   -0.11643E-05  4280   0.710E-03    0.123E-03
DAV:   2    -0.822262172290E+03   -0.17339E-07   -0.24669E-07  2700   0.105E-03
 112 F= -.82977626E+03 E0= -.82977626E+03  d E =0.183519E-07  mag=    -0.0000
       N       E                     dE             d eps       ncg     rms          rms(c)
DAV:   1    -0.822262172366E+03   -0.93867E-07   -0.23220E-07  2790   0.106E-03    0.873E-04
DAV:   2    -0.822262172376E+03   -0.97716E-08   -0.16655E-08  2860   0.329E-04
 113 F= -.82977626E+03 E0= -.82977626E+03  d E =-.101808E-06  mag=    -0.0000
       N       E                     dE             d eps       ncg     rms          rms(c)
DAV:   1    -0.822262172488E+03   -0.12130E-06   -0.62440E-07  2920   0.166E-03    0.862E-04
DAV:   2    -0.822262172496E+03   -0.83674E-08   -0.29929E-08  2890   0.408E-04
 114 F= -.82977626E+03 E0= -.82977626E+03  d E =-.151639E-06  mag=     0.0000
       N       E                     dE             d eps       ncg     rms          rms(c)
DAV:   1    -0.822262172542E+03   -0.54693E-07   -0.11233E-06  3050   0.219E-03    0.886E-04
DAV:   2    -0.822262172551E+03   -0.82800E-08   -0.52454E-08  2860   0.514E-04
 115 F= -.82977626E+03 E0= -.82977626E+03  d E =-.105678E-06  mag=    -0.0000
       N       E                     dE             d eps       ncg     rms          rms(c)
DAV:   1    -0.822262172561E+03   -0.18066E-07   -0.12190E-06  3060   0.230E-03    0.895E-04
DAV:   2    -0.822262172568E+03   -0.76470E-08   -0.57851E-08  2870   0.539E-04
 116 F= -.82977626E+03 E0= -.82977626E+03  d E =-.362552E-07  mag=     0.0000
       N       E                     dE             d eps       ncg     rms          rms(c)
DAV:   1    -0.822262172581E+03   -0.20904E-07   -0.11672E-08  2770   0.279E-04    0.852E-04
DAV:   2    -0.822262172583E+03   -0.12587E-08    0.49530E-10  2810   0.114E-04
 117 F= -.82977626E+03 E0= -.82977626E+03  d E =-.165925E-07  mag=    -0.0000
       N       E                     dE             d eps       ncg     rms          rms(c)
DAV:   1    -0.822262172604E+03   -0.22417E-07   -0.24100E-08  2810   0.351E-04    0.846E-04
DAV:   2    -0.822262172605E+03   -0.12733E-08    0.13913E-09  2810   0.100E-04
 118 F= -.82977626E+03 E0= -.82977626E+03  d E =-.263087E-07  mag=    -0.0000
       N       E                     dE             d eps       ncg     rms          rms(c)
DAV:   1    -0.822262172619E+03   -0.15476E-07   -0.35637E-08  2670   0.417E-04    0.846E-04
DAV:   2    -0.822262172620E+03   -0.58935E-09    0.88179E-10  2670   0.109E-04
 119 F= -.82977626E+03 E0= -.82977626E+03  d E =-.197228E-07  mag=    -0.0000
       N       E                     dE             d eps       ncg     rms          rms(c)
DAV:   1    -0.822262172637E+03   -0.17833E-07   -0.47837E-08  2660   0.471E-04    0.847E-04
DAV:   2    -0.822262172638E+03   -0.83674E-09    0.14038E-10  2590   0.122E-04
 120 F= -.82977626E+03 E0= -.82977626E+03  d E =-.230326E-07  mag=    -0.0000
       N       E                     dE             d eps       ncg     rms          rms(c)
DAV:   1    -0.822262172661E+03   -0.23727E-07   -0.64055E-08  2645   0.536E-04    0.847E-04
DAV:   2    -0.822262172661E+03   -0.50932E-10   -0.95016E-10  2495   0.140E-04
 121 F= -.82977626E+03 E0= -.82977626E+03  d E =-.265711E-07  mag=     0.0000
       N       E                     dE             d eps       ncg     rms          rms(c)
DAV:   1    -0.822262172687E+03   -0.26586E-07   -0.81070E-08  2675   0.596E-04    0.848E-04
DAV:   2    -0.822262172688E+03   -0.72760E-09   -0.21111E-09  2350   0.158E-04
 122 F= -.82977626E+03 E0= -.82977626E+03  d E =-.270148E-07  mag=     0.0000
       N       E                     dE             d eps       ncg     rms          rms(c)
DAV:   1    -0.822262172715E+03   -0.27219E-07   -0.13143E-07  2455   0.753E-04    0.850E-04
DAV:   2    -0.822262172716E+03   -0.98225E-09   -0.52623E-09  2220   0.200E-04
 123 F= -.82977626E+03 E0= -.82977626E+03  d E =-.329013E-07  mag=     0.0000
       N       E                     dE             d eps       ncg     rms          rms(c)
DAV:   1    -0.822262172729E+03   -0.14421E-07   -0.16753E-07  2395   0.831E-04    0.852E-04
DAV:   2    -0.822262172729E+03   -0.32742E-09   -0.77700E-09  2150   0.222E-04
 124 F= -.82977626E+03 E0= -.82977626E+03  d E =-.232717E-07  mag=     0.0000
       N       E                     dE             d eps       ncg     rms          rms(c)
DAV:   1    -0.822262172727E+03    0.18190E-08   -0.21729E-07  2400   0.915E-04    0.854E-04
DAV:   2    -0.822262172727E+03   -0.10914E-09   -0.91710E-09  2150   0.240E-04
 125 F= -.82977626E+03 E0= -.82977626E+03  d E =-.179236E-07  mag=     0.0000
       N       E                     dE             d eps       ncg     rms          rms(c)
DAV:   1    -0.822262172726E+03    0.80036E-09   -0.25224E-07  2375   0.978E-04    0.855E-04
DAV:   2    -0.822262172727E+03   -0.85129E-09   -0.10064E-08  2160   0.246E-04
 126 F= -.82977626E+03 E0= -.82977626E+03  d E =-.325199E-07  mag=     0.0000
       N       E                     dE             d eps       ncg     rms          rms(c)
DAV:   1    -0.822262172729E+03   -0.27358E-08   -0.33800E-07  2310   0.111E-03    0.858E-04
DAV:   2    -0.822262172730E+03   -0.50204E-09   -0.13670E-08  2150   0.277E-04
 127 F= -.82977626E+03 E0= -.82977626E+03  d E =-.503609E-07  mag=     0.0000
       N       E                     dE             d eps       ncg     rms          rms(c)
DAV:   1    -0.822262172741E+03   -0.11336E-07   -0.57604E-07  2370   0.147E-03    0.867E-04
DAV:   2    -0.822262172743E+03   -0.23429E-08   -0.22413E-08  2150   0.348E-04
 128 F= -.82977626E+03 E0= -.82977626E+03  d E =-.662473E-07  mag=     0.0000
       N       E                     dE             d eps       ncg     rms          rms(c)
DAV:   1    -0.822262172744E+03   -0.35507E-08   -0.84297E-07  2490   0.178E-03    0.878E-04
DAV:   2    -0.822262172747E+03   -0.29977E-08   -0.30507E-08  2150   0.406E-04
 129 F= -.82977626E+03 E0= -.82977626E+03  d E =-.376826E-07  mag=     0.0000
       N       E                     dE             d eps       ncg     rms          rms(c)
DAV:   1    -0.822262172785E+03   -0.41146E-07   -0.10786E-06  2570   0.195E-03    0.888E-04
DAV:   2    -0.822262172789E+03   -0.34124E-08   -0.34213E-08  2150   0.424E-04
 130 F= -.82977626E+03 E0= -.82977626E+03  d E =-.783947E-07  mag=     0.0000
       N       E                     dE             d eps       ncg     rms          rms(c)
DAV:   1    -0.822262172807E+03   -0.22170E-07   -0.18096E-06  2790   0.256E-03    0.911E-04
DAV:   2    -0.822262172811E+03   -0.36525E-08   -0.51599E-08  2150   0.505E-04
 131 F= -.82977626E+03 E0= -.82977626E+03  d E =-.938921E-07  mag=    -0.0000
       N       E                     dE             d eps       ncg     rms          rms(c)
DAV:   1    -0.822262172837E+03   -0.29737E-07   -0.24985E-06  2860   0.296E-03    0.940E-04
DAV:   2    -0.822262172842E+03   -0.48458E-08   -0.65515E-08  2150   0.559E-04
 132 F= -.82977626E+03 E0= -.82977626E+03  d E =-.964054E-07  mag=    -0.0000
       N       E                     dE             d eps       ncg     rms          rms(c)
DAV:   1    -0.822262172882E+03   -0.44434E-07   -0.34836E-06  3300   0.338E-03    0.976E-04
DAV:   2    -0.822262172886E+03   -0.47730E-08   -0.72457E-08  2210   0.567E-04
 133 F= -.82977626E+03 E0= -.82977626E+03  d E =-.169121E-06  mag=    -0.0000
       N       E                     dE             d eps       ncg     rms          rms(c)
DAV:   1    -0.822262172881E+03    0.88767E-09   -0.53852E-06  3800   0.432E-03    0.103E-03
DAV:   2    -0.822262172889E+03   -0.84474E-08   -0.10613E-07  2310   0.673E-04
 134 F= -.82977626E+03 E0= -.82977626E+03  d E =-.157692E-06  mag=    -0.0000
       N       E                     dE             d eps       ncg     rms          rms(c)
DAV:   1    -0.822262172888E+03   -0.76179E-08   -0.74930E-06  3940   0.494E-03    0.110E-03
DAV:   2    -0.822262172896E+03   -0.80399E-08   -0.13134E-07  2300   0.720E-04
 135 F= -.82977626E+03 E0= -.82977626E+03  d E =-.154664E-06  mag=    -0.0000
       N       E                     dE             d eps       ncg     rms          rms(c)
DAV:   1    -0.822262173014E+03   -0.12564E-06   -0.11942E-05  4040   0.646E-03    0.121E-03
DAV:   2    -0.822262173029E+03   -0.14799E-07   -0.23095E-07  2550   0.951E-04
 136 F= -.82977626E+03 E0= -.82977626E+03  d E =-.230606E-06  mag=    -0.0000
       N       E                     dE             d eps       ncg     rms          rms(c)
DAV:   1    -0.822262173137E+03   -0.12268E-06   -0.16647E-05  4160   0.755E-03    0.135E-03
DAV:   2    -0.822262173158E+03   -0.21719E-07   -0.30179E-07  2700   0.106E-03
 137 F= -.82977626E+03 E0= -.82977626E+03  d E =-.253775E-06  mag=    -0.0000
       N       E                     dE             d eps       ncg     rms          rms(c)
DAV:   1    -0.822262173294E+03   -0.15759E-06   -0.23426E-05  4140   0.863E-03    0.153E-03
DAV:   2    -0.822262173325E+03   -0.30894E-07   -0.43228E-07  2750   0.121E-03
 138 F= -.82977626E+03 E0= -.82977626E+03  d E =-.377715E-06  mag=    -0.0000
       N       E                     dE             d eps       ncg     rms          rms(c)
DAV:   1    -0.822262173400E+03   -0.10579E-06   -0.36463E-05  4200   0.112E-02    0.178E-03
DAV:   2    -0.822262173450E+03   -0.49498E-07   -0.66896E-07  2980   0.155E-03
 139 F= -.82977626E+03 E0= -.82977626E+03  d E =-.355151E-06  mag=    -0.0000
       N       E                     dE             d eps       ncg     rms          rms(c)
DAV:   1    -0.822262173564E+03   -0.16368E-06   -0.54375E-05  4250   0.134E-02    0.206E-03
DAV:   2    -0.822262173633E+03   -0.68991E-07   -0.98946E-07  3220   0.180E-03
 140 F= -.82977627E+03 E0= -.82977626E+03  d E =-.466592E-06  mag=     0.0000
       N       E                     dE             d eps       ncg     rms          rms(c)
DAV:   1    -0.822262173600E+03   -0.36671E-07   -0.87740E-05  4280   0.178E-02    0.254E-03
DAV:   2    -0.822262173729E+03   -0.12896E-06   -0.18280E-06  3660   0.248E-03
 141 F= -.82977627E+03 E0= -.82977627E+03  d E =-.396413E-06  mag=     0.0000
       N       E                     dE             d eps       ncg     rms          rms(c)
DAV:   1    -0.822262174305E+03   -0.70479E-06   -0.11874E-04  4330   0.202E-02    0.303E-03
DAV:   2    -0.822262174458E+03   -0.15298E-06   -0.23076E-06  3540   0.274E-03
 142 F= -.82977627E+03 E0= -.82977627E+03  d E =-.722313E-06  mag=    -0.0000
       N       E                     dE             d eps       ncg     rms          rms(c)
DAV:   1    -0.822262174316E+03   -0.11183E-07   -0.19185E-04  4250   0.263E-02    0.364E-03
DAV:   2    -0.822262174640E+03   -0.32385E-06   -0.40918E-06  4100   0.372E-03
 143 F= -.82977627E+03 E0= -.82977627E+03  d E =-.739499E-06  mag=    -0.0000
       N       E                     dE             d eps       ncg     rms          rms(c)
DAV:   1    -0.822262174733E+03   -0.41691E-06   -0.25983E-04  4330   0.303E-02    0.430E-03
DAV:   2    -0.822262175122E+03   -0.38870E-06   -0.53446E-06  4380   0.423E-03
 144 F= -.82977627E+03 E0= -.82977627E+03  d E =-.115899E-05  mag=    -0.0000
       N       E                     dE             d eps       ncg     rms          rms(c)
DAV:   1    -0.822262176320E+03   -0.15872E-05   -0.36616E-04  4310   0.363E-02    0.507E-03
DAV:   2    -0.822262176856E+03   -0.53599E-06   -0.72965E-06  4500   0.496E-03
 145 F= -.82977627E+03 E0= -.82977627E+03  d E =-.625233E-06  mag=     0.0000
       N       E                     dE             d eps       ncg     rms          rms(c)
DAV:   1    -0.822262177327E+03   -0.10066E-05   -0.10720E-05  4400   0.690E-03    0.184E-03
DAV:   2    -0.822262177367E+03   -0.40069E-07   -0.37323E-07  2920   0.125E-03
 146 F= -.82977627E+03 E0= -.82977627E+03  d E =-.766091E-06  mag=    -0.0000
       N       E                     dE             d eps       ncg     rms          rms(c)
DAV:   1    -0.822262177308E+03    0.18568E-07   -0.22559E-05  4540   0.994E-03    0.146E-03
DAV:   2    -0.822262177337E+03   -0.28624E-07   -0.48780E-07  2900   0.146E-03
 147 F= -.82977627E+03 E0= -.82977627E+03  d E =-.302627E-06  mag=     0.0000
       N       E                     dE             d eps       ncg     rms          rms(c)
DAV:   1    -0.822262177401E+03   -0.92601E-07   -0.32389E-07  2840   0.125E-03    0.912E-04
DAV:   2    -0.822262177409E+03   -0.74870E-08   -0.28455E-08  2740   0.415E-04
 148 F= -.82977627E+03 E0= -.82977627E+03  d E =-.644964E-07  mag=    -0.0000
       N       E                     dE             d eps       ncg     rms          rms(c)
DAV:   1    -0.822262177535E+03   -0.13409E-06   -0.58665E-07  2960   0.162E-03    0.862E-04
DAV:   2    -0.822262177543E+03   -0.75524E-08   -0.29899E-08  2840   0.418E-04
 149 F= -.82977627E+03 E0= -.82977627E+03  d E =-.101279E-06  mag=    -0.0000
       N       E                     dE             d eps       ncg     rms          rms(c)
DAV:   1    -0.822262177587E+03   -0.52089E-07   -0.11069E-06  3080   0.220E-03    0.881E-04
DAV:   2    -0.822262177596E+03   -0.83528E-08   -0.51715E-08  2820   0.528E-04
 150 F= -.82977627E+03 E0= -.82977627E+03  d E =0.149417E-07  mag=    -0.0000
       N       E                     dE             d eps       ncg     rms          rms(c)
DAV:   1    -0.822262177820E+03   -0.23290E-06   -0.12427E-06  3300   0.227E-03    0.891E-04
DAV:   2    -0.822262177827E+03   -0.70795E-08   -0.47872E-08  2760   0.499E-04
 151 F= -.82977627E+03 E0= -.82977627E+03  d E =-.161071E-06  mag=    -0.0000
       N       E                     dE             d eps       ncg     rms          rms(c)
DAV:   1    -0.822262177995E+03   -0.17438E-06   -0.16352E-06  3540   0.256E-03    0.900E-04
DAV:   2    -0.822262178001E+03   -0.62937E-08   -0.49455E-08  2720   0.498E-04
 152 F= -.82977627E+03 E0= -.82977627E+03  d E =-.911390E-07  mag=    -0.0000
       N       E                     dE             d eps       ncg     rms          rms(c)
DAV:   1    -0.822262178158E+03   -0.16308E-06   -0.17921E-06  3500   0.263E-03    0.909E-04
DAV:   2    -0.822262178164E+03   -0.64756E-08   -0.52139E-08  2700   0.510E-04
 153 F= -.82977627E+03 E0= -.82977627E+03  d E =-.689944E-07  mag=     0.0000
       N       E                     dE             d eps       ncg     rms          rms(c)
DAV:   1    -0.822262178307E+03   -0.14946E-06   -0.25818E-06  3710   0.309E-03    0.932E-04
DAV:   2    -0.822262178313E+03   -0.59663E-08   -0.61045E-08  2625   0.523E-04
 154 F= -.82977627E+03 E0= -.82977627E+03  d E =-.722731E-07  mag=    -0.0000
       N       E                     dE             d eps       ncg     rms          rms(c)
DAV:   1    -0.822262178515E+03   -0.20835E-06   -0.38769E-06  4050   0.379E-03    0.964E-04
DAV:   2    -0.822262178523E+03   -0.76107E-08   -0.82216E-08  2480   0.594E-04
 155 F= -.82977627E+03 E0= -.82977627E+03  d E =-.153787E-06  mag=    -0.0000
       N       E                     dE             d eps       ncg     rms          rms(c)
DAV:   1    -0.822262178728E+03   -0.21260E-06   -0.58459E-06  4160   0.462E-03    0.103E-03
DAV:   2    -0.822262178736E+03   -0.83965E-08   -0.11984E-07  2390   0.695E-04
 156 F= -.82977627E+03 E0= -.82977627E+03  d E =-.146440E-06  mag=    -0.0000
       N       E                     dE             d eps       ncg     rms          rms(c)
DAV:   1    -0.822262179042E+03   -0.31370E-06   -0.85768E-06  4020   0.557E-03    0.110E-03
DAV:   2    -0.822262179059E+03   -0.17630E-07   -0.17828E-07  2375   0.840E-04
 157 F= -.82977627E+03 E0= -.82977627E+03  d E =-.141339E-06  mag=     0.0000
       N       E                     dE             d eps       ncg     rms          rms(c)
DAV:   1    -0.822262179403E+03   -0.36099E-06   -0.12878E-05  4050   0.677E-03    0.121E-03
DAV:   2    -0.822262179426E+03   -0.23625E-07   -0.26536E-07  2610   0.991E-04
 158 F= -.82977627E+03 E0= -.82977627E+03  d E =-.192740E-06  mag=     0.0000
       N       E                     dE             d eps       ncg     rms          rms(c)
DAV:   1    -0.822262179775E+03   -0.37273E-06   -0.19431E-05  4080   0.815E-03    0.136E-03
DAV:   2    -0.822262179802E+03   -0.26790E-07   -0.38708E-07  2530   0.116E-03
 159 F= -.82977627E+03 E0= -.82977627E+03  d E =-.269730E-06  mag=    -0.0000
       N       E                     dE             d eps       ncg     rms          rms(c)
DAV:   1    -0.822262180042E+03   -0.26674E-06   -0.34148E-05  4140   0.110E-02    0.163E-03
DAV:   2    -0.822262180094E+03   -0.51557E-07   -0.73205E-07  3020   0.157E-03
 160 F= -.82977627E+03 E0= -.82977627E+03  d E =-.284652E-06  mag=    -0.0000
       N       E                     dE             d eps       ncg     rms          rms(c)
DAV:   1    -0.822262180546E+03   -0.50368E-06   -0.46000E-05  4220   0.125E-02    0.187E-03
DAV:   2    -0.822262180614E+03   -0.67870E-07   -0.91495E-07  2960   0.171E-03
 161 F= -.82977627E+03 E0= -.82977627E+03  d E =-.404864E-06  mag=     0.0000
       N       E                     dE             d eps       ncg     rms          rms(c)
DAV:   1    -0.822262181430E+03   -0.88423E-06   -0.72156E-05  4250   0.159E-02    0.221E-03
DAV:   2    -0.822262181554E+03   -0.12431E-06   -0.14914E-06  3400   0.220E-03
 162 F= -.82977627E+03 E0= -.82977627E+03  d E =-.491740E-06  mag=     0.0000
       N       E                     dE             d eps       ncg     rms          rms(c)
DAV:   1    -0.822262182123E+03   -0.69269E-06   -0.11052E-04  4280   0.196E-02    0.268E-03
DAV:   2    -0.822262182304E+03   -0.18135E-06   -0.22967E-06  3760   0.272E-03
 163 F= -.82977627E+03 E0= -.82977627E+03  d E =-.495047E-06  mag=     0.0000
       N       E                     dE             d eps       ncg     rms          rms(c)
DAV:   1    -0.822262182931E+03   -0.80832E-06   -0.16379E-04  4250   0.237E-02    0.320E-03
DAV:   2    -0.822262183186E+03   -0.25443E-06   -0.33720E-06  3640   0.325E-03
 164 F= -.82977627E+03 E0= -.82977627E+03  d E =-.822540E-06  mag=     0.0000
       N       E                     dE             d eps       ncg     rms          rms(c)
DAV:   1    -0.822262184175E+03   -0.12441E-05   -0.25381E-04  4250   0.296E-02    0.392E-03
DAV:   2    -0.822262184593E+03   -0.41739E-06   -0.53810E-06  4460   0.410E-03
 165 F= -.82977627E+03 E0= -.82977627E+03  d E =-.678614E-06  mag=     0.0000
       N       E                     dE             d eps       ncg     rms          rms(c)
DAV:   1    -0.822262185576E+03   -0.14003E-05   -0.29154E-04  4250   0.311E-02    0.453E-03
DAV:   2    -0.822262185998E+03   -0.42239E-06   -0.57634E-06  4200   0.417E-03
 166 F= -.82977627E+03 E0= -.82977627E+03  d E =-.463582E-06  mag=     0.0000
       N       E                     dE             d eps       ncg     rms          rms(c)
DAV:   1    -0.822262186609E+03   -0.10330E-05   -0.39318E-04  4250   0.357E-02    0.523E-03
DAV:   2    -0.822262187171E+03   -0.56252E-06   -0.77740E-06  4460   0.483E-03
 167 F= -.82977628E+03 E0= -.82977628E+03  d E =-.132479E-05  mag=     0.0000
       N       E                     dE             d eps       ncg     rms          rms(c)
DAV:   1    -0.822262185794E+03    0.81467E-06   -0.57641E-04  4270   0.428E-02    0.635E-03
DAV:   2    -0.822262186606E+03   -0.81208E-06   -0.11451E-05  4510   0.583E-03    0.403E-03
DAV:   3    -0.822262186580E+03    0.25830E-07   -0.38418E-07  2980   0.139E-03
 168 F= -.82977628E+03 E0= -.82977628E+03  d E =-.385264E-06  mag=     0.0000
       N       E                     dE             d eps       ncg     rms          rms(c)
DAV:   1    -0.822262187592E+03   -0.98580E-06   -0.13331E-05  4540   0.771E-03    0.128E-03
DAV:   2    -0.822262187611E+03   -0.19420E-07   -0.34679E-07  2840   0.128E-03
 169 F= -.82977628E+03 E0= -.82977628E+03  d E =-.858456E-06  mag=    -0.0000
       N       E                     dE             d eps       ncg     rms          rms(c)
DAV:   1    -0.822262188255E+03   -0.66348E-06   -0.32614E-05  4490   0.120E-02    0.168E-03
DAV:   2    -0.822262188300E+03   -0.44500E-07   -0.72097E-07  2910   0.179E-03
 170 F= -.82977628E+03 E0= -.82977628E+03  d E =-.474823E-06  mag=    -0.0000
       N       E                     dE             d eps       ncg     rms          rms(c)
DAV:   1    -0.822262188345E+03   -0.89407E-07   -0.39812E-07  2820   0.140E-03    0.931E-04
DAV:   2    -0.822262188349E+03   -0.40600E-08   -0.38360E-08  2760   0.472E-04
 171 F= -.82977628E+03 E0= -.82977628E+03  d E =-.809160E-07  mag=     0.0000
       N       E                     dE             d eps       ncg     rms          rms(c)
DAV:   1    -0.822262188384E+03   -0.39421E-07   -0.78078E-07  2880   0.188E-03    0.864E-04
DAV:   2    -0.822262188389E+03   -0.52678E-08   -0.42352E-08  2770   0.497E-04
 172 F= -.82977628E+03 E0= -.82977628E+03  d E =-.945097E-07  mag=     0.0000
       N       E                     dE             d eps       ncg     rms          rms(c)
DAV:   1    -0.822262188354E+03    0.30232E-07   -0.83460E-07  2720   0.196E-03    0.875E-04
DAV:   2    -0.822262188359E+03   -0.53769E-08   -0.46510E-08  2760   0.507E-04
 173 F= -.82977628E+03 E0= -.82977628E+03  d E =-.506816E-07  mag=     0.0000
       N       E                     dE             d eps       ncg     rms          rms(c)
DAV:   1    -0.822262188327E+03    0.26572E-07   -0.10354E-06  2900   0.217E-03    0.882E-04
DAV:   2    -0.822262188334E+03   -0.63519E-08   -0.54454E-08  2610   0.544E-04
 174 F= -.82977628E+03 E0= -.82977628E+03  d E =-.659029E-07  mag=     0.0000
       N       E                     dE             d eps       ncg     rms          rms(c)
DAV:   1    -0.822262188395E+03   -0.67201E-07   -0.14336E-06  3300   0.252E-03    0.895E-04
DAV:   2    -0.822262188400E+03   -0.58644E-08   -0.55641E-08  2570   0.536E-04
 175 F= -.82977628E+03 E0= -.82977628E+03  d E =-.161876E-06  mag=     0.0000
       N       E                     dE             d eps       ncg     rms          rms(c)
DAV:   1    -0.822262188356E+03    0.38890E-07   -0.14694E-06  3190   0.252E-03    0.895E-04
DAV:   2    -0.822262188361E+03   -0.52241E-08   -0.53506E-08  2460   0.524E-04
 176 F= -.82977628E+03 E0= -.82977628E+03  d E =-.498670E-07  mag=     0.0000
       N       E                     dE             d eps       ncg     rms          rms(c)
DAV:   1    -0.822262188230E+03    0.12532E-06   -0.22236E-06  3600   0.303E-03    0.915E-04
DAV:   2    -0.822262188234E+03   -0.40818E-08   -0.55788E-08  2320   0.515E-04
 177 F= -.82977628E+03 E0= -.82977628E+03  d E =0.353680E-07  mag=     0.0000
       N       E                     dE             d eps       ncg     rms          rms(c)
DAV:   1    -0.822262188257E+03   -0.26317E-07   -0.36180E-06  4030   0.376E-03    0.959E-04
DAV:   2    -0.822262188259E+03   -0.24520E-08   -0.78633E-08  2340   0.581E-04
 178 F= -.82977628E+03 E0= -.82977628E+03  d E =-.762632E-07  mag=     0.0000
       N       E                     dE             d eps       ncg     rms          rms(c)
DAV:   1    -0.822262188324E+03   -0.66932E-07   -0.48390E-06  3890   0.426E-03    0.996E-04
DAV:   2    -0.822262188330E+03   -0.66721E-08   -0.99938E-08  2260   0.656E-04
 179 F= -.82977628E+03 E0= -.82977628E+03  d E =-.575158E-07  mag=     0.0000
       N       E                     dE             d eps       ncg     rms          rms(c)
DAV:   1    -0.822262188418E+03   -0.94442E-07   -0.70773E-06  3920   0.506E-03    0.105E-03
DAV:   2    -0.822262188431E+03   -0.12711E-07   -0.14666E-07  2370   0.764E-04
 180 F= -.82977628E+03 E0= -.82977628E+03  d E =-.111156E-06  mag=     0.0000
       N       E                     dE             d eps       ncg     rms          rms(c)
DAV:   1    -0.822262188393E+03    0.24535E-07   -0.11101E-05  4020   0.625E-03    0.116E-03
DAV:   2    -0.822262188408E+03   -0.14639E-07   -0.21951E-07  2610   0.912E-04
 181 F= -.82977628E+03 E0= -.82977628E+03  d E =-.115351E-06  mag=     0.0000
       N       E                     dE             d eps       ncg     rms          rms(c)
DAV:   1    -0.822262188185E+03    0.20850E-06   -0.17380E-05  4150   0.775E-03    0.129E-03
DAV:   2    -0.822262188202E+03   -0.17346E-07   -0.34587E-07  2725   0.110E-03
 182 F= -.82977628E+03 E0= -.82977628E+03  d E =-.138199E-06  mag=     0.0000
       N       E                     dE             d eps       ncg     rms          rms(c)
DAV:   1    -0.822262188050E+03    0.13449E-06   -0.22031E-05  4090   0.860E-03    0.142E-03
DAV:   2    -0.822262188077E+03   -0.26404E-07   -0.41917E-07  2685   0.120E-03
 183 F= -.82977628E+03 E0= -.82977628E+03  d E =-.210052E-06  mag=     0.0000
       N       E                     dE             d eps       ncg     rms          rms(c)
DAV:   1    -0.822262187832E+03    0.21824E-06   -0.30521E-05  4130   0.101E-02    0.159E-03
DAV:   2    -0.822262187866E+03   -0.33964E-07   -0.57905E-07  2780   0.138E-03
 184 F= -.82977628E+03 E0= -.82977628E+03  d E =-.220733E-06  mag=     0.0000
       N       E                     dE             d eps       ncg     rms          rms(c)
DAV:   1    -0.822262187432E+03    0.39976E-06   -0.39946E-05  4250   0.122E-02    0.179E-03
DAV:   2    -0.822262187485E+03   -0.52671E-07   -0.75594E-07  2930   0.164E-03
 185 F= -.82977628E+03 E0= -.82977628E+03  d E =-.398600E-07  mag=     0.0000
       N       E                     dE             d eps       ncg     rms          rms(c)
DAV:   1    -0.822262187541E+03   -0.10857E-06   -0.51123E-05  4250   0.135E-02    0.195E-03
DAV:   2    -0.822262187607E+03   -0.65826E-07   -0.94515E-07  2865   0.178E-03
 186 F= -.82977628E+03 E0= -.82977628E+03  d E =-.152300E-06  mag=     0.0000
       N       E                     dE             d eps       ncg     rms          rms(c)
DAV:   1    -0.822262186945E+03    0.59580E-06   -0.99978E-05  4250   0.191E-02    0.253E-03
DAV:   2    -0.822262187096E+03   -0.15044E-06   -0.21226E-06  3610   0.268E-03
 187 F= -.82977628E+03 E0= -.82977628E+03  d E =0.170324E-06  mag=     0.0000
       N       E                     dE             d eps       ncg     rms          rms(c)
DAV:   1    -0.822262187241E+03   -0.29569E-06   -0.17778E-06  3380   0.286E-03    0.115E-03
DAV:   2    -0.822262187256E+03   -0.15199E-07   -0.85834E-08  2445   0.659E-04
 188 F= -.82977628E+03 E0= -.82977628E+03  d E =-.219030E-06  mag=     0.0000
       N       E                     dE             d eps       ncg     rms          rms(c)
DAV:   1    -0.822262187379E+03   -0.13776E-06   -0.53537E-06  4090   0.483E-03    0.101E-03
DAV:   2    -0.822262187392E+03   -0.12828E-07   -0.14463E-07  2495   0.799E-04
 189 F= -.82977628E+03 E0= -.82977628E+03  d E =-.227716E-06  mag=     0.0000
       N       E                     dE             d eps       ncg     rms          rms(c)
DAV:   1    -0.822262187253E+03    0.12540E-06   -0.79635E-06  4300   0.581E-03    0.112E-03
DAV:   2    -0.822262187270E+03   -0.16720E-07   -0.21119E-07  2685   0.936E-04
 190 F= -.82977628E+03 E0= -.82977628E+03  d E =0.114635E-07  mag=    -0.0000
       N       E                     dE             d eps       ncg     rms          rms(c)
DAV:   1    -0.822262187312E+03   -0.58586E-07   -0.70609E-08  2555   0.616E-04    0.872E-04
DAV:   2    -0.822262187311E+03    0.77853E-09   -0.46235E-09  2355   0.207E-04
 191 F= -.82977628E+03 E0= -.82977628E+03  d E =-.275396E-07  mag=    -0.0000
       N       E                     dE             d eps       ncg     rms          rms(c)
DAV:   1    -0.822262187383E+03   -0.71333E-07   -0.19090E-07  2660   0.946E-04    0.847E-04
DAV:   2    -0.822262187385E+03   -0.18626E-08   -0.78131E-09  2275   0.245E-04
 192 F= -.82977628E+03 E0= -.82977628E+03  d E =-.509400E-07  mag=     0.0000
       N       E                     dE             d eps       ncg     rms          rms(c)
DAV:   1    -0.822262187472E+03   -0.88832E-07   -0.31436E-07  2375   0.120E-03    0.852E-04
DAV:   2    -0.822262187474E+03   -0.22264E-08   -0.15033E-08  2285   0.304E-04
 193 F= -.82977628E+03 E0= -.82977628E+03  d E =-.568348E-07  mag=     0.0000
       N       E                     dE             d eps       ncg     rms          rms(c)
DAV:   1    -0.822262187531E+03   -0.59183E-07   -0.46715E-07  2375   0.146E-03    0.859E-04
DAV:   2    -0.822262187534E+03   -0.28667E-08   -0.24561E-08  2285   0.372E-04
 194 F= -.82977628E+03 E0= -.82977628E+03  d E =-.314292E-07  mag=     0.0000
       N       E                     dE             d eps       ncg     rms          rms(c)
DAV:   1    -0.822262187540E+03   -0.82728E-08   -0.30574E-09  2315   0.174E-04    0.845E-04
DAV:   2    -0.822262187540E+03   -0.29104E-09    0.19871E-09  2155   0.750E-05
 195 F= -.82977628E+03 E0= -.82977628E+03  d E =-.592490E-08  mag=    -0.0000
       N       E                     dE             d eps       ncg     rms          rms(c)
DAV:   1    -0.822262187549E+03   -0.96916E-08   -0.59697E-09  2550   0.205E-04    0.842E-04
DAV:   2    -0.822262187549E+03    0.22555E-09    0.26335E-09  2150   0.581E-05
 196 F= -.82977628E+03 E0= -.82977628E+03  d E =-.965679E-08  mag=    -0.0000
       N       E                     dE             d eps       ncg     rms          rms(c)
DAV:   1    -0.822262187553E+03   -0.33106E-08   -0.16122E-08  2150   0.292E-04    0.842E-04
DAV:   2    -0.822262187553E+03   -0.23283E-09    0.20518E-09  2135   0.788E-05
 197 F= -.82977628E+03 E0= -.82977628E+03  d E =-.510852E-08  mag=    -0.0000
       N       E                     dE             d eps       ncg     rms          rms(c)
DAV:   1    -0.822262187555E+03   -0.27794E-08   -0.15148E-08  2135   0.285E-04    0.842E-04
DAV:   2    -0.822262187555E+03   -0.10914E-09    0.21447E-09  2135   0.753E-05
 198 F= -.82977628E+03 E0= -.82977628E+03  d E =-.391253E-08  mag=     0.0000
       N       E                     dE             d eps       ncg     rms          rms(c)
DAV:   1    -0.822262187558E+03   -0.30777E-08   -0.15719E-08  2135   0.287E-04    0.842E-04
DAV:   2    -0.822262187559E+03   -0.36380E-09    0.21284E-09  2135   0.760E-05
 199 F= -.82977628E+03 E0= -.82977628E+03  d E =-.380919E-08  mag=    -0.0000
       N       E                     dE             d eps       ncg     rms          rms(c)
DAV:   1    -0.822262187568E+03   -0.94660E-08   -0.18666E-08  2135   0.302E-04    0.842E-04
DAV:   2    -0.822262187568E+03   -0.40745E-09    0.19416E-09  2135   0.792E-05
 200 F= -.82977628E+03 E0= -.82977628E+03  d E =-.878231E-08  mag=    -0.0000
       N       E                     dE             d eps       ncg     rms          rms(c)
DAV:   1    -0.822262187572E+03   -0.41182E-08   -0.36710E-08  2135   0.411E-04    0.843E-04
DAV:   2    -0.822262187573E+03   -0.66939E-09    0.85603E-10  2135   0.107E-04
 201 F= -.82977628E+03 E0= -.82977628E+03  d E =-.174077E-08  mag=    -0.0000
       N       E                     dE             d eps       ncg     rms          rms(c)
DAV:   1    -0.822262187583E+03   -0.10688E-07   -0.50911E-08  2135   0.474E-04    0.843E-04
DAV:   2    -0.822262187583E+03   -0.40745E-09   -0.10270E-10  2135   0.128E-04
 202 F= -.82977628E+03 E0= -.82977628E+03  d E =-.436194E-08  mag=    -0.0000
       N       E                     dE             d eps       ncg     rms          rms(c)
DAV:   1    -0.822262187590E+03   -0.77998E-08   -0.58606E-08  2135   0.487E-04    0.844E-04
DAV:   2    -0.822262187591E+03   -0.80036E-09   -0.49874E-10  2135   0.132E-04
 203 F= -.82977628E+03 E0= -.82977628E+03  d E =-.284695E-08  mag=    -0.0000
       N       E                     dE             d eps       ncg     rms          rms(c)
DAV:   1    -0.822262187614E+03   -0.23705E-07   -0.87171E-08  2135   0.585E-04    0.845E-04
DAV:   2    -0.822262187614E+03    0.36380E-09   -0.22583E-09  2135   0.159E-04
 204 F= -.82977628E+03 E0= -.82977628E+03  d E =-.899763E-08  mag=    -0.0000
       N       E                     dE             d eps       ncg     rms          rms(c)
DAV:   1    -0.822262187647E+03   -0.32967E-07   -0.13481E-07  2135   0.733E-04    0.846E-04
DAV:   2    -0.822262187647E+03   -0.38563E-09   -0.52482E-09  2135   0.198E-04
 205 F= -.82977628E+03 E0= -.82977628E+03  d E =-.220825E-08  mag=    -0.0000
       N       E                     dE             d eps       ncg     rms          rms(c)
DAV:   1    -0.822262187690E+03   -0.42804E-07   -0.23012E-07  2215   0.938E-04    0.850E-04
DAV:   2    -0.822262187690E+03   -0.49477E-09   -0.93339E-09  2135   0.246E-04
 206 F= -.82977628E+03 E0= -.82977628E+03  d E =-.131774E-08  mag=    -0.0000
       N       E                     dE             d eps       ncg     rms          rms(c)
DAV:   1    -0.822262187742E+03   -0.52154E-07   -0.27182E-07  2215   0.996E-04    0.852E-04
DAV:   2    -0.822262187744E+03   -0.14988E-08   -0.11344E-08  2135   0.260E-04
 207 F= -.82977628E+03 E0= -.82977628E+03  d E =-.121076E-07  mag=    -0.0000
       N       E                     dE             d eps       ncg     rms          rms(c)
DAV:   1    -0.822262187769E+03   -0.26732E-07   -0.45972E-07  2295   0.134E-03    0.857E-04
DAV:   2    -0.822262187772E+03   -0.29468E-08   -0.19495E-08  2135   0.333E-04
 208 F= -.82977628E+03 E0= -.82977628E+03  d E =0.745786E-08  mag=    -0.0000
       N       E                     dE             d eps       ncg     rms          rms(c)
DAV:   1    -0.822262187819E+03   -0.50422E-07   -0.55910E-07  2335   0.140E-03    0.862E-04
DAV:   2    -0.822262187820E+03   -0.95315E-09   -0.21741E-08  2135   0.341E-04
 209 F= -.82977628E+03 E0= -.82977628E+03  d E =-.748730E-08  mag=    -0.0000
       N       E                     dE             d eps       ncg     rms          rms(c)
DAV:   1    -0.822262187868E+03   -0.49185E-07   -0.87097E-07  2415   0.176E-03    0.871E-04
DAV:   2    -0.822262187871E+03   -0.23138E-08   -0.31965E-08  2135   0.409E-04
 210 F= -.82977628E+03 E0= -.82977628E+03  d E =-.141055E-07  mag=    -0.0000
       N       E                     dE             d eps       ncg     rms          rms(c)
DAV:   1    -0.822262187866E+03    0.19863E-08   -0.12732E-06  2555   0.209E-03    0.885E-04
DAV:   2    -0.822262187869E+03   -0.28012E-08   -0.40328E-08  2135   0.452E-04
 211 F= -.82977628E+03 E0= -.82977628E+03  d E =-.387706E-08  mag=    -0.0000
       N       E                     dE             d eps       ncg     rms          rms(c)
DAV:   1    -0.822262187920E+03   -0.53136E-07   -0.16816E-06  2655   0.237E-03    0.897E-04
DAV:   2    -0.822262187923E+03   -0.38708E-08   -0.48494E-08  2135   0.487E-04
 212 F= -.82977628E+03 E0= -.82977628E+03  d E =-.288936E-07  mag=    -0.0000
       N       E                     dE             d eps       ncg     rms          rms(c)
DAV:   1    -0.822262187984E+03   -0.64050E-07   -0.25971E-06  2885   0.295E-03    0.924E-04
DAV:   2    -0.822262187987E+03   -0.33760E-08   -0.68471E-08  2135   0.559E-04
 213 F= -.82977628E+03 E0= -.82977628E+03  d E =-.879857E-08  mag=    -0.0000
       N       E                     dE             d eps       ncg     rms          rms(c)
DAV:   1    -0.822262187993E+03   -0.95533E-08   -0.35730E-06  3405   0.344E-03    0.954E-04
DAV:   2    -0.822262188000E+03   -0.67012E-08   -0.76961E-08  2235   0.565E-04
 214 F= -.82977628E+03 E0= -.82977628E+03  d E =0.208197E-07  mag=    -0.0000
       N       E                     dE             d eps       ncg     rms          rms(c)
DAV:   1    -0.822262188094E+03   -0.10103E-06   -0.60212E-06  3750   0.446E-03    0.102E-03
DAV:   2    -0.822262188100E+03   -0.57844E-08   -0.12699E-07  2215   0.690E-04
 215 F= -.82977628E+03 E0= -.82977628E+03  d E =-.196823E-07  mag=    -0.0000
       N       E                     dE             d eps       ncg     rms          rms(c)
DAV:   1    -0.822262188120E+03   -0.25917E-07   -0.82943E-06  3910   0.523E-03    0.109E-03
DAV:   2    -0.822262188131E+03   -0.10863E-07   -0.16212E-07  2375   0.764E-04
 216 F= -.82977628E+03 E0= -.82977628E+03  d E =0.139405E-07  mag=    -0.0000
       N       E                     dE             d eps       ncg     rms          rms(c)
DAV:   1    -0.822262188069E+03    0.51237E-07   -0.11808E-05  3950   0.613E-03    0.117E-03
DAV:   2    -0.822262188082E+03   -0.13140E-07   -0.22777E-07  2355   0.882E-04
 217 F= -.82977628E+03 E0= -.82977628E+03  d E =0.573436E-09  mag=    -0.0000
       N       E                     dE             d eps       ncg     rms          rms(c)
DAV:   1    -0.822262188294E+03   -0.22525E-06   -0.18173E-05  4090   0.787E-03    0.131E-03
DAV:   2    -0.822262188322E+03   -0.27743E-07   -0.36086E-07  2495   0.112E-03
 218 F= -.82977628E+03 E0= -.82977628E+03  d E =-.515319E-07  mag=    -0.0000
       N       E                     dE             d eps       ncg     rms          rms(c)
DAV:   1    -0.822262188522E+03   -0.22753E-06   -0.25125E-05  4090   0.894E-03    0.146E-03
DAV:   2    -0.822262188553E+03   -0.31621E-07   -0.47827E-07  2735   0.125E-03
 219 F= -.82977628E+03 E0= -.82977628E+03  d E =-.828785E-07  mag=    -0.0000
       N       E                     dE             d eps       ncg     rms          rms(c)
DAV:   1    -0.822262188453E+03    0.68801E-07   -0.50837E-05  4230   0.132E-02    0.186E-03
DAV:   2    -0.822262188526E+03   -0.73356E-07   -0.10764E-06  2980   0.188E-03
[...]
DAV:   2    -0.822262198412E+03   -0.10623E-08   -0.13194E-08  2120   0.286E-04
 351 F= -.82977628E+03 E0= -.82977628E+03  d E =-.206634E-07  mag=    -0.0000
       N       E                     dE             d eps       ncg     rms          rms(c)
DAV:   1    -0.822262198511E+03   -0.10027E-06   -0.43364E-07  2200   0.130E-03    0.851E-04
DAV:   2    -0.822262198514E+03   -0.29904E-08   -0.22108E-08  2120   0.357E-04
 352 F= -.82977628E+03 E0= -.82977628E+03  d E =-.189553E-07  mag=    -0.0000
       N       E                     dE             d eps       ncg     rms          rms(c)
DAV:   1    -0.822262198594E+03   -0.82851E-07   -0.53839E-07  2300   0.144E-03    0.855E-04
DAV:   2    -0.822262198596E+03   -0.25975E-08   -0.24578E-08  2120   0.370E-04
 353 F= -.82977628E+03 E0= -.82977628E+03  d E =-.854573E-08  mag=    -0.0000
       N       E                     dE             d eps       ncg     rms          rms(c)
DAV:   1    -0.822262198684E+03   -0.90891E-07   -0.75999E-07  2420   0.167E-03    0.862E-04
DAV:   2    -0.822262198688E+03   -0.31068E-08   -0.30259E-08  2120   0.402E-04
 354 F= -.82977628E+03 E0= -.82977628E+03  d E =-.210298E-07  mag=    -0.0000
       N       E                     dE             d eps       ncg     rms          rms(c)
DAV:   1    -0.822262198767E+03   -0.82757E-07   -0.12296E-06  2660   0.213E-03    0.872E-04
DAV:   2    -0.822262198771E+03   -0.32887E-08   -0.40160E-08  2120   0.445E-04
 355 F= -.82977628E+03 E0= -.82977628E+03  d E =-.164646E-07  mag=    -0.0000
       N       E                     dE             d eps       ncg     rms          rms(c)
DAV:   1    -0.822262198870E+03   -0.10263E-06   -0.16338E-06  3000   0.244E-03    0.883E-04
DAV:   2    -0.822262198873E+03   -0.31578E-08   -0.42066E-08  2120   0.439E-04
 356 F= -.82977628E+03 E0= -.82977628E+03  d E =-.246434E-07  mag=    -0.0000
       N       E                     dE             d eps       ncg     rms          rms(c)
DAV:   1    -0.822262199015E+03   -0.14561E-06   -0.23969E-06  3340   0.292E-03    0.901E-04
DAV:   2    -0.822262199019E+03   -0.39654E-08   -0.51186E-08  2120   0.466E-04
 357 F= -.82977628E+03 E0= -.82977628E+03  d E =-.283139E-07  mag=    -0.0000
       N       E                     dE             d eps       ncg     rms          rms(c)
DAV:   1    -0.822262199239E+03   -0.22368E-06   -0.34892E-06  3530   0.351E-03    0.928E-04
DAV:   2    -0.822262199245E+03   -0.59881E-08   -0.73913E-08  2120   0.540E-04
 358 F= -.82977628E+03 E0= -.82977628E+03  d E =-.340543E-07  mag=    -0.0000
       N       E                     dE             d eps       ncg     rms          rms(c)
DAV:   1    -0.822262199535E+03   -0.29559E-06   -0.54003E-06  3760   0.439E-03    0.969E-04
DAV:   2    -0.822262199545E+03   -0.99535E-08   -0.11556E-07  2120   0.661E-04
 359 F= -.82977628E+03 E0= -.82977628E+03  d E =-.821376E-08  mag=    -0.0000
       N       E                     dE             d eps       ncg     rms          rms(c)
DAV:   1    -0.822262199824E+03   -0.28950E-06   -0.83012E-06  3910   0.543E-03    0.104E-03
DAV:   2    -0.822262199834E+03   -0.10215E-07   -0.17693E-07  2140   0.821E-04
 360 F= -.82977628E+03 E0= -.82977628E+03  d E =-.596222E-07  mag=    -0.0000
       N       E                     dE             d eps       ncg     rms          rms(c)
DAV:   1    -0.822262200008E+03   -0.18381E-06   -0.12036E-05  4000   0.655E-03    0.111E-03
DAV:   2    -0.822262200026E+03   -0.18255E-07   -0.24816E-07  2280   0.944E-04
 361 F= -.82977628E+03 E0= -.82977628E+03  d E =-.502222E-07  mag=    -0.0000
       N       E                     dE             d eps       ncg     rms          rms(c)
DAV:   1    -0.822262200342E+03   -0.33434E-06   -0.16592E-05  4060   0.760E-03    0.120E-03
DAV:   2    -0.822262200372E+03   -0.29664E-07   -0.34534E-07  2480   0.108E-03
 362 F= -.82977628E+03 E0= -.82977628E+03  d E =-.769902E-07  mag=    -0.0000
       N       E                     dE             d eps       ncg     rms          rms(c)
DAV:   1    -0.822262200890E+03   -0.54725E-06   -0.26000E-05  4120   0.966E-03    0.136E-03
DAV:   2    -0.822262200937E+03   -0.46872E-07   -0.55862E-07  2700   0.138E-03
 363 F= -.82977628E+03 E0= -.82977628E+03  d E =-.949143E-07  mag=    -0.0000
       N       E                     dE             d eps       ncg     rms          rms(c)
DAV:   1    -0.822262201422E+03   -0.53200E-06   -0.39890E-05  4200   0.119E-02    0.158E-03
DAV:   2    -0.822262201480E+03   -0.57866E-07   -0.82998E-07  2840   0.166E-03
 364 F= -.82977628E+03 E0= -.82977628E+03  d E =-.138850E-06  mag=    -0.0000
       N       E                     dE             d eps       ncg     rms          rms(c)
DAV:   1    -0.822262202336E+03   -0.91407E-06   -0.56975E-05  4240   0.140E-02    0.181E-03
DAV:   2    -0.822262202426E+03   -0.90695E-07   -0.11839E-06  3310   0.191E-03
 365 F= -.82977628E+03 E0= -.82977628E+03  d E =-.243763E-06  mag=    -0.0000
       N       E                     dE             d eps       ncg     rms          rms(c)
DAV:   1    -0.822262203255E+03   -0.91927E-06   -0.83569E-05  4240   0.170E-02    0.210E-03
DAV:   2    -0.822262203395E+03   -0.14031E-06   -0.17278E-06  3570   0.232E-03
 366 F= -.82977628E+03 E0= -.82977628E+03  d E =-.282011E-06  mag=    -0.0000
       N       E                     dE             d eps       ncg     rms          rms(c)
DAV:   1    -0.822262204014E+03   -0.75951E-06   -0.13182E-04  4240   0.214E-02    0.256E-03
DAV:   2    -0.822262204235E+03   -0.22027E-06   -0.27916E-06  3740   0.292E-03
 367 F= -.82977628E+03 E0= -.82977628E+03  d E =-.169186E-06  mag=    -0.0000
       N       E                     dE             d eps       ncg     rms          rms(c)
DAV:   1    -0.822262205070E+03   -0.10560E-05   -0.19098E-04  4240   0.259E-02    0.304E-03
DAV:   2    -0.822262205396E+03   -0.32537E-06   -0.40442E-06  4140   0.356E-03
 368 F= -.82977628E+03 E0= -.82977628E+03  d E =-.257846E-06  mag=    -0.0000
       N       E                     dE             d eps       ncg     rms          rms(c)
DAV:   1    -0.822262206568E+03   -0.14972E-05   -0.32742E-04  4240   0.343E-02    0.393E-03
DAV:   2    -0.822262207142E+03   -0.57396E-06   -0.71973E-06  4480   0.481E-03
 369 F= -.82977628E+03 E0= -.82977628E+03  d E =-.185119E-06  mag=    -0.0000
       N       E                     dE             d eps       ncg     rms          rms(c)
DAV:   1    -0.822262209123E+03   -0.25553E-05   -0.45851E-04  4240   0.400E-02    0.469E-03
DAV:   2    -0.822262209922E+03   -0.79905E-06   -0.99434E-06  4500   0.552E-03
 370 F= -.82977628E+03 E0= -.82977628E+03  d E =-.166297E-06  mag=    -0.0000
       N       E                     dE             d eps       ncg     rms          rms(c)
DAV:   1    -0.822262211349E+03   -0.22265E-05   -0.70010E-04  4240   0.496E-02    0.571E-03
DAV:   2    -0.822262212598E+03   -0.12485E-05   -0.15271E-05  4540   0.689E-03    0.357E-03
DAV:   3    -0.822262212616E+03   -0.18175E-07   -0.27461E-07  2820   0.125E-03
 371 F= -.82977629E+03 E0= -.82977629E+03  d E =-.541930E-06  mag=    -0.0000
       N       E                     dE             d eps       ncg     rms          rms(c)
DAV:   1    -0.822262213053E+03   -0.45477E-06   -0.11184E-03  4240   0.635E-02    0.633E-03
DAV:   2    -0.822262215193E+03   -0.21405E-05   -0.24935E-05  4420   0.887E-03    0.356E-03
DAV:   3    -0.822262215151E+03    0.41749E-07   -0.37891E-07  2980   0.144E-03
 372 F= -.82977629E+03 E0= -.82977629E+03  d E =-.579688E-07  mag=    -0.0000
       N       E                     dE             d eps       ncg     rms          rms(c)
DAV:   1    -0.822262216612E+03   -0.14187E-05   -0.20780E-05  4380   0.944E-03    0.139E-03
DAV:   2    -0.822262216653E+03   -0.41451E-07   -0.59710E-07  2880   0.160E-03
 373 F= -.82977629E+03 E0= -.82977629E+03  d E =-.909995E-06  mag=    -0.0000
       N       E                     dE             d eps       ncg     rms          rms(c)
DAV:   1    -0.822262217694E+03   -0.10822E-05   -0.41199E-05  4430   0.134E-02    0.184E-03
DAV:   2    -0.822262217748E+03   -0.53667E-07   -0.96354E-07  3050   0.203E-03
 374 F= -.82977629E+03 E0= -.82977629E+03  d E =-.110453E-06  mag=    -0.0000
       N       E                     dE             d eps       ncg     rms          rms(c)
DAV:   1    -0.822262217822E+03   -0.12830E-06   -0.44690E-07  2840   0.148E-03    0.955E-04
DAV:   2    -0.822262217831E+03   -0.85420E-08   -0.43879E-08  2760   0.491E-04
 375 F= -.82977629E+03 E0= -.82977629E+03  d E =-.651863E-07  mag=    -0.0000
       N       E                     dE             d eps       ncg     rms          rms(c)
DAV:   1    -0.822262217978E+03   -0.15556E-06   -0.10287E-06  3000   0.214E-03    0.861E-04
DAV:   2    -0.822262217986E+03   -0.77489E-08   -0.52263E-08  2720   0.544E-04
 376 F= -.82977629E+03 E0= -.82977629E+03  d E =-.113686E-06  mag=    -0.0000
       N       E                     dE             d eps       ncg     rms          rms(c)
DAV:   1    -0.822262218160E+03   -0.18193E-06   -0.21124E-06  3480   0.303E-03    0.905E-04
DAV:   2    -0.822262218167E+03   -0.75524E-08   -0.61916E-08  2520   0.558E-04
 377 F= -.82977629E+03 E0= -.82977629E+03  d E =-.107962E-06  mag=    -0.0000
       N       E                     dE             d eps       ncg     rms          rms(c)
DAV:   1    -0.822262218344E+03   -0.18440E-06   -0.29625E-06  3980   0.357E-03    0.926E-04
DAV:   2    -0.822262218353E+03   -0.85129E-08   -0.75871E-08  2410   0.597E-04
 378 F= -.82977629E+03 E0= -.82977629E+03  d E =-.270560E-07  mag=    -0.0000
       N       E                     dE             d eps       ncg     rms          rms(c)
DAV:   1    -0.822262218553E+03   -0.20911E-06   -0.31224E-06  4020   0.359E-03    0.936E-04
DAV:   2    -0.822262218560E+03   -0.68030E-08   -0.73452E-08  2280   0.578E-04
 379 F= -.82977629E+03 E0= -.82977629E+03  d E =0.102413E-07  mag=    -0.0000
       N       E                     dE             d eps       ncg     rms          rms(c)
DAV:   1    -0.822262218811E+03   -0.25739E-06   -0.33254E-06  4025   0.359E-03    0.931E-04
DAV:   2    -0.822262218817E+03   -0.61191E-08   -0.74598E-08  2225   0.567E-04
 380 F= -.82977629E+03 E0= -.82977629E+03  d E =-.263730E-07  mag=    -0.0000
       N       E                     dE             d eps       ncg     rms          rms(c)
DAV:   1    -0.822262219162E+03   -0.35080E-06   -0.51358E-06  4010   0.440E-03    0.965E-04
DAV:   2    -0.822262219171E+03   -0.88839E-08   -0.11071E-07  2205   0.667E-04
 381 F= -.82977629E+03 E0= -.82977629E+03  d E =-.589669E-07  mag=    -0.0000
       N       E                     dE             d eps       ncg     rms          rms(c)
DAV:   1    -0.822262219725E+03   -0.56349E-06   -0.86237E-06  4010   0.573E-03    0.104E-03
DAV:   2    -0.822262219739E+03   -0.14115E-07   -0.18738E-07  2315   0.858E-04
 382 F= -.82977629E+03 E0= -.82977629E+03  d E =-.954830E-07  mag=    -0.0000
       N       E                     dE             d eps       ncg     rms          rms(c)
DAV:   1    -0.822262220191E+03   -0.46567E-06   -0.13441E-05  4100   0.707E-03    0.115E-03
DAV:   2    -0.822262220214E+03   -0.22817E-07   -0.29450E-07  2505   0.105E-03
 383 F= -.82977629E+03 E0= -.82977629E+03  d E =0.108015E-06  mag=    -0.0000
       N       E                     dE             d eps       ncg     rms          rms(c)
DAV:   1    -0.822262221002E+03   -0.81130E-06   -0.18110E-05  4090   0.806E-03    0.124E-03
DAV:   2    -0.822262221032E+03   -0.30130E-07   -0.38315E-07  2605   0.115E-03
 384 F= -.82977629E+03 E0= -.82977629E+03  d E =-.760721E-07  mag=    -0.0000
       N       E                     dE             d eps       ncg     rms          rms(c)
DAV:   1    -0.822262222083E+03   -0.10806E-05   -0.27687E-05  4140   0.100E-02    0.139E-03
DAV:   2    -0.822262222130E+03   -0.47818E-07   -0.57493E-07  2670   0.140E-03
 385 F= -.82977629E+03 E0= -.82977629E+03  d E =-.497762E-07  mag=    -0.0000
       N       E                     dE             d eps       ncg     rms          rms(c)
DAV:   1    -0.822262223531E+03   -0.14478E-05   -0.41296E-05  4180   0.122E-02    0.159E-03
DAV:   2    -0.822262223602E+03   -0.71326E-07   -0.88812E-07  2975   0.170E-03
 386 F= -.82977629E+03 E0= -.82977629E+03  d E =-.117542E-06  mag=    -0.0000
       N       E                     dE             d eps       ncg     rms          rms(c)
DAV:   1    -0.822262225259E+03   -0.17282E-05   -0.63146E-05  4240   0.149E-02    0.189E-03
DAV:   2    -0.822262225361E+03   -0.10239E-06   -0.13248E-06  3165   0.202E-03
 387 F= -.82977629E+03 E0= -.82977629E+03  d E =-.674364E-07  mag=    -0.0000
       N       E                     dE             d eps       ncg     rms          rms(c)
DAV:   1    -0.822262227353E+03   -0.20939E-05   -0.97473E-05  4240   0.185E-02    0.224E-03
DAV:   2    -0.822262227510E+03   -0.15778E-06   -0.20536E-06  3440   0.250E-03
 388 F= -.82977629E+03 E0= -.82977629E+03  d E =-.236296E-06  mag=    -0.0000
       N       E                     dE             d eps       ncg     rms          rms(c)
DAV:   1    -0.822262229670E+03   -0.23176E-05   -0.15436E-04  4240   0.232E-02    0.272E-03
DAV:   2    -0.822262229932E+03   -0.26202E-06   -0.32895E-06  3840   0.315E-03
 389 F= -.82977629E+03 E0= -.82977629E+03  d E =-.206626E-06  mag=    -0.0000
       N       E                     dE             d eps       ncg     rms          rms(c)
DAV:   1    -0.822262232546E+03   -0.28753E-05   -0.22986E-04  4240   0.283E-02    0.328E-03
DAV:   2    -0.822262232942E+03   -0.39682E-06   -0.49012E-06  4140   0.383E-03
 390 F= -.82977629E+03 E0= -.82977629E+03  d E =-.307138E-06  mag=    -0.0000
       N       E                     dE             d eps       ncg     rms          rms(c)
DAV:   1    -0.822262236049E+03   -0.35037E-05   -0.35695E-04  4240   0.355E-02    0.403E-03
DAV:   2    -0.822262236684E+03   -0.63505E-06   -0.77661E-06  4500   0.485E-03
 391 F= -.82977629E+03 E0= -.82977629E+03  d E =-.585885E-08  mag=    -0.0000
       N       E                     dE             d eps       ncg     rms          rms(c)
DAV:   1    -0.822262240382E+03   -0.43324E-05   -0.56570E-04  4240   0.448E-02    0.497E-03
DAV:   2    -0.822262241419E+03   -0.10376E-05   -0.12453E-05  4570   0.616E-03    0.323E-03
DAV:   3    -0.822262241432E+03   -0.13111E-07   -0.19795E-07  2830   0.107E-03
 392 F= -.82977629E+03 E0= -.82977629E+03  d E =-.273876E-06  mag=    -0.0000
       N       E                     dE             d eps       ncg     rms          rms(c)
DAV:   1    -0.822262245191E+03   -0.37715E-05   -0.90888E-04  4240   0.563E-02    0.552E-03
DAV:   2    -0.822262246934E+03   -0.17431E-05   -0.20222E-05  4420   0.768E-03    0.320E-03
DAV:   3    -0.822262246902E+03    0.31388E-07   -0.27000E-07  2920   0.121E-03
 393 F= -.82977629E+03 E0= -.82977629E+03  d E =-.463090E-06  mag=    -0.0000
       N       E                     dE             d eps       ncg     rms          rms(c)
DAV:   1    -0.822262249829E+03   -0.28954E-05   -0.13687E-03  4240   0.697E-02    0.700E-03
DAV:   2    -0.822262252470E+03   -0.26403E-05   -0.31370E-05  4410   0.983E-03    0.402E-03
DAV:   3    -0.822262252411E+03    0.59066E-07   -0.46047E-07  2950   0.160E-03
 394 F= -.82977629E+03 E0= -.82977629E+03  d E =0.625822E-06  mag=    -0.0000
       N       E                     dE             d eps       ncg     rms          rms(c)
DAV:   1    -0.822262253619E+03   -0.11489E-05   -0.15167E-03  4240   0.718E-02    0.741E-03
DAV:   2    -0.822262256388E+03   -0.27695E-05   -0.32369E-05  4470   0.983E-03    0.422E-03
DAV:   3    -0.822262256342E+03    0.45831E-07   -0.54249E-07  3040   0.167E-03
 395 F= -.82977629E+03 E0= -.82977629E+03  d E =0.111099E-05  mag=    -0.0000
       N       E                     dE             d eps       ncg     rms          rms(c)
DAV:   1    -0.822262257361E+03   -0.97321E-06   -0.18367E-05  4520   0.916E-03    0.135E-03
DAV:   2    -0.822262257398E+03   -0.36758E-07   -0.54494E-07  2840   0.158E-03
 396 F= -.82977629E+03 E0= -.82977629E+03  d E =-.782881E-06  mag=    -0.0000
       N       E                     dE             d eps       ncg     rms          rms(c)
DAV:   1    -0.822262257987E+03   -0.62598E-06   -0.39916E-05  4510   0.134E-02    0.179E-03
DAV:   2    -0.822262258047E+03   -0.59517E-07   -0.91586E-07  2980   0.203E-03
 397 F= -.82977629E+03 E0= -.82977629E+03  d E =-.177476E-06  mag=    -0.0000
       N       E                     dE             d eps       ncg     rms          rms(c)
DAV:   1    -0.822262258070E+03   -0.82553E-07   -0.60225E-07  2880   0.171E-03    0.968E-04
DAV:   2    -0.822262258079E+03   -0.89422E-08   -0.47691E-08  2530   0.519E-04
 398 F= -.82977629E+03 E0= -.82977629E+03  d E =-.518324E-07  mag=    -0.0000
       N       E                     dE             d eps       ncg     rms          rms(c)
DAV:   1    -0.822262258183E+03   -0.11294E-06   -0.15432E-06  3240   0.262E-03    0.870E-04
DAV:   2    -0.822262258190E+03   -0.72978E-08   -0.57709E-08  2640   0.560E-04
 399 F= -.82977629E+03 E0= -.82977629E+03  d E =-.128150E-06  mag=    -0.0000
       N       E                     dE             d eps       ncg     rms          rms(c)
DAV:   1    -0.822262258284E+03   -0.10167E-06   -0.28903E-06  3900   0.355E-03    0.917E-04
DAV:   2    -0.822262258292E+03   -0.74797E-08   -0.76241E-08  2650   0.604E-04
 400 F= -.82977629E+03 E0= -.82977629E+03  d E =-.720597E-07  mag=    -0.0000
       N       E                     dE             d eps       ncg     rms          rms(c)
DAV:   1    -0.822262258332E+03   -0.47396E-07   -0.40081E-06  4150   0.411E-03    0.941E-04
DAV:   2    -0.822262258341E+03   -0.89276E-08   -0.93547E-08  2630   0.646E-04
 401 F= -.82977629E+03 E0= -.82977629E+03  d E =-.239096E-07  mag=    -0.0000
       N       E                     dE             d eps       ncg     rms          rms(c)
DAV:   1    -0.822262258355E+03   -0.23756E-07   -0.53128E-06  4200   0.463E-03    0.968E-04
DAV:   2    -0.822262258368E+03   -0.12064E-07   -0.11841E-07  2610   0.709E-04
 402 F= -.82977629E+03 E0= -.82977629E+03  d E =-.128124E-07  mag=    -0.0000
       N       E                     dE             d eps       ncg     rms          rms(c)
DAV:   1    -0.822262258349E+03    0.69704E-08   -0.67229E-06  4120   0.515E-03    0.993E-04
DAV:   2    -0.822262258364E+03   -0.15505E-07   -0.15003E-07  2580   0.779E-04
 403 F= -.82977629E+03 E0= -.82977629E+03  d E =0.316277E-07  mag=    -0.0000
       N       E                     dE             d eps       ncg     rms          rms(c)
DAV:   1    -0.822262258350E+03   -0.16153E-08   -0.91846E-06  4180   0.591E-03    0.104E-03
DAV:   2    -0.822262258369E+03   -0.19027E-07   -0.19740E-07  2550   0.874E-04
 404 F= -.82977629E+03 E0= -.82977629E+03  d E =0.191960E-07  mag=    -0.0000
       N       E                     dE             d eps       ncg     rms          rms(c)
DAV:   1    -0.822262258377E+03   -0.26645E-07   -0.14340E-05  4210   0.729E-03    0.115E-03
DAV:   2    -0.822262258404E+03   -0.27212E-07   -0.30258E-07  2840   0.105E-03
 405 F= -.82977629E+03 E0= -.82977629E+03  d E =0.460852E-08  mag=    -0.0000
       N       E                     dE             d eps       ncg     rms          rms(c)
DAV:   1    -0.822262258372E+03    0.43074E-08   -0.21429E-05  4160   0.876E-03    0.129E-03
DAV:   2    -0.822262258410E+03   -0.37129E-07   -0.44375E-07  2780   0.123E-03
 406 F= -.82977629E+03 E0= -.82977629E+03  d E =0.773687E-07  mag=    -0.0000
       N       E                     dE             d eps       ncg     rms          rms(c)
DAV:   1    -0.822262258425E+03   -0.52787E-07   -0.32906E-05  4140   0.108E-02    0.146E-03
DAV:   2    -0.822262258482E+03   -0.56789E-07   -0.68108E-07  2925   0.149E-03
 407 F= -.82977629E+03 E0= -.82977629E+03  d E =0.667725E-07  mag=    -0.0000
