unknown system                          
           1
    17.271038    0.000000    0.000000
    -8.635519   14.957158    0.000000
     0.000000    0.000000   15.000000
   C    F    N    H    O 
    82     2     6     2     1
Direct configuration=     1
   0.00064305  0.99930113  0.50775097
   0.00052593  0.14215842  0.50868573
   0.00034991  0.28505313  0.50888137
   0.00012567  0.42807723  0.50737391
   0.00061862  0.57092863  0.50649415
   0.00185760  0.71401228  0.50638071
   0.00114608  0.85689967  0.50637432
   0.14427425  0.00020305  0.51385533
   0.14435161  0.14324049  0.51581950
   0.14353702  0.28521607  0.51858083
   0.14274899  0.42815624  0.51715793
   0.14409962  0.57084532  0.51392320
   0.14465496  0.71367231  0.51209345
   0.14437193  0.85695765  0.51216874
   0.28717381  0.99971930  0.51452238
   0.28759428  0.14314964  0.51974592
   0.28860383  0.28766369  0.53134448
   0.28394315  0.43075608  0.53692252
   0.28825096  0.56839169  0.52636635
   0.28794155  0.71324878  0.51597939
   0.28733744  0.85662010  0.51328686
   0.43010246  0.99959003  0.51068426
   0.43015011  0.14380673  0.51331430
   0.43031611  0.85532764  0.51039275
   0.57216872  0.99890026  0.50496056
   0.57208199  0.14289517  0.50621222
   0.57416382  0.29023901  0.50557011
   0.57459129  0.85390042  0.50034800
   0.71444142  0.99873130  0.49932407
   0.71472763  0.14240699  0.50283305
   0.71421042  0.28590493  0.50181327
   0.70977488  0.42615196  0.49585154
   0.71082563  0.85529357  0.48759861
   0.85741280  0.99892494  0.49990549
   0.85735973  0.14202713  0.50326546
   0.85721988  0.28518334  0.50342371
   0.85691231  0.42826564  0.50103167
   0.85728596  0.57097322  0.49731752
   0.85979725  0.71405427  0.49407679
   0.85694019  0.85562989  0.49602245
   0.04869841  0.09498455  0.51065879
   0.04806642  0.23733676  0.51177153
   0.04744671  0.38033336  0.51063836
   0.04853408  0.52342614  0.50916977
   0.04913627  0.66627368  0.50860430
   0.04897479  0.80925180  0.50869579
   0.04879730  0.95213490  0.50965015
   0.19199673  0.09539914  0.51712012
   0.19244051  0.23871663  0.52085700
   0.18957014  0.38029182  0.52291545
   0.19179629  0.52338267  0.51873782
   0.19230039  0.66614263  0.51445638
   0.19214301  0.80922534  0.51289282
   0.19205204  0.95234321  0.51396872
   0.33498954  0.09551695  0.51613468
   0.33883401  0.23907192  0.52497583
   0.33922969  0.66832307  0.51963349
   0.33515712  0.80845623  0.51342435
   0.33470661  0.95190587  0.51296431
   0.47728901  0.09522816  0.50986577
   0.47495779  0.24004602  0.51319666
   0.47521772  0.80379764  0.50881809
   0.47733037  0.95125323  0.50847511
   0.61934322  0.09455344  0.50436190
   0.61910053  0.23884531  0.50423562
   0.61927607  0.95026031  0.50127518
   0.76220922  0.09456285  0.50180610
   0.76205574  0.23774074  0.50258199
   0.76117787  0.38115095  0.49933305
   0.76067135  0.52627505  0.48912694
   0.76598764  0.66372960  0.47644940
   0.76148457  0.80716426  0.48106893
   0.76187455  0.95113132  0.49545065
   0.90505113  0.09412994  0.50394954
   0.90497431  0.23743246  0.50502225
   0.90461892  0.38072763  0.50372243
   0.90504275  0.52354742  0.50177745
   0.90647473  0.66611569  0.49993243
   0.90586872  0.80909016  0.49907640
   0.90501934  0.95109204  0.50205732
   0.72350721  0.71592460  0.45848897
   0.32847672  0.37991356  0.54765712
   0.64740893  0.67638706  0.41384879
   0.41323118  0.42403354  0.57666721
   0.42883636  0.28393346  0.52036166
   0.42914369  0.71351194  0.51527715
   0.71859597  0.57266226  0.47473982
   0.33048565  0.52196207  0.53913966
   0.61984253  0.38063600  0.50003028
   0.62075941  0.81023979  0.49145507
   0.45384889  0.56977141  0.51906828
   0.51588742  0.52968735  0.50185950
   0.50971441  0.58159701  0.49020088
Direct configuration=     2
   0.00064290  0.99930074  0.50775130
   0.00052626  0.14215843  0.50868476
   0.00034980  0.28505281  0.50888197
   0.00012564  0.42807704  0.50737479
   0.00061882  0.57092839  0.50649437
   0.00185764  0.71401172  0.50638152
   0.00114600  0.85689949  0.50637495
   0.14427420  0.00020279  0.51385648
   0.14435176  0.14324044  0.51581930
   0.14353619  0.28521563  0.51858046
   0.14274895  0.42815598  0.51715824
   0.14409959  0.57084505  0.51392268
   0.14465482  0.71367192  0.51209361
   0.14437182  0.85695721  0.51216924
   0.28717391  0.99971923  0.51452280
   0.28759476  0.14314934  0.51974611
   0.28860408  0.28766377  0.53134469
   0.28394272  0.43075646  0.53692127
   0.28825057  0.56839151  0.52636585
   0.28794140  0.71324867  0.51597932
   0.28733733  0.85661999  0.51328772
   0.43010238  0.99959002  0.51068524
   0.43015029  0.14380689  0.51331471
   0.43031721  0.85532777  0.51039292
   0.57216833  0.99889990  0.50496068
   0.57208140  0.14289459  0.50621269
   0.57416372  0.29023883  0.50557051
   0.57459083  0.85390034  0.50034726
   0.71444097  0.99873073  0.49932307
   0.71472712  0.14240654  0.50283360
   0.71420932  0.28590436  0.50181273
   0.70977460  0.42615147  0.49585212
   0.71082492  0.85529304  0.48759811
   0.85741282  0.99892422  0.49990530
   0.85736039  0.14202691  0.50326548
   0.85721937  0.28518255  0.50342410
   0.85691211  0.42826516  0.50103218
   0.85728564  0.57097345  0.49731685
   0.85979778  0.71405394  0.49407802
   0.85694002  0.85562855  0.49602207
   0.04869808  0.09498439  0.51065847
   0.04806576  0.23733625  0.51177140
   0.04744594  0.38033296  0.51063943
   0.04853402  0.52342550  0.50917035
   0.04913643  0.66627340  0.50860445
   0.04897459  0.80925157  0.50869632
   0.04879720  0.95213484  0.50965125
   0.19199679  0.09539911  0.51712065
   0.19244059  0.23871670  0.52085753
   0.18956926  0.38029192  0.52291525
   0.19179567  0.52338262  0.51873743
   0.19230004  0.66614215  0.51445652
   0.19214292  0.80922508  0.51289306
   0.19205174  0.95234287  0.51396947
   0.33498922  0.09551691  0.51613511
   0.33883422  0.23907250  0.52497655
   0.33922925  0.66832327  0.51963307
   0.33515678  0.80845619  0.51342501
   0.33470649  0.95190565  0.51296539
   0.47728897  0.09522794  0.50986593
   0.47495795  0.24004616  0.51319677
   0.47521691  0.80379816  0.50881814
   0.47733058  0.95125343  0.50847560
   0.61934355  0.09455302  0.50436243
   0.61910081  0.23884492  0.50423571
   0.61927671  0.95026152  0.50127541
   0.76220921  0.09456292  0.50180564
   0.76205598  0.23774051  0.50258219
   0.76117825  0.38115061  0.49933344
   0.76067172  0.52627451  0.48912664
   0.76598846  0.66372919  0.47644958
   0.76148444  0.80716317  0.48106744
   0.76187441  0.95113146  0.49545081
   0.90505040  0.09412977  0.50394932
   0.90497407  0.23743187  0.50502298
   0.90461886  0.38072662  0.50372309
   0.90504282  0.52354682  0.50177780
   0.90647479  0.66611491  0.49993335
   0.90586837  0.80908953  0.49907682
   0.90501873  0.95109171  0.50205711
   0.72350748  0.71592361  0.45848977
   0.32847634  0.37991403  0.54765642
   0.64741103  0.67638746  0.41384837
   0.41323208  0.42403652  0.57666177
   0.42883708  0.28393357  0.52036196
   0.42914376  0.71351223  0.51527695
   0.71859682  0.57266212  0.47473923
   0.33048513  0.52196214  0.53913857
   0.61984290  0.38063599  0.50003071
   0.62075888  0.81023979  0.49145381
   0.45384915  0.56977599  0.51906628
   0.51588848  0.52969356  0.50185580
   0.50971836  0.58160275  0.49019892
Direct configuration=     3
   0.00064250  0.99930035  0.50775171
   0.00052567  0.14215795  0.50868453
   0.00034921  0.28505232  0.50888281
   0.00012529  0.42807628  0.50737604
   0.00061904  0.57092770  0.50649468
   0.00185777  0.71401101  0.50638263
   0.00114588  0.85689919  0.50637587
   0.14427415  0.00020255  0.51385811
   0.14435186  0.14324033  0.51581907
   0.14353562  0.28521535  0.51858054
   0.14274745  0.42815601  0.51715852
   0.14409937  0.57084452  0.51392202
   0.14465487  0.71367144  0.51209380
   0.14437165  0.85695666  0.51216994
   0.28717375  0.99971892  0.51452346
   0.28759441  0.14314902  0.51974598
   0.28860439  0.28766404  0.53134509
   0.28394190  0.43075659  0.53691954
   0.28825153  0.56839322  0.52636544
   0.28794105  0.71324874  0.51597920
   0.28733715  0.85661969  0.51328894
   0.43010210  0.99958970  0.51068660
   0.43015020  0.14380689  0.51331523
   0.43031554  0.85532788  0.51039321
   0.57216907  0.99889993  0.50496035
   0.57208111  0.14289383  0.50621328
   0.57416463  0.29023927  0.50557141
   0.57459027  0.85390006  0.50034625
   0.71444107  0.99873056  0.49932175
   0.71472738  0.14240625  0.50283427
   0.71420973  0.28590507  0.50181146
   0.70977490  0.42615089  0.49585284
   0.71082419  0.85529247  0.48759729
   0.85741254  0.99892494  0.49990499
   0.85736046  0.14202646  0.50326544
   0.85721907  0.28518144  0.50342463
   0.85691222  0.42826409  0.50103286
   0.85728598  0.57097259  0.49731708
   0.85979835  0.71405320  0.49407968
   0.85693900  0.85562780  0.49602057
   0.04869800  0.09498401  0.51065794
   0.04806547  0.23733574  0.51177115
   0.04744455  0.38033158  0.51063979
   0.04853408  0.52342502  0.50917109
   0.04913660  0.66627291  0.50860466
   0.04897434  0.80925103  0.50869709
   0.04879705  0.95213449  0.50965277
   0.19199717  0.09539900  0.51712141
   0.19244063  0.23871672  0.52085818
   0.18956864  0.38029163  0.52291500
   0.19179553  0.52338315  0.51873656
   0.19229996  0.66614175  0.51445605
   0.19214278  0.80922459  0.51289345
   0.19205164  0.95234238  0.51397056
   0.33498953  0.09551678  0.51613570
   0.33883496  0.23907280  0.52497686
   0.33922954  0.66832300  0.51963243
   0.33515708  0.80845632  0.51342590
   0.33470655  0.95190551  0.51296690
   0.47728972  0.09522782  0.50986671
   0.47495828  0.24004606  0.51319695
   0.47521753  0.80379828  0.50881736
   0.47733082  0.95125357  0.50847630
   0.61934275  0.09455163  0.50436271
   0.61910006  0.23884390  0.50423584
   0.61927633  0.95026374  0.50127533
   0.76220908  0.09456266  0.50180497
   0.76205538  0.23773979  0.50258300
   0.76117801  0.38114967  0.49933394
   0.76067214  0.52627382  0.48912613
   0.76598973  0.66372856  0.47644995
   0.76148412  0.80716218  0.48106585
   0.76187418  0.95113091  0.49545082
   0.90505029  0.09412894  0.50394890
   0.90497407  0.23743256  0.50502477
   0.90461870  0.38072604  0.50372453
   0.90504270  0.52354656  0.50177872
   0.90647508  0.66611418  0.49993458
   0.90586836  0.80908865  0.49907748
   0.90501839  0.95109046  0.50205676
   0.72350822  0.71592248  0.45849083
   0.32847588  0.37991473  0.54765516
   0.64741233  0.67638623  0.41385015
   0.41323348  0.42404079  0.57665385
   0.42883754  0.28393379  0.52036246
   0.42914332  0.71351244  0.51527667
   0.71859789  0.57266176  0.47473839
   0.33048473  0.52196224  0.53913703
   0.61984289  0.38063548  0.50003133
   0.62075810  0.81023955  0.49145200
   0.45385175  0.56978292  0.51906168
   0.51589023  0.52970036  0.50185032
   0.50971836  0.58161188  0.49019776
Direct configuration=     4
   0.00064191  0.99929983  0.50775223
   0.00052460  0.14215708  0.50868501
   0.00034826  0.28505164  0.50888394
   0.00012451  0.42807512  0.50737769
   0.00061912  0.57092678  0.50649518
   0.00185797  0.71401031  0.50638404
   0.00114567  0.85689872  0.50637719
   0.14427409  0.00020231  0.51386020
   0.14435191  0.14324023  0.51581895
   0.14353552  0.28521532  0.51858109
   0.14274606  0.42815550  0.51715887
   0.14409879  0.57084446  0.51392249
   0.14465505  0.71367100  0.51209401
   0.14437138  0.85695606  0.51217089
   0.28717347  0.99971851  0.51452448
   0.28759380  0.14314904  0.51974568
   0.28860474  0.28766462  0.53134570
   0.28394068  0.43075659  0.53691746
   0.28825124  0.56839398  0.52636454
   0.28794074  0.71324883  0.51597906
   0.28733698  0.85661940  0.51329056
   0.43010204  0.99958937  0.51068834
   0.43015023  0.14380675  0.51331588
   0.43031461  0.85532819  0.51039368
   0.57217003  0.99890047  0.50495974
   0.57208133  0.14289302  0.50621401
   0.57416473  0.29023867  0.50557185
   0.57458990  0.85390038  0.50034505
   0.71444140  0.99873095  0.49932031
   0.71472772  0.14240593  0.50283504
   0.71420998  0.28590392  0.50181108
   0.70977667  0.42615188  0.49585296
   0.71082358  0.85529179  0.48759611
   0.85741201  0.99892598  0.49990459
   0.85735996  0.14202617  0.50326546
   0.85721769  0.28518194  0.50342665
   0.85691256  0.42826291  0.50103383
   0.85728543  0.57097281  0.49731710
   0.85979901  0.71405218  0.49408173
   0.85693818  0.85562693  0.49601916
   0.04869810  0.09498362  0.51065733
   0.04806530  0.23733527  0.51177090
   0.04744421  0.38033083  0.51064091
   0.04853405  0.52342451  0.50917197
   0.04913677  0.66627219  0.50860501
   0.04897414  0.80925027  0.50869824
   0.04879690  0.95213403  0.50965471
   0.19199756  0.09539881  0.51712238
   0.19244058  0.23871672  0.52085896
   0.18956789  0.38029124  0.52291471
   0.19179549  0.52338259  0.51873610
   0.19230016  0.66614160  0.51445502
   0.19214263  0.80922396  0.51289407
   0.19205169  0.95234189  0.51397201
   0.33499012  0.09551659  0.51613645
   0.33883586  0.23907278  0.52497675
   0.33923026  0.66832287  0.51963161
   0.33515723  0.80845644  0.51342704
   0.33470655  0.95190537  0.51296886
   0.47728899  0.09522748  0.50986714
   0.47495881  0.24004592  0.51319733
   0.47521762  0.80379839  0.50881668
   0.47733064  0.95125349  0.50847724
   0.61934168  0.09455030  0.50436277
   0.61909905  0.23884293  0.50423599
   0.61927546  0.95026081  0.50127474
   0.76220926  0.09456222  0.50180417
   0.76205434  0.23773892  0.50258302
   0.76117755  0.38114873  0.49933450
   0.76067264  0.52627293  0.48912557
   0.76599132  0.66372782  0.47645060
   0.76148353  0.80716162  0.48106441
   0.76187378  0.95112986  0.49545061
   0.90505070  0.09412808  0.50394838
   0.90497400  0.23743198  0.50502660
   0.90461835  0.38072498  0.50372553
   0.90504256  0.52354619  0.50178022
   0.90647566  0.66611349  0.49993618
   0.90586855  0.80908783  0.49907838
   0.90501808  0.95108898  0.50205626
   0.72350961  0.71592136  0.45849211
   0.32847540  0.37991575  0.54765307
   0.64741404  0.67638480  0.41385102
   0.41323549  0.42404648  0.57664313
   0.42883782  0.28393414  0.52036315
   0.42914288  0.71351279  0.51527627
   0.71859904  0.57266118  0.47473740
   0.33048452  0.52196259  0.53913505
   0.61984292  0.38063500  0.50003215
   0.62075722  0.81023930  0.49144972
   0.45385466  0.56979184  0.51905593
   0.51589254  0.52970937  0.50184308
   0.50971907  0.58162362  0.49019568
Direct configuration=     5
   0.00064230  0.99930043  0.50775220
   0.00052666  0.14215814  0.50868691
   0.00034741  0.28505065  0.50888543
   0.00012373  0.42807383  0.50737973
   0.00061884  0.57092580  0.50649601
   0.00185829  0.71400953  0.50638579
   0.00114544  0.85689799  0.50637901
   0.14427400  0.00020185  0.51386276
   0.14435186  0.14324003  0.51581906
   0.14353559  0.28521521  0.51858200
   0.14274536  0.42815454  0.51715931
   0.14409849  0.57084414  0.51392268
   0.14465518  0.71367053  0.51209419
   0.14437104  0.85695536  0.51217219
   0.28717334  0.99971813  0.51452599
   0.28759374  0.14314921  0.51974536
   0.28860508  0.28766531  0.53134645
   0.28393923  0.43075670  0.53691510
   0.28824989  0.56839334  0.52636313
   0.28794083  0.71324875  0.51597887
   0.28733677  0.85661917  0.51329262
   0.43010203  0.99958914  0.51069045
   0.43015041  0.14380654  0.51331665
   0.43031503  0.85532848  0.51039436
   0.57216943  0.99889909  0.50496023
   0.57208117  0.14289205  0.50621485
   0.57416407  0.29023730  0.50557196
   0.57458935  0.85390032  0.50034366
   0.71444127  0.99873056  0.49931886
   0.71472740  0.14240509  0.50283577
   0.71420987  0.28590313  0.50181036
   0.70977744  0.42615150  0.49585335
   0.71082270  0.85529069  0.48759452
   0.85741143  0.99892567  0.49990409
   0.85735946  0.14202591  0.50326560
   0.85721696  0.28518138  0.50342886
   0.85691243  0.42826249  0.50103392
   0.85728525  0.57097225  0.49731745
   0.85979993  0.71405119  0.49408417
   0.85693783  0.85562584  0.49601804
   0.04869805  0.09498320  0.51065684
   0.04806485  0.23733468  0.51177084
   0.04744427  0.38033061  0.51064281
   0.04853358  0.52342356  0.50917307
   0.04913695  0.66627120  0.50860559
   0.04897397  0.80924934  0.50869985
   0.04879668  0.95213349  0.50965705
   0.19199750  0.09539851  0.51712351
   0.19243945  0.23871517  0.52085860
   0.18956671  0.38029086  0.52291441
   0.19179506  0.52338136  0.51873606
   0.19229970  0.66614093  0.51445489
   0.19214244  0.80922327  0.51289502
   0.19205158  0.95234134  0.51397391
   0.33499025  0.09551631  0.51613737
   0.33883637  0.23907264  0.52497634
   0.33923053  0.66832310  0.51963068
   0.33515672  0.80845629  0.51342842
   0.33470629  0.95190496  0.51297128
   0.47728896  0.09522714  0.50986849
   0.47495924  0.24004581  0.51319799
   0.47521674  0.80379862  0.50881613
   0.47732909  0.95125180  0.50847658
   0.61934207  0.09455057  0.50436386
   0.61909858  0.23884200  0.50423616
   0.61927561  0.95026303  0.50127426
   0.76220948  0.09456177  0.50180337
   0.76205323  0.23773794  0.50258255
   0.76117752  0.38114792  0.49933512
   0.76067324  0.52627214  0.48912501
   0.76599299  0.66372681  0.47645159
   0.76148282  0.80716120  0.48106325
   0.76187327  0.95112908  0.49545009
   0.90505083  0.09412774  0.50394789
   0.90497300  0.23743041  0.50502850
   0.90461779  0.38072373  0.50372636
   0.90504204  0.52354453  0.50177965
   0.90647637  0.66611290  0.49993818
   0.90586853  0.80908699  0.49907954
   0.90501740  0.95108806  0.50205561
   0.72351141  0.71592037  0.45849340
   0.32847491  0.37991700  0.54764989
   0.64741606  0.67638284  0.41385095
   0.41323832  0.42405371  0.57662928
   0.42883827  0.28393442  0.52036400
   0.42914300  0.71351335  0.51527568
   0.71860012  0.57266040  0.47473628
   0.33048423  0.52196301  0.53913256
   0.61984364  0.38063494  0.50003312
   0.62075644  0.81023899  0.49144695
   0.45385570  0.56980218  0.51905063
   0.51589511  0.52972214  0.50183422
   0.50972340  0.58163665  0.49019205
Direct configuration=     6
   0.00064195  0.99929959  0.50775247
   0.00052743  0.14215775  0.50868749
   0.00034681  0.28504952  0.50888737
   0.00012322  0.42807267  0.50738220
   0.00061818  0.57092464  0.50649714
   0.00185884  0.71400860  0.50638794
   0.00114528  0.85689710  0.50638150
   0.14427390  0.00020115  0.51386583
   0.14435158  0.14323922  0.51581947
   0.14353439  0.28521398  0.51858189
   0.14274530  0.42815338  0.51716000
   0.14409841  0.57084312  0.51392274
   0.14465515  0.71366989  0.51209448
   0.14437081  0.85695456  0.51217397
   0.28717340  0.99971780  0.51452818
   0.28759440  0.14314922  0.51974521
   0.28860512  0.28766560  0.53134719
   0.28393785  0.43075703  0.53691271
   0.28825019  0.56839378  0.52636185
   0.28794117  0.71324847  0.51597879
   0.28733650  0.85661889  0.51329520
   0.43010177  0.99958871  0.51069289
   0.43015070  0.14380623  0.51331771
   0.43031569  0.85532809  0.51039527
   0.57216799  0.99889793  0.50496053
   0.57208079  0.14289129  0.50621591
   0.57416337  0.29023594  0.50557195
   0.57458889  0.85390035  0.50034216
   0.71444089  0.99872980  0.49931760
   0.71472657  0.14240383  0.50283640
   0.71420908  0.28590264  0.50180952
   0.70977691  0.42614950  0.49585409
   0.71082182  0.85528951  0.48759264
   0.85741107  0.99892390  0.49990352
   0.85735932  0.14202517  0.50326593
   0.85721673  0.28517928  0.50343114
   0.85691169  0.42826219  0.50103323
   0.85728586  0.57097072  0.49731823
   0.85980115  0.71405040  0.49408704
   0.85693799  0.85562483  0.49601743
   0.04869837  0.09498316  0.51065678
   0.04806482  0.23733460  0.51177141
   0.04744273  0.38032918  0.51064416
   0.04853275  0.52342213  0.50917448
   0.04913707  0.66627001  0.50860653
   0.04897387  0.80924836  0.50870208
   0.04879648  0.95213303  0.50965978
   0.19199707  0.09539814  0.51712486
   0.19243939  0.23871491  0.52085901
   0.18956541  0.38029034  0.52291430
   0.19179445  0.52338145  0.51873566
   0.19229901  0.66613989  0.51445570
   0.19214223  0.80922266  0.51289643
   0.19205129  0.95234072  0.51397636
   0.33498982  0.09551604  0.51613854
   0.33883644  0.23907283  0.52497592
   0.33922923  0.66832420  0.51962994
   0.33515592  0.80845590  0.51343012
   0.33470598  0.95190445  0.51297426
   0.47728802  0.09522637  0.50986974
   0.47495937  0.24004564  0.51319902
   0.47521684  0.80379879  0.50881494
   0.47732873  0.95125133  0.50847673
   0.61934272  0.09455048  0.50436479
   0.61909877  0.23884113  0.50423638
   0.61927460  0.95026219  0.50127430
   0.76220944  0.09456114  0.50180273
   0.76205260  0.23773700  0.50258190
   0.76117805  0.38114725  0.49933571
   0.76067400  0.52627141  0.48912462
   0.76599467  0.66372564  0.47645305
   0.76148358  0.80716427  0.48106285
   0.76187251  0.95112842  0.49544922
   0.90505112  0.09412831  0.50394771
   0.90497141  0.23742875  0.50503059
   0.90461713  0.38072251  0.50372727
   0.90504207  0.52354292  0.50177868
   0.90647716  0.66611219  0.49994065
   0.90586829  0.80908609  0.49908107
   0.90501678  0.95108800  0.50205487
   0.72351218  0.71591954  0.45849296
   0.32847455  0.37991849  0.54764557
   0.64741869  0.67638261  0.41384782
   0.41324210  0.42406252  0.57661206
   0.42883900  0.28393446  0.52036506
   0.42914340  0.71351378  0.51527501
   0.71860103  0.57265949  0.47473520
   0.33048367  0.52196313  0.53912966
   0.61984482  0.38063488  0.50003424
   0.62075552  0.81023862  0.49144389
   0.45385562  0.56981375  0.51904498
   0.51589792  0.52973745  0.50182355
   0.50972998  0.58165147  0.49018641
Direct configuration=     7
   0.00064211  0.99929945  0.50775226
   0.00052601  0.14215579  0.50868645
   0.00034582  0.28504807  0.50888992
   0.00012238  0.42807139  0.50738516
   0.00061751  0.57092296  0.50649857
   0.00185960  0.71400735  0.50639073
   0.00114519  0.85689603  0.50638503
   0.14427366  0.00020030  0.51386973
   0.14435136  0.14323812  0.51582033
   0.14353370  0.28521281  0.51858221
   0.14274482  0.42815243  0.51716083
   0.14409783  0.57084138  0.51392273
   0.14465488  0.71366869  0.51209507
   0.14437073  0.85695366  0.51217660
   0.28717107  0.99971668  0.51453115
   0.28759507  0.14314901  0.51974534
   0.28860487  0.28766558  0.53134769
   0.28393642  0.43075728  0.53690992
   0.28824900  0.56839322  0.52635977
   0.28794061  0.71324810  0.51597889
   0.28733599  0.85661830  0.51329862
   0.43010087  0.99958774  0.51069579
   0.43015049  0.14380563  0.51331922
   0.43031541  0.85532677  0.51039638
   0.57216650  0.99889767  0.50496062
   0.57208031  0.14289057  0.50621724
   0.57416480  0.29023641  0.50557323
   0.57458869  0.85390028  0.50034025
   0.71444000  0.99872865  0.49931651
   0.71472590  0.14240253  0.50283676
   0.71420837  0.28590218  0.50180857
   0.70977735  0.42614857  0.49585420
   0.71082093  0.85528923  0.48759034
   0.85741083  0.99892188  0.49990270
   0.85735921  0.14202356  0.50326646
   0.85721636  0.28517607  0.50343342
   0.85691112  0.42826035  0.50103326
   0.85728660  0.57096993  0.49731913
   0.85980241  0.71404960  0.49409063
   0.85693864  0.85562482  0.49601743
   0.04869876  0.09498276  0.51065722
   0.04806492  0.23733444  0.51177272
   0.04744021  0.38032635  0.51064526
   0.04853174  0.52342029  0.50917641
   0.04913699  0.66626850  0.50860798
   0.04897383  0.80924727  0.50870530
   0.04879611  0.95213220  0.50966313
   0.19199670  0.09539751  0.51712655
   0.19244029  0.23871587  0.52086045
   0.18956409  0.38028920  0.52291439
   0.19179404  0.52338214  0.51873485
   0.19229950  0.66613938  0.51445586
   0.19214194  0.80922204  0.51289851
   0.19205094  0.95233988  0.51397979
   0.33498937  0.09551577  0.51614007
   0.33883647  0.23907357  0.52497555
   0.33922861  0.66832483  0.51962911
   0.33515703  0.80845498  0.51343110
   0.33470872  0.95190675  0.51297813
   0.47728664  0.09522522  0.50987109
   0.47495924  0.24004511  0.51320047
   0.47521655  0.80379897  0.50881404
   0.47732942  0.95125202  0.50847804
   0.61934222  0.09454891  0.50436561
   0.61909883  0.23884013  0.50423652
   0.61927397  0.95026180  0.50127338
   0.76220869  0.09455980  0.50180222
   0.76205233  0.23773585  0.50258291
   0.76117836  0.38114627  0.49933605
   0.76067477  0.52627002  0.48912451
   0.76599586  0.66372475  0.47645482
   0.76148373  0.80716337  0.48106225
   0.76187153  0.95112750  0.49544769
   0.90505157  0.09412854  0.50394787
   0.90497022  0.23742714  0.50503318
   0.90461615  0.38072108  0.50372851
   0.90504213  0.52354227  0.50177899
   0.90647809  0.66611068  0.49994394
   0.90586808  0.80908497  0.49908323
   0.90501684  0.95108805  0.50205396
   0.72351286  0.71592017  0.45849097
   0.32847455  0.37992059  0.54763916
   0.64742076  0.67638222  0.41384443
   0.41324748  0.42407409  0.57658817
   0.42883956  0.28393422  0.52036643
   0.42914318  0.71351366  0.51527408
   0.71860196  0.57265830  0.47473417
   0.33048309  0.52196305  0.53912591
   0.61984538  0.38063365  0.50003555
   0.62075428  0.81023797  0.49144017
   0.45385757  0.56982856  0.51903631
   0.51590155  0.52975467  0.50180999
   0.50973576  0.58167190  0.49017882
Direct configuration=     8
   0.00064301  0.99929995  0.50775180
   0.00052394  0.14215402  0.50868401
   0.00034420  0.28504594  0.50889310
   0.00012044  0.42806938  0.50738840
   0.00061718  0.57092099  0.50650039
   0.00186028  0.71400577  0.50639438
   0.00114506  0.85689483  0.50638984
   0.14427301  0.00019945  0.51387454
   0.14435199  0.14323818  0.51582199
   0.14353411  0.28521239  0.51858326
   0.14274255  0.42815165  0.51716157
   0.14409616  0.57084081  0.51392462
   0.14465471  0.71366702  0.51209618
   0.14437054  0.85695273  0.51218043
   0.28717143  0.99971676  0.51453555
   0.28759502  0.14314918  0.51974598
   0.28860522  0.28766644  0.53134775
   0.28393488  0.43075700  0.53690644
   0.28824982  0.56839548  0.52635745
   0.28793954  0.71324778  0.51597915
   0.28733702  0.85661859  0.51330292
   0.43010103  0.99958755  0.51069916
   0.43014938  0.14380470  0.51332125
   0.43031496  0.85532612  0.51039758
   0.57216623  0.99889824  0.50496050
   0.57207939  0.14288932  0.50621878
   0.57416562  0.29023611  0.50557461
   0.57458838  0.85390010  0.50033777
   0.71443849  0.99872744  0.49931554
   0.71472561  0.14240130  0.50283684
   0.71420861  0.28590108  0.50180788
   0.70978026  0.42615157  0.49585162
   0.71082006  0.85528942  0.48758743
   0.85741047  0.99892138  0.49990153
   0.85735838  0.14202129  0.50326735
   0.85721535  0.28517352  0.50343563
   0.85691094  0.42825814  0.50103235
   0.85728712  0.57096973  0.49732031
   0.85980291  0.71404824  0.49409497
   0.85693940  0.85562527  0.49601821
   0.04869858  0.09498152  0.51065797
   0.04806399  0.23733259  0.51177465
   0.04744052  0.38032521  0.51064863
   0.04853098  0.52341833  0.50917892
   0.04913694  0.66626668  0.50861010
   0.04897400  0.80924619  0.50870983
   0.04879563  0.95213099  0.50966715
   0.19199694  0.09539655  0.51712870
   0.19243940  0.23871401  0.52086101
   0.18956277  0.38028784  0.52291478
   0.19179280  0.52337904  0.51873484
   0.19230018  0.66613887  0.51445515
   0.19214184  0.80922128  0.51290148
   0.19204980  0.95233835  0.51398448
   0.33498869  0.09551511  0.51614208
   0.33883669  0.23907436  0.52497532
   0.33922908  0.66832407  0.51962813
   0.33515726  0.80845476  0.51343290
   0.33470709  0.95190556  0.51298324
   0.47728604  0.09522443  0.50987277
   0.47495936  0.24004442  0.51320243
   0.47521607  0.80379865  0.50881352
   0.47732950  0.95125054  0.50847923
   0.61934011  0.09454669  0.50436626
   0.61909850  0.23883928  0.50423664
   0.61927361  0.95026192  0.50127128
   0.76220760  0.09455783  0.50180199
   0.76205207  0.23773417  0.50258374
   0.76117780  0.38114493  0.49933583
   0.76067547  0.52626806  0.48912474
   0.76599607  0.66372460  0.47645641
   0.76148310  0.80715878  0.48106125
   0.76187089  0.95112624  0.49544537
   0.90505097  0.09412596  0.50394814
   0.90497014  0.23742486  0.50503638
   0.90461495  0.38071861  0.50373041
   0.90504201  0.52354173  0.50178096
   0.90647914  0.66610890  0.49994818
   0.90586849  0.80908420  0.49908641
   0.90501793  0.95108755  0.50205285
   0.72351428  0.71592130  0.45848768
   0.32847529  0.37992354  0.54762986
   0.64742273  0.67637863  0.41384375
   0.41325500  0.42408887  0.57655518
   0.42883956  0.28393387  0.52036811
   0.42914184  0.71351292  0.51527280
   0.71860316  0.57265739  0.47473340
   0.33048237  0.52196308  0.53912103
   0.61984547  0.38063196  0.50003694
   0.62075324  0.81023725  0.49143576
   0.45386308  0.56984746  0.51902342
   0.51590613  0.52977499  0.50179272
   0.50973904  0.58169847  0.49016965
Direct configuration=     9
   0.00064248  0.99929686  0.50775272
   0.00052829  0.14215648  0.50868499
   0.00034390  0.28504376  0.50889726
   0.00011883  0.42806629  0.50739208
   0.00061707  0.57091914  0.50650289
   0.00186097  0.71400423  0.50639924
   0.00114526  0.85689362  0.50639621
   0.14427213  0.00019810  0.51388033
   0.14435253  0.14323790  0.51582456
   0.14353423  0.28521151  0.51858510
   0.14274008  0.42814988  0.51716266
   0.14409537  0.57083934  0.51392620
   0.14465525  0.71366610  0.51209794
   0.14437032  0.85695155  0.51218600
   0.28717168  0.99971411  0.51453940
   0.28759414  0.14314963  0.51974737
   0.28860638  0.28766832  0.53134671
   0.28393286  0.43075685  0.53690157
   0.28825049  0.56839497  0.52635733
   0.28793971  0.71324755  0.51597945
   0.28733805  0.85661860  0.51330820
   0.43010152  0.99958695  0.51070304
   0.43014813  0.14380393  0.51332383
   0.43031503  0.85532621  0.51039887
   0.57216678  0.99889751  0.50496005
   0.57207826  0.14288798  0.50622035
   0.57416542  0.29023454  0.50557609
   0.57458731  0.85389966  0.50033447
   0.71443736  0.99872418  0.49931641
   0.71472452  0.14239923  0.50283666
   0.71420892  0.28589885  0.50180770
   0.70977963  0.42614836  0.49585062