  91  91   0   0
  0.4258115E+02  0.1727104E-08  0.1727104E-08  0.1500000E-08  0.0000000E+00
  1.000000000000000E-004
  CAR 
 unknown system                          
      4.43630169    -24.13911705  301     -2.99211711      1.00000000
    -24.139  0.0000E+00  0.0000E+00  0.0000E+00  0.0000E+00
    -24.044  0.0000E+00  0.0000E+00  0.0000E+00  0.0000E+00
    -23.949  0.0000E+00  0.0000E+00  0.0000E+00  0.0000E+00
    -23.853  0.0000E+00  0.0000E+00  0.0000E+00  0.0000E+00
    -23.758  0.0000E+00  0.0000E+00  0.0000E+00  0.0000E+00
    -23.663  0.0000E+00  0.0000E+00  0.0000E+00  0.0000E+00
    -23.568  0.0000E+00  0.0000E+00  0.0000E+00  0.0000E+00
    -23.472  0.0000E+00  0.0000E+00  0.0000E+00  0.0000E+00
    -23.377  0.0000E+00  0.0000E+00  0.0000E+00  0.0000E+00
    -23.282  0.0000E+00  0.0000E+00  0.0000E+00  0.0000E+00
    -23.187  0.0000E+00  0.0000E+00  0.0000E+00  0.0000E+00
    -23.091  0.5535E-14  0.5535E-14  0.5273E-15  0.5273E-15
    -22.996  0.5291E-07  0.5291E-07  0.5040E-08  0.5040E-08
    -22.901  0.6556E-03  0.6556E-03  0.6245E-04  0.6245E-04
    -22.806  0.2844E-01  0.2844E-01  0.2772E-02  0.2772E-02
    -22.710  0.3877E-01  0.3877E-01  0.6464E-02  0.6464E-02
    -22.615  0.1548E-01  0.1548E-01  0.7939E-02  0.7939E-02
    -22.520  0.2137E-01  0.2137E-01  0.9975E-02  0.9975E-02
    -22.425  0.1867E-01  0.1867E-01  0.1175E-01  0.1175E-01
    -22.329  0.1679E-01  0.1679E-01  0.1335E-01  0.1335E-01
    -22.234  0.1876E-01  0.1876E-01  0.1514E-01  0.1514E-01
    -22.139  0.1642E-01  0.1642E-01  0.1670E-01  0.1670E-01
    -22.044  0.1579E-01  0.1579E-01  0.1821E-01  0.1821E-01
    -21.948  0.2182E-01  0.2182E-01  0.2029E-01  0.2029E-01
    -21.853  0.2373E-01  0.2373E-01  0.2255E-01  0.2255E-01
    -21.758  0.2649E-01  0.2649E-01  0.2507E-01  0.2507E-01
    -21.663  0.2199E-01  0.2199E-01  0.2716E-01  0.2716E-01
    -21.567  0.2376E-01  0.2376E-01  0.2943E-01  0.2943E-01
    -21.472  0.2039E-01  0.2039E-01  0.3137E-01  0.3137E-01
    -21.377  0.2356E-01  0.2356E-01  0.3361E-01  0.3361E-01
    -21.282  0.1658E-01  0.1658E-01  0.3519E-01  0.3519E-01
    -21.186  0.2520E-01  0.2520E-01  0.3759E-01  0.3759E-01
    -21.091  0.4339E-01  0.4339E-01  0.4173E-01  0.4173E-01
    -20.996  0.1932E-01  0.1932E-01  0.4357E-01  0.4357E-01
    -20.901  0.4288E-01  0.4287E-01  0.4765E-01  0.4765E-01
    -20.805  0.2911E-01  0.2911E-01  0.5042E-01  0.5042E-01
    -20.710  0.1402E-01  0.1402E-01  0.5176E-01  0.5176E-01
    -20.615  0.1697E-01  0.1697E-01  0.5337E-01  0.5337E-01
    -20.520  0.2387E-01  0.2387E-01  0.5565E-01  0.5565E-01
    -20.424  0.1737E-01  0.1737E-01  0.5730E-01  0.5730E-01
    -20.329  0.2133E-01  0.2133E-01  0.5933E-01  0.5933E-01
    -20.234  0.2763E-01  0.2763E-01  0.6197E-01  0.6197E-01
    -20.139  0.1733E-01  0.1733E-01  0.6362E-01  0.6362E-01
    -20.043  0.1371E-01  0.1371E-01  0.6492E-01  0.6492E-01
    -19.948  0.1745E-01  0.1745E-01  0.6658E-01  0.6658E-01
    -19.853  0.2505E-01  0.2505E-01  0.6897E-01  0.6897E-01
    -19.758  0.3551E-01  0.3551E-01  0.7235E-01  0.7235E-01
    -19.662  0.1960E-01  0.1960E-01  0.7422E-01  0.7422E-01
    -19.567  0.1539E-01  0.1539E-01  0.7568E-01  0.7568E-01
    -19.472  0.2397E-01  0.2397E-01  0.7797E-01  0.7797E-01
    -19.377  0.2345E-01  0.2345E-01  0.8020E-01  0.8020E-01
    -19.281  0.1317E-01  0.1317E-01  0.8146E-01  0.8146E-01
    -19.186  0.2972E-02  0.2972E-02  0.8174E-01  0.8174E-01
    -19.091  0.1316E-01  0.1316E-01  0.8299E-01  0.8299E-01
    -18.996  0.1666E-01  0.1666E-01  0.8458E-01  0.8458E-01
    -18.900  0.4887E-01  0.4887E-01  0.8924E-01  0.8924E-01
    -18.805  0.3709E-01  0.3709E-01  0.9277E-01  0.9277E-01
    -18.710  0.3234E-01  0.3234E-01  0.9585E-01  0.9585E-01
    -18.615  0.2967E-01  0.2967E-01  0.9867E-01  0.9867E-01
    -18.519  0.2054E-01  0.2054E-01  0.1006E+00  0.1006E+00
    -18.424  0.2527E-02  0.2527E-02  0.1009E+00  0.1009E+00
    -18.329  0.1944E-01  0.1944E-01  0.1027E+00  0.1027E+00
    -18.234  0.1877E-01  0.1877E-01  0.1045E+00  0.1045E+00
    -18.138  0.3065E-01  0.3065E-01  0.1074E+00  0.1074E+00
    -18.043  0.1734E-01  0.1734E-01  0.1091E+00  0.1091E+00
    -17.948  0.1725E-01  0.1725E-01  0.1107E+00  0.1107E+00
    -17.853  0.3175E-01  0.3175E-01  0.1138E+00  0.1138E+00
    -17.757  0.5467E-01  0.5467E-01  0.1190E+00  0.1190E+00
    -17.662  0.2243E-01  0.2243E-01  0.1211E+00  0.1211E+00
    -17.567  0.7651E-02  0.7651E-02  0.1218E+00  0.1218E+00
    -17.472  0.2239E-01  0.2239E-01  0.1240E+00  0.1240E+00
    -17.376  0.4834E-01  0.4834E-01  0.1286E+00  0.1286E+00
    -17.281  0.2758E-01  0.2758E-01  0.1312E+00  0.1312E+00
    -17.186  0.2280E-01  0.2280E-01  0.1334E+00  0.1334E+00
    -17.091  0.1435E-01  0.1435E-01  0.1347E+00  0.1347E+00
    -16.995  0.1991E-01  0.1991E-01  0.1366E+00  0.1366E+00
    -16.900  0.2184E-01  0.2184E-01  0.1387E+00  0.1387E+00
    -16.805  0.4814E-01  0.4814E-01  0.1433E+00  0.1433E+00
    -16.710  0.2816E-01  0.2816E-01  0.1460E+00  0.1460E+00
    -16.614  0.1486E-01  0.1486E-01  0.1474E+00  0.1474E+00
    -16.519  0.1197E-02  0.1197E-02  0.1475E+00  0.1475E+00
    -16.424  0.1227E-05  0.1227E-05  0.1475E+00  0.1475E+00
    -16.329  0.1396E-02  0.1396E-02  0.1476E+00  0.1476E+00
    -16.233  0.1154E-01  0.1154E-01  0.1487E+00  0.1487E+00
    -16.138  0.2232E-01  0.2232E-01  0.1509E+00  0.1509E+00
    -16.043  0.2037E-01  0.2037E-01  0.1528E+00  0.1528E+00
    -15.947  0.1486E-01  0.1486E-01  0.1542E+00  0.1542E+00
    -15.852  0.1604E-01  0.1604E-01  0.1557E+00  0.1557E+00
    -15.757  0.1478E-01  0.1478E-01  0.1572E+00  0.1572E+00
    -15.662  0.1719E-01  0.1719E-01  0.1588E+00  0.1588E+00
    -15.566  0.3350E-01  0.3350E-01  0.1620E+00  0.1620E+00
    -15.471  0.4172E-01  0.4172E-01  0.1660E+00  0.1660E+00
    -15.376  0.4825E-01  0.4825E-01  0.1705E+00  0.1705E+00
    -15.281  0.6623E-02  0.6623E-02  0.1712E+00  0.1712E+00
    -15.185  0.1860E-01  0.1860E-01  0.1729E+00  0.1729E+00
    -15.090  0.3616E-01  0.3616E-01  0.1764E+00  0.1764E+00
    -14.995  0.2613E-01  0.2613E-01  0.1789E+00  0.1789E+00
    -14.900  0.2690E-01  0.2690E-01  0.1814E+00  0.1814E+00
    -14.804  0.4275E-01  0.4275E-01  0.1855E+00  0.1855E+00
    -14.709  0.3933E-01  0.3933E-01  0.1893E+00  0.1893E+00
    -14.614  0.3184E-01  0.3184E-01  0.1923E+00  0.1923E+00
    -14.519  0.1701E-01  0.1701E-01  0.1939E+00  0.1939E+00
    -14.423  0.1928E-01  0.1928E-01  0.1958E+00  0.1958E+00
    -14.328  0.6665E-02  0.6665E-02  0.1964E+00  0.1964E+00
    -14.233  0.1302E-01  0.1302E-01  0.1976E+00  0.1976E+00
    -14.138  0.1320E-01  0.1320E-01  0.1989E+00  0.1989E+00
    -14.042  0.2799E-01  0.2799E-01  0.2016E+00  0.2016E+00
    -13.947  0.4650E-01  0.4650E-01  0.2060E+00  0.2060E+00
    -13.852  0.3451E-01  0.3451E-01  0.2093E+00  0.2093E+00
    -13.757  0.2280E-01  0.2280E-01  0.2114E+00  0.2114E+00
    -13.661  0.2149E-01  0.2149E-01  0.2135E+00  0.2135E+00
    -13.566  0.1457E-01  0.1457E-01  0.2149E+00  0.2149E+00
    -13.471  0.3004E-02  0.3004E-02  0.2152E+00  0.2152E+00
    -13.376  0.1668E-01  0.1668E-01  0.2167E+00  0.2167E+00
    -13.280  0.2015E-01  0.2015E-01  0.2187E+00  0.2187E+00
    -13.185  0.1718E-01  0.1718E-01  0.2203E+00  0.2203E+00
    -13.090  0.2524E-01  0.2524E-01  0.2227E+00  0.2227E+00
    -12.995  0.1902E-01  0.1902E-01  0.2245E+00  0.2245E+00
    -12.899  0.5652E-01  0.5652E-01  0.2299E+00  0.2299E+00
    -12.804  0.3092E-01  0.3092E-01  0.2328E+00  0.2328E+00
    -12.709  0.3301E-01  0.3301E-01  0.2360E+00  0.2360E+00
    -12.614  0.2886E-01  0.2886E-01  0.2387E+00  0.2387E+00
    -12.518  0.3633E-01  0.3633E-01  0.2422E+00  0.2422E+00
    -12.423  0.1538E-01  0.1538E-01  0.2437E+00  0.2437E+00
    -12.328  0.1394E-01  0.1394E-01  0.2450E+00  0.2450E+00
    -12.233  0.1082E-01  0.1082E-01  0.2460E+00  0.2460E+00
    -12.137  0.1412E-01  0.1412E-01  0.2474E+00  0.2474E+00
    -12.042  0.2476E-01  0.2476E-01  0.2497E+00  0.2497E+00
    -11.947  0.3014E-01  0.3014E-01  0.2526E+00  0.2526E+00
    -11.852  0.3485E-01  0.3485E-01  0.2559E+00  0.2559E+00
    -11.756  0.4238E-01  0.4238E-01  0.2600E+00  0.2600E+00
    -11.661  0.6069E-01  0.6069E-01  0.2657E+00  0.2657E+00
    -11.566  0.2440E-01  0.2440E-01  0.2681E+00  0.2681E+00
    -11.471  0.3348E-01  0.3348E-01  0.2712E+00  0.2712E+00
    -11.375  0.3370E-01  0.3370E-01  0.2745E+00  0.2745E+00
    -11.280  0.4188E-01  0.4188E-01  0.2784E+00  0.2784E+00
    -11.185  0.3183E-01  0.3183E-01  0.2815E+00  0.2815E+00
    -11.090  0.1070E-01  0.1070E-01  0.2825E+00  0.2825E+00
    -10.994  0.1497E-01  0.1497E-01  0.2839E+00  0.2839E+00
    -10.899  0.2736E-01  0.2736E-01  0.2865E+00  0.2865E+00
    -10.804  0.1293E-01  0.1293E-01  0.2878E+00  0.2878E+00
    -10.709  0.2777E-01  0.2777E-01  0.2904E+00  0.2904E+00
    -10.613  0.5036E-01  0.5036E-01  0.2952E+00  0.2952E+00
    -10.518  0.3905E-01  0.3905E-01  0.2989E+00  0.2989E+00
    -10.423  0.4557E-01  0.4557E-01  0.3033E+00  0.3033E+00
    -10.328  0.4873E-01  0.4873E-01  0.3079E+00  0.3079E+00
    -10.232  0.4852E-01  0.4852E-01  0.3125E+00  0.3125E+00
    -10.137  0.5636E-01  0.5636E-01  0.3179E+00  0.3179E+00
    -10.042  0.5056E-01  0.5056E-01  0.3227E+00  0.3227E+00
     -9.947  0.4772E-01  0.4772E-01  0.3273E+00  0.3273E+00
     -9.851  0.9027E-01  0.9027E-01  0.3359E+00  0.3359E+00
     -9.756  0.6366E-01  0.6366E-01  0.3419E+00  0.3419E+00
     -9.661  0.4554E-01  0.4554E-01  0.3463E+00  0.3463E+00
     -9.566  0.6623E-01  0.6623E-01  0.3526E+00  0.3526E+00
     -9.470  0.3668E-01  0.3668E-01  0.3561E+00  0.3561E+00
     -9.375  0.7370E-01  0.7370E-01  0.3631E+00  0.3631E+00
     -9.280  0.1023E+00  0.1023E+00  0.3728E+00  0.3728E+00
     -9.185  0.8248E-01  0.8248E-01  0.3807E+00  0.3807E+00
     -9.089  0.5532E-01  0.5532E-01  0.3859E+00  0.3859E+00
     -8.994  0.5448E-01  0.5448E-01  0.3911E+00  0.3911E+00
     -8.899  0.7848E-01  0.7848E-01  0.3986E+00  0.3986E+00
     -8.804  0.5167E-01  0.5167E-01  0.4035E+00  0.4035E+00
     -8.708  0.5207E-01  0.5207E-01  0.4085E+00  0.4085E+00
     -8.613  0.7267E-01  0.7267E-01  0.4154E+00  0.4154E+00
     -8.518  0.8689E-01  0.8689E-01  0.4237E+00  0.4237E+00
     -8.423  0.6381E-01  0.6381E-01  0.4298E+00  0.4298E+00
     -8.327  0.5096E-01  0.5096E-01  0.4346E+00  0.4346E+00
     -8.232  0.3419E-01  0.3419E-01  0.4379E+00  0.4379E+00
     -8.137  0.3592E-01  0.3592E-01  0.4413E+00  0.4413E+00
     -8.042  0.4234E-01  0.4234E-01  0.4453E+00  0.4453E+00
     -7.946  0.3109E-01  0.3109E-01  0.4483E+00  0.4483E+00
     -7.851  0.2214E-01  0.2214E-01  0.4504E+00  0.4504E+00
     -7.756  0.3458E-01  0.3458E-01  0.4537E+00  0.4537E+00
     -7.661  0.8521E-01  0.8521E-01  0.4618E+00  0.4618E+00
     -7.565  0.7651E-01  0.7651E-01  0.4691E+00  0.4691E+00
     -7.470  0.5489E-01  0.5489E-01  0.4743E+00  0.4743E+00
     -7.375  0.4109E-01  0.4109E-01  0.4782E+00  0.4782E+00
     -7.280  0.2275E-01  0.2275E-01  0.4804E+00  0.4804E+00
     -7.184  0.2401E-01  0.2401E-01  0.4827E+00  0.4827E+00
     -7.089  0.3531E-01  0.3531E-01  0.4861E+00  0.4861E+00
     -6.994  0.5496E-01  0.5496E-01  0.4913E+00  0.4913E+00
     -6.899  0.2687E-01  0.2687E-01  0.4939E+00  0.4939E+00
     -6.803  0.2332E-01  0.2332E-01  0.4961E+00  0.4961E+00
     -6.708  0.5335E-01  0.5335E-01  0.5012E+00  0.5012E+00
     -6.613  0.5013E-01  0.5013E-01  0.5059E+00  0.5059E+00
     -6.518  0.4996E-01  0.4996E-01  0.5107E+00  0.5107E+00
     -6.422  0.2978E-01  0.2978E-01  0.5135E+00  0.5135E+00
     -6.327  0.4766E-01  0.4766E-01  0.5181E+00  0.5181E+00
     -6.232  0.4366E-01  0.4366E-01  0.5222E+00  0.5222E+00
     -6.137  0.2162E-01  0.2162E-01  0.5243E+00  0.5243E+00
     -6.041  0.2278E-01  0.2278E-01  0.5265E+00  0.5265E+00
     -5.946  0.1317E-01  0.1317E-01  0.5277E+00  0.5277E+00
     -5.851  0.1523E-01  0.1523E-01  0.5292E+00  0.5292E+00
     -5.756  0.1941E-01  0.1941E-01  0.5310E+00  0.5310E+00
     -5.660  0.3402E-01  0.3402E-01  0.5343E+00  0.5343E+00
     -5.565  0.2606E-01  0.2606E-01  0.5367E+00  0.5367E+00
     -5.470  0.3667E-01  0.3667E-01  0.5402E+00  0.5402E+00
     -5.375  0.8942E-01  0.8942E-01  0.5487E+00  0.5487E+00
     -5.279  0.5594E-01  0.5595E-01  0.5541E+00  0.5541E+00
     -5.184  0.5969E-01  0.5969E-01  0.5598E+00  0.5598E+00
     -5.089  0.1121E-01  0.1121E-01  0.5608E+00  0.5608E+00
     -4.994  0.1714E-02  0.1714E-02  0.5610E+00  0.5610E+00
     -4.898  0.1515E-01  0.1515E-01  0.5624E+00  0.5624E+00
     -4.803  0.3375E-01  0.3375E-01  0.5656E+00  0.5656E+00
     -4.708  0.3307E-01  0.3307E-01  0.5688E+00  0.5688E+00
     -4.613  0.4576E-01  0.4576E-01  0.5732E+00  0.5732E+00
     -4.517  0.5472E-01  0.5472E-01  0.5784E+00  0.5784E+00
     -4.422  0.7520E-01  0.7520E-01  0.5855E+00  0.5855E+00
     -4.327  0.7110E-01  0.7110E-01  0.5923E+00  0.5923E+00
     -4.232  0.1675E-01  0.1675E-01  0.5939E+00  0.5939E+00
     -4.136  0.5070E-01  0.5070E-01  0.5987E+00  0.5987E+00
     -4.041  0.5812E-01  0.5812E-01  0.6043E+00  0.6043E+00
     -3.946  0.1668E-01  0.1668E-01  0.6059E+00  0.6059E+00
     -3.851  0.1249E-01  0.1249E-01  0.6070E+00  0.6070E+00
     -3.755  0.4792E-02  0.4792E-02  0.6075E+00  0.6075E+00
     -3.660  0.2833E-03  0.2833E-03  0.6075E+00  0.6075E+00
     -3.565  0.6704E-02  0.6704E-02  0.6082E+00  0.6082E+00
     -3.470  0.1768E-02  0.1768E-02  0.6083E+00  0.6083E+00
     -3.374  0.1846E-03  0.1846E-03  0.6084E+00  0.6084E+00
     -3.279  0.1118E-01  0.1118E-01  0.6094E+00  0.6094E+00
     -3.184  0.6125E-02  0.6125E-02  0.6100E+00  0.6100E+00
     -3.089  0.8329E-02  0.8313E-02  0.6108E+00  0.6108E+00
     -2.993  0.2656E-01  0.2657E-01  0.6133E+00  0.6133E+00
     -2.898  0.1465E-01  0.1465E-01  0.6147E+00  0.6147E+00
     -2.803  0.2965E-02  0.2965E-02  0.6150E+00  0.6150E+00
     -2.708  0.2298E-05  0.2298E-05  0.6150E+00  0.6150E+00
     -2.612  0.4380E-04  0.4380E-04  0.6150E+00  0.6150E+00
     -2.517  0.4749E-02  0.4749E-02  0.6155E+00  0.6155E+00
     -2.422  0.6431E-02  0.6431E-02  0.6161E+00  0.6161E+00
     -2.327  0.7357E-02  0.7357E-02  0.6168E+00  0.6168E+00
     -2.231  0.1282E-01  0.1282E-01  0.6180E+00  0.6180E+00
     -2.136  0.1122E-01  0.1122E-01  0.6191E+00  0.6191E+00
     -2.041  0.9778E-02  0.9778E-02  0.6200E+00  0.6200E+00
     -1.946  0.6398E-03  0.6398E-03  0.6201E+00  0.6201E+00
     -1.850  0.1341E-01  0.1341E-01  0.6213E+00  0.6213E+00
     -1.755  0.3105E-01  0.3105E-01  0.6243E+00  0.6243E+00
     -1.660  0.7471E-02  0.7471E-02  0.6250E+00  0.6250E+00
     -1.565  0.2491E-04  0.2491E-04  0.6250E+00  0.6250E+00
     -1.469  0.2917E-02  0.2917E-02  0.6253E+00  0.6253E+00
     -1.374  0.2289E-01  0.2289E-01  0.6275E+00  0.6275E+00
     -1.279  0.5514E-01  0.5514E-01  0.6327E+00  0.6327E+00
     -1.184  0.3669E-01  0.3669E-01  0.6362E+00  0.6362E+00
     -1.088  0.3115E-01  0.3115E-01  0.6392E+00  0.6392E+00
     -0.993  0.2693E-01  0.2693E-01  0.6417E+00  0.6417E+00
     -0.898  0.3340E-01  0.3340E-01  0.6449E+00  0.6449E+00
     -0.803  0.2101E-01  0.2101E-01  0.6469E+00  0.6469E+00
     -0.707  0.1021E-01  0.1021E-01  0.6479E+00  0.6479E+00
     -0.612  0.3452E-01  0.3452E-01  0.6512E+00  0.6512E+00
     -0.517  0.2836E-01  0.2836E-01  0.6539E+00  0.6539E+00
     -0.422  0.3642E-01  0.3642E-01  0.6574E+00  0.6574E+00
     -0.326  0.3165E-01  0.3165E-01  0.6604E+00  0.6604E+00
     -0.231  0.4027E-01  0.4027E-01  0.6642E+00  0.6642E+00
     -0.136  0.2242E-01  0.2242E-01  0.6663E+00  0.6663E+00
     -0.041  0.3433E-02  0.3432E-02  0.6667E+00  0.6667E+00
      0.055  0.4260E-02  0.4260E-02  0.6671E+00  0.6671E+00
      0.150  0.2216E-01  0.2216E-01  0.6692E+00  0.6692E+00
      0.245  0.2319E-01  0.2319E-01  0.6714E+00  0.6714E+00
      0.340  0.3293E-01  0.3293E-01  0.6745E+00  0.6745E+00
      0.436  0.1494E-01  0.1494E-01  0.6760E+00  0.6760E+00
      0.531  0.1688E-01  0.1688E-01  0.6776E+00  0.6776E+00
      0.626  0.1010E-01  0.1010E-01  0.6785E+00  0.6785E+00
      0.721  0.2216E-01  0.2216E-01  0.6806E+00  0.6806E+00
      0.817  0.2407E-01  0.2407E-01  0.6829E+00  0.6829E+00
      0.912  0.3373E-01  0.3373E-01  0.6861E+00  0.6861E+00
      1.007  0.4570E-01  0.4570E-01  0.6905E+00  0.6905E+00
      1.103  0.2977E-01  0.2977E-01  0.6933E+00  0.6933E+00
      1.198  0.4762E-01  0.4762E-01  0.6979E+00  0.6979E+00
      1.293  0.4542E-01  0.4542E-01  0.7022E+00  0.7022E+00
      1.388  0.3192E-01  0.3192E-01  0.7052E+00  0.7052E+00
      1.484  0.2925E-01  0.2925E-01  0.7080E+00  0.7080E+00
      1.579  0.2080E-01  0.2080E-01  0.7100E+00  0.7100E+00
      1.674  0.1894E-01  0.1894E-01  0.7118E+00  0.7118E+00
      1.769  0.4621E-01  0.4621E-01  0.7162E+00  0.7162E+00
      1.865  0.7755E-01  0.7755E-01  0.7236E+00  0.7236E+00
      1.960  0.6471E-01  0.6471E-01  0.7298E+00  0.7298E+00
      2.055  0.2898E-01  0.2898E-01  0.7325E+00  0.7325E+00
      2.150  0.2610E-01  0.2610E-01  0.7350E+00  0.7350E+00
      2.246  0.4814E-01  0.4814E-01  0.7396E+00  0.7396E+00
      2.341  0.6822E-01  0.6822E-01  0.7461E+00  0.7461E+00
      2.436  0.8588E-01  0.8588E-01  0.7543E+00  0.7543E+00
      2.531  0.3626E-01  0.3626E-01  0.7577E+00  0.7577E+00
      2.627  0.3669E-01  0.3669E-01  0.7612E+00  0.7612E+00
      2.722  0.8528E-01  0.8528E-01  0.7693E+00  0.7693E+00
      2.817  0.1716E+00  0.1716E+00  0.7857E+00  0.7857E+00
      2.912  0.8940E-01  0.8940E-01  0.7942E+00  0.7942E+00
      3.008  0.2431E-01  0.2431E-01  0.7965E+00  0.7965E+00
      3.103  0.1341E-01  0.1341E-01  0.7978E+00  0.7978E+00
      3.198  0.2213E-01  0.2214E-01  0.7999E+00  0.7999E+00
      3.293  0.1077E-02  0.1077E-02  0.8000E+00  0.8000E+00
      3.389  0.1221E-06  0.1220E-06  0.8000E+00  0.8000E+00
      3.484  0.1352E-13  0.1350E-13  0.8000E+00  0.8000E+00
      3.579  0.0000E+00  0.0000E+00  0.8000E+00  0.8000E+00
      3.674  0.0000E+00  0.0000E+00  0.8000E+00  0.8000E+00
      3.770  0.0000E+00  0.0000E+00  0.8000E+00  0.8000E+00
      3.865  0.0000E+00  0.0000E+00  0.8000E+00  0.8000E+00
      3.960  0.0000E+00  0.0000E+00  0.8000E+00  0.8000E+00
      4.055  0.0000E+00  0.0000E+00  0.8000E+00  0.8000E+00
      4.151  0.0000E+00  0.0000E+00  0.8000E+00  0.8000E+00
      4.246  0.0000E+00  0.0000E+00  0.8000E+00  0.8000E+00
      4.341  0.0000E+00  0.0000E+00  0.8000E+00  0.8000E+00
      4.436  0.0000E+00  0.0000E+00  0.8000E+00  0.8000E+00
