       N       E                     dE             d eps       ncg     rms          rms(c)
DAV:   1     0.346745651524E+04    0.34675E+04   -0.13810E+05  4100   0.116E+03
DAV:   2    -0.173337225349E+03   -0.36408E+04   -0.34664E+04  5760   0.278E+02
DAV:   3    -0.842060138674E+03   -0.66872E+03   -0.66586E+03  4620   0.127E+02
DAV:   4    -0.865696942375E+03   -0.23637E+02   -0.23519E+02  4600   0.309E+01
DAV:   5    -0.866436773640E+03   -0.73983E+00   -0.73861E+00  5540   0.461E+00    0.428E+01
DAV:   6    -0.837682412393E+03    0.28754E+02   -0.20230E+01  4460   0.787E+00    0.323E+01
DAV:   7    -0.814506335766E+03    0.23176E+02   -0.80107E+01  4420   0.146E+01    0.205E+01
DAV:   8    -0.813318881724E+03    0.11875E+01   -0.24048E+01  4640   0.334E+00    0.132E+01
DAV:   9    -0.813501979656E+03   -0.18310E+00   -0.66562E+00  4320   0.470E+00    0.655E+00
DAV:  10    -0.813388539042E+03    0.11344E+00   -0.70841E-01  4260   0.182E+00    0.415E+00
DAV:  11    -0.813148188451E+03    0.24035E+00   -0.66243E-01  4140   0.141E+00    0.218E+00
DAV:  12    -0.813106681270E+03    0.41507E-01   -0.36194E-02  4320   0.499E-01    0.205E+00
DAV:  13    -0.813041084949E+03    0.65596E-01   -0.30296E-02  4460   0.313E-01    0.176E+00
DAV:  14    -0.813043020001E+03   -0.19351E-02   -0.34375E-03  4320   0.931E-02    0.175E+00
DAV:  15    -0.813015989941E+03    0.27030E-01   -0.41405E-03  4760   0.117E-01    0.164E+00
DAV:  16    -0.812921765329E+03    0.94225E-01   -0.57700E-02  4880   0.457E-01    0.122E+00
DAV:  17    -0.812835810466E+03    0.85955E-01   -0.11520E-01  4840   0.571E-01    0.788E-01
DAV:  18    -0.812857354623E+03   -0.21544E-01   -0.34925E-01  4400   0.538E-01    0.566E+00
DAV:  19    -0.812806628230E+03    0.50726E-01   -0.10899E+00  4500   0.382E-01    0.776E-01
DAV:  20    -0.812823749608E+03   -0.17121E-01   -0.79193E-03  4040   0.120E-01    0.726E-01
DAV:  21    -0.812823425356E+03    0.32425E-03   -0.71435E-04  4400   0.500E-02    0.696E-01
DAV:  22    -0.812815026740E+03    0.83986E-02   -0.21295E-03  4660   0.803E-02    0.620E-01
DAV:  23    -0.812809241665E+03    0.57851E-02   -0.22461E-03  5000   0.711E-02    0.549E-01
DAV:  24    -0.812805441640E+03    0.38000E-02   -0.14881E-03  4640   0.546E-02    0.480E-01
DAV:  25    -0.812802901377E+03    0.25403E-02   -0.17864E-03  4840   0.518E-02    0.371E-01
DAV:  26    -0.812807026618E+03   -0.41252E-02   -0.82139E-03  4500   0.731E-02    0.142E+00
DAV:  27    -0.812803206040E+03    0.38206E-02   -0.80605E-04  3880   0.369E-02    0.105E+00
DAV:  28    -0.812801629414E+03    0.15766E-02   -0.90544E-04  4620   0.193E-02    0.600E-01
DAV:  29    -0.812801611841E+03    0.17573E-04   -0.11113E-03  4080   0.311E-02    0.276E-01
DAV:  30    -0.812803083239E+03   -0.14714E-02   -0.14698E-03  4040   0.368E-02    0.658E-01
DAV:  31    -0.812801326058E+03    0.17572E-02   -0.12553E-03  4280   0.301E-02    0.215E-01
DAV:  32    -0.812802038805E+03   -0.71275E-03   -0.44293E-04  3920   0.260E-02    0.369E-01
DAV:  33    -0.812801458611E+03    0.58019E-03   -0.28148E-04  4160   0.175E-02    0.173E-01
DAV:  34    -0.812801521207E+03   -0.62596E-04   -0.17293E-04  4000   0.177E-02    0.710E-02
DAV:  35    -0.812801711263E+03   -0.19006E-03   -0.48020E-05  4160   0.815E-03    0.144E-01
DAV:  36    -0.812801580447E+03    0.13082E-03   -0.39150E-05  3800   0.573E-03    0.715E-02
DAV:  37    -0.812801624948E+03   -0.44501E-04   -0.37468E-06  3320   0.243E-03    0.549E-02
DAV:  38    -0.812801642764E+03   -0.17816E-04   -0.85793E-07  3180   0.137E-03    0.612E-02
DAV:  39    -0.812801628347E+03    0.14417E-04   -0.66064E-06  3900   0.263E-03    0.337E-02
DAV:  40    -0.812801633618E+03   -0.52707E-05   -0.13899E-06  3160   0.173E-03    0.242E-02
DAV:  41    -0.812801635563E+03   -0.19457E-05   -0.22846E-07  2720   0.779E-04    0.209E-02
DAV:  42    -0.812801635260E+03    0.30303E-06   -0.53057E-07  2840   0.821E-04
   1 F= -.82017842E+03 E0= -.82017491E+03  d E =-.820178E+03  mag=     0.0000
