 vasp.6.4.2 20Jul23 (build Aug 26 2025 15:10:52) complex                        
  
 executed on             LinuxIFC date 2025.11.27  11:30:10
 running  100 mpi-ranks, on    2 nodes
 each image running on   20 cores
 distrk:  each k-point on   20 cores,    1 groups
 distr:  one band on NCORE=   1 cores,   20 groups


--------------------------------------------------------------------------------------------------------


 INCAR:
   ENCUT = 520
   EDIFF = 1E-6
   NELM = 200
   ALGO = Normal
   ISMEAR = 0
   SIGMA = 0.05
   LASPH = .TRUE.
   ADDGRID = .TRUE.
   LREAL = Auto
   ISYM = 0
   ISPIN = 2
   MAGMOM = 91*0
   IMIX = 4
   AMIX = 0.20
   BMIX = 1E-4
   AMIX_MAG = 0.80
   BMIX_MAG = 1E-4
   IBRION = 3
   POTIM = 0
   ICHAIN = 0
   IMAGES = 5
   SPRING = -5
   LCLIMB = .TRUE.
   IOPT = 1
   ISIF = 2
   EDIFFG = -0.03
   NSW = 300
   IVDW = 12
   ISTART = 0
   ICHARG = 2
   LWAVE = .FALSE.
   LCHARG = .FALSE.

 POTCAR:    PAW_PBE C 08Apr2002                   
 POTCAR:    PAW_PBE N 08Apr2002                   
 POTCAR:    PAW_PBE H 15Jun2001                   
 POTCAR:    PAW_PBE O 08Apr2002                   
 -----------------------------------------------------------------------------
|                                                                             |
|           W    W    AA    RRRRR   N    N  II  N    N   GGGG   !!!           |
|           W    W   A  A   R    R  NN   N  II  NN   N  G    G  !!!           |
|           W    W  A    A  R    R  N N  N  II  N N  N  G       !!!           |
|           W WW W  AAAAAA  RRRRR   N  N N  II  N  N N  G  GGG   !            |
|           WW  WW  A    A  R   R   N   NN  II  N   NN  G    G                |
|           W    W  A    A  R    R  N    N  II  N    N   GGGG   !!!           |
|                                                                             |
|     For optimal performance we recommend to set                             |
|       NCORE = 2 up to number-of-cores-per-socket                            |
|     NCORE specifies how many cores store one orbital (NPAR=cpu/NCORE).      |
|     This setting can greatly improve the performance of VASP for DFT.       |
|     The default, NCORE=1 might be grossly inefficient on modern             |
|     multi-core architectures or massively parallel machines. Do your        |
|     own testing! More info at https://www.vasp.at/wiki/index.php/NCORE      |
|     Unfortunately you need to use the default for GW and RPA                |
|     calculations (for HF NCORE is supported but not extensively tested      |
|     yet).                                                                   |
|                                                                             |
 -----------------------------------------------------------------------------

 POTCAR:    PAW_PBE C 08Apr2002                   
   SHA256 =  253f7b50bb8d59471dbedb8285d89021f4a42ed1a2c5d38a03a736e69125dd95 C/POTCAR              
   COPYR  = (c) Copyright 08Apr2002 Georg Kresse                                                    
   COPYR  = This file is part of the software VASP. Any use, copying, and all other rights are regul
   COPYR  = If you do not have a valid VASP license, you may not use, copy or distribute this file. 
   VRHFIN =C: s2p2                                                                                  
   LEXCH  = PE                                                                                      
   EATOM  =   147.1560 eV,   10.8157 Ry                                                             
                                                                                                    
   TITEL  = PAW_PBE C 08Apr2002                                                                     
   LULTRA =        F    use ultrasoft PP ?                                                          
   IUNSCR =        1    unscreen: 0-lin 1-nonlin 2-no                                               
   RPACOR =    1.200    partial core radius                                                         
   POMASS =   12.011; ZVAL   =    4.000    mass and valenz                                          
   RCORE  =    1.500    outmost cutoff radius                                                       
   RWIGS  =    1.630; RWIGS  =    0.863    wigner-seitz radius (au A)                               
   ENMAX  =  400.000; ENMIN  =  300.000 eV                                                          
   ICORE  =        2    local potential                                                             
   LCOR   =        T    correct aug charges                                                         
   LPAW   =        T    paw PP                                                                      
   EAUG   =  644.873                                                                                
   DEXC   =    0.000                                                                                
   RMAX   =    1.529    core radius for proj-oper                                                   
   RAUG   =    1.300    factor for augmentation sphere                                              
   RDEP   =    1.501    radius for radial grids                                                     
   RDEPT  =    1.300    core radius for aug-charge                                                  
                                                                                                    
   Atomic configuration                                                                             
    4 entries                                                                                       
     n  l   j            E        occ.                                                              
     1  0  0.50      -273.3789   2.0000                                                             
     2  0  0.50       -13.7508   2.0000                                                             
     2  1  0.50        -5.2854   2.0000                                                             
     3  2  1.50        -5.4423   0.0000                                                             
   Description                                                                                      
     l       E           TYP  RCUT    TYP  RCUT                                                     
     0    -13.7508458     23  1.200                                                                 
     0     -8.2022199     23  1.200                                                                 
     1     -5.2854383     23  1.500                                                                 
     1     34.0145650     23  1.500                                                                 
     2     -5.4423304      7  1.500                                                                 
  local pseudopotential read in
  partial core-charges read in
  partial kinetic energy density read in
  atomic valenz-charges read in
  non local Contribution for L=           0  read in
    real space projection operators read in
  non local Contribution for L=           0  read in
    real space projection operators read in
  non local Contribution for L=           1  read in
    real space projection operators read in
  non local Contribution for L=           1  read in
    real space projection operators read in
    PAW grid and wavefunctions read in
 
   number of l-projection  operators is LMAX  =           4
   number of lm-projection operators is LMMAX =           8
 
 POTCAR:    PAW_PBE N 08Apr2002                   
   SHA256 =  e053789ff3a61a86a1b75d8a110fcc91f86041011e7b0817c7c99e4e8a6349d7 N/POTCAR              
   COPYR  = (c) Copyright 08Apr2002 Georg Kresse                                                    
   COPYR  = This file is part of the software VASP. Any use, copying, and all other rights are regul
   COPYR  = If you do not have a valid VASP license, you may not use, copy or distribute this file. 
   VRHFIN =N: s2p3                                                                                  
   LEXCH  = PE                                                                                      
   EATOM  =   264.5486 eV,   19.4438 Ry                                                             
                                                                                                    
   TITEL  = PAW_PBE N 08Apr2002                                                                     
   LULTRA =        F    use ultrasoft PP ?                                                          
   IUNSCR =        1    unscreen: 0-lin 1-nonlin 2-no                                               
   RPACOR =    1.200    partial core radius                                                         
   POMASS =   14.001; ZVAL   =    5.000    mass and valenz                                          
   RCORE  =    1.500    outmost cutoff radius                                                       
   RWIGS  =    1.400; RWIGS  =    0.741    wigner-seitz radius (au A)                               
   ENMAX  =  400.000; ENMIN  =  300.000 eV                                                          
   ICORE  =        2    local potential                                                             
   LCOR   =        T    correct aug charges                                                         
   LPAW   =        T    paw PP                                                                      
   EAUG   =  627.112                                                                                
   DEXC   =    0.000                                                                                
   RMAX   =    1.529    core radius for proj-oper                                                   
   RAUG   =    1.300    factor for augmentation sphere                                              
   RDEP   =    1.514    radius for radial grids                                                     
   RDEPT  =    1.338    core radius for aug-charge                                                  
                                                                                                    
   Atomic configuration                                                                             
    4 entries                                                                                       
     n  l   j            E        occ.                                                              
     1  0  0.50      -384.7179   2.0000                                                             
     2  0  0.50       -18.5828   2.0000                                                             
     2  1  0.50        -7.0898   3.0000                                                             
     3  2  1.50        -6.8029   0.0000                                                             
   Description                                                                                      
     l       E           TYP  RCUT    TYP  RCUT                                                     
     0    -18.5828119     23  1.200                                                                 
     0    -13.5018863     23  1.200                                                                 
     1     -7.0897853     23  1.500                                                                 
     1      9.5240782     23  1.500                                                                 
     2     -6.8029130      7  1.500                                                                 
  local pseudopotential read in
  partial core-charges read in
  partial kinetic energy density read in
  atomic valenz-charges read in
  non local Contribution for L=           0  read in
    real space projection operators read in
  non local Contribution for L=           0  read in
    real space projection operators read in
  non local Contribution for L=           1  read in
    real space projection operators read in
  non local Contribution for L=           1  read in
    real space projection operators read in
    PAW grid and wavefunctions read in
 
   number of l-projection  operators is LMAX  =           4
   number of lm-projection operators is LMMAX =           8
 
 POTCAR:    PAW_PBE H 15Jun2001                   
   SHA256 =  030f79b5d3ab3cf0e668861823c8fb652ff669f3e15e46930bd03bfd63a607b6 H/POTCAR              
   COPYR  = (c) Copyright 15Jun2001 Georg Kresse                                                    
   COPYR  = This file is part of the software VASP. Any use, copying, and all other rights are regul
   COPYR  = If you do not have a valid VASP license, you may not use, copy or distribute this file. 
   VRHFIN =H: ultrasoft test                                                                        
   LEXCH  = PE                                                                                      
   EATOM  =    12.4884 eV,    0.9179 Ry                                                             
                                                                                                    
   TITEL  = PAW_PBE H 15Jun2001                                                                     
   LULTRA =        F    use ultrasoft PP ?                                                          
   IUNSCR =        0    unscreen: 0-lin 1-nonlin 2-no                                               
   RPACOR =    0.000    partial core radius                                                         
   POMASS =    1.000; ZVAL   =    1.000    mass and valenz                                          
   RCORE  =    1.100    outmost cutoff radius                                                       
   RWIGS  =    0.700; RWIGS  =    0.370    wigner-seitz radius (au A)                               
   ENMAX  =  250.000; ENMIN  =  200.000 eV                                                          
   RCLOC  =    0.701    cutoff for local pot                                                        
   LCOR   =        T    correct aug charges                                                         
   LPAW   =        T    paw PP                                                                      
   EAUG   =  400.000                                                                                
   RMAX   =    1.123    core radius for proj-oper                                                   
   RAUG   =    1.200    factor for augmentation sphere                                              
   RDEP   =    1.112    radius for radial grids                                                     
   RDEPT  =    0.926    core radius for aug-charge                                                  
                                                                                                    
   Atomic configuration                                                                             
    2 entries                                                                                       
     n  l   j            E        occ.                                                              
     1  0  0.50        -6.4927   1.0000                                                             
     2  1  0.50        -3.4015   0.0000                                                             
   Description                                                                                      
     l       E           TYP  RCUT    TYP  RCUT                                                     
     0     -6.4927494     23  1.100                                                                 
     0      6.8029130     23  1.100                                                                 
     1     -4.0817478     23  1.100                                                                 
  local pseudopotential read in
  atomic valenz-charges read in
  non local Contribution for L=           0  read in
    real space projection operators read in
  non local Contribution for L=           0  read in
    real space projection operators read in
  non local Contribution for L=           1  read in
    real space projection operators read in
    PAW grid and wavefunctions read in
 
   number of l-projection  operators is LMAX  =           3
   number of lm-projection operators is LMMAX =           5
 
 POTCAR:    PAW_PBE O 08Apr2002                   
   SHA256 =  818f92134a0a090dccd8ba1447fa70422a3b330e708bb4f08108d8ae51209ddf O/POTCAR              
   COPYR  = (c) Copyright 08Apr2002 Georg Kresse                                                    
   COPYR  = This file is part of the software VASP. Any use, copying, and all other rights are regul
   COPYR  = If you do not have a valid VASP license, you may not use, copy or distribute this file. 
   VRHFIN =O: s2p4                                                                                  
   LEXCH  = PE                                                                                      
   EATOM  =   432.3788 eV,   31.7789 Ry                                                             
                                                                                                    
   TITEL  = PAW_PBE O 08Apr2002                                                                     
   LULTRA =        F    use ultrasoft PP ?                                                          
   IUNSCR =        1    unscreen: 0-lin 1-nonlin 2-no                                               
   RPACOR =    1.200    partial core radius                                                         
   POMASS =   16.000; ZVAL   =    6.000    mass and valenz                                          
   RCORE  =    1.520    outmost cutoff radius                                                       
   RWIGS  =    1.550; RWIGS  =    0.820    wigner-seitz radius (au A)                               
   ENMAX  =  400.000; ENMIN  =  300.000 eV                                                          
   ICORE  =        2    local potential                                                             
   LCOR   =        T    correct aug charges                                                         
   LPAW   =        T    paw PP                                                                      
   EAUG   =  605.392                                                                                
   DEXC   =    0.000                                                                                
   RMAX   =    1.553    core radius for proj-oper                                                   
   RAUG   =    1.300    factor for augmentation sphere                                              
   RDEP   =    1.550    radius for radial grids                                                     
   RDEPT  =    1.329    core radius for aug-charge                                                  
                                                                                                    
   Atomic configuration                                                                             
    4 entries                                                                                       
     n  l   j            E        occ.                                                              
     1  0  0.50      -514.6923   2.0000                                                             
     2  0  0.50       -23.9615   2.0000                                                             
     2  1  0.50        -9.0305   4.0000                                                             
     3  2  1.50        -9.5241   0.0000                                                             
   Description                                                                                      
     l       E           TYP  RCUT    TYP  RCUT                                                     
     0    -23.9615318     23  1.200                                                                 
     0     -9.5240782     23  1.200                                                                 
     1     -9.0304911     23  1.520                                                                 
     1      8.1634956     23  1.520                                                                 
     2     -9.5240782      7  1.500                                                                 
  local pseudopotential read in
  partial core-charges read in
  partial kinetic energy density read in
  kinetic energy density of atom read in
  atomic valenz-charges read in
  non local Contribution for L=           0  read in
    real space projection operators read in
  non local Contribution for L=           0  read in
    real space projection operators read in
  non local Contribution for L=           1  read in
    real space projection operators read in
  non local Contribution for L=           1  read in
    real space projection operators read in
    PAW grid and wavefunctions read in
 
   number of l-projection  operators is LMAX  =           4
   number of lm-projection operators is LMMAX =           8
 
 Optimization of the real space projectors (new method)

 maximal supplied QI-value         = 25.13
 optimisation between [QCUT,QGAM] = [ 11.56, 23.12] = [ 37.43,149.72] Ry 
 Optimized for a Real-space Cutoff    1.04 Angstroem

   l    n(q)    QCUT    max X(q) W(low)/X(q) W(high)/X(q)  e(spline) 
   0      7    11.561   115.676    0.20E-03    0.60E-03    0.21E-06
   0      7    11.561    87.132    0.20E-03    0.59E-03    0.21E-06
   1      7    11.561     4.429    0.23E-03    0.35E-03    0.15E-06
   1      7    11.561     2.733    0.18E-03    0.25E-03    0.12E-06
 Optimization of the real space projectors (new method)

 maximal supplied QI-value         = 25.13
 optimisation between [QCUT,QGAM] = [ 11.56, 23.12] = [ 37.43,149.72] Ry 
 Optimized for a Real-space Cutoff    1.25 Angstroem

   l    n(q)    QCUT    max X(q) W(low)/X(q) W(high)/X(q)  e(spline) 
   0      9    11.561    79.467    0.52E-04    0.16E-03    0.37E-06
   0      9    11.561    66.151    0.51E-04    0.16E-03    0.37E-06
   1      8    11.561    18.886    0.46E-03    0.28E-03    0.80E-06
   1      8    11.561    13.488    0.47E-03    0.29E-03    0.82E-06
 Optimization of the real space projectors (new method)

 maximal supplied QI-value         = 34.20
 optimisation between [QCUT,QGAM] = [ 11.63, 23.26] = [ 37.87,151.49] Ry 
 Optimized for a Real-space Cutoff    1.14 Angstroem

   l    n(q)    QCUT    max X(q) W(low)/X(q) W(high)/X(q)  e(spline) 
   0      8    11.629    19.460    0.27E-03    0.65E-03    0.17E-06
   0      8    11.629    12.209    0.25E-03    0.62E-03    0.16E-06
   1      7    11.629     4.655    0.29E-03    0.85E-04    0.19E-06
 Optimization of the real space projectors (new method)

 maximal supplied QI-value         = 24.76
 optimisation between [QCUT,QGAM] = [ 11.64, 23.27] = [ 37.91,151.63] Ry 
 Optimized for a Real-space Cutoff    1.04 Angstroem

   l    n(q)    QCUT    max X(q) W(low)/X(q) W(high)/X(q)  e(spline) 
   0      7    11.635    20.381    0.14E-03    0.49E-03    0.18E-06
   0      7    11.635    15.268    0.16E-03    0.52E-03    0.19E-06
   1      7    11.635     5.964    0.30E-03    0.44E-03    0.22E-06
   1      7    11.635     5.382    0.27E-03    0.34E-03    0.19E-06
  PAW_PBE C 08Apr2002                   :
 energy of atom  1       EATOM= -147.1560
 kinetic energy error for atom=    0.0071 (will be added to EATOM!!)
  PAW_PBE N 08Apr2002                   :
 energy of atom  2       EATOM= -264.5486
 kinetic energy error for atom=    0.0125 (will be added to EATOM!!)
  PAW_PBE H 15Jun2001                   :
 energy of atom  3       EATOM=  -12.4884
 kinetic energy error for atom=    0.0014 (will be added to EATOM!!)
  PAW_PBE O 08Apr2002                   :
 energy of atom  4       EATOM= -432.3788
 kinetic energy error for atom=    0.0208 (will be added to EATOM!!)
 
 
 POSCAR: C    N    H    O
  positions in direct lattice
  velocities in cartesian coordinates
 exchange correlation table for  LEXCH =        8
   RHO(1)=    0.500       N(1)  =     2000
   RHO(2)=  100.500       N(2)  =     4000

 VTST: version 4.1, (05/19/21)

 CHAIN: initializing optimizer
 
 OPT: Using LBFGS optimizer
 OPT: LBFGS, Init
 OPT: LBFGS, MEMORY             20
 OPT: LBFGS, IMAGES              5
 OPT: LBFGS, MAXMOVE      0.200000
 OPT: LBFGS, LGLOBAL      T
 OPT: LBFGS, INVCURV      0.010000
 OPT: LBFGS, LLINEOPT      F
 OPT: LBFGS, FDSTEP       0.005000
 OPT: LBFGS, LAUTOSCALE      T
 OPT: LBFGS, DAMPING      2.000000
 
 CHAIN: Read ICHAIN            0
 CHAIN: Running the NEB
 NEB:          SPRING     -5.000000
 NEB:          LCLIMB      T
 NEB:     LTANGENTOLD      F
 NEB:           LDNEB      F
 NEB:        LDNEBORG      F
 NEB:        LNEBCELL      F
 NEB:          EFIRST      0.000000
 NEB:           ELAST      0.000000
 
 POSCAR: C    N    H    O
  positions in direct lattice
  No initial velocities read in
 
 POSCAR: C    N    H    O
  positions in direct lattice
  No initial velocities read in
 
 POSCAR: C    N    H    O
  positions in direct lattice
  No initial velocities read in
 
 POSCAR: C    N    H    O
  positions in direct lattice
  No initial velocities read in
 


--------------------------------------------------------------------------------------------------------


 ion  position               nearest neighbor table
   1  1.000  0.002  0.503-  47 1.43  41 1.43  80 1.43
   2  0.999  0.144  0.503-  42 1.42  41 1.43  74 1.43
   3  0.999  0.287  0.503-  42 1.43  43 1.43  75 1.43
   4  0.999  0.430  0.503-  43 1.42  44 1.43  76 1.43
   5  1.000  0.574  0.503-  45 1.43  44 1.43  77 1.43
   6  0.001  0.717  0.503-  45 1.42  46 1.43  78 1.43
   7  0.001  0.860  0.503-  47 1.42  46 1.43  79 1.43
   8  0.144  0.004  0.502-  48 1.43  47 1.43  54 1.43
   9  0.144  0.146  0.502-  48 1.43  49 1.43  41 1.43
  10  0.142  0.287  0.502-  50 1.42  49 1.42  42 1.43
  11  0.142  0.430  0.503-  50 1.42  51 1.42  43 1.43
  12  0.144  0.573  0.503-  52 1.43  51 1.43  44 1.43
  13  0.144  0.716  0.502-  52 1.43  45 1.43  53 1.43
  14  0.144  0.860  0.502-  46 1.43  53 1.43  54 1.43
  15  0.287  0.003  0.502-  54 1.42  59 1.43  55 1.44
  16  0.287  0.148  0.502-  55 1.43  48 1.43  56 1.45
  17  0.288  0.295  0.503-  85 1.34  49 1.45  56 1.51
  18  0.285  0.430  0.503-  86 1.37  85 1.38  50 1.43
  19  0.288  0.569  0.503-  86 1.34  51 1.45  57 1.51
  20  0.287  0.715  0.503-  58 1.43  52 1.43  57 1.45
  21  0.287  0.859  0.502-  53 1.42  59 1.43  58 1.44
  22  0.429  0.003  0.503-  59 1.43  63 1.43  60 1.43
  23  0.429  0.147  0.503-  55 1.42  60 1.44  61 1.44
  24  0.429  0.858  0.503-  58 1.42  63 1.44  62 1.44
  25  0.571  0.001  0.504-  63 1.42  64 1.43  66 1.44
  26  0.571  0.146  0.504-  60 1.42  64 1.43  65 1.44
  27  0.573  0.293  0.505-  87 1.35  65 1.44  61 1.49
  28  0.573  0.856  0.505-  88 1.35  66 1.44  62 1.49
  29  0.713  0.000  0.504-  66 1.42  73 1.43  67 1.44
  30  0.714  0.145  0.504-  64 1.43  68 1.43  67 1.43
  31  0.713  0.289  0.505-  65 1.42  69 1.43  68 1.44
  32  0.709  0.430  0.506-  87 1.34  69 1.45  70 1.51
  33  0.709  0.855  0.505-  88 1.34  73 1.45  72 1.51
  34  0.856  0.000  0.504-  74 1.43  80 1.43  73 1.43
  35  0.856  0.144  0.504-  67 1.42  75 1.43  74 1.43
  36  0.856  0.288  0.504-  68 1.42  75 1.43  76 1.43
  37  0.856  0.431  0.504-  77 1.43  76 1.43  69 1.43
  38  0.856  0.574  0.505-  78 1.42  77 1.43  70 1.45
  39  0.859  0.717  0.504-  78 1.42  79 1.42  71 1.43
  40  0.856  0.858  0.504-  79 1.42  80 1.43  72 1.45
  41  0.048  0.098  0.502-   2 1.43   1 1.43   9 1.43
  42  0.046  0.239  0.502-   2 1.42   3 1.43  10 1.43
  43  0.046  0.383  0.503-   4 1.42   3 1.43  11 1.43
  44  0.048  0.526  0.503-   4 1.43   5 1.43  12 1.43
  45  0.048  0.669  0.503-   6 1.42   5 1.43  13 1.43
  46  0.049  0.812  0.502-   6 1.43   7 1.43  14 1.43
  47  0.048  0.955  0.502-   7 1.42   1 1.43   8 1.43
  48  0.192  0.099  0.502-   8 1.43   9 1.43  16 1.43
  49  0.191  0.242  0.502-  10 1.42   9 1.43  17 1.45
  50  0.189  0.382  0.502-  10 1.42  11 1.42  18 1.43
  51  0.191  0.525  0.503-  11 1.42  12 1.43  19 1.45
  52  0.192  0.668  0.503-  13 1.43  12 1.43  20 1.43
  53  0.192  0.812  0.502-  21 1.42  14 1.43  13 1.43
  54  0.192  0.955  0.502-  15 1.42  14 1.43   8 1.43
  55  0.334  0.099  0.502-  23 1.42  16 1.43  15 1.44
  56  0.339  0.245  0.503-  81 1.34  16 1.45  17 1.51
  57  0.339  0.670  0.503-  82 1.34  20 1.45  19 1.51
  58  0.334  0.811  0.503-  24 1.42  20 1.43  21 1.44
  59  0.334  0.955  0.502-  22 1.43  15 1.43  21 1.43
  60  0.476  0.098  0.504-  26 1.42  22 1.43  23 1.44
  61  0.474  0.244  0.504-  81 1.35  23 1.44  27 1.49
  62  0.474  0.806  0.504-  82 1.35  24 1.44  28 1.49
  63  0.476  0.954  0.504-  25 1.42  22 1.43  24 1.44
  64  0.618  0.097  0.504-  30 1.43  26 1.43  25 1.43
  65  0.618  0.242  0.505-  31 1.42  26 1.44  27 1.44
  66  0.618  0.952  0.504-  29 1.42  25 1.44  28 1.44
  67  0.761  0.096  0.504-  35 1.42  30 1.43  29 1.44
  68  0.761  0.240  0.505-  36 1.42  30 1.43  31 1.44
  69  0.760  0.384  0.505-  31 1.43  37 1.43  32 1.45
  70  0.759  0.531  0.506-  83 1.34  38 1.45  32 1.51
  71  0.763  0.669  0.506-  84 1.37  83 1.38  39 1.43
  72  0.759  0.804  0.505-  84 1.34  40 1.45  33 1.51
  73  0.760  0.951  0.504-  29 1.43  34 1.43  33 1.45
  74  0.903  0.096  0.503-  34 1.43   2 1.43  35 1.43
  75  0.903  0.240  0.503-   3 1.43  36 1.43  35 1.43
  76  0.903  0.383  0.504-  37 1.43   4 1.43  36 1.43
  77  0.904  0.526  0.504-  37 1.43  38 1.43   5 1.43
  78  0.906  0.669  0.504-  39 1.42  38 1.42   6 1.43
  79  0.906  0.812  0.504-  39 1.42  40 1.42   7 1.43
  80  0.904  0.953  0.503-  34 1.43  40 1.43   1 1.43
  81  0.428  0.289  0.504-  56 1.34  61 1.35
  82  0.428  0.716  0.504-  57 1.34  62 1.35
  83  0.716  0.577  0.507-  70 1.34  71 1.38
  84  0.716  0.714  0.507-  72 1.34  71 1.37
  85  0.331  0.385  0.504-  17 1.34  18 1.38
  86  0.331  0.522  0.504-  19 1.34  18 1.37
  87  0.619  0.384  0.506-  32 1.34  27 1.35
  88  0.619  0.811  0.505-  33 1.34  28 1.35
  89  0.470  0.472  0.487-  91 0.98
  90  0.575  0.521  0.488-  91 0.98
  91  0.524  0.525  0.465-  90 0.98  89 0.98
 

IMPORTANT INFORMATION: All symmetrisations will be switched off!
NOSYMM: (Re-)initialisation of all symmetry stuff for point group C_1.


----------------------------------------------------------------------------------------

                                     Primitive cell                                     

  volume of cell :    3874.8846

  direct lattice vectors                    reciprocal lattice vectors
    17.271038055  0.000000000  0.000000000     0.057900399  0.033428811  0.000000000
    -8.635519028 14.957157706  0.000000000     0.000000000  0.066857622  0.000000000
     0.000000000  0.000000000 15.000000000     0.000000000  0.000000000  0.066666667

  length of vectors
    17.271038055 17.271038055 15.000000000     0.066857622  0.066857622  0.066666667

  position of ions in fractional coordinates (direct lattice)
     0.999772897  0.001871679  0.502608050
     0.998968754  0.144152839  0.502631753
     0.998768620  0.287175694  0.502771279
     0.999015293  0.430450005  0.503123713
     0.999784318  0.573574729  0.503387632
     0.001270201  0.716874571  0.502900924
     0.001206596  0.859999386  0.502578900
     0.144115974  0.003600992  0.501775423
     0.143534246  0.146228369  0.502110354
     0.141874631  0.287348512  0.502281336
     0.141907447  0.430136483  0.502528515
     0.143503323  0.572925471  0.502730096
     0.144132474  0.716151604  0.502431706
     0.144146043  0.859887807  0.501874474
     0.286740147  0.003144345  0.502027377
     0.287322292  0.147863959  0.502265875
     0.288325135  0.295175754  0.502941115
     0.284619947  0.430328193  0.503187833
     0.288364728  0.568656694  0.503177278
     0.287360685  0.715102482  0.502733278
     0.286731313  0.859246946  0.502253060
     0.429298354  0.002545331  0.503186345
     0.429364112  0.147379192  0.503414984
     0.429331069  0.857771668  0.503357123
     0.571169452  0.001257674  0.504110293
     0.571194284  0.145723829  0.504417971
     0.573437546  0.293459547  0.505138528
     0.573434379  0.855804595  0.504710469
     0.713232050  0.000100741  0.504277489
     0.713595177  0.144667819  0.504382898
     0.713264065  0.288879485  0.504970169
     0.709037618  0.429848650  0.505729684
     0.708778366  0.854723793  0.505332176
     0.855786499  0.000362424  0.503763313
     0.855872993  0.143953170  0.503584756
     0.855888351  0.287552569  0.503987227
     0.855883988  0.431120607  0.504413303
     0.856222221  0.574271315  0.504604770
     0.858653595  0.717125656  0.504222905
     0.856189429  0.857596297  0.504019906
     0.047711973  0.097503364  0.502351184
     0.046226554  0.239296492  0.502413800
     0.046244656  0.382514508  0.502679120
     0.047686837  0.525853275  0.503013325
     0.048492107  0.668967734  0.502850002
     0.048722668  0.812193575  0.502325123
     0.048450268  0.955139364  0.502218290
     0.191652288  0.098972127  0.501904911
     0.191338744  0.241800998  0.502327718
     0.188769441  0.382151923  0.502499765
     0.191302110  0.525154552  0.502680854
     0.191678667  0.668319205  0.502585490
     0.191660377  0.811854994  0.502046995
     0.191654342  0.955438399  0.501719387
     0.334297977  0.099358766  0.502459781
     0.338548351  0.244567275  0.503087432
     0.338701202  0.669696643  0.503270602
     0.334278457  0.810587887  0.502745020
     0.333956339  0.954804778  0.502395020
     0.476379396  0.098308274  0.503703107
     0.474151008  0.243803239  0.504253402
     0.474089634  0.806137297  0.504020699
     0.476336446  0.953846846  0.503560451
     0.618256176  0.097022030  0.504361497
     0.618212270  0.241821736  0.504850423
     0.618196207  0.952203779  0.504339926
     0.760802558  0.096310078  0.504083947
     0.760812763  0.240218743  0.504619217
     0.760214725  0.384364860  0.505130726
     0.759272999  0.530674894  0.505768830
     0.762790422  0.669396986  0.505831387
     0.759108410  0.804017944  0.505445959
     0.760096391  0.951483035  0.504446071
     0.903327755  0.095731848  0.503243148
     0.903366707  0.239503974  0.503402306
     0.903390531  0.383243863  0.503838875
     0.903986598  0.526478140  0.504122185
     0.905593994  0.669266679  0.503838735
     0.905539572  0.811948643  0.503597666
     0.903958947  0.953133005  0.503363999
     0.428399114  0.288542207  0.504292116
     0.428465912  0.715728170  0.504010270
     0.716072544  0.577286978  0.506633973
     0.716080588  0.714388106  0.506721061
     0.331415757  0.385008702  0.503544870
     0.331370590  0.522015696  0.503757922
     0.619165475  0.383954902  0.505942752
     0.619018305  0.810990570  0.505483672
     0.469851731  0.472388283  0.486509076
     0.574631240  0.521240011  0.488088295
     0.523856369  0.525409224  0.465112031

  ion indices of the primitive-cell ions
   primitive index   ion index
                 1           1
                 2           2
                 3           3
                 4           4
                 5           5
                 6           6
                 7           7
                 8           8
                 9           9
                10          10
                11          11
                12          12
                13          13
                14          14
                15          15
                16          16
                17          17
                18          18
                19          19
                20          20
                21          21
                22          22
                23          23
                24          24
                25          25
                26          26
                27          27
                28          28
                29          29
                30          30
                31          31
                32          32
                33          33
                34          34
                35          35
                36          36
                37          37
                38          38
                39          39
                40          40
                41          41
                42          42
                43          43
                44          44
                45          45
                46          46
                47          47
                48          48
                49          49
                50          50
                51          51
                52          52
                53          53
                54          54
                55          55
                56          56
                57          57
                58          58
                59          59
                60          60
                61          61
                62          62
                63          63
                64          64
                65          65
                66          66
                67          67
                68          68
                69          69
                70          70
                71          71
                72          72
                73          73
                74          74
                75          75
                76          76
                77          77
                78          78
                79          79
                80          80
                81          81
                82          82
                83          83
                84          84
                85          85
                86          86
                87          87
                88          88
                89          89
                90          90
                91          91

----------------------------------------------------------------------------------------

 
 
 KPOINTS: Automatic mesh                          

Automatic generation of k-mesh.
 Grid dimensions read from file:
 generate k-points for:    2    2    1

 Generating k-lattice:

  Cartesian coordinates                     Fractional coordinates (reciprocal lattice)
     0.028950200  0.016714406  0.000000000     0.500000000  0.000000000  0.000000000
     0.000000000  0.033428811  0.000000000     0.000000000  0.500000000  0.000000000
     0.000000000  0.000000000  0.066666667     0.000000000  0.000000000  1.000000000

  Length of vectors
     0.033428811  0.033428811  0.066666667

  Shift w.r.t. Gamma in fractional coordinates (k-lattice)
     0.000000000  0.000000000  0.000000000

 
 Subroutine IBZKPT returns following result:
 ===========================================
 
 Found      4 irreducible k-points:
 
 Following reciprocal coordinates:
            Coordinates               Weight
  0.000000  0.000000  0.000000      1.000000
  0.500000  0.000000  0.000000      1.000000
  0.000000  0.500000  0.000000      1.000000
  0.500000  0.500000  0.000000      1.000000
 
 Following cartesian coordinates:
            Coordinates               Weight
  0.000000  0.000000  0.000000      1.000000
  0.028950  0.016714  0.000000      1.000000
  0.000000  0.033429  0.000000      1.000000
  0.028950  0.050143  0.000000      1.000000
 


--------------------------------------------------------------------------------------------------------




 Dimension of arrays:
   k-points           NKPTS =      4   k-points in BZ     NKDIM =      4   number of bands    NBANDS=    240
   number of dos      NEDOS =    301   number of ions     NIONS =     91
   non local maximal  LDIM  =      4   non local SUM 2l+1 LMDIM =      8
   total plane-waves  NPLWV = 774144
   max r-space proj   IRMAX =   1673   max aug-charges    IRDMAX=  20933
   dimension x,y,z NGX =    96 NGY =   96 NGZ =   84
   dimension x,y,z NGXF=   192 NGYF=  192 NGZF=  168
   support grid    NGXF=   384 NGYF=  384 NGZF=  336
   ions per type =              80   8   2   1
   NGX,Y,Z   is equivalent  to a cutoff of   9.24,  9.24,  9.31 a.u.
   NGXF,Y,Z  is equivalent  to a cutoff of  18.48, 18.48, 18.62 a.u.

 SYSTEM =  unknown system                          
 POSCAR =  C    N    H    O                        

 Startparameter for this run:
   NWRITE =      2    write-flag & timer
   PREC   = normal    normal or accurate (medium, high low for compatibility)
   ISTART =      0    job   : 0-new  1-cont  2-samecut
   ICHARG =      2    charge: 1-file 2-atom 10-const
   ISPIN  =      2    spin polarized calculation?
   LNONCOLLINEAR =      F non collinear calculations
   LSORBIT =      F    spin-orbit coupling
   INIWAV =      1    electr: 0-lowe 1-rand  2-diag
   LASPH  =      T    aspherical Exc in radial PAW
 Electronic Relaxation 1
   ENCUT  =  520.0 eV  38.22 Ry    6.18 a.u.  32.11 32.11 27.89*2*pi/ulx,y,z
   ENINI  =  520.0     initial cutoff
   ENAUG  =  644.9 eV  augmentation charge cutoff
   NELM   =    200;   NELMIN=  2; NELMDL= -5     # of ELM steps 
   EDIFF  = 0.1E-05   stopping-criterion for ELM
   LREAL  =      T    real-space projection
   NLSPLINE    = F    spline interpolate recip. space projectors
   LCOMPAT=      F    compatible to vasp.4.4
   GGA_COMPAT  = T    GGA compatible to vasp.4.4-vasp.4.6
   LMAXPAW     = -100 max onsite density
   LMAXMIX     =    2 max onsite mixed and CHGCAR
   VOSKOWN=      0    Vosko Wilk Nusair interpolation
   ROPT   =   -0.00050  -0.00050  -0.00050  -0.00050
 Ionic relaxation
   EDIFFG = -.3E-01   stopping-criterion for IOM
   NSW    =    300    number of steps for IOM
   NBLOCK =      1;   KBLOCK =    300    inner block; outer block 
   IBRION =      3    ionic relax: 0-MD 1-quasi-New 2-CG
   NFREE  =      0    steps in history (QN), initial steepest desc. (CG)
   ISIF   =      2    stress and relaxation
   IWAVPR =     11    prediction:  0-non 1-charg 2-wave 3-comb
   ISYM   =      0    0-nonsym 1-usesym 2-fastsym
   LCORR  =      T    Harris-Foulkes like correction to forces

   POTIM  = 0.0000    time-step for ionic-motion
   TEIN   =    0.0    initial temperature
   TEBEG  =    0.0;   TEEND  =   0.0 temperature during run
   SMASS  =  -3.00    Nose mass-parameter (am)
   estimated Nose-frequenzy (Omega)   =  0.10E-29 period in steps = 0.00E+00 mass=  -0.682E-26a.u.
   SCALEE = 1.0000    scale energy and forces
   NPACO  =    256;   APACO  = 10.0  distance and # of slots for P.C.
   PSTRESS=    0.0 pullay stress

  Mass of Ions in am
   POMASS =  12.01 14.00  1.00 16.00
  Ionic Valenz
   ZVAL   =   4.00  5.00  1.00  6.00
  Atomic Wigner-Seitz radii
   RWIGS  =  -1.00 -1.00 -1.00 -1.00
  virtual crystal weights 
   VCA    =   1.00  1.00  1.00  1.00
   NELECT =     368.0000    total number of electrons
   NUPDOWN=      -1.0000    fix difference up-down

 DOS related values:
   EMIN   =  10.00;   EMAX   =-10.00  energy-range for DOS
   EFERMI =   0.00;   METHOD = LEGACY      
   ISMEAR =     0;   SIGMA  =   0.05  broadening in eV -4-tet -1-fermi 0-gaus

 Electronic relaxation 2 (details)
   IALGO  =     38    algorithm
   LDIAG  =      T    sub-space diagonalisation (order eigenvalues)
   LSUBROT=      F    optimize rotation matrix (better conditioning)
   TURBO    =      0    0=normal 1=particle mesh
   IRESTART =      0    0=no restart 2=restart with 2 vectors
   NREBOOT  =      0    no. of reboots
   NMIN     =      0    reboot dimension
   EREF     =   0.00    reference energy to select bands
   IMIX   =      4    mixing-type and parameters
     AMIX     =   0.20;   BMIX     =  0.00
     AMIX_MAG =   0.80;   BMIX_MAG =  0.00
     AMIN     =   0.10
     WC   =   100.;   INIMIX=   1;  MIXPRE=   1;  MAXMIX= -45

 Intra band minimization:
   WEIMIN = 0.0010     energy-eigenvalue tresh-hold
   EBREAK =  0.10E-08  absolut break condition
   DEPER  =   0.30     relativ break condition  

   TIME   =   0.40     timestep for ELM

  volume/ion in A,a.u.               =      42.58       287.35
  Fermi-wavevector in a.u.,A,eV,Ry     =   0.746915  1.411465  7.590446  0.557882
  Thomas-Fermi vector in A             =   1.842848
 
 Write flags
   LWAVE        =      F    write WAVECAR
   LDOWNSAMPLE  =      F    k-point downsampling of WAVECAR
   LCHARG       =      F    write CHGCAR
   LVTOT        =      F    write LOCPOT, total local potential
   LVHAR        =      F    write LOCPOT, Hartree potential only
   LELF         =      F    write electronic localiz. function (ELF)
   LORBIT       =      0    0 simple, 1 ext, 2 COOP (PROOUT), +10 PAW based schemes


 Dipole corrections
   LMONO  =      F    monopole corrections only (constant potential shift)
   LDIPOL =      F    correct potential (dipole corrections)
   IDIPOL =      0    1-x, 2-y, 3-z, 4-all directions 
   EPSILON=  1.0000000 bulk dielectric constant

 Exchange correlation treatment:
   GGA     =    --    GGA type
   LEXCH   =     8    internal setting for exchange type
   LIBXC   =     F    Libxc                    
   VOSKOWN =     0    Vosko Wilk Nusair interpolation
   LHFCALC =     F    Hartree Fock is set to
   LHFONE  =     F    Hartree Fock one center treatment
   AEXX    =    0.0000 exact exchange contribution

 Linear response parameters
   LEPSILON=     F    determine dielectric tensor
   LRPA    =     F    only Hartree local field effects (RPA)
   LNABLA  =     F    use nabla operator in PAW spheres
   LVEL    =     F    velocity operator in full k-point grid
   CSHIFT  =0.1000    complex shift for real part using Kramers Kronig
   OMEGAMAX=  -1.0    maximum frequency
   DEG_THRESHOLD= 0.2000000E-02 threshold for treating states as degnerate
   RTIME   =   -0.100 relaxation time in fs
  (WPLASMAI=    0.000 imaginary part of plasma frequency in eV, 0.658/RTIME)
   DFIELD  = 0.0000000 0.0000000 0.0000000 field for delta impulse in time
 
  Optional k-point grid parameters
   LKPOINTS_OPT  =     F    use optional k-point grid
   KPOINTS_OPT_MODE=     1    mode for optional k-point grid
 
 Orbital magnetization related:
   ORBITALMAG=     F  switch on orbital magnetization
   LCHIMAG   =     F  perturbation theory with respect to B field
   DQ        =  0.001000  dq finite difference perturbation B field
   LLRAUG    =     F  two centre corrections for induced B field
   LBONE     =     F  B-component reconstruction in AE one-centre
   LVGVCALC  =     T  calculate vGv susceptibility
   LVGVAPPL  =     F  apply vGv susceptibility instead of pGv for G=0

 Random number generation:
   RANDOM_GENERATOR = DEFAULT
   PCG_SEED         = not used


--------------------------------------------------------------------------------------------------------


 quickmin algorithm: (dynamic with friction)
   using selective dynamics as specified on POSCAR
 charge density and potential will be updated during run
 spin polarized calculation
 Variant of blocked Davidson
 Davidson routine will perform the subspace rotation
 perform sub-space diagonalisation
    after iterative eigenvector-optimisation
 modified Broyden-mixing scheme, WC =      100.0
 initial mixing is a Kerker type mixing with AMIX =  0.2000 and BMIX =      0.0001
 Hartree-type preconditioning will be used
 using additional bands           56
 real space projection scheme for non local part
 use partial core corrections
 calculate Harris-corrections to forces 
   (improved forces if not selfconsistent)
 use gradient corrections 
 use of overlap-Matrix (Vanderbilt PP)
 Gauss-broadening in eV      SIGMA  =   0.05


--------------------------------------------------------------------------------------------------------


  energy-cutoff  :      520.00
  volume of cell :     3874.88
      direct lattice vectors                 reciprocal lattice vectors
    17.271038055  0.000000000  0.000000000     0.057900399  0.033428811  0.000000000
    -8.635519028 14.957157706  0.000000000     0.000000000  0.066857622  0.000000000
     0.000000000  0.000000000 15.000000000     0.000000000  0.000000000  0.066666667

  length of vectors
    17.271038055 17.271038055 15.000000000     0.066857622  0.066857622  0.066666667


 
 k-points in units of 2pi/SCALE and weight: Automatic mesh                          
   0.00000000  0.00000000  0.00000000       0.250
   0.02895020  0.01671441  0.00000000       0.250
   0.00000000  0.03342881  0.00000000       0.250
   0.02895020  0.05014322  0.00000000       0.250
 
 k-points in reciprocal lattice and weights: Automatic mesh                          
   0.00000000  0.00000000  0.00000000       0.250
   0.50000000  0.00000000  0.00000000       0.250
   0.00000000  0.50000000  0.00000000       0.250
   0.50000000  0.50000000  0.00000000       0.250
 
 position of ions in fractional coordinates (direct lattice) 
   0.99977290  0.00187168  0.50260805
   0.99896875  0.14415284  0.50263175
   0.99876862  0.28717569  0.50277128
   0.99901529  0.43045001  0.50312371
   0.99978432  0.57357473  0.50338763
   0.00127020  0.71687457  0.50290092
   0.00120660  0.85999939  0.50257890
   0.14411597  0.00360099  0.50177542
   0.14353425  0.14622837  0.50211035
   0.14187463  0.28734851  0.50228134
   0.14190745  0.43013648  0.50252851
   0.14350332  0.57292547  0.50273010
   0.14413247  0.71615160  0.50243171
   0.14414604  0.85988781  0.50187447
   0.28674015  0.00314435  0.50202738
   0.28732229  0.14786396  0.50226588
   0.28832514  0.29517575  0.50294112
   0.28461995  0.43032819  0.50318783
   0.28836473  0.56865669  0.50317728
   0.28736069  0.71510248  0.50273328
   0.28673131  0.85924695  0.50225306
   0.42929835  0.00254533  0.50318635
   0.42936411  0.14737919  0.50341498
   0.42933107  0.85777167  0.50335712
   0.57116945  0.00125767  0.50411029
   0.57119428  0.14572383  0.50441797
   0.57343755  0.29345955  0.50513853
   0.57343438  0.85580460  0.50471047
   0.71323205  0.00010074  0.50427749
   0.71359518  0.14466782  0.50438290
   0.71326407  0.28887949  0.50497017
   0.70903762  0.42984865  0.50572968
   0.70877837  0.85472379  0.50533218
   0.85578650  0.00036242  0.50376331
   0.85587299  0.14395317  0.50358476
   0.85588835  0.28755257  0.50398723
   0.85588399  0.43112061  0.50441330
   0.85622222  0.57427132  0.50460477
   0.85865360  0.71712566  0.50422290
   0.85618943  0.85759630  0.50401991
   0.04771197  0.09750336  0.50235118
   0.04622655  0.23929649  0.50241380
   0.04624466  0.38251451  0.50267912
   0.04768684  0.52585327  0.50301332
   0.04849211  0.66896773  0.50285000
   0.04872267  0.81219358  0.50232512
   0.04845027  0.95513936  0.50221829
   0.19165229  0.09897213  0.50190491
   0.19133874  0.24180100  0.50232772
   0.18876944  0.38215192  0.50249976
   0.19130211  0.52515455  0.50268085
   0.19167867  0.66831921  0.50258549
   0.19166038  0.81185499  0.50204700
   0.19165434  0.95543840  0.50171939
   0.33429798  0.09935877  0.50245978
   0.33854835  0.24456727  0.50308743
   0.33870120  0.66969664  0.50327060
   0.33427846  0.81058789  0.50274502
   0.33395634  0.95480478  0.50239502
   0.47637940  0.09830827  0.50370311
   0.47415101  0.24380324  0.50425340
   0.47408963  0.80613730  0.50402070
   0.47633645  0.95384685  0.50356045
   0.61825618  0.09702203  0.50436150
   0.61821227  0.24182174  0.50485042
   0.61819621  0.95220378  0.50433993
   0.76080256  0.09631008  0.50408395
   0.76081276  0.24021874  0.50461922
   0.76021472  0.38436486  0.50513073
   0.75927300  0.53067489  0.50576883
   0.76279042  0.66939699  0.50583139
   0.75910841  0.80401794  0.50544596
   0.76009639  0.95148303  0.50444607
   0.90332776  0.09573185  0.50324315
   0.90336671  0.23950397  0.50340231
   0.90339053  0.38324386  0.50383888
   0.90398660  0.52647814  0.50412218
   0.90559399  0.66926668  0.50383874
   0.90553957  0.81194864  0.50359767
   0.90395895  0.95313301  0.50336400
   0.42839911  0.28854221  0.50429212
   0.42846591  0.71572817  0.50401027
   0.71607254  0.57728698  0.50663397
   0.71608059  0.71438811  0.50672106
   0.33141576  0.38500870  0.50354487
   0.33137059  0.52201570  0.50375792
   0.61916547  0.38395490  0.50594275
   0.61901831  0.81099057  0.50548367
   0.46985173  0.47238828  0.48650908
   0.57463124  0.52124001  0.48808830
   0.52385637  0.52540922  0.46511203
 
 position of ions in cartesian coordinates  (Angst):
  17.25095282  0.02799500  7.53912075
  16.00839278  2.15611675  7.53947629
  14.76985968  4.29533215  7.54156918
  13.53687193  6.43830861  7.54685569
  12.31419751  8.57904768  7.55081447
  -6.16864630 10.72240601  7.54351385
  -7.40570190 12.86314645  7.53868350
   2.45793604  0.05386060  7.52663135
   1.21622757  2.18716077  7.53165531
  -0.03108140  4.29791702  7.53422003
  -1.26356287  6.43361921  7.53792772
  -2.46905746  8.56933662  7.54095145
  -3.69502335 10.71159248  7.53647559
  -4.93602572 12.86147754  7.52811711
   4.92514695  0.04703047  7.53041065
   3.68547221  2.21162455  7.53398813
   2.43067855  4.41499030  7.54411673
   1.19957463  6.43648665  7.54781750
   0.06971250  8.50548785  7.54765918
  -1.21226376 10.69590060  7.54099916
  -2.46789592 12.85189207  7.53379590
   7.39244796  0.03807092  7.54779518
   6.14286810  2.20437382  7.55122476
   0.00768967 12.82982612  7.55035685
   9.85382867  0.01881123  7.56165439
   8.60671732  2.17961429  7.56626956
   7.36968617  4.38932072  7.57707792
   2.51349012 12.80040430  7.57065703
  12.31738794  0.00150679  7.56416233
  11.07524775  2.16381938  7.56574347
   9.82418653  4.32081602  7.57455254
   8.53384949  6.42931405  7.58594526
   4.86035456 12.78423856  7.57998264
  14.77719148  0.00542083  7.55644970
  13.53870470  2.15313027  7.55377134
  12.29891460  4.30096912  7.55980841
  11.05905473  6.44833891  7.56619954
   9.82871570  8.58946663  7.56907154
   8.63708667 10.72616153  7.56334357
   7.38149107 12.82720306  7.56029860
  -0.01795685  1.45837319  7.53526775
  -1.26806883  3.57919536  7.53620700
  -2.50451810  5.72132982  7.54018680
  -3.71741479  7.86527036  7.54519987
  -4.93937457 10.00585589  7.54275003
  -6.17222202 12.14810739  7.53487685
  -7.41133773 14.28617010  7.53327435
   2.45535828  1.48034171  7.52857367
   1.21654161  3.61665566  7.53491577
  -0.03983600  5.71590658  7.53749647
  -1.23099610  7.85481946  7.54021281
  -2.46079366  9.99615575  7.53878235
  -3.70061559 12.14304318  7.53070493
  -4.94063704 14.29064282  7.52579081
   4.91565857  1.48612473  7.53689671
   3.73511611  3.65803130  7.54631149
   0.06654325 10.01675831  7.54905903
  -1.22651116 12.12409086  7.54117530
  -2.47746219 14.28116564  7.53592531
   7.37862370  1.47041236  7.55554661
   6.08371260  3.64660349  7.56380103
   1.22660615 12.05752268  7.56031049
  -0.01013770 14.26683770  7.55340677
   9.84009036  1.45117380  7.56542246
   8.58891144  3.61696584  7.57275635
   2.45411635 14.24226210  7.56509889
  12.30816243  1.44052502  7.56125920
  11.06561266  3.59298963  7.56928825
   9.81050737  5.74900583  7.57696089
   8.53077971  7.93738808  7.58653245
   7.39359201 10.01227629  7.58747081
   6.16747798 12.02582318  7.58168939
   4.91110385 14.23148180  7.56669106
  14.77471384  1.43187635  7.54864722
  13.53383965  3.58229872  7.55103458
  12.29298257  5.73223889  7.55758313
  11.06637494  7.87461656  7.56183277
   9.86108318 10.01032727  7.55758103
   8.62801044 12.14444391  7.55396500
   7.38151118 14.25616067  7.55045998
   4.90718568  4.31577130  7.56438174
   1.21936684 10.70525911  7.56015405
   7.38214349  8.63457237  7.59950959
   6.19834300 10.68521557  7.60081592
   2.39914418  5.75863587  7.55317304
   1.21523759  7.80787108  7.55636883
   7.37798061  5.74287402  7.58914129
   3.68776421 12.13011385  7.58225509
   4.03550913  7.06558604  7.29763614
   5.42329999  7.79626904  7.32132443
   4.51036193  7.85862863  6.97668046
 


--------------------------------------------------------------------------------------------------------


 k-point   1 :   0.0000 0.0000 0.0000  plane waves:  104449
 k-point   2 :   0.5000 0.0000 0.0000  plane waves:  104264
 k-point   3 :   0.0000 0.5000 0.0000  plane waves:  104264
 k-point   4 :   0.5000 0.5000 0.0000  plane waves:  104264

 maximum and minimum number of plane-waves per node :    104449   104264

 maximum number of plane-waves:    104449
 maximum index in each direction: 
   IXMAX=   32   IYMAX=   32   IZMAX=   27
   IXMIN=  -32   IYMIN=  -32   IZMIN=  -27


 serial   3D FFT for wavefunctions
 parallel 3D FFT for charge:
    minimum data exchange during FFTs selected (reduces bandwidth)


 total amount of memory used by VASP MPI-rank0   344413. kBytes
=======================================================================

   base      :      30000. kBytes
   nonlr-proj:       8821. kBytes
   fftplans  :      49947. kBytes
   grid      :      93499. kBytes
   one-center:        559. kBytes
   wavefun   :     161587. kBytes
 
     INWAV:  cpu time      0.0000: real time      0.0000
 Broyden mixing: mesh for mixing (old mesh)
   NGX = 65   NGY = 65   NGZ = 55
  (NGX  =192   NGY  =192   NGZ  =168)
  gives a total of 232375 points

 initial charge density was supplied:
 charge density of overlapping atoms calculated
 number of electron     368.0000000 magnetization       0.0000000
 keeping initial charge density in first step


--------------------------------------------------------------------------------------------------------


 Maximum index for non-local projection operator         1591
 Maximum index for augmentation-charges         1501 (set IRDMAX)


--------------------------------------------------------------------------------------------------------


 First call to EWALD:  gamma=   0.113
 Maximum number of real-space cells 3x 3x 3
 Maximum number of reciprocal cells 3x 3x 3

    FEWALD:  cpu time      0.0030: real time      0.0030


--------------------------------------- Ionic step        1  -------------------------------------------




--------------------------------------- Iteration      1(   1)  ---------------------------------------


    POTLOK:  cpu time      0.4936: real time      0.4996
    SETDIJ:  cpu time      1.1379: real time      1.1442
     EDDAV:  cpu time     32.3993: real time     33.0465
       DOS:  cpu time      0.0007: real time      0.0050
    --------------------------------------------
      LOOP:  cpu time     34.0316: real time     34.6954

 eigenvalue-minimisations  :  4100
 total energy-change (2. order) : 0.3467457E+04  (-0.1381019E+05)
 number of electron     368.0000000 magnetization       0.0000000
 augmentation part      368.0000000 magnetization       0.0000000

 Free energy of the ion-electron system (eV)
  ---------------------------------------------------
  alpha Z        PSCENC =       175.06488379
  Ewald energy   TEWEN  =     36485.26666363
  -Hartree energ DENC   =    -47309.10194380
  -exchange      EXHF   =         0.00000000
  -V(xc)+E(xc)   XCENC  =      1240.58393632
  PAW double counting   =     10672.04303313   -10728.93979680
  entropy T*S    EENTRO =        -0.03620584
  eigenvalues    EBANDS =     -1412.95601146
  atomic energy  EATOM  =     14345.53195627
  Solvation  Ediel_sol  =         0.00000000
  ---------------------------------------------------
  free energy    TOTEN  =      3467.45651524 eV

  energy without entropy =     3467.49272108  energy(sigma->0) =     3467.47461816


--------------------------------------------------------------------------------------------------------




--------------------------------------- Iteration      1(   2)  ---------------------------------------


     EDDAV:  cpu time     43.3520: real time     44.2467
       DOS:  cpu time      0.0006: real time      0.0043
    --------------------------------------------
      LOOP:  cpu time     43.3526: real time     44.2510

 eigenvalue-minimisations  :  5760
 total energy-change (2. order) :-0.3640794E+04  (-0.3466450E+04)
 number of electron     368.0000000 magnetization       0.0000000
 augmentation part      368.0000000 magnetization       0.0000000

 Free energy of the ion-electron system (eV)
  ---------------------------------------------------
  alpha Z        PSCENC =       175.06488379
  Ewald energy   TEWEN  =     36485.26666363
  -Hartree energ DENC   =    -47309.10194380
  -exchange      EXHF   =         0.00000000
  -V(xc)+E(xc)   XCENC  =      1240.58393632
  PAW double counting   =     10672.04303313   -10728.93979680
  entropy T*S    EENTRO =        -0.00000030
  eigenvalues    EBANDS =     -5053.78595759
  atomic energy  EATOM  =     14345.53195627
  Solvation  Ediel_sol  =         0.00000000
  ---------------------------------------------------
  free energy    TOTEN  =      -173.33722535 eV

  energy without entropy =     -173.33722505  energy(sigma->0) =     -173.33722520


--------------------------------------------------------------------------------------------------------




--------------------------------------- Iteration      1(   3)  ---------------------------------------


     EDDAV:  cpu time     36.3471: real time     37.1233
       DOS:  cpu time      0.0005: real time      0.0042
    --------------------------------------------
      LOOP:  cpu time     36.3476: real time     37.1276

 eigenvalue-minimisations  :  4620
 total energy-change (2. order) :-0.6687229E+03  (-0.6658586E+03)
 number of electron     368.0000000 magnetization       0.0000000
 augmentation part      368.0000000 magnetization       0.0000000

 Free energy of the ion-electron system (eV)
  ---------------------------------------------------
  alpha Z        PSCENC =       175.06488379
  Ewald energy   TEWEN  =     36485.26666363
  -Hartree energ DENC   =    -47309.10194380
  -exchange      EXHF   =         0.00000000
  -V(xc)+E(xc)   XCENC  =      1240.58393632
  PAW double counting   =     10672.04303313   -10728.93979680
  entropy T*S    EENTRO =        -0.00000027
  eigenvalues    EBANDS =     -5722.50887094
  atomic energy  EATOM  =     14345.53195627
  Solvation  Ediel_sol  =         0.00000000
  ---------------------------------------------------
  free energy    TOTEN  =      -842.06013867 eV

  energy without entropy =     -842.06013840  energy(sigma->0) =     -842.06013854


--------------------------------------------------------------------------------------------------------




--------------------------------------- Iteration      1(   4)  ---------------------------------------


     EDDAV:  cpu time     36.1185: real time     36.8815
       DOS:  cpu time      0.0006: real time      0.0062
    --------------------------------------------
      LOOP:  cpu time     36.1191: real time     36.8876

 eigenvalue-minimisations  :  4600
 total energy-change (2. order) :-0.2363680E+02  (-0.2351926E+02)
 number of electron     368.0000000 magnetization       0.0000000
 augmentation part      368.0000000 magnetization       0.0000000

 Free energy of the ion-electron system (eV)
  ---------------------------------------------------
  alpha Z        PSCENC =       175.06488379
  Ewald energy   TEWEN  =     36485.26666363
  -Hartree energ DENC   =    -47309.10194380
  -exchange      EXHF   =         0.00000000
  -V(xc)+E(xc)   XCENC  =      1240.58393632
  PAW double counting   =     10672.04303313   -10728.93979680
  entropy T*S    EENTRO =        -0.00000040
  eigenvalues    EBANDS =     -5746.14567451
  atomic energy  EATOM  =     14345.53195627
  Solvation  Ediel_sol  =         0.00000000
  ---------------------------------------------------
  free energy    TOTEN  =      -865.69694237 eV

  energy without entropy =     -865.69694197  energy(sigma->0) =     -865.69694217


--------------------------------------------------------------------------------------------------------




--------------------------------------- Iteration      1(   5)  ---------------------------------------


     EDDAV:  cpu time     41.7562: real time     42.6148
       DOS:  cpu time      0.0006: real time      0.0043
    CHARGE:  cpu time      2.7531: real time      2.8099
    MIXING:  cpu time      0.0102: real time      0.0103
    --------------------------------------------
      LOOP:  cpu time     44.5201: real time     45.4393

 eigenvalue-minimisations  :  5540
 total energy-change (2. order) :-0.7398313E+00  (-0.7386100E+00)
 number of electron     367.9999999 magnetization       0.0000000
 augmentation part       11.1399405 magnetization       0.0003875

 Broyden mixing:
  rms(total) = 0.42776E+01    rms(broyden)= 0.42767E+01
  rms(prec ) = 0.47786E+01
  weight for this iteration     100.00

 Free energy of the ion-electron system (eV)
  ---------------------------------------------------
  alpha Z        PSCENC =       175.06488379
  Ewald energy   TEWEN  =     36485.26666363
  -Hartree energ DENC   =    -47309.10194380
  -exchange      EXHF   =         0.00000000
  -V(xc)+E(xc)   XCENC  =      1240.58393632
  PAW double counting   =     10672.04303313   -10728.93979680
  entropy T*S    EENTRO =        -0.00000041
  eigenvalues    EBANDS =     -5746.88550577
  atomic energy  EATOM  =     14345.53195627
  Solvation  Ediel_sol  =         0.00000000
  ---------------------------------------------------
  free energy    TOTEN  =      -866.43677364 eV

  energy without entropy =     -866.43677323  energy(sigma->0) =     -866.43677343


--------------------------------------------------------------------------------------------------------




--------------------------------------- Iteration      1(   6)  ---------------------------------------


    POTLOK:  cpu time      0.5293: real time      0.5415
    SETDIJ:  cpu time      1.3678: real time      1.3997
     EDDAV:  cpu time     35.0437: real time     35.7160
       DOS:  cpu time      0.0006: real time      0.0047
    CHARGE:  cpu time      2.5637: real time      2.6118
    MIXING:  cpu time      0.0147: real time      0.0149
    --------------------------------------------
      LOOP:  cpu time     39.5198: real time     40.2886

 eigenvalue-minimisations  :  4460
 total energy-change (2. order) : 0.2875436E+02  (-0.2022993E+01)
 number of electron     367.9999999 magnetization       0.0000000
 augmentation part       10.6806650 magnetization      -0.0000091

 Broyden mixing:
  rms(total) = 0.32308E+01    rms(broyden)= 0.32308E+01
  rms(prec ) = 0.35483E+01
  weight for this iteration     100.00

 eigenvalues of (default mixing * dielectric matrix)
  average eigenvalue GAMMA=   3.1358
  3.1358

 Free energy of the ion-electron system (eV)
  ---------------------------------------------------
  alpha Z        PSCENC =       175.06488379
  Ewald energy   TEWEN  =     36485.26666363
  -Hartree energ DENC   =    -47730.42941623
  -exchange      EXHF   =         0.00000000
  -V(xc)+E(xc)   XCENC  =      1255.91875991
  PAW double counting   =     14353.26262334   -14413.61856391
  entropy T*S    EENTRO =        -0.00000008
  eigenvalues    EBANDS =     -5308.67931910
  atomic energy  EATOM  =     14345.53195627
  Solvation  Ediel_sol  =         0.00000000
  ---------------------------------------------------
  free energy    TOTEN  =      -837.68241239 eV

  energy without entropy =     -837.68241231  energy(sigma->0) =     -837.68241235


--------------------------------------------------------------------------------------------------------




--------------------------------------- Iteration      1(   7)  ---------------------------------------


    POTLOK:  cpu time      0.5767: real time      0.5906
    SETDIJ:  cpu time      1.3671: real time      1.3888
     EDDAV:  cpu time     34.8478: real time     35.5202
       DOS:  cpu time      0.0007: real time      0.0047
    CHARGE:  cpu time      2.7753: real time      2.8236
    MIXING:  cpu time      0.0145: real time      0.0151
    --------------------------------------------
      LOOP:  cpu time     39.5820: real time     40.3430

 eigenvalue-minimisations  :  4420
 total energy-change (2. order) : 0.2317608E+02  (-0.8010673E+01)
 number of electron     368.0000000 magnetization      -0.0000096
 augmentation part        9.6852185 magnetization       0.0005302

 Broyden mixing:
  rms(total) = 0.20454E+01    rms(broyden)= 0.20440E+01
  rms(prec ) = 0.23716E+01
  weight for this iteration     100.00

 eigenvalues of (default mixing * dielectric matrix)
  average eigenvalue GAMMA=   1.7249
  3.0964  0.3534

 Free energy of the ion-electron system (eV)
  ---------------------------------------------------
  alpha Z        PSCENC =       175.06488379
  Ewald energy   TEWEN  =     36485.26666363
  -Hartree energ DENC   =    -48651.41199016
  -exchange      EXHF   =         0.00000000
  -V(xc)+E(xc)   XCENC  =      1290.28841400
  PAW double counting   =     26182.29146845   -26249.70375314
  entropy T*S    EENTRO =        -0.00241609
  eigenvalues    EBANDS =     -4391.83156251
  atomic energy  EATOM  =     14345.53195627
  Solvation  Ediel_sol  =         0.00000000
  ---------------------------------------------------
  free energy    TOTEN  =      -814.50633577 eV

  energy without entropy =     -814.50391967  energy(sigma->0) =     -814.50512772


--------------------------------------------------------------------------------------------------------




--------------------------------------- Iteration      1(   8)  ---------------------------------------


    POTLOK:  cpu time      0.5598: real time      0.5746
    SETDIJ:  cpu time      1.3765: real time      1.4012
     EDDAV:  cpu time     35.8556: real time     36.5629
       DOS:  cpu time      0.0005: real time      0.0048
    CHARGE:  cpu time      2.6761: real time      2.7191
    MIXING:  cpu time      0.0157: real time      0.0161
    --------------------------------------------
      LOOP:  cpu time     40.4844: real time     41.2787

 eigenvalue-minimisations  :  4640
 total energy-change (2. order) : 0.1187454E+01  (-0.2404758E+01)
 number of electron     367.9999999 magnetization      -0.0000098
 augmentation part        9.9010119 magnetization       0.0001247

 Broyden mixing:
  rms(total) = 0.13241E+01    rms(broyden)= 0.13230E+01
  rms(prec ) = 0.13622E+01
  weight for this iteration     100.00

 eigenvalues of (default mixing * dielectric matrix)
  average eigenvalue GAMMA=   2.0368
  4.0904  1.8094  0.2106

 Free energy of the ion-electron system (eV)
  ---------------------------------------------------
  alpha Z        PSCENC =       175.06488379
  Ewald energy   TEWEN  =     36485.26666363
  -Hartree energ DENC   =    -48649.55991883
  -exchange      EXHF   =         0.00000000
  -V(xc)+E(xc)   XCENC  =      1289.93927847
  PAW double counting   =     26540.29785301   -26607.59425339
  entropy T*S    EENTRO =        -0.00000016
  eigenvalues    EBANDS =     -4392.26534452
  atomic energy  EATOM  =     14345.53195627
  Solvation  Ediel_sol  =         0.00000000
  ---------------------------------------------------
  free energy    TOTEN  =      -813.31888172 eV

  energy without entropy =     -813.31888157  energy(sigma->0) =     -813.31888165


--------------------------------------------------------------------------------------------------------




--------------------------------------- Iteration      1(   9)  ---------------------------------------


    POTLOK:  cpu time      0.5615: real time      0.5757
    SETDIJ:  cpu time      1.3670: real time      1.3849
     EDDAV:  cpu time     34.0372: real time     34.6942
       DOS:  cpu time      0.0006: real time      0.0043
    CHARGE:  cpu time      2.6991: real time      2.7424
    MIXING:  cpu time      0.0174: real time      0.0176
    --------------------------------------------
      LOOP:  cpu time     38.6828: real time     39.4192

 eigenvalue-minimisations  :  4320
 total energy-change (2. order) :-0.1830979E+00  (-0.6656154E+00)
 number of electron     367.9999999 magnetization      -0.0000096
 augmentation part        9.9459607 magnetization       0.0000549

 Broyden mixing:
  rms(total) = 0.65542E+00    rms(broyden)= 0.65518E+00
  rms(prec ) = 0.71126E+00
  weight for this iteration     100.00

 eigenvalues of (default mixing * dielectric matrix)
  average eigenvalue GAMMA=   2.0063
  4.4320  1.9674  1.4096  0.2159

 Free energy of the ion-electron system (eV)
  ---------------------------------------------------
  alpha Z        PSCENC =       175.06488379
  Ewald energy   TEWEN  =     36485.26666363
  -Hartree energ DENC   =    -48785.30573408
  -exchange      EXHF   =         0.00000000
  -V(xc)+E(xc)   XCENC  =      1295.13054575
  PAW double counting   =     32927.84655771   -32996.00585112
  entropy T*S    EENTRO =        -0.00000019
  eigenvalues    EBANDS =     -4261.03100140
  atomic energy  EATOM  =     14345.53195627
  Solvation  Ediel_sol  =         0.00000000
  ---------------------------------------------------
  free energy    TOTEN  =      -813.50197966 eV

  energy without entropy =     -813.50197946  energy(sigma->0) =     -813.50197956


--------------------------------------------------------------------------------------------------------




--------------------------------------- Iteration      1(  10)  ---------------------------------------


    POTLOK:  cpu time      0.5735: real time      0.5864
    SETDIJ:  cpu time      1.3359: real time      1.3573
     EDDAV:  cpu time     33.6202: real time     34.2291
       DOS:  cpu time      0.0007: real time      0.0047
    CHARGE:  cpu time      2.6410: real time      2.6824
    MIXING:  cpu time      0.0167: real time      0.0175
    --------------------------------------------
      LOOP:  cpu time     38.1880: real time     38.8773

 eigenvalue-minimisations  :  4260
 total energy-change (2. order) : 0.1134406E+00  (-0.7084128E-01)
 number of electron     367.9999999 magnetization      -0.0000081
 augmentation part        9.9170658 magnetization       0.0001672

 Broyden mixing:
  rms(total) = 0.41508E+00    rms(broyden)= 0.41507E+00
  rms(prec ) = 0.47846E+00
  weight for this iteration     100.00

 eigenvalues of (default mixing * dielectric matrix)
  average eigenvalue GAMMA=   2.2197
  4.8566  3.2956  1.5239  1.2072  0.2150

 Free energy of the ion-electron system (eV)
  ---------------------------------------------------
  alpha Z        PSCENC =       175.06488379
  Ewald energy   TEWEN  =     36485.26666363
  -Hartree energ DENC   =    -48768.79367724
  -exchange      EXHF   =         0.00000000
  -V(xc)+E(xc)   XCENC  =      1295.01039002
  PAW double counting   =     35281.00495889   -35349.08013807
  entropy T*S    EENTRO =        -0.00000014
  eigenvalues    EBANDS =     -4277.39357620
  atomic energy  EATOM  =     14345.53195627
  Solvation  Ediel_sol  =         0.00000000
  ---------------------------------------------------
  free energy    TOTEN  =      -813.38853904 eV

  energy without entropy =     -813.38853891  energy(sigma->0) =     -813.38853897


--------------------------------------------------------------------------------------------------------




--------------------------------------- Iteration      1(  11)  ---------------------------------------


    POTLOK:  cpu time      0.5599: real time      0.5733
    SETDIJ:  cpu time      1.3685: real time      1.3954
     EDDAV:  cpu time     32.9104: real time     33.6382
       DOS:  cpu time      0.0005: real time      0.0043
    CHARGE:  cpu time      2.6805: real time      2.7373
    MIXING:  cpu time      0.0170: real time      0.0177
    --------------------------------------------
      LOOP:  cpu time     37.5368: real time     38.3662

 eigenvalue-minimisations  :  4140
 total energy-change (2. order) : 0.2403506E+00  (-0.6624330E-01)
 number of electron     367.9999999 magnetization      -0.0000070
 augmentation part        9.9313630 magnetization       0.0000452

 Broyden mixing:
  rms(total) = 0.21809E+00    rms(broyden)= 0.21808E+00
  rms(prec ) = 0.27850E+00
  weight for this iteration     100.00

 eigenvalues of (default mixing * dielectric matrix)
  average eigenvalue GAMMA=   2.0156
  4.7841  3.2027  0.2150  1.4613  1.4613  0.9695

 Free energy of the ion-electron system (eV)
  ---------------------------------------------------
  alpha Z        PSCENC =       175.06488379
  Ewald energy   TEWEN  =     36485.26666363
  -Hartree energ DENC   =    -48696.92418634
  -exchange      EXHF   =         0.00000000
  -V(xc)+E(xc)   XCENC  =      1292.82587986
  PAW double counting   =     37085.08488931   -37152.60520035
  entropy T*S    EENTRO =        -0.00000013
  eigenvalues    EBANDS =     -4347.39307450
  atomic energy  EATOM  =     14345.53195627
  Solvation  Ediel_sol  =         0.00000000
  ---------------------------------------------------
  free energy    TOTEN  =      -813.14818845 eV

  energy without entropy =     -813.14818832  energy(sigma->0) =     -813.14818838


--------------------------------------------------------------------------------------------------------




--------------------------------------- Iteration      1(  12)  ---------------------------------------


    POTLOK:  cpu time      0.5678: real time      0.5865
    SETDIJ:  cpu time      1.3650: real time      1.3816
     EDDAV:  cpu time     33.7257: real time     34.4955
       DOS:  cpu time      0.0006: real time      0.0044
    CHARGE:  cpu time      2.6234: real time      2.6874
    MIXING:  cpu time      0.0198: real time      0.0205
    --------------------------------------------
      LOOP:  cpu time     38.3023: real time     39.1760

 eigenvalue-minimisations  :  4320
 total energy-change (2. order) : 0.4150718E-01  (-0.3619354E-02)
 number of electron     367.9999999 magnetization      -0.0000062
 augmentation part        9.9340440 magnetization       0.0000338

 Broyden mixing:
  rms(total) = 0.20456E+00    rms(broyden)= 0.20456E+00
  rms(prec ) = 0.26171E+00
  weight for this iteration     100.00

 eigenvalues of (default mixing * dielectric matrix)
  average eigenvalue GAMMA=   1.9501
  4.7271  3.2154  0.2150  1.6874  1.6874  1.0592  1.0592

 Free energy of the ion-electron system (eV)
  ---------------------------------------------------
  alpha Z        PSCENC =       175.06488379
  Ewald energy   TEWEN  =     36485.26666363
  -Hartree energ DENC   =    -48699.48338365
  -exchange      EXHF   =         0.00000000
  -V(xc)+E(xc)   XCENC  =      1292.92052429
  PAW double counting   =     37068.49982523   -37136.02101592
  entropy T*S    EENTRO =        -0.00000013
  eigenvalues    EBANDS =     -4344.88613477
  atomic energy  EATOM  =     14345.53195627
  Solvation  Ediel_sol  =         0.00000000
  ---------------------------------------------------
  free energy    TOTEN  =      -813.10668127 eV

  energy without entropy =     -813.10668114  energy(sigma->0) =     -813.10668121


--------------------------------------------------------------------------------------------------------




--------------------------------------- Iteration      1(  13)  ---------------------------------------


    POTLOK:  cpu time      0.5815: real time      0.5972
    SETDIJ:  cpu time      1.3548: real time      1.3748
     EDDAV:  cpu time     34.8795: real time     35.6605
       DOS:  cpu time      0.0006: real time      0.0041
    CHARGE:  cpu time      2.6961: real time      2.7603
    MIXING:  cpu time      0.0227: real time      0.0230
    --------------------------------------------
      LOOP:  cpu time     39.5353: real time     40.4198

 eigenvalue-minimisations  :  4460
 total energy-change (2. order) : 0.6559632E-01  (-0.3029564E-02)
 number of electron     367.9999999 magnetization      -0.0000062
 augmentation part        9.9300215 magnetization       0.0000208

 Broyden mixing:
  rms(total) = 0.17643E+00    rms(broyden)= 0.17643E+00
  rms(prec ) = 0.22756E+00
  weight for this iteration     100.00

 eigenvalues of (default mixing * dielectric matrix)
  average eigenvalue GAMMA=   1.7088
  4.7271  3.2143  1.6878  1.6878  1.0589  1.0589  0.2150  0.0209

[...]
   -.308E+02 -.186E+02 0.851E+00   0.313E+02 0.192E+02 -.870E+00   -.557E+00 -.643E+00 0.228E-01   0.245E-02 -.530E-03 -.262E-03
   -.198E+02 0.310E+01 0.114E+01   0.199E+02 -.310E+01 -.114E+01   -.105E+00 0.141E-02 0.638E-02   0.123E-02 0.509E-03 -.131E-03
   -.428E+01 0.343E+01 0.278E+01   0.430E+01 -.344E+01 -.278E+01   -.175E-01 0.131E-01 0.935E-02   0.342E-03 0.465E-03 -.984E-04
   0.801E+00 -.406E+01 0.353E+01   -.799E+00 0.406E+01 -.354E+01   -.428E-02 -.618E-02 0.969E-02   0.586E-03 0.350E-03 -.113E-03
   0.632E+00 -.127E+02 0.180E+01   -.665E+00 0.128E+02 -.179E+01   0.300E-01 -.118E+00 0.340E-04   0.534E-03 0.189E-02 -.223E-03
   0.244E+02 -.572E+02 -.151E+01   -.267E+02 0.564E+02 0.147E+01   0.235E+01 0.807E+00 0.422E-01   0.194E-02 0.503E-02 -.780E-03
   -.460E+02 0.515E+02 -.903E+00   0.443E+02 -.532E+02 0.888E+00   0.176E+01 0.176E+01 0.191E-01   0.364E-02 -.906E-03 -.384E-03
   -.135E+02 0.888E+01 0.111E+01   0.137E+02 -.901E+01 -.110E+01   -.133E+00 0.129E+00 -.156E-02   0.128E-02 -.109E-03 -.133E-03
   -.439E+01 -.117E+01 0.204E+01   0.441E+01 0.118E+01 -.204E+01   -.237E-01 -.490E-02 0.410E-02   0.639E-03 0.655E-03 -.104E-03
   0.691E+01 -.990E+01 -.861E+00   -.689E+01 0.990E+01 0.858E+00   -.179E-01 -.140E-01 0.622E-02   -.406E-03 0.109E-02 -.174E-03
   -.153E+02 -.533E+02 -.366E+01   0.177E+02 0.526E+02 0.367E+01   -.237E+01 0.715E+00 -.522E-02   -.114E-02 0.417E-02 -.688E-03
   -.597E+02 0.195E+02 -.213E+01   0.603E+02 -.171E+02 0.214E+01   -.618E+00 -.232E+01 -.818E-02   0.187E-02 -.177E-02 -.297E-03
   -.715E+01 0.138E+02 -.274E+00   0.718E+01 -.138E+02 0.279E+00   -.327E-01 0.343E-01 -.137E-02   0.314E-03 -.274E-03 -.114E-03
   0.397E+01 0.395E+01 -.176E+01   -.409E+01 -.404E+01 0.176E+01   0.125E+00 0.928E-01 0.322E-02   -.567E-03 0.175E-04 -.110E-03
   0.234E+02 -.860E+01 -.286E+01   -.241E+02 0.867E+01 0.283E+01   0.708E+00 -.763E-01 0.281E-01   -.157E-02 0.125E-02 -.295E-03
   0.310E+01 0.288E+02 -.135E+01   -.336E+01 -.296E+02 0.134E+01   0.266E+00 0.752E+00 0.126E-01   0.599E-04 -.102E-02 -.154E-03
   0.345E+01 0.127E+02 -.867E+00   -.347E+01 -.127E+02 0.866E+00   0.256E-01 0.292E-01 0.489E-02   -.479E-03 -.661E-03 -.911E-04
   0.111E+02 -.203E+01 -.284E+01   -.111E+02 0.199E+01 0.284E+01   0.598E-02 0.353E-01 -.377E-02   -.117E-02 0.193E-03 -.113E-03
   0.236E+02 -.162E+02 -.375E+01   -.240E+02 0.168E+02 0.374E+01   0.435E+00 -.568E+00 0.923E-02   -.286E-02 -.279E-03 -.310E-03
   0.419E+02 0.404E+02 -.699E+01   -.402E+02 -.419E+02 0.696E+01   -.173E+01 0.157E+01 0.335E-01   -.599E-02 -.788E-03 -.929E-03
   0.652E+02 0.332E+02 -.799E+01   -.630E+02 -.316E+02 0.792E+01   -.221E+01 -.156E+01 0.732E-01   -.549E-02 -.403E-02 -.116E-02
   0.644E+02 0.195E+02 -.526E+01   -.649E+02 -.174E+02 0.521E+01   0.564E+00 -.214E+01 0.495E-01   -.226E-02 -.419E-02 -.546E-03
   -.121E+01 0.328E+02 -.193E+01   0.147E+01 -.336E+02 0.192E+01   -.261E+00 0.802E+00 0.648E-02   -.131E-02 -.159E-02 -.174E-03
   0.109E+01 0.749E+01 0.599E+00   -.107E+01 -.768E+01 -.610E+00   -.244E-01 0.184E+00 0.149E-01   -.555E-03 0.149E-03 -.986E-04
   0.400E+00 0.703E+00 0.284E+00   -.385E+00 -.710E+00 -.290E+00   -.155E-01 0.261E-02 0.975E-02   -.610E-03 -.286E-03 -.854E-04
   0.547E+01 -.265E+01 -.643E+00   -.558E+01 0.275E+01 0.638E+00   0.112E+00 -.952E-01 0.849E-02   -.428E-03 -.528E-03 -.116E-03
   0.162E+02 0.665E+00 -.131E+01   -.163E+02 -.658E+00 0.130E+01   0.690E-01 -.502E-02 0.134E-01   -.127E-02 0.456E-03 -.199E-03
   0.160E+02 0.823E+01 -.314E+00   -.160E+02 -.836E+01 0.312E+00   0.290E-01 0.139E+00 0.516E-02   -.265E-02 -.657E-03 -.275E-03
   0.173E+02 0.921E+01 -.127E+00   -.175E+02 -.913E+01 0.136E+00   0.193E+00 -.663E-01 -.607E-02   -.151E-02 -.203E-02 -.239E-03
   0.108E+02 0.152E+02 0.449E+00   -.109E+02 -.153E+02 -.458E+00   0.537E-01 0.104E+00 0.119E-01   0.142E-03 -.107E-02 -.154E-03
   0.160E+01 -.217E+03 -.103E+02   -.117E+01 0.251E+03 0.107E+02   -.427E+00 -.346E+02 -.478E+00   -.323E-03 0.105E-01 -.175E-02
   -.203E+03 0.119E+03 -.532E+01   0.234E+03 -.137E+03 0.559E+01   -.308E+02 0.173E+02 -.264E+00   0.570E-02 -.400E-02 -.685E-03
   0.204E+03 0.830E+02 -.203E+02   -.234E+03 -.977E+02 0.209E+02   0.297E+02 0.147E+02 -.561E+00   -.144E-01 -.448E-02 -.272E-02
   0.199E+03 0.136E+03 -.181E+02   -.228E+03 -.155E+03 0.188E+02   0.296E+02 0.192E+02 -.720E+00   -.736E-02 -.103E-01 -.176E-02
   -.173E+03 -.134E+03 -.133E+02   0.201E+03 0.153E+03 0.136E+02   -.274E+02 -.182E+02 -.348E+00   0.112E-01 0.102E-01 -.258E-02
   -.216E+03 -.104E+03 -.106E+02   0.248E+03 0.120E+03 0.110E+02   -.314E+02 -.160E+02 -.370E+00   0.126E-01 0.120E-02 -.167E-02
   0.187E+03 -.110E+03 -.128E+02   -.217E+03 0.127E+03 0.131E+02   0.301E+02 -.169E+02 -.293E+00   -.895E-02 0.551E-02 -.180E-02
   -.175E+01 0.236E+03 -.863E+01   0.129E+01 -.271E+03 0.888E+01   0.457E+00 0.354E+02 -.251E+00   0.641E-03 -.693E-02 -.701E-03
   0.266E+02 0.429E+02 -.164E+02   -.307E+02 -.494E+02 0.190E+02   0.419E+01 0.654E+01 -.257E+01   0.624E-02 0.978E-02 -.383E-02
   -.510E+02 0.347E+01 -.191E+02   0.587E+02 -.375E+01 0.218E+02   -.771E+01 0.282E+00 -.278E+01   -.115E-01 0.449E-03 -.413E-02
   0.411E+02 -.778E+02 0.150E+03   -.586E+02 0.112E+03 -.175E+03   0.175E+02 -.339E+02 0.249E+02   0.137E-02 -.275E-02 0.505E-02
 -----------------------------------------------------------------------------------------------
   -.133E+02 0.252E+02 -.169E+02   -.675E-12 0.369E-12 0.000E+00   0.133E+02 -.253E+02 0.172E+02   -.100E-01 0.185E-01 -.373E-01
 
 
 POSITION                                       TOTAL-FORCE (eV/Angst)
 -----------------------------------------------------------------------------------
     17.25095      0.02799      7.53912         0.000214      0.002622      0.000592
     16.00839      2.15612      7.53948         0.000182      0.006288      0.001108
     14.76986      4.29533      7.54157         0.003547      0.005795      0.001574
     13.53687      6.43831      7.54686         0.001588      0.000915      0.001309
     12.31420      8.57905      7.55081        -0.001681     -0.000541      0.002062
     -6.16865     10.72241      7.54351         0.000446     -0.004549      0.001924
     -7.40570     12.86315      7.53868         0.003157     -0.001546      0.001109
      2.45794      0.05386      7.52663         0.002134      0.002215      0.002382
      1.21623      2.18716      7.53166        -0.002951      0.004472      0.000947
     -0.03108      4.29792      7.53422         0.000437      0.003931      0.002302
     -1.26356      6.43362      7.53793         0.001629      0.000663      0.001460
     -2.46906      8.56934      7.54095         0.000114      0.000039      0.002014
     -3.69502     10.71159      7.53648        -0.000407     -0.002254      0.002316
     -4.93603     12.86148      7.52812         0.003092     -0.001378      0.003220
      4.92515      0.04703      7.53041         0.000811      0.002369      0.002380
      3.68547      2.21162      7.53399         0.000552      0.002593      0.001848
      2.43068      4.41499      7.54412        -0.001080      0.001428      0.003043
      1.19957      6.43649      7.54782        -0.000681      0.000549      0.002327
      0.06971      8.50549      7.54766        -0.000697      0.000004      0.001389
     -1.21226     10.69590      7.54100        -0.000437     -0.003506      0.002130
     -2.46790     12.85189      7.53380         0.000615     -0.002079      0.003288
      7.39245      0.03807      7.54780         0.001094      0.005753      0.001675
      6.14287      2.20437      7.55122         0.002537      0.006394      0.001040
      0.00769     12.82983      7.55036         0.000243      0.000790      0.000719
      9.85383      0.01881      7.56165        -0.000334      0.003796     -0.000109
      8.60672      2.17961      7.56627         0.000814      0.003506      0.000381
      7.36969      4.38932      7.57708        -0.000043     -0.000375      0.001323
      2.51349     12.80040      7.57066        -0.000241      0.000764      0.000232
     12.31739      0.00151      7.56416        -0.002523      0.003693     -0.000209
     11.07525      2.16382      7.56574        -0.002325      0.003181     -0.000108
      9.82419      4.32082      7.57455        -0.001531     -0.000051      0.000363
      8.53385      6.42931      7.58595        -0.000332      0.000635      0.001312
      4.86035     12.78424      7.57998        -0.001411     -0.000518      0.000219
     14.77719      0.00542      7.55645        -0.001798      0.001511      0.000397
     13.53870      2.15313      7.55377        -0.002787      0.007644      0.000657
     12.29891      4.30097      7.55981        -0.001172      0.001373      0.001025
     11.05905      6.44834      7.56620        -0.001201      0.001920      0.001260
      9.82872      8.58947      7.56907        -0.002054     -0.004483      0.000124
      8.63709     10.72616      7.56334         0.000190     -0.008001     -0.000879
      7.38149     12.82720      7.56030        -0.002323     -0.001312      0.000065
     -0.01796      1.45837      7.53527        -0.000235     -0.002972      0.001010
     -1.26807      3.57920      7.53621        -0.004168     -0.006427      0.002279
     -2.50452      5.72133      7.54019        -0.005893     -0.001937      0.000076
     -3.71741      7.86527      7.54520        -0.000975      0.000797      0.001999
     -4.93937     10.00586      7.54275        -0.001367      0.003152      0.001850
     -6.17222     12.14811      7.53488        -0.007263      0.003840      0.002639
     -7.41134     14.28617      7.53327        -0.003627     -0.001051      0.001899
      2.45536      1.48034      7.52857         0.000200     -0.002670      0.002143
      1.21654      3.61666      7.53492         0.001299     -0.002658      0.002487
     -0.03984      5.71591      7.53750        -0.000235      0.000444      0.002133
     -1.23100      7.85482      7.54021        -0.000524      0.002111      0.001537
     -2.46079      9.99616      7.53878        -0.000044      0.002277      0.002109
     -3.70062     12.14304      7.53070        -0.000906      0.003077      0.002816
     -4.94064     14.29064      7.52579        -0.002226      0.000925      0.003239
      4.91566      1.48612      7.53690        -0.002860     -0.002943      0.001250
      3.73512      3.65803      7.54631        -0.001672     -0.001173      0.002550
      0.06654     10.01676      7.54906        -0.000340      0.001789      0.001018
     -1.22651     12.12409      7.54118        -0.001079      0.003156      0.001507
     -2.47746     14.28117      7.53593        -0.001983     -0.000133      0.002715
      7.37862      1.47041      7.55555        -0.002284     -0.009069      0.000685
      6.08371      3.64660      7.56380        -0.002115     -0.000447      0.001646
      1.22661     12.05752      7.56031        -0.000959      0.000774      0.000488
     -0.01014     14.26684      7.55341        -0.001544     -0.001700      0.000742
      9.84009      1.45117      7.56542         0.001664     -0.003060      0.001005
      8.58891      3.61697      7.57276         0.000386      0.000840      0.000363
      2.45412     14.24226      7.56510         0.000902     -0.000819     -0.000435
     12.30816      1.44053      7.56126         0.000218     -0.007219      0.000689
     11.06561      3.59299      7.56929         0.000699      0.000118      0.000582
      9.81051      5.74901      7.57696        -0.000188      0.000991      0.000755
      8.53078      7.93739      7.58653        -0.000928      0.000945      0.001519
      7.39359     10.01228      7.58747        -0.000251      0.002688      0.000631
      6.16748     12.02582      7.58169         0.001843      0.004546      0.000475
      4.91110     14.23148      7.56669         0.004476      0.000254     -0.001223
     14.77471      1.43188      7.54865         0.000950     -0.003295      0.000690
     13.53384      3.58230      7.55103        -0.001139     -0.003724      0.001050
     12.29298      5.73224      7.55758        -0.000351      0.000423      0.001207
     11.06637      7.87462      7.56183         0.002800      0.000168      0.002163
      9.86108     10.01033      7.55758        -0.000298      0.010888      0.000551
      8.62801     12.14444      7.55396        -0.000052      0.005469      0.000143
      7.38151     14.25616      7.55046         0.000070      0.000151      0.000327
      4.90719      4.31577      7.56438         0.001914      0.000244      0.002373
      1.21937     10.70526      7.56015        -0.000848     -0.000250      0.000801
      7.38214      8.63457      7.59951         0.000584     -0.000175      0.001488
      6.19834     10.68522      7.60082        -0.000455     -0.002202      0.000735
      2.39914      5.75864      7.55317        -0.000362      0.000021      0.003085
      1.21524      7.80787      7.55637        -0.000584      0.001118      0.001810
      7.37798      5.74287      7.58914         0.000012      0.001248      0.001841
      3.68776     12.13011      7.58226        -0.000256      0.001006      0.000343
      4.03551      7.06559      7.29764         0.012397     -0.031694     -0.003767
      5.42330      7.79627      7.32132         0.016831     -0.000898     -0.003623
      4.51036      7.85863      6.97668         0.005379     -0.011192     -0.106608
 -----------------------------------------------------------------------------------
    total drift:                                0.019443     -0.023315      0.244116


--------------------------------------------------------------------------------------------------------



  FREE ENERGIE OF THE ION-ELECTRON SYSTEM (eV)
  ---------------------------------------------------
  free  energy   TOTEN  =      -820.17841890 eV

  energy  without entropy=     -820.17139998  energy(sigma->0) =     -820.17490944
 


--------------------------------------------------------------------------------------------------------


    POTLOK:  cpu time      1.8318: real time      1.8605


--------------------------------------------------------------------------------------------------------


 NEB: the previous image is higher in energy: T
 NEB: the next image is higher in energy    : T
 NEB: image is at an extrema
 NEB: diff energy (min, max):     0.041976    0.145224

 NEB: Tangent
 ----------------------------------------------
     -0.01075      0.00366     -0.01001
     -0.00938      0.00456     -0.00677
     -0.00875      0.00418     -0.00484
     -0.00940      0.00368     -0.00561
     -0.01158      0.00350     -0.00736
     -0.01127      0.00342     -0.01071
     -0.01120      0.00345     -0.01190
     -0.01068      0.00367     -0.00848
     -0.00968      0.00454     -0.00265
     -0.00793      0.00593      0.00435
     -0.00798      0.00453      0.00572
     -0.01136      0.00383      0.00204
     -0.01120      0.00359     -0.00392
     -0.01094      0.00352     -0.00847
     -0.01034      0.00353     -0.00387
     -0.00980      0.00336      0.00161
     -0.00836      0.00498      0.01716
     -0.00528      0.00992      0.02562
     -0.01092      0.00384      0.02018
     -0.01097      0.00445      0.00668
     -0.01091      0.00389     -0.00135
     -0.01042      0.00391     -0.00203
     -0.01006      0.00371      0.00076
     -0.01112      0.00426      0.00327
     -0.01039      0.00391     -0.00463
     -0.00979      0.00372     -0.00429
     -0.00964      0.00348      0.00462
     -0.01136      0.00400      0.00509
     -0.01025      0.00399     -0.00568
     -0.00980      0.00382     -0.00957
     -0.00955      0.00362     -0.00420
     -0.00949      0.00295      0.00333
     -0.01115      0.00394      0.00215
     -0.01034      0.00398     -0.00655
     -0.00939      0.00402     -0.00962
     -0.00910      0.00354     -0.00908
     -0.00978      0.00339     -0.00659
     -0.01239      0.00289     -0.00615
     -0.01054      0.00397     -0.00802
     -0.01203      0.00284     -0.00661
     -0.00979      0.00414     -0.00734
     -0.00823      0.00490     -0.00295
     -0.00854      0.00425     -0.00211
     -0.01121      0.00376     -0.00420
     -0.01116      0.00342     -0.00778
     -0.01128      0.00341     -0.01153
     -0.01086      0.00362     -0.01093
     -0.01021      0.00374     -0.00357
     -0.00870      0.00518      0.00538
     -0.00570      0.00646      0.01056
     -0.01115      0.00420      0.00851
     -0.01108      0.00389      0.00200
     -0.01083      0.00357     -0.00460
     -0.01066      0.00368     -0.00713
     -0.01002      0.00342     -0.00088
     -0.00935      0.00327      0.01134
     -0.01093      0.00464      0.01531
     -0.01114      0.00415      0.00324
     -0.01041      0.00376     -0.00226
     -0.00994      0.00370     -0.00212
     -0.00961      0.00358      0.00654
     -0.01157      0.00437      0.00900
     -0.01066      0.00408     -0.00125
     -0.00980      0.00381     -0.00707
     -0.00954      0.00360     -0.00207
     -0.01042      0.00412     -0.00254
     -0.00973      0.00406     -0.00986
     -0.00940      0.00379     -0.00819
     -0.00935      0.00360     -0.00304
     -0.01093      0.00146      0.00207
     -0.00988      0.00466      0.00249
     -0.01258      0.00351      0.00068
     -0.01036      0.00407     -0.00386
     -0.00954      0.00427     -0.00835
     -0.00897      0.00406     -0.00934
     -0.00931      0.00357     -0.00781
     -0.01155      0.00323     -0.00730
     -0.01124      0.00323     -0.00988
     -0.01136      0.00358     -0.00994
     -0.01103      0.00335     -0.00821
     -0.00976      0.00330      0.01431
     -0.01129      0.00468      0.01732
     -0.01200      0.00441      0.00998
     -0.01154      0.00132      0.00758
     -0.00458      0.00565      0.03270
     -0.01018      0.00873      0.03386
     -0.00929      0.00301      0.01002
     -0.01136      0.00392      0.00813
      0.45676     -0.51432     -0.19023
      0.19313      0.40388     -0.19728
      0.05813     -0.21419     -0.42833

 NEB: forces: par spring, perp REAL, dneb     0.010102    0.047331    0.000000
 NEB: distance to prev, next image, angle between     1.328792    1.326772  123.844457
 NEB: projections on to tangent (spring, REAL)    -0.010102    0.029709

 stress matrix after NEB project (eV)
    -29.88232      9.80310     -0.00713
      9.80310    -41.46835      0.03158
     -0.00713      0.03158     -0.59055
  FORCES: max atom, RMS     0.019741    0.004748
  FORCE total and by dimension    0.045294    0.016977
  Stress total and by dimension   52.963470   41.468348
 OPT: skip step - force has converged


--------------------------------------------------------------------------------------------------------


  
 reached required accuracy - stopping structural energy minimisation
     LOOP+:  cpu time   1653.1626: real time   1688.6183
    4ORBIT:  cpu time      0.0000: real time      0.0000

 total amount of memory used by VASP MPI-rank0   344413. kBytes
=======================================================================

   base      :      30000. kBytes
   nonlr-proj:       8821. kBytes
   fftplans  :      49947. kBytes
   grid      :      93499. kBytes
   one-center:        559. kBytes
   wavefun   :     161587. kBytes
 
  
  
 General timing and accounting informations for this job:
 ========================================================
  
                  Total CPU time used (sec):     1673.100
                            User time (sec):     1572.001
                          System time (sec):      101.099
                         Elapsed time (sec):     1709.723
  
                   Maximum memory used (kb):      638192.
                   Average memory used (kb):          N/A
  
                          Minor page faults:       150515
                          Major page faults:            1
                 Voluntary context switches:         2245
