<?xml version="1.0" encoding="ISO-8859-1"?>
<modeling>
 <generator>
  <i name="program" type="string">vasp </i>
  <i name="version" type="string">6.4.2  </i>
  <i name="subversion" type="string">20Jul23 (build Aug 26 2025 15:10:52) complex                          parallel </i>
  <i name="platform" type="string">LinuxIFC </i>
  <i name="date" type="string">2025 11 27 </i>
  <i name="time" type="string">11:30:10 </i>
 </generator>
 <incar>
  <i type="int" name="ISTART">     0</i>
  <i type="string" name="ALGO">Normal</i>
  <i type="logical" name="ADDGRID"> T  </i>
  <i type="int" name="ISPIN">     2</i>
  <i type="int" name="IMIX">     4</i>
  <i name="AMIX">      0.20000000</i>
  <i name="BMIX">      0.00010000</i>
  <i name="AMIX_MAG">      0.80000000</i>
  <i name="BMIX_MAG">      0.00010000</i>
  <i type="int" name="ICHARG">     2</i>
  <i type="int" name="NELM">   200</i>
  <i type="int" name="IBRION">     3</i>
  <i name="EDIFF">      0.00000100</i>
  <i name="EDIFFG">     -0.03000000</i>
  <i type="int" name="NSW">   300</i>
  <i type="int" name="ISIF">     2</i>
  <i type="int" name="ISYM">     0</i>
  <i name="ENCUT">    520.00000000</i>
  <i name="POTIM">      0.00000000</i>
  <v name="MAGMOM">      0.00000000      0.00000000      0.00000000      0.00000000      0.00000000      0.00000000      0.00000000      0.00000000      0.00000000      0.00000000      0.00000000      0.00000000      0.00000000      0.00000000      0.00000000      0.00000000      0.00000000      0.00000000      0.00000000      0.00000000
      0.00000000      0.00000000      0.00000000      0.00000000      0.00000000      0.00000000      0.00000000      0.00000000      0.00000000      0.00000000      0.00000000      0.00000000      0.00000000      0.00000000      0.00000000      0.00000000      0.00000000      0.00000000      0.00000000      0.00000000
      0.00000000      0.00000000      0.00000000      0.00000000      0.00000000      0.00000000      0.00000000      0.00000000      0.00000000      0.00000000      0.00000000      0.00000000      0.00000000      0.00000000      0.00000000      0.00000000      0.00000000      0.00000000      0.00000000      0.00000000
      0.00000000      0.00000000      0.00000000      0.00000000      0.00000000      0.00000000      0.00000000      0.00000000      0.00000000      0.00000000      0.00000000      0.00000000      0.00000000      0.00000000      0.00000000      0.00000000      0.00000000      0.00000000      0.00000000      0.00000000
      0.00000000      0.00000000      0.00000000      0.00000000      0.00000000      0.00000000      0.00000000      0.00000000      0.00000000      0.00000000      0.00000000</v>
  <i type="string" name="LREAL">Auto</i>
  <i type="int" name="ISMEAR">     0</i>
  <i name="SIGMA">      0.05000000</i>
  <i type="logical" name="LWAVE"> F  </i>
  <i type="logical" name="LCHARG"> F  </i>
  <i type="logical" name="LASPH"> T  </i>
  <i type="int" name="IVDW">    12</i>
  <i name="SPRING">     -5.00000000</i>
 </incar>
 <primitive_cell>
  <structure name="primitive_cell" >
   <crystal>
    <varray name="basis" >
     <v>      17.27103806       0.00000000       0.00000000 </v>
     <v>      -8.63551903      14.95715771       0.00000000 </v>
     <v>       0.00000000       0.00000000      15.00000000 </v>
    </varray>
    <i name="volume">   3874.88459904 </i>
    <varray name="rec_basis" >
     <v>       0.05790040       0.03342881       0.00000000 </v>
     <v>       0.00000000       0.06685762       0.00000000 </v>
     <v>       0.00000000       0.00000000       0.06666667 </v>
    </varray>
   </crystal>
   <varray name="positions" >
    <v>       0.99977290       0.00187168       0.50260805 </v>
    <v>       0.99896875       0.14415284       0.50263175 </v>
    <v>       0.99876862       0.28717569       0.50277128 </v>
    <v>       0.99901529       0.43045001       0.50312371 </v>
    <v>       0.99978432       0.57357473       0.50338763 </v>
    <v>       0.00127020       0.71687457       0.50290092 </v>
    <v>       0.00120660       0.85999939       0.50257890 </v>
    <v>       0.14411597       0.00360099       0.50177542 </v>
    <v>       0.14353425       0.14622837       0.50211035 </v>
    <v>       0.14187463       0.28734851       0.50228134 </v>
    <v>       0.14190745       0.43013648       0.50252851 </v>
    <v>       0.14350332       0.57292547       0.50273010 </v>
    <v>       0.14413247       0.71615160       0.50243171 </v>
    <v>       0.14414604       0.85988781       0.50187447 </v>
    <v>       0.28674015       0.00314435       0.50202738 </v>
    <v>       0.28732229       0.14786396       0.50226588 </v>
    <v>       0.28832514       0.29517575       0.50294112 </v>
    <v>       0.28461995       0.43032819       0.50318783 </v>
    <v>       0.28836473       0.56865669       0.50317728 </v>
    <v>       0.28736069       0.71510248       0.50273328 </v>
    <v>       0.28673131       0.85924695       0.50225306 </v>
    <v>       0.42929835       0.00254533       0.50318635 </v>
    <v>       0.42936411       0.14737919       0.50341498 </v>
    <v>       0.42933107       0.85777167       0.50335712 </v>
    <v>       0.57116945       0.00125767       0.50411029 </v>
    <v>       0.57119428       0.14572383       0.50441797 </v>
    <v>       0.57343755       0.29345955       0.50513853 </v>
    <v>       0.57343438       0.85580460       0.50471047 </v>
    <v>       0.71323205       0.00010074       0.50427749 </v>
    <v>       0.71359518       0.14466782       0.50438290 </v>
    <v>       0.71326407       0.28887949       0.50497017 </v>
    <v>       0.70903762       0.42984865       0.50572968 </v>
    <v>       0.70877837       0.85472379       0.50533218 </v>
    <v>       0.85578650       0.00036242       0.50376331 </v>
    <v>       0.85587299       0.14395317       0.50358476 </v>
    <v>       0.85588835       0.28755257       0.50398723 </v>
    <v>       0.85588399       0.43112061       0.50441330 </v>
    <v>       0.85622222       0.57427132       0.50460477 </v>
    <v>       0.85865360       0.71712566       0.50422290 </v>
    <v>       0.85618943       0.85759630       0.50401991 </v>
    <v>       0.04771197       0.09750336       0.50235118 </v>
    <v>       0.04622655       0.23929649       0.50241380 </v>
    <v>       0.04624466       0.38251451       0.50267912 </v>
    <v>       0.04768684       0.52585327       0.50301332 </v>
    <v>       0.04849211       0.66896773       0.50285000 </v>
    <v>       0.04872267       0.81219358       0.50232512 </v>
    <v>       0.04845027       0.95513936       0.50221829 </v>
    <v>       0.19165229       0.09897213       0.50190491 </v>
    <v>       0.19133874       0.24180100       0.50232772 </v>
    <v>       0.18876944       0.38215192       0.50249976 </v>
    <v>       0.19130211       0.52515455       0.50268085 </v>
    <v>       0.19167867       0.66831921       0.50258549 </v>
    <v>       0.19166038       0.81185499       0.50204700 </v>
    <v>       0.19165434       0.95543840       0.50171939 </v>
    <v>       0.33429798       0.09935877       0.50245978 </v>
    <v>       0.33854835       0.24456727       0.50308743 </v>
    <v>       0.33870120       0.66969664       0.50327060 </v>
    <v>       0.33427846       0.81058789       0.50274502 </v>
    <v>       0.33395634       0.95480478       0.50239502 </v>
    <v>       0.47637940       0.09830827       0.50370311 </v>
    <v>       0.47415101       0.24380324       0.50425340 </v>
    <v>       0.47408963       0.80613730       0.50402070 </v>
    <v>       0.47633645       0.95384685       0.50356045 </v>
    <v>       0.61825618       0.09702203       0.50436150 </v>
    <v>       0.61821227       0.24182174       0.50485042 </v>
    <v>       0.61819621       0.95220378       0.50433993 </v>
    <v>       0.76080256       0.09631008       0.50408395 </v>
    <v>       0.76081276       0.24021874       0.50461922 </v>
    <v>       0.76021472       0.38436486       0.50513073 </v>
    <v>       0.75927300       0.53067489       0.50576883 </v>
    <v>       0.76279042       0.66939699       0.50583139 </v>
    <v>       0.75910841       0.80401794       0.50544596 </v>
    <v>       0.76009639       0.95148303       0.50444607 </v>
    <v>       0.90332776       0.09573185       0.50324315 </v>
    <v>       0.90336671       0.23950397       0.50340231 </v>
    <v>       0.90339053       0.38324386       0.50383888 </v>
    <v>       0.90398660       0.52647814       0.50412218 </v>
    <v>       0.90559399       0.66926668       0.50383874 </v>
    <v>       0.90553957       0.81194864       0.50359767 </v>
    <v>       0.90395895       0.95313301       0.50336400 </v>
    <v>       0.42839911       0.28854221       0.50429212 </v>
    <v>       0.42846591       0.71572817       0.50401027 </v>
    <v>       0.71607254       0.57728698       0.50663397 </v>
    <v>       0.71608059       0.71438811       0.50672106 </v>
    <v>       0.33141576       0.38500870       0.50354487 </v>
    <v>       0.33137059       0.52201570       0.50375792 </v>
    <v>       0.61916547       0.38395490       0.50594275 </v>
    <v>       0.61901831       0.81099057       0.50548367 </v>
    <v>       0.46985173       0.47238828       0.48650908 </v>
    <v>       0.57463124       0.52124001       0.48808830 </v>
    <v>       0.52385637       0.52540922       0.46511203 </v>
   </varray>
  </structure>
  <varray name="primitive_index" >
   <v type="int" >        1 </v>
   <v type="int" >        2 </v>
   <v type="int" >        3 </v>
   <v type="int" >        4 </v>
   <v type="int" >        5 </v>
   <v type="int" >        6 </v>
   <v type="int" >        7 </v>
   <v type="int" >        8 </v>
   <v type="int" >        9 </v>
   <v type="int" >       10 </v>
   <v type="int" >       11 </v>
   <v type="int" >       12 </v>
   <v type="int" >       13 </v>
   <v type="int" >       14 </v>
   <v type="int" >       15 </v>
   <v type="int" >       16 </v>
   <v type="int" >       17 </v>
   <v type="int" >       18 </v>
   <v type="int" >       19 </v>
   <v type="int" >       20 </v>
   <v type="int" >       21 </v>
   <v type="int" >       22 </v>
   <v type="int" >       23 </v>
   <v type="int" >       24 </v>
   <v type="int" >       25 </v>
   <v type="int" >       26 </v>
   <v type="int" >       27 </v>
   <v type="int" >       28 </v>
   <v type="int" >       29 </v>
   <v type="int" >       30 </v>
   <v type="int" >       31 </v>
   <v type="int" >       32 </v>
   <v type="int" >       33 </v>
   <v type="int" >       34 </v>
   <v type="int" >       35 </v>
   <v type="int" >       36 </v>
   <v type="int" >       37 </v>
   <v type="int" >       38 </v>
   <v type="int" >       39 </v>
   <v type="int" >       40 </v>
   <v type="int" >       41 </v>
   <v type="int" >       42 </v>
   <v type="int" >       43 </v>
   <v type="int" >       44 </v>
   <v type="int" >       45 </v>
   <v type="int" >       46 </v>
   <v type="int" >       47 </v>
   <v type="int" >       48 </v>
   <v type="int" >       49 </v>
   <v type="int" >       50 </v>
   <v type="int" >       51 </v>
   <v type="int" >       52 </v>
   <v type="int" >       53 </v>
   <v type="int" >       54 </v>
   <v type="int" >       55 </v>
   <v type="int" >       56 </v>
   <v type="int" >       57 </v>
   <v type="int" >       58 </v>
   <v type="int" >       59 </v>
   <v type="int" >       60 </v>
   <v type="int" >       61 </v>
   <v type="int" >       62 </v>
   <v type="int" >       63 </v>
   <v type="int" >       64 </v>
   <v type="int" >       65 </v>
   <v type="int" >       66 </v>
   <v type="int" >       67 </v>
   <v type="int" >       68 </v>
   <v type="int" >       69 </v>
   <v type="int" >       70 </v>
   <v type="int" >       71 </v>
   <v type="int" >       72 </v>
   <v type="int" >       73 </v>
   <v type="int" >       74 </v>
   <v type="int" >       75 </v>
   <v type="int" >       76 </v>
   <v type="int" >       77 </v>
   <v type="int" >       78 </v>
   <v type="int" >       79 </v>
   <v type="int" >       80 </v>
   <v type="int" >       81 </v>
   <v type="int" >       82 </v>
   <v type="int" >       83 </v>
   <v type="int" >       84 </v>
   <v type="int" >       85 </v>
   <v type="int" >       86 </v>
   <v type="int" >       87 </v>
   <v type="int" >       88 </v>
   <v type="int" >       89 </v>
   <v type="int" >       90 </v>
   <v type="int" >       91 </v>
  </varray>
 </primitive_cell>
 <kpoints>
  <generation param="Gamma">
   <v type="int" name="divisions">       2        2        1 </v>
   <v name="usershift">      0.00000000       0.00000000       0.00000000 </v>
   <v name="genvec1">      0.50000000       0.00000000       0.00000000 </v>
   <v name="genvec2">      0.00000000       0.50000000       0.00000000 </v>
   <v name="genvec3">      0.00000000       0.00000000       1.00000000 </v>
   <v name="shift">      0.00000000       0.00000000       0.00000000 </v>
  </generation>
  <varray name="kpointlist" >
   <v>       0.00000000       0.00000000       0.00000000 </v>
   <v>       0.50000000       0.00000000       0.00000000 </v>
   <v>       0.00000000       0.50000000       0.00000000 </v>
   <v>       0.50000000       0.50000000       0.00000000 </v>
  </varray>
  <varray name="weights" >
   <v>       0.25000000 </v>
   <v>       0.25000000 </v>
   <v>       0.25000000 </v>
   <v>       0.25000000 </v>
  </varray>
 </kpoints>
 <parameters>
  <separator name="general" >
   <i type="string" name="SYSTEM">unknown system</i>
   <i type="logical" name="LCOMPAT"> F  </i>
  </separator>
  <separator name="electronic" >
   <i type="string" name="PREC">normal</i>
   <i name="ENMAX">    520.00000000</i>
   <i name="ENAUG">    644.87300000</i>
   <i name="EDIFF">      0.00000100</i>
   <i type="int" name="IALGO">    38</i>
   <i type="int" name="IWAVPR">    11</i>
   <i type="int" name="NBANDS">   240</i>
   <i type="int" name="NBANDSLOW">    -1</i>
   <i type="int" name="NBANDSHIGH">    -1</i>
   <i name="NELECT">    368.00000000</i>
   <i type="int" name="TURBO">     0</i>
   <i type="int" name="IRESTART">     0</i>
   <i type="int" name="NREBOOT">     0</i>
   <i type="int" name="NMIN">     0</i>
   <i name="EREF">      0.00000000</i>
   <separator name="electronic smearing" >
    <i type="int" name="ISMEAR">     0</i>
    <i name="SIGMA">      0.05000000</i>
    <i name="KSPACING">      0.50000000</i>
    <i type="logical" name="KGAMMA"> T  </i>
    <i type="logical" name="KBLOWUP"> T  </i>
   </separator>
   <separator name="electronic projectors" >
    <i type="logical" name="LREAL"> T  </i>
    <v name="ROPT">     -0.00050000     -0.00050000     -0.00050000     -0.00050000</v>
    <i type="int" name="LMAXPAW">  -100</i>
    <i type="int" name="LMAXMIX">     2</i>
    <i type="logical" name="NLSPLINE"> F  </i>
   </separator>
   <separator name="electronic startup" >
    <i type="int" name="ISTART">     0</i>
    <i type="int" name="ICHARG">     2</i>
    <i type="int" name="INIWAV">     1</i>
   </separator>
   <separator name="electronic spin" >
    <i type="int" name="ISPIN">     2</i>
    <i type="logical" name="LNONCOLLINEAR"> F  </i>
    <v name="MAGMOM">      0.00000000      0.00000000      0.00000000      0.00000000      0.00000000      0.00000000      0.00000000      0.00000000      0.00000000      0.00000000      0.00000000      0.00000000      0.00000000      0.00000000      0.00000000      0.00000000      0.00000000      0.00000000      0.00000000      0.00000000
      0.00000000      0.00000000      0.00000000      0.00000000      0.00000000      0.00000000      0.00000000      0.00000000      0.00000000      0.00000000      0.00000000      0.00000000      0.00000000      0.00000000      0.00000000      0.00000000      0.00000000      0.00000000      0.00000000      0.00000000
      0.00000000      0.00000000      0.00000000      0.00000000      0.00000000      0.00000000      0.00000000      0.00000000      0.00000000      0.00000000      0.00000000      0.00000000      0.00000000      0.00000000      0.00000000      0.00000000      0.00000000      0.00000000      0.00000000      0.00000000
      0.00000000      0.00000000      0.00000000      0.00000000      0.00000000      0.00000000      0.00000000      0.00000000      0.00000000      0.00000000      0.00000000      0.00000000      0.00000000      0.00000000      0.00000000      0.00000000      0.00000000      0.00000000      0.00000000      0.00000000
      0.00000000      0.00000000      0.00000000      0.00000000      0.00000000      0.00000000      0.00000000      0.00000000      0.00000000      0.00000000      0.00000000</v>
    <i name="NUPDOWN">     -1.00000000</i>
    <i type="logical" name="LSORBIT"> F  </i>
    <v name="SAXIS">      0.00000000      0.00000000      1.00000000</v>
    <i type="logical" name="LSPIRAL"> F  </i>
    <v name="QSPIRAL">      0.00000000      0.00000000      0.00000000</v>
    <i type="logical" name="LZEROZ"> F  </i>
   </separator>
   <separator name="electronic exchange-correlation" >
    <i type="logical" name="LASPH"> T  </i>
    <i type="logical" name="LMETAGGA"> F  </i>
   </separator>
   <separator name="electronic convergence" >
    <i type="int" name="NELM">   200</i>
    <i type="int" name="NELMDL">    -5</i>
    <i type="int" name="NELMIN">     2</i>
    <i name="ENINI">    520.00000000</i>
    <separator name="electronic convergence detail" >
     <i type="logical" name="LDIAG"> T  </i>
     <i type="logical" name="LSUBROT"> F  </i>
     <i name="WEIMIN">      0.00100000</i>
     <i name="EBREAK">      0.00000000</i>
     <i name="DEPER">      0.30000000</i>
     <i type="int" name="NRMM">     4</i>
     <i name="TIME">      0.40000000</i>
    </separator>
   </separator>
   <separator name="electronic mixer" >
    <i name="AMIX">      0.20000000</i>
    <i name="BMIX">      0.00010000</i>
    <i name="AMIN">      0.10000000</i>
    <i name="AMIX_MAG">      0.80000000</i>
    <i name="BMIX_MAG">      0.00010000</i>
    <separator name="electronic mixer details" >
     <i type="int" name="IMIX">     4</i>
     <i type="logical" name="MIXFIRST"> F  </i>
     <i type="int" name="MAXMIX">   -45</i>
     <i name="WC">    100.00000000</i>
     <i type="int" name="INIMIX">     1</i>
     <i type="int" name="MIXPRE">     1</i>
     <i type="int" name="MREMOVE">     5</i>
    </separator>
   </separator>
   <separator name="electronic dipolcorrection" >
    <i type="logical" name="LDIPOL"> F  </i>
    <i type="logical" name="LMONO"> F  </i>
    <i type="int" name="IDIPOL">     0</i>
    <i name="EPSILON">      1.00000000</i>
    <v name="DIPOL">   -100.00000000   -100.00000000   -100.00000000</v>
    <i name="EFIELD">      0.00000000</i>
   </separator>
  </separator>
  <separator name="grids" >
   <i type="int" name="NGX">    96</i>
   <i type="int" name="NGY">    96</i>
   <i type="int" name="NGZ">    84</i>
   <i type="int" name="NGXF">   192</i>
   <i type="int" name="NGYF">   192</i>
   <i type="int" name="NGZF">   168</i>
   <i type="logical" name="ADDGRID"> T  </i>
  </separator>
  <separator name="ionic" >
   <i type="int" name="NSW">   300</i>
   <i type="int" name="IBRION">     3</i>
   <i type="int" name="MDALGO">     0</i>
   <i type="int" name="ISIF">     2</i>
   <i name="PSTRESS">      0.00000000</i>
   <i name="EDIFFG">     -0.03000000</i>
   <i type="int" name="NFREE">     0</i>
   <i name="POTIM">      0.00000000</i>
   <i name="SMASS">     -3.00000000</i>
   <i name="SCALEE">      1.00000000</i>
  </separator>
  <separator name="ionic md" >
   <i name="TEBEG">      0.00010000</i>
   <i name="TEEND">      0.00010000</i>
   <i type="int" name="NBLOCK">     1</i>
   <i type="int" name="KBLOCK">   300</i>
   <i type="int" name="NPACO">   256</i>
   <i name="APACO">     10.00000000</i>
  </separator>
  <separator name="symmetry" >
   <i type="int" name="ISYM">     0</i>
   <i name="SYMPREC">      0.00001000</i>
  </separator>
  <separator name="dos" >
   <i type="int" name="LORBIT">     0</i>
   <v name="RWIGS">     -1.00000000     -1.00000000     -1.00000000     -1.00000000</v>
   <i type="int" name="NEDOS">   301</i>
   <i name="EMIN">     10.00000000</i>
   <i name="EMAX">    -10.00000000</i>
   <i name="EFERMI">      0.00000000</i>
  </separator>
  <separator name="writing" >
   <i type="int" name="NWRITE">     2</i>
   <i type="logical" name="LWAVE"> F  </i>
   <i type="logical" name="LDOWNSAMPLE"> F  </i>
   <i type="logical" name="LCHARG"> F  </i>
   <i type="logical" name="LPARD"> F  </i>
   <i type="logical" name="LVTOT"> F  </i>
   <i type="logical" name="LVHAR"> F  </i>
   <i type="logical" name="LELF"> F  </i>
   <i type="logical" name="LOPTICS"> F  </i>
   <v name="STM">      0.00000000      0.00000000      0.00000000      0.00000000      0.00000000      0.00000000      0.00000000</v>
  </separator>
  <separator name="performance" >
   <i type="int" name="NPAR">    20</i>
   <i type="int" name="NSIM">     4</i>
   <i type="int" name="NBLK">    -1</i>
   <i type="logical" name="LPLANE"> T  </i>
   <i type="logical" name="LSCALAPACK"> T  </i>
   <i type="logical" name="LSCAAWARE"> F  </i>
   <i type="logical" name="LSCALU"> F  </i>
   <i type="logical" name="LASYNC"> F  </i>
   <i type="logical" name="LORBITALREAL"> F  </i>
  </separator>
  <separator name="miscellaneous" >
   <i type="int" name="IDIOT">     3</i>
   <i type="int" name="PHON_NSTRUCT">    -1</i>
   <i type="logical" name="LMUSIC"> F  </i>
   <v name="POMASS">     12.01100000     14.00100000      1.00000000     16.00000000</v>
   <v name="DARWINR">      0.00000000      0.00000000      0.00000000      0.00000000</v>
   <v name="DARWINV">      1.00000000      1.00000000      1.00000000      1.00000000</v>
   <i type="logical" name="LCORR"> T  </i>
  </separator>
  <i type="logical" name="GGA_COMPAT"> T  </i>
  <i type="logical" name="LBERRY"> F  </i>
  <i type="int" name="ICORELEVEL">     0</i>
  <i type="logical" name="LDAU"> F  </i>
  <i type="int" name="I_CONSTRAINED_M">     0</i>
  <separator name="electronic exchange-correlation" >
   <i type="string" name="GGA">--</i>
   <i type="int" name="VOSKOWN">     0</i>
   <i type="logical" name="LHFCALC"> F  </i>
   <i type="string" name="PRECFOCK"></i>
   <i type="logical" name="LSYMGRAD"> F  </i>
   <i type="logical" name="LHFONE"> F  </i>
   <i type="logical" name="LRHFCALC"> F  </i>
   <i type="logical" name="LTHOMAS"> F  </i>
   <i type="logical" name="LMODELHF"> F  </i>
   <i type="logical" name="LFOCKACE"> F  </i>
   <i name="ENCUT4O">     -1.00000000</i>
   <i type="int" name="EXXOEP">     0</i>
   <i type="int" name="FOURORBIT">     0</i>
   <i name="AEXX">      0.00000000</i>
   <i name="HFALPHA">      0.00000000</i>
   <i name="MCALPHA">      0.00000000</i>
   <i name="ALDAX">      1.00000000</i>
   <i name="AGGAX">      1.00000000</i>
   <i name="ALDAC">      1.00000000</i>
   <i name="AGGAC">      1.00000000</i>
   <i type="int" name="NKREDX">     1</i>
   <i type="int" name="NKREDY">     1</i>
   <i type="int" name="NKREDZ">     1</i>
   <i type="logical" name="SHIFTRED"> F  </i>
   <i type="logical" name="ODDONLY"> F  </i>
   <i type="logical" name="EVENONLY"> F  </i>
   <i type="int" name="LMAXFOCK">     0</i>
   <i type="int" name="NMAXFOCKAE">     0</i>
   <i type="logical" name="LFOCKAEDFT"> F  </i>
   <i name="HFSCREEN">      0.00000000</i>
   <i name="HFSCREENC">      0.00000000</i>
   <i type="int" name="NBANDSGWLOW">     0</i>
  </separator>
  <separator name="vdW DFT" >
   <i type="logical" name="LUSE_VDW"> F  </i>
   <i type="int" name="IVDW_NL">     1</i>
   <i type="logical" name="LSPIN_VDW"> F  </i>
   <i name="Zab_VDW">     -0.84910000</i>
   <i name="PARAM1">      0.12340000</i>
   <i name="PARAM2">      1.00000000</i>
   <i name="PARAM3">      0.00000000</i>
  </separator>
  <separator name="model GW" >
   <i type="int" name="MODEL_GW">     0</i>
   <i name="MODEL_EPS0">     25.54868966</i>
   <i name="MODEL_ALPHA">      1.00000000</i>
  </separator>
  <separator name="linear response parameters" >
   <i type="logical" name="LEPSILON"> F  </i>
   <i type="logical" name="LRPA"> F  </i>
   <i type="logical" name="LNABLA"> F  </i>
   <i type="logical" name="LVEL"> F  </i>
   <i name="CSHIFT">      0.10000000</i>
   <i name="OMEGAMAX">     -1.00000000</i>
   <i name="DEG_THRESHOLD">      0.00200000</i>
   <i name="RTIME">     -0.10000000</i>
   <i name="WPLASMAI">      0.00000000</i>
   <v name="DFIELD">      0.00000000      0.00000000      0.00000000</v>
   <v name="WPLASMA">      0.00000000      0.00000000      0.00000000      0.00000000      0.00000000      0.00000000      0.00000000      0.00000000      0.00000000</v>
  </separator>
  <separator name="orbital magnetization" >
   <i type="logical" name="NUCIND"> F  </i>
   <v name="MAGPOS">      0.00000000      0.00000000      0.00000000</v>
   <i type="logical" name="LNICSALL"> T  </i>
   <i type="logical" name="ORBITALMAG"> F  </i>
   <i type="logical" name="LMAGBLOCH"> F  </i>
   <i type="logical" name="LCHIMAG"> F  </i>
   <i type="logical" name="LGAUGE"> T  </i>
   <i type="int" name="MAGATOM">     0</i>
   <v name="MAGDIPOL">      0.00000000      0.00000000      0.00000000</v>
   <v name="AVECCONST">      0.00000000      0.00000000      0.00000000</v>
  </separator>
  <separator name="response functions" >
   <i type="logical" name="LALL_IN_ONE"> F  </i>
   <i type="int" name="IALL_IN_ONE">    -1</i>
   <i type="int" name="NBANDS_WAVE">    -1</i>
   <i type="logical" name="LFINITE_TEMPERATURE"> F  </i>
   <i type="logical" name="LADDER"> F  </i>
   <i type="logical" name="LRPAFORCE"> F  </i>
   <i type="logical" name="LFXC"> F  </i>
   <i type="logical" name="LHARTREE"> T  </i>
   <i type="int" name="IBSE">     0</i>
   <v type="int" name="KPOINT">    -1     0     0     0</v>
   <i type="logical" name="LTCTC"> F  </i>
   <i type="logical" name="LTCTE"> F  </i>
   <i type="logical" name="LTETE"> F  </i>
   <i type="logical" name="LTRIPLET"> F  </i>
   <i type="logical" name="LFXCEPS"> F  </i>
   <i type="logical" name="LFXHEG"> F  </i>
   <i type="int" name="NATURALO">     2</i>
   <i type="logical" name="LHOLEGF"> F  </i>
   <i type="logical" name="L2ORDER"> F  </i>
   <i type="logical" name="LDMP1"> F  </i>
   <i type="logical" name="LMP2LT"> F  </i>
   <i type="logical" name="LSMP2LT"> F  </i>
   <i type="logical" name="LGWLF"> F  </i>
   <i name="ENCUTGW">     -1.60000002</i>
   <i name="ENCUTGWSOFT">     -1.60000002</i>
   <i name="ENCUTLF">     -1.00000000</i>
   <i type="logical" name="LESF_SPLINES"> F  </i>
   <i type="int" name="LMAXMP2">    -1</i>
   <i name="SCISSOR">      0.00000000</i>
   <i type="int" name="NOMEGA">     0</i>
   <i type="int" name="NOMEGAR">     0</i>
   <i type="int" name="NBANDSGW">    -1</i>
   <i type="int" name="NBANDSO">    -1</i>
   <i type="int" name="NBANDSV">    -1</i>
   <i type="int" name="NELMGW">     1</i>
   <i type="int" name="NELMHF">     1</i>
   <i type="int" name="DIM">     3</i>
   <i type="int" name="IESPILON">     4</i>
   <i type="int" name="ANTIRES">     0</i>
   <i name="OMEGAMAX">    -30.00000000</i>
   <i name="OMEGAMIN">    -30.00000000</i>
   <i name="OMEGATL">   -200.00000000</i>
   <i type="int" name="OMEGAGRID">     0</i>
   <i name="CSHIFT">     -0.10000000</i>
   <i type="logical" name="LSELFENERGY"> F  </i>
   <i type="logical" name="LSPECTRAL"> F  </i>
   <i type="logical" name="LSPECTRALGW"> F  </i>
   <i type="logical" name="LSINGLES"> F  </i>
   <i type="logical" name="LFERMIGW"> F  </i>
   <i type="logical" name="ODDONLYGW"> F  </i>
   <i type="logical" name="EVENONLYGW"> F  </i>
   <i type="int" name="NKREDLFX">     1</i>
   <i type="int" name="NKREDLFY">     1</i>
   <i type="int" name="NKREDLFZ">     1</i>
   <i type="int" name="MAXMEM">  2800</i>
   <i type="int" name="TELESCOPE">     0</i>
   <i type="int" name="NTAUPAR">    -1</i>
   <i type="int" name="NOMEGAPAR">    -1</i>
   <i name="DAMP_NEWTON">      0.80000001</i>
   <i name="LAMBDA">      1.00000000</i>
  </separator>
  <separator name="External order field" >
   <i name="OFIELD_KAPPA">      0.00000000</i>
   <v name="OFIELD_K">      0.00000000      0.00000000      0.00000000</v>
   <i name="OFIELD_Q6_NEAR">      0.00000000</i>
   <i name="OFIELD_Q6_FAR">      0.00000000</i>
   <i name="OFIELD_A">      0.00000000</i>
  </separator>
  <separator name="optional k-points parameters" >
   <i type="int" name="KPOINTS_OPT_MODE">     1</i>
   <i type="logical" name="LKPOINTS_OPT"> F  </i>
  </separator>
 </parameters>
 <atominfo>
  <atoms>      91 </atoms>
  <types>       4 </types>
  <array name="atoms" >
   <dimension dim="1">ion</dimension>
   <field type="string">element</field>
   <field type="int">atomtype</field>
   <set>
    <rc><c>C </c><c>   1</c></rc>
    <rc><c>C </c><c>   1</c></rc>
    <rc><c>C </c><c>   1</c></rc>
    <rc><c>C </c><c>   1</c></rc>
    <rc><c>C </c><c>   1</c></rc>
    <rc><c>C </c><c>   1</c></rc>
    <rc><c>C </c><c>   1</c></rc>
    <rc><c>C </c><c>   1</c></rc>
    <rc><c>C </c><c>   1</c></rc>
    <rc><c>C </c><c>   1</c></rc>
    <rc><c>C </c><c>   1</c></rc>
    <rc><c>C </c><c>   1</c></rc>
    <rc><c>C </c><c>   1</c></rc>
    <rc><c>C </c><c>   1</c></rc>
    <rc><c>C </c><c>   1</c></rc>
    <rc><c>C </c><c>   1</c></rc>
    <rc><c>C </c><c>   1</c></rc>
    <rc><c>C </c><c>   1</c></rc>
    <rc><c>C </c><c>   1</c></rc>
    <rc><c>C </c><c>   1</c></rc>
    <rc><c>C </c><c>   1</c></rc>
    <rc><c>C </c><c>   1</c></rc>
    <rc><c>C </c><c>   1</c></rc>
    <rc><c>C </c><c>   1</c></rc>
    <rc><c>C </c><c>   1</c></rc>
    <rc><c>C </c><c>   1</c></rc>
    <rc><c>C </c><c>   1</c></rc>
    <rc><c>C </c><c>   1</c></rc>
    <rc><c>C </c><c>   1</c></rc>
    <rc><c>C </c><c>   1</c></rc>
    <rc><c>C </c><c>   1</c></rc>
    <rc><c>C </c><c>   1</c></rc>
    <rc><c>C </c><c>   1</c></rc>
    <rc><c>C </c><c>   1</c></rc>
    <rc><c>C </c><c>   1</c></rc>
    <rc><c>C </c><c>   1</c></rc>
    <rc><c>C </c><c>   1</c></rc>
    <rc><c>C </c><c>   1</c></rc>
    <rc><c>C </c><c>   1</c></rc>
    <rc><c>C </c><c>   1</c></rc>
    <rc><c>C </c><c>   1</c></rc>
    <rc><c>C </c><c>   1</c></rc>
    <rc><c>C </c><c>   1</c></rc>
    <rc><c>C </c><c>   1</c></rc>
    <rc><c>C </c><c>   1</c></rc>
    <rc><c>C </c><c>   1</c></rc>
    <rc><c>C </c><c>   1</c></rc>
    <rc><c>C </c><c>   1</c></rc>
    <rc><c>C </c><c>   1</c></rc>
    <rc><c>C </c><c>   1</c></rc>
    <rc><c>C </c><c>   1</c></rc>
    <rc><c>C </c><c>   1</c></rc>
    <rc><c>C </c><c>   1</c></rc>
    <rc><c>C </c><c>   1</c></rc>
    <rc><c>C </c><c>   1</c></rc>
    <rc><c>C </c><c>   1</c></rc>
    <rc><c>C </c><c>   1</c></rc>
    <rc><c>C </c><c>   1</c></rc>
    <rc><c>C </c><c>   1</c></rc>
    <rc><c>C </c><c>   1</c></rc>
    <rc><c>C </c><c>   1</c></rc>
    <rc><c>C </c><c>   1</c></rc>
    <rc><c>C </c><c>   1</c></rc>
    <rc><c>C </c><c>   1</c></rc>
    <rc><c>C </c><c>   1</c></rc>
    <rc><c>C </c><c>   1</c></rc>
    <rc><c>C </c><c>   1</c></rc>
    <rc><c>C </c><c>   1</c></rc>
    <rc><c>C </c><c>   1</c></rc>
    <rc><c>C </c><c>   1</c></rc>
    <rc><c>C </c><c>   1</c></rc>
    <rc><c>C </c><c>   1</c></rc>
    <rc><c>C </c><c>   1</c></rc>
    <rc><c>C </c><c>   1</c></rc>
    <rc><c>C </c><c>   1</c></rc>
    <rc><c>C </c><c>   1</c></rc>
    <rc><c>C </c><c>   1</c></rc>
    <rc><c>C </c><c>   1</c></rc>
    <rc><c>C </c><c>   1</c></rc>
    <rc><c>C </c><c>   1</c></rc>
    <rc><c>N </c><c>   2</c></rc>
    <rc><c>N </c><c>   2</c></rc>
    <rc><c>N </c><c>   2</c></rc>
    <rc><c>N </c><c>   2</c></rc>
    <rc><c>N </c><c>   2</c></rc>
    <rc><c>N </c><c>   2</c></rc>
    <rc><c>N </c><c>   2</c></rc>
    <rc><c>N </c><c>   2</c></rc>
    <rc><c>H </c><c>   3</c></rc>
    <rc><c>H </c><c>   3</c></rc>
    <rc><c>O </c><c>   4</c></rc>
   </set>
  </array>
  <array name="atomtypes" >
   <dimension dim="1">type</dimension>
   <field type="int">atomspertype</field>
   <field type="string">element</field>
   <field>mass</field>
   <field>valence</field>
   <field type="string">pseudopotential</field>
   <set>
    <rc><c>  80</c><c>C </c><c>     12.01100000</c><c>      4.00000000</c><c>  PAW_PBE C 08Apr2002                   </c></rc>
    <rc><c>   8</c><c>N </c><c>     14.00100000</c><c>      5.00000000</c><c>  PAW_PBE N 08Apr2002                   </c></rc>
    <rc><c>   2</c><c>H </c><c>      1.00000000</c><c>      1.00000000</c><c>  PAW_PBE H 15Jun2001                   </c></rc>
    <rc><c>   1</c><c>O </c><c>     16.00000000</c><c>      6.00000000</c><c>  PAW_PBE O 08Apr2002                   </c></rc>
   </set>
  </array>
 </atominfo>
 <structure name="initialpos" >
  <crystal>
   <varray name="basis" >
    <v>      17.27103806       0.00000000       0.00000000 </v>
    <v>      -8.63551903      14.95715771       0.00000000 </v>
    <v>       0.00000000       0.00000000      15.00000000 </v>
   </varray>
   <i name="volume">   3874.88459904 </i>
   <varray name="rec_basis" >
    <v>       0.05790040       0.03342881       0.00000000 </v>
    <v>       0.00000000       0.06685762       0.00000000 </v>
    <v>       0.00000000       0.00000000       0.06666667 </v>
   </varray>
  </crystal>
  <varray name="positions" >
   <v>       0.99977290       0.00187168       0.50260805 </v>
   <v>       0.99896875       0.14415284       0.50263175 </v>
   <v>       0.99876862       0.28717569       0.50277128 </v>
   <v>       0.99901529       0.43045001       0.50312371 </v>
   <v>       0.99978432       0.57357473       0.50338763 </v>
   <v>       0.00127020       0.71687457       0.50290092 </v>
   <v>       0.00120660       0.85999939       0.50257890 </v>
   <v>       0.14411597       0.00360099       0.50177542 </v>
   <v>       0.14353425       0.14622837       0.50211035 </v>
   <v>       0.14187463       0.28734851       0.50228134 </v>
   <v>       0.14190745       0.43013648       0.50252851 </v>
   <v>       0.14350332       0.57292547       0.50273010 </v>
   <v>       0.14413247       0.71615160       0.50243171 </v>
   <v>       0.14414604       0.85988781       0.50187447 </v>
   <v>       0.28674015       0.00314435       0.50202738 </v>
   <v>       0.28732229       0.14786396       0.50226588 </v>
   <v>       0.28832514       0.29517575       0.50294112 </v>
   <v>       0.28461995       0.43032819       0.50318783 </v>
   <v>       0.28836473       0.56865669       0.50317728 </v>
   <v>       0.28736069       0.71510248       0.50273328 </v>
   <v>       0.28673131       0.85924695       0.50225306 </v>
   <v>       0.42929835       0.00254533       0.50318635 </v>
   <v>       0.42936411       0.14737919       0.50341498 </v>
   <v>       0.42933107       0.85777167       0.50335712 </v>
   <v>       0.57116945       0.00125767       0.50411029 </v>
   <v>       0.57119428       0.14572383       0.50441797 </v>
   <v>       0.57343755       0.29345955       0.50513853 </v>
   <v>       0.57343438       0.85580460       0.50471047 </v>
   <v>       0.71323205       0.00010074       0.50427749 </v>
   <v>       0.71359518       0.14466782       0.50438290 </v>
   <v>       0.71326407       0.28887949       0.50497017 </v>
   <v>       0.70903762       0.42984865       0.50572968 </v>
   <v>       0.70877837       0.85472379       0.50533218 </v>
   <v>       0.85578650       0.00036242       0.50376331 </v>
   <v>       0.85587299       0.14395317       0.50358476 </v>
   <v>       0.85588835       0.28755257       0.50398723 </v>
   <v>       0.85588399       0.43112061       0.50441330 </v>
   <v>       0.85622222       0.57427132       0.50460477 </v>
   <v>       0.85865360       0.71712566       0.50422290 </v>
   <v>       0.85618943       0.85759630       0.50401991 </v>
   <v>       0.04771197       0.09750336       0.50235118 </v>
   <v>       0.04622655       0.23929649       0.50241380 </v>
   <v>       0.04624466       0.38251451       0.50267912 </v>
   <v>       0.04768684       0.52585327       0.50301332 </v>
   <v>       0.04849211       0.66896773       0.50285000 </v>
   <v>       0.04872267       0.81219358       0.50232512 </v>
   <v>       0.04845027       0.95513936       0.50221829 </v>
   <v>       0.19165229       0.09897213       0.50190491 </v>
   <v>       0.19133874       0.24180100       0.50232772 </v>
   <v>       0.18876944       0.38215192       0.50249976 </v>
   <v>       0.19130211       0.52515455       0.50268085 </v>
   <v>       0.19167867       0.66831921       0.50258549 </v>
   <v>       0.19166038       0.81185499       0.50204700 </v>
   <v>       0.19165434       0.95543840       0.50171939 </v>
   <v>       0.33429798       0.09935877       0.50245978 </v>
   <v>       0.33854835       0.24456727       0.50308743 </v>
   <v>       0.33870120       0.66969664       0.50327060 </v>
   <v>       0.33427846       0.81058789       0.50274502 </v>
   <v>       0.33395634       0.95480478       0.50239502 </v>
   <v>       0.47637940       0.09830827       0.50370311 </v>
   <v>       0.47415101       0.24380324       0.50425340 </v>
   <v>       0.47408963       0.80613730       0.50402070 </v>
   <v>       0.47633645       0.95384685       0.50356045 </v>
   <v>       0.61825618       0.09702203       0.50436150 </v>
   <v>       0.61821227       0.24182174       0.50485042 </v>
   <v>       0.61819621       0.95220378       0.50433993 </v>
   <v>       0.76080256       0.09631008       0.50408395 </v>
   <v>       0.76081276       0.24021874       0.50461922 </v>
   <v>       0.76021472       0.38436486       0.50513073 </v>
   <v>       0.75927300       0.53067489       0.50576883 </v>
   <v>       0.76279042       0.66939699       0.50583139 </v>
   <v>       0.75910841       0.80401794       0.50544596 </v>
   <v>       0.76009639       0.95148303       0.50444607 </v>
   <v>       0.90332776       0.09573185       0.50324315 </v>
   <v>       0.90336671       0.23950397       0.50340231 </v>
   <v>       0.90339053       0.38324386       0.50383888 </v>
   <v>       0.90398660       0.52647814       0.50412218 </v>
   <v>       0.90559399       0.66926668       0.50383874 </v>
   <v>       0.90553957       0.81194864       0.50359767 </v>
   <v>       0.90395895       0.95313301       0.50336400 </v>
   <v>       0.42839911       0.28854221       0.50429212 </v>
   <v>       0.42846591       0.71572817       0.50401027 </v>
   <v>       0.71607254       0.57728698       0.50663397 </v>
   <v>       0.71608059       0.71438811       0.50672106 </v>
   <v>       0.33141576       0.38500870       0.50354487 </v>
   <v>       0.33137059       0.52201570       0.50375792 </v>
   <v>       0.61916547       0.38395490       0.50594275 </v>
   <v>       0.61901831       0.81099057       0.50548367 </v>
   <v>       0.46985173       0.47238828       0.48650908 </v>
   <v>       0.57463124       0.52124001       0.48808830 </v>
   <v>       0.52385637       0.52540922       0.46511203 </v>
  </varray>
  <varray name="selective"  type="logical" >
   <v type="logical" >  T  T  T </v>
   <v type="logical" >  T  T  T </v>
   <v type="logical" >  T  T  T </v>
   <v type="logical" >  T  T  T </v>
   <v type="logical" >  T  T  T </v>
   <v type="logical" >  T  T  T </v>
   <v type="logical" >  T  T  T </v>
   <v type="logical" >  T  T  T </v>
   <v type="logical" >  T  T  T </v>
   <v type="logical" >  T  T  T </v>
   <v type="logical" >  T  T  T </v>
   <v type="logical" >  T  T  T </v>
   <v type="logical" >  T  T  T </v>
   <v type="logical" >  T  T  T </v>
   <v type="logical" >  T  T  T </v>
   <v type="logical" >  T  T  T </v>
   <v type="logical" >  T  T  T </v>
   <v type="logical" >  T  T  T </v>
   <v type="logical" >  T  T  T </v>
   <v type="logical" >  T  T  T </v>
   <v type="logical" >  T  T  T </v>
   <v type="logical" >  T  T  T </v>
   <v type="logical" >  T  T  T </v>
   <v type="logical" >  T  T  T </v>
   <v type="logical" >  T  T  T </v>
   <v type="logical" >  T  T  T </v>
   <v type="logical" >  T  T  T </v>
   <v type="logical" >  T  T  T </v>
   <v type="logical" >  T  T  T </v>
   <v type="logical" >  T  T  T </v>
   <v type="logical" >  T  T  T </v>
   <v type="logical" >  T  T  T </v>
   <v type="logical" >  T  T  T </v>
   <v type="logical" >  T  T  T </v>
   <v type="logical" >  T  T  T </v>
   <v type="logical" >  T  T  T </v>
   <v type="logical" >  T  T  T </v>
   <v type="logical" >  T  T  T </v>
   <v type="logical" >  T  T  T </v>
   <v type="logical" >  T  T  T </v>
   <v type="logical" >  T  T  T </v>
   <v type="logical" >  T  T  T </v>
   <v type="logical" >  T  T  T </v>
   <v type="logical" >  T  T  T </v>
   <v type="logical" >  T  T  T </v>
   <v type="logical" >  T  T  T </v>
   <v type="logical" >  T  T  T </v>
   <v type="logical" >  T  T  T </v>
   <v type="logical" >  T  T  T </v>
   <v type="logical" >  T  T  T </v>
   <v type="logical" >  T  T  T </v>
   <v type="logical" >  T  T  T </v>
   <v type="logical" >  T  T  T </v>
   <v type="logical" >  T  T  T </v>
   <v type="logical" >  T  T  T </v>
   <v type="logical" >  T  T  T </v>
   <v type="logical" >  T  T  T </v>
   <v type="logical" >  T  T  T </v>
   <v type="logical" >  T  T  T </v>
   <v type="logical" >  T  T  T </v>
   <v type="logical" >  T  T  T </v>
   <v type="logical" >  T  T  T </v>
   <v type="logical" >  T  T  T </v>
   <v type="logical" >  T  T  T </v>
   <v type="logical" >  T  T  T </v>
   <v type="logical" >  T  T  T </v>
   <v type="logical" >  T  T  T </v>
   <v type="logical" >  T  T  T </v>
   <v type="logical" >  T  T  T </v>
   <v type="logical" >  T  T  T </v>
   <v type="logical" >  T  T  T </v>
   <v type="logical" >  T  T  T </v>
   <v type="logical" >  T  T  T </v>
   <v type="logical" >  T  T  T </v>
   <v type="logical" >  T  T  T </v>
   <v type="logical" >  T  T  T </v>
   <v type="logical" >  T  T  T </v>
   <v type="logical" >  T  T  T </v>
   <v type="logical" >  T  T  T </v>
   <v type="logical" >  T  T  T </v>
   <v type="logical" >  T  T  T </v>
   <v type="logical" >  T  T  T </v>
   <v type="logical" >  T  T  T </v>
   <v type="logical" >  T  T  T </v>
   <v type="logical" >  T  T  T </v>
   <v type="logical" >  T  T  T </v>
   <v type="logical" >  T  T  T </v>
   <v type="logical" >  T  T  T </v>
   <v type="logical" >  T  T  T </v>
   <v type="logical" >  T  T  T </v>
   <v type="logical" >  T  T  F </v>
  </varray>
  <nose>
   <v>      -3.00000000       0.00000000       0.00010000       0.00010000 </v>
  </nose>
 </structure>
 <calculation>
  <scstep>
   <time name="dav">   32.40   33.05</time>
   <time name="total">   34.03   34.70</time>
   <energy>
    <i name="alphaZ">    175.06488379 </i>
    <i name="ewald">  36485.26666363 </i>
    <i name="hartreedc"> -47309.10194380 </i>
    <i name="XCdc">   1240.58393632 </i>
    <i name="pawpsdc">  10672.04303313 </i>
    <i name="pawaedc"> -10728.93979680 </i>
    <i name="eentropy">     -0.03620584 </i>
    <i name="bandstr">  -1412.95601146 </i>
    <i name="atom">  14345.53195627 </i>
    <i name="e_fr_energy">   3467.45651524 </i>
    <i name="e_wo_entrp">   3467.49272108 </i>
    <i name="e_0_energy">   3467.47461816 </i>
   </energy>
  </scstep>
  <scstep>
   <time name="dav">   43.35   44.25</time>
   <time name="total">   43.35   44.25</time>
   <energy>
    <i name="e_fr_energy">   -173.33722535 </i>
    <i name="e_wo_entrp">   -173.33722505 </i>
    <i name="e_0_energy">   -173.33722520 </i>
   </energy>
  </scstep>
  <scstep>
   <time name="dav">   36.35   37.12</time>
   <time name="total">   36.35   37.13</time>
   <energy>
    <i name="e_fr_energy">   -842.06013867 </i>
    <i name="e_wo_entrp">   -842.06013840 </i>
    <i name="e_0_energy">   -842.06013854 </i>
   </energy>
  </scstep>
  <scstep>
   <time name="dav">   36.12   36.88</time>
   <time name="total">   36.12   36.89</time>
   <energy>
    <i name="e_fr_energy">   -865.69694237 </i>
    <i name="e_wo_entrp">   -865.69694197 </i>
    <i name="e_0_energy">   -865.69694217 </i>
   </energy>
  </scstep>
  <scstep>
   <time name="dav">   41.76   42.61</time>
   <time name="total">   44.52   45.44</time>
   <energy>
    <i name="e_fr_energy">   -866.43677364 </i>
    <i name="e_wo_entrp">   -866.43677323 </i>
    <i name="e_0_energy">   -866.43677343 </i>
   </energy>
  </scstep>
  <scstep>
   <time name="dav">   35.04   35.72</time>
   <time name="total">   39.52   40.29</time>
   <energy>
    <i name="e_fr_energy">   -837.68241239 </i>
    <i name="e_wo_entrp">   -837.68241231 </i>
    <i name="e_0_energy">   -837.68241235 </i>
   </energy>
  </scstep>
  <scstep>
   <time name="dav">   34.85   35.52</time>
   <time name="total">   39.58   40.34</time>
   <energy>
    <i name="e_fr_energy">   -814.50633577 </i>
    <i name="e_wo_entrp">   -814.50391967 </i>
    <i name="e_0_energy">   -814.50512772 </i>
   </energy>
  </scstep>
  <scstep>
   <time name="dav">   35.86   36.56</time>
   <time name="total">   40.48   41.28</time>
   <energy>
    <i name="e_fr_energy">   -813.31888172 </i>
    <i name="e_wo_entrp">   -813.31888157 </i>
    <i name="e_0_energy">   -813.31888165 </i>
   </energy>
  </scstep>
  <scstep>
   <time name="dav">   34.04   34.69</time>
   <time name="total">   38.68   39.42</time>
   <energy>
    <i name="e_fr_energy">   -813.50197966 </i>
    <i name="e_wo_entrp">   -813.50197946 </i>
    <i name="e_0_energy">   -813.50197956 </i>
   </energy>
  </scstep>
  <scstep>
   <time name="dav">   33.62   34.23</time>
   <time name="total">   38.19   38.88</time>
   <energy>
    <i name="e_fr_energy">   -813.38853904 </i>
    <i name="e_wo_entrp">   -813.38853891 </i>
    <i name="e_0_energy">   -813.38853897 </i>
   </energy>
  </scstep>
  <scstep>
   <time name="dav">   32.91   33.64</time>
   <time name="total">   37.54   38.37</time>
   <energy>
    <i name="e_fr_energy">   -813.14818845 </i>
    <i name="e_wo_entrp">   -813.14818832 </i>
    <i name="e_0_energy">   -813.14818838 </i>
   </energy>
  </scstep>
  <scstep>
   <time name="dav">   33.73   34.50</time>
   <time name="total">   38.30   39.18</time>
   <energy>
    <i name="e_fr_energy">   -813.10668127 </i>
    <i name="e_wo_entrp">   -813.10668114 </i>
    <i name="e_0_energy">   -813.10668121 </i>
   </energy>
  </scstep>
  <scstep>
   <time name="dav">   34.88   35.66</time>
   <time name="total">   39.54   40.42</time>
   <energy>
    <i name="e_fr_energy">   -813.04108495 </i>
    <i name="e_wo_entrp">   -813.04108483 </i>
    <i name="e_0_energy">   -813.04108489 </i>
   </energy>
  </scstep>
  <scstep>
   <time name="dav">   33.95   34.71</time>
   <time name="total">   38.62   39.48</time>
   <energy>
    <i name="e_fr_energy">   -813.04302000 </i>
    <i name="e_wo_entrp">   -813.04301988 </i>
    <i name="e_0_energy">   -813.04301994 </i>
   </energy>
  </scstep>
  <scstep>
   <time name="dav">   36.51   37.34</time>
   <time name="total">   41.11   42.05</time>
   <energy>
    <i name="e_fr_energy">   -813.01598994 </i>
    <i name="e_wo_entrp">   -813.01598982 </i>
    <i name="e_0_energy">   -813.01598988 </i>
   </energy>
  </scstep>
  <scstep>
   <time name="dav">   37.30   38.16</time>
   <time name="total">   41.93   42.89</time>
   <energy>
    <i name="e_fr_energy">   -812.92176533 </i>
    <i name="e_wo_entrp">   -812.92176522 </i>
    <i name="e_0_energy">   -812.92176527 </i>
   </energy>
  </scstep>
  <scstep>
   <time name="dav">   37.36   38.21</time>
   <time name="total">   41.82   42.76</time>
   <energy>
    <i name="e_fr_energy">   -812.83581047 </i>
    <i name="e_wo_entrp">   -812.83581036 </i>
    <i name="e_0_energy">   -812.83581041 </i>
   </energy>
  </scstep>
  <scstep>
   <time name="dav">   34.58   35.42</time>
   <time name="total">   39.21   40.16</time>
   <energy>
    <i name="e_fr_energy">   -812.85735462 </i>
    <i name="e_wo_entrp">   -812.82191606 </i>
    <i name="e_0_energy">   -812.83963534 </i>
   </energy>
  </scstep>
  <scstep>
   <time name="dav">   34.98   35.77</time>
   <time name="total">   39.59   40.49</time>
   <energy>
    <i name="e_fr_energy">   -812.80662823 </i>
    <i name="e_wo_entrp">   -812.80662798 </i>
    <i name="e_0_energy">   -812.80662810 </i>
   </energy>
  </scstep>
  <scstep>
   <time name="dav">   32.39   33.13</time>
   <time name="total">   37.01   37.85</time>
   <energy>
    <i name="e_fr_energy">   -812.82374961 </i>
    <i name="e_wo_entrp">   -812.82374946 </i>
    <i name="e_0_energy">   -812.82374953 </i>
   </energy>
  </scstep>
  <scstep>
   <time name="dav">   33.52   34.28</time>
   <time name="total">   38.09   38.94</time>
   <energy>
    <i name="e_fr_energy">   -812.82342536 </i>
    <i name="e_wo_entrp">   -812.82342521 </i>
    <i name="e_0_energy">   -812.82342529 </i>
   </energy>
  </scstep>
  <scstep>
   <time name="dav">   35.62   36.45</time>
   <time name="total">   39.96   40.86</time>
   <energy>
    <i name="e_fr_energy">   -812.81502674 </i>
    <i name="e_wo_entrp">   -812.81502552 </i>
    <i name="e_0_energy">   -812.81502613 </i>
   </energy>
  </scstep>
  <scstep>
   <time name="dav">   37.53   38.44</time>
   <time name="total">   42.34   43.34</time>
   <energy>
    <i name="e_fr_energy">   -812.80924167 </i>
    <i name="e_wo_entrp">   -812.80918307 </i>
    <i name="e_0_energy">   -812.80921237 </i>
   </energy>
  </scstep>
  <scstep>
   <time name="dav">   35.03   35.85</time>
   <time name="total">   39.58   40.49</time>
   <energy>
    <i name="e_fr_energy">   -812.80544164 </i>
    <i name="e_wo_entrp">   -812.80469909 </i>
    <i name="e_0_energy">   -812.80507037 </i>
   </energy>
  </scstep>
  <scstep>
   <time name="dav">   36.44   37.25</time>
   <time name="total">   41.19   42.09</time>
   <energy>
    <i name="e_fr_energy">   -812.80290138 </i>
    <i name="e_wo_entrp">   -812.79829024 </i>
    <i name="e_0_energy">   -812.80059581 </i>
   </energy>
  </scstep>
  <scstep>
   <time name="dav">   34.51   35.25</time>
   <time name="total">   39.28   40.12</time>
   <energy>
    <i name="e_fr_energy">   -812.80702662 </i>
    <i name="e_wo_entrp">   -812.78423235 </i>
    <i name="e_0_energy">   -812.79562948 </i>
   </energy>
  </scstep>
  <scstep>
   <time name="dav">   30.71   31.35</time>
   <time name="total">   35.49   36.24</time>
   <energy>
    <i name="e_fr_energy">   -812.80320604 </i>
    <i name="e_wo_entrp">   -812.78445544 </i>
    <i name="e_0_energy">   -812.79383074 </i>
   </energy>
  </scstep>
  <scstep>
   <time name="dav">   35.37   36.12</time>
   <time name="total">   40.18   41.04</time>
   <energy>
    <i name="e_fr_energy">   -812.80162941 </i>
    <i name="e_wo_entrp">   -812.78857718 </i>
    <i name="e_0_energy">   -812.79510330 </i>
   </energy>
  </scstep>
  <scstep>
   <time name="dav">   32.19   32.89</time>
   <time name="total">   36.95   37.75</time>
   <energy>
    <i name="e_fr_energy">   -812.80161184 </i>
    <i name="e_wo_entrp">   -812.79416324 </i>
    <i name="e_0_energy">   -812.79788754 </i>
   </energy>
  </scstep>
  <scstep>
   <time name="dav">   31.81   32.50</time>
   <time name="total">   36.40   37.18</time>
   <energy>
    <i name="e_fr_energy">   -812.80308324 </i>
    <i name="e_wo_entrp">   -812.78815141 </i>
    <i name="e_0_energy">   -812.79561732 </i>
   </energy>
  </scstep>
  <scstep>
   <time name="dav">   33.35   34.11</time>
   <time name="total">   38.08   38.93</time>
   <energy>
    <i name="e_fr_energy">   -812.80132606 </i>
    <i name="e_wo_entrp">   -812.79291671 </i>
    <i name="e_0_energy">   -812.79712138 </i>
   </energy>
  </scstep>
  <scstep>
   <time name="dav">   30.97   31.63</time>
   <time name="total">   35.74   36.50</time>
   <energy>
    <i name="e_fr_energy">   -812.80203880 </i>
    <i name="e_wo_entrp">   -812.79034036 </i>
    <i name="e_0_energy">   -812.79618958 </i>
   </energy>
  </scstep>
  <scstep>
   <time name="dav">   32.33   33.01</time>
   <time name="total">   37.10   37.88</time>
   <energy>
    <i name="e_fr_energy">   -812.80145861 </i>
    <i name="e_wo_entrp">   -812.79246169 </i>
    <i name="e_0_energy">   -812.79696015 </i>
   </energy>
  </scstep>
  <scstep>
   <time name="dav">   31.35   32.00</time>
   <time name="total">   36.10   36.86</time>
   <energy>
    <i name="e_fr_energy">   -812.80152121 </i>
    <i name="e_wo_entrp">   -812.79373779 </i>
    <i name="e_0_energy">   -812.79762950 </i>
   </energy>
  </scstep>
  <scstep>
   <time name="dav">   32.92   33.68</time>
   <time name="total">   37.65   38.52</time>
   <energy>
    <i name="e_fr_energy">   -812.80171126 </i>
    <i name="e_wo_entrp">   -812.79270251 </i>
    <i name="e_0_energy">   -812.79720688 </i>
   </energy>
  </scstep>
  <scstep>
   <time name="dav">   30.80   31.54</time>
   <time name="total">   35.64   36.49</time>
   <energy>
    <i name="e_fr_energy">   -812.80158045 </i>
    <i name="e_wo_entrp">   -812.79373056 </i>
    <i name="e_0_energy">   -812.79765550 </i>
   </energy>
  </scstep>
  <scstep>
   <time name="dav">   27.81   28.48</time>
   <time name="total">   32.70   33.47</time>
   <energy>
    <i name="e_fr_energy">   -812.80162495 </i>
    <i name="e_wo_entrp">   -812.79402543 </i>
    <i name="e_0_energy">   -812.79782519 </i>
   </energy>
  </scstep>
  <scstep>
   <time name="dav">   26.99   27.60</time>
   <time name="total">   31.92   32.66</time>
   <energy>
    <i name="e_fr_energy">   -812.80164276 </i>
    <i name="e_wo_entrp">   -812.79392984 </i>
    <i name="e_0_energy">   -812.79778630 </i>
   </energy>
  </scstep>
  <scstep>
   <time name="dav">   31.40   32.12</time>
   <time name="total">   36.35   37.20</time>
   <energy>
    <i name="e_fr_energy">   -812.80162835 </i>
    <i name="e_wo_entrp">   -812.79432336 </i>
    <i name="e_0_energy">   -812.79797585 </i>
   </energy>
  </scstep>
  <scstep>
   <time name="dav">   27.06   27.69</time>
   <time name="total">   31.91   32.65</time>
   <energy>
    <i name="e_fr_energy">   -812.80163362 </i>
    <i name="e_wo_entrp">   -812.79446517 </i>
    <i name="e_0_energy">   -812.79804940 </i>
   </energy>
  </scstep>
  <scstep>
   <time name="dav">   24.52   25.08</time>
   <time name="total">   29.51   30.20</time>
   <energy>
    <i name="e_fr_energy">   -812.80163556 </i>
    <i name="e_wo_entrp">   -812.79451324 </i>
    <i name="e_0_energy">   -812.79807440 </i>
   </energy>
  </scstep>
  <scstep>
   <time name="dav">   24.69   25.23</time>
   <time name="total">   26.68   27.27</time>
   <energy>
    <i name="alphaZ">    175.06488379 </i>
    <i name="ewald">  36485.26666363 </i>
    <i name="hartreedc"> -48689.30257051 </i>
    <i name="XCdc">   1292.93145892 </i>
    <i name="pawpsdc">  37066.59286304 </i>
    <i name="pawaedc"> -37134.05992908 </i>
    <i name="eentropy">     -0.00701892 </i>
    <i name="bandstr">  -4354.81994240 </i>
    <i name="atom">  14345.53195627 </i>
    <i name="e_fr_energy">   -812.80163526 </i>
    <i name="e_wo_entrp">   -812.79461634 </i>
    <i name="e_0_energy">   -812.79812580 </i>
   </energy>
  </scstep>
  <structure>
   <crystal>
    <varray name="basis" >
     <v>      17.27103806       0.00000000       0.00000000 </v>
     <v>      -8.63551903      14.95715771       0.00000000 </v>
     <v>       0.00000000       0.00000000      15.00000000 </v>
    </varray>
    <i name="volume">   3874.88459904 </i>
    <varray name="rec_basis" >
     <v>       0.05790040       0.03342881       0.00000000 </v>
     <v>       0.00000000       0.06685762       0.00000000 </v>
     <v>       0.00000000       0.00000000       0.06666667 </v>
    </varray>
   </crystal>
   <varray name="positions" >
    <v>       0.99977290       0.00187168       0.50260805 </v>
    <v>       0.99896875       0.14415284       0.50263175 </v>
    <v>       0.99876862       0.28717569       0.50277128 </v>
    <v>       0.99901529       0.43045001       0.50312371 </v>
    <v>       0.99978432       0.57357473       0.50338763 </v>
    <v>       0.00127020       0.71687457       0.50290092 </v>
    <v>       0.00120660       0.85999939       0.50257890 </v>
    <v>       0.14411597       0.00360099       0.50177542 </v>
    <v>       0.14353425       0.14622837       0.50211035 </v>
    <v>       0.14187463       0.28734851       0.50228134 </v>
    <v>       0.14190745       0.43013648       0.50252851 </v>
    <v>       0.14350332       0.57292547       0.50273010 </v>
    <v>       0.14413247       0.71615160       0.50243171 </v>
    <v>       0.14414604       0.85988781       0.50187447 </v>
    <v>       0.28674015       0.00314435       0.50202738 </v>
    <v>       0.28732229       0.14786396       0.50226588 </v>
    <v>       0.28832514       0.29517575       0.50294112 </v>
    <v>       0.28461995       0.43032819       0.50318783 </v>
    <v>       0.28836473       0.56865669       0.50317728 </v>
    <v>       0.28736069       0.71510248       0.50273328 </v>
    <v>       0.28673131       0.85924695       0.50225306 </v>
    <v>       0.42929835       0.00254533       0.50318635 </v>
    <v>       0.42936411       0.14737919       0.50341498 </v>
    <v>       0.42933107       0.85777167       0.50335712 </v>
    <v>       0.57116945       0.00125767       0.50411029 </v>
    <v>       0.57119428       0.14572383       0.50441797 </v>
    <v>       0.57343755       0.29345955       0.50513853 </v>
    <v>       0.57343438       0.85580460       0.50471047 </v>
    <v>       0.71323205       0.00010074       0.50427749 </v>
    <v>       0.71359518       0.14466782       0.50438290 </v>
    <v>       0.71326407       0.28887949       0.50497017 </v>
    <v>       0.70903762       0.42984865       0.50572968 </v>
    <v>       0.70877837       0.85472379       0.50533218 </v>
    <v>       0.85578650       0.00036242       0.50376331 </v>
    <v>       0.85587299       0.14395317       0.50358476 </v>
    <v>       0.85588835       0.28755257       0.50398723 </v>
    <v>       0.85588399       0.43112061       0.50441330 </v>
    <v>       0.85622222       0.57427132       0.50460477 </v>
    <v>       0.85865360       0.71712566       0.50422290 </v>
    <v>       0.85618943       0.85759630       0.50401991 </v>
    <v>       0.04771197       0.09750336       0.50235118 </v>
    <v>       0.04622655       0.23929649       0.50241380 </v>
    <v>       0.04624466       0.38251451       0.50267912 </v>
    <v>       0.04768684       0.52585327       0.50301332 </v>
    <v>       0.04849211       0.66896773       0.50285000 </v>
    <v>       0.04872267       0.81219358       0.50232512 </v>
    <v>       0.04845027       0.95513936       0.50221829 </v>
    <v>       0.19165229       0.09897213       0.50190491 </v>
    <v>       0.19133874       0.24180100       0.50232772 </v>
    <v>       0.18876944       0.38215192       0.50249976 </v>
    <v>       0.19130211       0.52515455       0.50268085 </v>
    <v>       0.19167867       0.66831921       0.50258549 </v>
    <v>       0.19166038       0.81185499       0.50204700 </v>
    <v>       0.19165434       0.95543840       0.50171939 </v>
    <v>       0.33429798       0.09935877       0.50245978 </v>
    <v>       0.33854835       0.24456727       0.50308743 </v>
    <v>       0.33870120       0.66969664       0.50327060 </v>
    <v>       0.33427846       0.81058789       0.50274502 </v>
    <v>       0.33395634       0.95480478       0.50239502 </v>
    <v>       0.47637940       0.09830827       0.50370311 </v>
    <v>       0.47415101       0.24380324       0.50425340 </v>
    <v>       0.47408963       0.80613730       0.50402070 </v>
    <v>       0.47633645       0.95384685       0.50356045 </v>
    <v>       0.61825618       0.09702203       0.50436150 </v>
    <v>       0.61821227       0.24182174       0.50485042 </v>
    <v>       0.61819621       0.95220378       0.50433993 </v>
    <v>       0.76080256       0.09631008       0.50408395 </v>
    <v>       0.76081276       0.24021874       0.50461922 </v>
    <v>       0.76021472       0.38436486       0.50513073 </v>
    <v>       0.75927300       0.53067489       0.50576883 </v>
    <v>       0.76279042       0.66939699       0.50583139 </v>
    <v>       0.75910841       0.80401794       0.50544596 </v>
    <v>       0.76009639       0.95148303       0.50444607 </v>
    <v>       0.90332776       0.09573185       0.50324315 </v>
    <v>       0.90336671       0.23950397       0.50340231 </v>
    <v>       0.90339053       0.38324386       0.50383888 </v>
    <v>       0.90398660       0.52647814       0.50412218 </v>
    <v>       0.90559399       0.66926668       0.50383874 </v>
    <v>       0.90553957       0.81194864       0.50359767 </v>
    <v>       0.90395895       0.95313301       0.50336400 </v>
    <v>       0.42839911       0.28854221       0.50429212 </v>
    <v>       0.42846591       0.71572817       0.50401027 </v>
    <v>       0.71607254       0.57728698       0.50663397 </v>
    <v>       0.71608059       0.71438811       0.50672106 </v>
    <v>       0.33141576       0.38500870       0.50354487 </v>
    <v>       0.33137059       0.52201570       0.50375792 </v>
    <v>       0.61916547       0.38395490       0.50594275 </v>
    <v>       0.61901831       0.81099057       0.50548367 </v>
    <v>       0.46985173       0.47238828       0.48650908 </v>
    <v>       0.57463124       0.52124001       0.48808830 </v>
    <v>       0.52385637       0.52540922       0.46511203 </v>
   </varray>
  </structure>
  <varray name="forces" >
   <v>       0.00021364       0.00262221       0.00059223 </v>
   <v>       0.00018245       0.00628808       0.00110790 </v>
   <v>       0.00354721       0.00579477       0.00157359 </v>
   <v>       0.00158771       0.00091510       0.00130903 </v>
   <v>      -0.00168127      -0.00054134       0.00206158 </v>
   <v>       0.00044577      -0.00454950       0.00192423 </v>
   <v>       0.00315711      -0.00154644       0.00110905 </v>
   <v>       0.00213373       0.00221534       0.00238238 </v>
   <v>      -0.00295112       0.00447205       0.00094721 </v>
   <v>       0.00043697       0.00393052       0.00230163 </v>
   <v>       0.00162910       0.00066263       0.00146034 </v>
   <v>       0.00011366       0.00003863       0.00201387 </v>
   <v>      -0.00040723      -0.00225371       0.00231648 </v>
   <v>       0.00309231      -0.00137845       0.00322028 </v>
   <v>       0.00081060       0.00236946       0.00238023 </v>
   <v>       0.00055159       0.00259337       0.00184767 </v>
   <v>      -0.00107955       0.00142826       0.00304266 </v>
   <v>      -0.00068068       0.00054927       0.00232730 </v>
   <v>      -0.00069727       0.00000444       0.00138880 </v>
   <v>      -0.00043652      -0.00350627       0.00213035 </v>
   <v>       0.00061506      -0.00207903       0.00328762 </v>
   <v>       0.00109448       0.00575325       0.00167498 </v>
   <v>       0.00253701       0.00639433       0.00103956 </v>
   <v>       0.00024316       0.00078997       0.00071870 </v>
   <v>      -0.00033391       0.00379572      -0.00010868 </v>
   <v>       0.00081384       0.00350583       0.00038091 </v>
   <v>      -0.00004338      -0.00037459       0.00132336 </v>
   <v>      -0.00024117       0.00076366       0.00023205 </v>
   <v>      -0.00252283       0.00369332      -0.00020907 </v>
   <v>      -0.00232488       0.00318067      -0.00010753 </v>
   <v>      -0.00153120      -0.00005113       0.00036287 </v>
   <v>      -0.00033151       0.00063498       0.00131235 </v>
   <v>      -0.00141131      -0.00051820       0.00021868 </v>
   <v>      -0.00179846       0.00151149       0.00039744 </v>
   <v>      -0.00278726       0.00764436       0.00065681 </v>
   <v>      -0.00117162       0.00137341       0.00102531 </v>
   <v>      -0.00120137       0.00192009       0.00126008 </v>
   <v>      -0.00205443      -0.00448349       0.00012379 </v>
   <v>       0.00018955      -0.00800115      -0.00087889 </v>
   <v>      -0.00232322      -0.00131228       0.00006507 </v>
   <v>      -0.00023549      -0.00297223       0.00101033 </v>
   <v>      -0.00416770      -0.00642732       0.00227923 </v>
   <v>      -0.00589305      -0.00193721       0.00007646 </v>
   <v>      -0.00097532       0.00079693       0.00199906 </v>
   <v>      -0.00136722       0.00315240       0.00185003 </v>
   <v>      -0.00726278       0.00383978       0.00263898 </v>
   <v>      -0.00362666      -0.00105052       0.00189865 </v>
   <v>       0.00020048      -0.00267034       0.00214332 </v>
   <v>       0.00129865      -0.00265811       0.00248673 </v>
   <v>      -0.00023479       0.00044361       0.00213314 </v>
   <v>      -0.00052356       0.00211099       0.00153688 </v>
   <v>      -0.00004415       0.00227724       0.00210857 </v>
   <v>      -0.00090628       0.00307667       0.00281602 </v>
   <v>      -0.00222555       0.00092521       0.00323865 </v>
   <v>      -0.00286013      -0.00294317       0.00124994 </v>
   <v>      -0.00167175      -0.00117331       0.00255012 </v>
   <v>      -0.00034033       0.00178926       0.00101838 </v>
   <v>      -0.00107901       0.00315646       0.00150657 </v>
   <v>      -0.00198319      -0.00013258       0.00271476 </v>
   <v>      -0.00228385      -0.00906908       0.00068541 </v>
   <v>      -0.00211539      -0.00044724       0.00164572 </v>
   <v>      -0.00095855       0.00077369       0.00048751 </v>
   <v>      -0.00154431      -0.00169973       0.00074175 </v>
   <v>       0.00166419      -0.00305979       0.00100545 </v>
   <v>       0.00038637       0.00084012       0.00036280 </v>
   <v>       0.00090230      -0.00081948      -0.00043470 </v>
   <v>       0.00021826      -0.00721885       0.00068909 </v>
   <v>       0.00069855       0.00011830       0.00058189 </v>
   <v>      -0.00018769       0.00099079       0.00075485 </v>
   <v>      -0.00092751       0.00094479       0.00151936 </v>
   <v>      -0.00025127       0.00268778       0.00063061 </v>
   <v>       0.00184338       0.00454576       0.00047531 </v>
   <v>       0.00447610       0.00025417      -0.00122259 </v>
   <v>       0.00094982      -0.00329480       0.00069049 </v>
   <v>      -0.00113942      -0.00372444       0.00105035 </v>
   <v>      -0.00035087       0.00042299       0.00120675 </v>
   <v>       0.00279988       0.00016847       0.00216269 </v>
   <v>      -0.00029848       0.01088815       0.00055085 </v>
   <v>      -0.00005194       0.00546914       0.00014336 </v>
   <v>       0.00006967       0.00015133       0.00032740 </v>
   <v>       0.00191386       0.00024415       0.00237286 </v>
   <v>      -0.00084780      -0.00025033       0.00080150 </v>
   <v>       0.00058400      -0.00017508       0.00148798 </v>
   <v>      -0.00045486      -0.00220244       0.00073470 </v>
   <v>      -0.00036196       0.00002131       0.00308503 </v>
   <v>      -0.00058397       0.00111772       0.00180950 </v>
   <v>       0.00001246       0.00124832       0.00184081 </v>
   <v>      -0.00025560       0.00100556       0.00034287 </v>
   <v>       0.01239679      -0.03169428      -0.00376674 </v>
   <v>       0.01683141      -0.00089843      -0.00362319 </v>
   <v>       0.00537948      -0.01119196      -0.10660770 </v>
  </varray>
  <varray name="stress" >
   <v>     -12.35566343       4.05336010      -0.00294752 </v>
   <v>       4.05336040     -17.14622614       0.01305863 </v>
   <v>      -0.00294756       0.01305864      -0.24418003 </v>
  </varray>
  <energy>
   <i name="e_fr_energy">   -820.17841890 </i>
   <i name="e_wo_entrp">   -820.17139998 </i>
   <i name="e_0_energy">   -820.17490944 </i>
  </energy>
  <time name="totalsc"> 1653.16 1688.62</time>
  <eigenvalues>
   <array>
    <dimension dim="1">band</dimension>
    <dimension dim="2">kpoint</dimension>
    <dimension dim="3">spin</dimension>
    <field>eigene</field>
    <field>occ</field>
    <set>
     <set comment="spin 1">
      <set comment="kpoint 1">
       <r>  -22.8402    1.0000 </r>
       <r>  -22.7545    1.0000 </r>
       <r>  -22.5741    1.0000 </r>
       <r>  -22.4438    1.0000 </r>
       <r>  -22.2314    1.0000 </r>
       <r>  -22.0862    1.0000 </r>
       <r>  -21.9546    1.0000 </r>
       <r>  -21.6066    1.0000 </r>
       <r>  -21.5634    1.0000 </r>
       <r>  -21.4752    1.0000 </r>
       <r>  -21.4178    1.0000 </r>
       <r>  -21.1595    1.0000 </r>
       <r>  -21.0593    1.0000 </r>
       <r>  -20.9234    1.0000 </r>
       <r>  -20.8855    1.0000 </r>
       <r>  -20.6763    1.0000 </r>
       <r>  -20.5601    1.0000 </r>
       <r>  -20.4341    1.0000 </r>
       <r>  -20.2558    1.0000 </r>
       <r>  -20.1218    1.0000 </r>
       <r>  -20.0726    1.0000 </r>
       <r>  -19.6313    1.0000 </r>
       <r>  -19.5964    1.0000 </r>
       <r>  -19.0966    1.0000 </r>
       <r>  -18.9782    1.0000 </r>
       <r>  -18.9510    1.0000 </r>
       <r>  -18.9404    1.0000 </r>
       <r>  -18.9331    1.0000 </r>
       <r>  -18.8646    1.0000 </r>
       <r>  -18.7154    1.0000 </r>
       <r>  -18.5551    1.0000 </r>
       <r>  -18.3471    1.0000 </r>
       <r>  -18.2006    1.0000 </r>
       <r>  -18.1785    1.0000 </r>
       <r>  -17.9425    1.0000 </r>
       <r>  -17.7645    1.0000 </r>
       <r>  -17.4054    1.0000 </r>
       <r>  -17.1928    1.0000 </r>
       <r>  -17.0730    1.0000 </r>
       <r>  -17.0509    1.0000 </r>
       <r>  -16.9230    1.0000 </r>
       <r>  -16.8712    1.0000 </r>
       <r>  -16.7991    1.0000 </r>
       <r>  -16.7815    1.0000 </r>
       <r>  -16.7748    1.0000 </r>
       <r>  -16.1942    1.0000 </r>
       <r>  -16.0411    1.0000 </r>
       <r>  -15.8042    1.0000 </r>
       <r>  -15.5550    1.0000 </r>
       <r>  -15.4971    1.0000 </r>
       <r>  -15.4290    1.0000 </r>
       <r>  -15.1553    1.0000 </r>
       <r>  -15.1237    1.0000 </r>
       <r>  -14.9878    1.0000 </r>
       <r>  -14.9585    1.0000 </r>
       <r>  -14.8819    1.0000 </r>
       <r>  -14.8035    1.0000 </r>
       <r>  -14.6899    1.0000 </r>
       <r>  -14.5608    1.0000 </r>
       <r>  -14.2417    1.0000 </r>
       <r>  -13.9949    1.0000 </r>
       <r>  -13.7702    1.0000 </r>
       <r>  -13.6033    1.0000 </r>
       <r>  -13.3271    1.0000 </r>
       <r>  -13.2769    1.0000 </r>
       <r>  -13.1525    1.0000 </r>
       <r>  -13.0729    1.0000 </r>
       <r>  -13.0302    1.0000 </r>
       <r>  -12.9305    1.0000 </r>
       <r>  -12.9203    1.0000 </r>
       <r>  -12.8075    1.0000 </r>
       <r>  -12.7040    1.0000 </r>
       <r>  -12.7004    1.0000 </r>
       <r>  -12.6654    1.0000 </r>
       <r>  -12.5896    1.0000 </r>
       <r>  -12.2169    1.0000 </r>
       <r>  -12.1674    1.0000 </r>
       <r>  -11.8746    1.0000 </r>
       <r>  -11.6843    1.0000 </r>
       <r>  -11.6776    1.0000 </r>
       <r>  -11.6072    1.0000 </r>
       <r>  -11.4749    1.0000 </r>
       <r>  -10.9485    1.0000 </r>
       <r>  -10.9010    1.0000 </r>
       <r>  -10.7829    1.0000 </r>
       <r>  -10.7353    1.0000 </r>
       <r>  -10.6115    1.0000 </r>
       <r>  -10.6109    1.0000 </r>
       <r>  -10.4495    1.0000 </r>
       <r>  -10.4111    1.0000 </r>
       <r>  -10.3907    1.0000 </r>
       <r>  -10.3858    1.0000 </r>
       <r>  -10.3260    1.0000 </r>
       <r>  -10.2804    1.0000 </r>
       <r>  -10.1730    1.0000 </r>
       <r>  -10.1366    1.0000 </r>
       <r>  -10.0868    1.0000 </r>
       <r>  -10.0319    1.0000 </r>
       <r>  -10.0043    1.0000 </r>
       <r>   -9.9548    1.0000 </r>
       <r>   -9.9318    1.0000 </r>
       <r>   -9.9077    1.0000 </r>
       <r>   -9.8660    1.0000 </r>
       <r>   -9.8258    1.0000 </r>
       <r>   -9.8069    1.0000 </r>
       <r>   -9.7870    1.0000 </r>
       <r>   -9.7699    1.0000 </r>
       <r>   -9.6763    1.0000 </r>
       <r>   -9.6511    1.0000 </r>
       <r>   -9.6248    1.0000 </r>
       <r>   -9.2681    1.0000 </r>
       <r>   -9.2076    1.0000 </r>
       <r>   -9.2041    1.0000 </r>
       <r>   -9.1786    1.0000 </r>
       <r>   -9.1641    1.0000 </r>
       <r>   -8.9687    1.0000 </r>
       <r>   -8.9458    1.0000 </r>
       <r>   -8.8216    1.0000 </r>
       <r>   -8.7523    1.0000 </r>
       <r>   -8.7306    1.0000 </r>
       <r>   -8.7164    1.0000 </r>
       <r>   -8.6389    1.0000 </r>
       <r>   -8.6282    1.0000 </r>
       <r>   -8.6228    1.0000 </r>
       <r>   -8.5558    1.0000 </r>
       <r>   -8.5065    1.0000 </r>
       <r>   -8.4956    1.0000 </r>
       <r>   -8.4719    1.0000 </r>
       <r>   -8.3910    1.0000 </r>
       <r>   -8.3839    1.0000 </r>
       <r>   -8.3336    1.0000 </r>
       <r>   -8.2931    1.0000 </r>
       <r>   -8.2716    1.0000 </r>
       <r>   -8.1167    1.0000 </r>
       <r>   -8.0761    1.0000 </r>
       <r>   -7.9573    1.0000 </r>
       <r>   -7.9374    1.0000 </r>
       <r>   -7.9258    1.0000 </r>
       <r>   -7.7521    1.0000 </r>
       <r>   -7.7205    1.0000 </r>
       <r>   -7.5617    1.0000 </r>
       <r>   -7.5023    1.0000 </r>
       <r>   -7.3021    1.0000 </r>
       <r>   -7.1505    1.0000 </r>
       <r>   -7.0994    1.0000 </r>
       <r>   -6.9946    1.0000 </r>
       <r>   -6.9763    1.0000 </r>
       <r>   -6.8342    1.0000 </r>
       <r>   -6.7643    1.0000 </r>
       <r>   -6.7119    1.0000 </r>
       <r>   -6.6043    1.0000 </r>
       <r>   -6.5812    1.0000 </r>
       <r>   -6.5298    1.0000 </r>
       <r>   -6.5081    1.0000 </r>
       <r>   -6.3738    1.0000 </r>
       <r>   -6.2976    1.0000 </r>
       <r>   -6.2824    1.0000 </r>
       <r>   -6.2818    1.0000 </r>
       <r>   -6.2409    1.0000 </r>
       <r>   -5.9629    1.0000 </r>
       <r>   -5.8591    1.0000 </r>
       <r>   -5.8346    1.0000 </r>
       <r>   -5.6835    1.0000 </r>
       <r>   -5.4186    1.0000 </r>
       <r>   -5.3805    1.0000 </r>
       <r>   -5.1749    1.0000 </r>
       <r>   -4.8298    1.0000 </r>
       <r>   -4.7820    1.0000 </r>
       <r>   -4.7402    1.0000 </r>
       <r>   -4.7151    1.0000 </r>
       <r>   -4.6436    1.0000 </r>
       <r>   -4.5487    1.0000 </r>
       <r>   -4.5387    1.0000 </r>
       <r>   -4.5218    1.0000 </r>
       <r>   -4.4758    1.0000 </r>
       <r>   -4.4159    1.0000 </r>
       <r>   -4.3990    1.0000 </r>
       <r>   -4.3653    1.0000 </r>
       <r>   -4.3249    1.0000 </r>
       <r>   -4.1469    1.0000 </r>
       <r>   -4.1223    1.0000 </r>
       <r>   -4.0907    1.0000 </r>
       <r>   -4.0795    1.0000 </r>
       <r>   -3.0630    0.9776 </r>
       <r>   -2.5212    0.0000 </r>
       <r>   -1.8907    0.0000 </r>
       <r>   -1.7982    0.0000 </r>
       <r>   -1.4489    0.0000 </r>
       <r>   -1.3637    0.0000 </r>
       <r>   -1.3364    0.0000 </r>
       <r>   -1.3198    0.0000 </r>
       <r>   -1.2632    0.0000 </r>
       <r>   -1.2558    0.0000 </r>
       <r>   -1.0003    0.0000 </r>
       <r>   -0.8776    0.0000 </r>
       <r>   -0.6872    0.0000 </r>
       <r>   -0.5355    0.0000 </r>
       <r>   -0.3626    0.0000 </r>
       <r>   -0.2398    0.0000 </r>
       <r>    0.1759    0.0000 </r>
       <r>    0.2592    0.0000 </r>
       <r>    0.3699    0.0000 </r>
       <r>    0.6618    0.0000 </r>
       <r>    0.6873    0.0000 </r>
       <r>    0.9038    0.0000 </r>
       <r>    1.0044    0.0000 </r>
       <r>    1.0249    0.0000 </r>
       <r>    1.0968    0.0000 </r>
       <r>    1.1241    0.0000 </r>
       <r>    1.1358    0.0000 </r>
       <r>    1.1686    0.0000 </r>
       <r>    1.2070    0.0000 </r>
       <r>    1.2653    0.0000 </r>
       <r>    1.2745    0.0000 </r>
       <r>    1.4519    0.0000 </r>
       <r>    1.5319    0.0000 </r>
       <r>    1.6243    0.0000 </r>
       <r>    1.9387    0.0000 </r>
       <r>    1.9702    0.0000 </r>
       <r>    2.1615    0.0000 </r>
       <r>    2.2052    0.0000 </r>
       <r>    2.2157    0.0000 </r>
       <r>    2.2250    0.0000 </r>
       <r>    2.3763    0.0000 </r>
       <r>    2.4277    0.0000 </r>
       <r>    2.5074    0.0000 </r>
       <r>    2.6540    0.0000 </r>
       <r>    2.6640    0.0000 </r>
       <r>    2.6966    0.0000 </r>
       <r>    2.7027    0.0000 </r>
       <r>    2.7273    0.0000 </r>
       <r>    2.7661    0.0000 </r>
       <r>    2.7731    0.0000 </r>
       <r>    2.8122    0.0000 </r>
       <r>    2.8132    0.0000 </r>
       <r>    2.8220    0.0000 </r>
       <r>    2.8736    0.0000 </r>
       <r>    2.9193    0.0000 </r>
       <r>    2.9515    0.0000 </r>
       <r>    2.9734    0.0000 </r>
      </set>
      <set comment="kpoint 2">
       <r>  -22.8181    1.0000 </r>
       <r>  -22.7779    1.0000 </r>
       <r>  -22.5821    1.0000 </r>
       <r>  -22.4641    1.0000 </r>
       <r>  -22.1919    1.0000 </r>
       <r>  -22.0797    1.0000 </r>
       <r>  -21.8487    1.0000 </r>
       <r>  -21.7398    1.0000 </r>
       <r>  -21.7031    1.0000 </r>
       <r>  -21.3735    1.0000 </r>
       <r>  -21.2796    1.0000 </r>
       <r>  -21.2107    1.0000 </r>
       <r>  -21.1226    1.0000 </r>
       <r>  -20.9311    1.0000 </r>
       <r>  -20.8630    1.0000 </r>
       <r>  -20.8112    1.0000 </r>
       <r>  -20.5154    1.0000 </r>
       <r>  -20.3169    1.0000 </r>
       <r>  -20.2277    1.0000 </r>
       <r>  -20.0017    1.0000 </r>
       <r>  -19.9130    1.0000 </r>
       <r>  -19.8157    1.0000 </r>
       <r>  -19.5060    1.0000 </r>
       <r>  -19.4767    1.0000 </r>
       <r>  -19.3052    1.0000 </r>
       <r>  -19.1369    1.0000 </r>
       <r>  -19.0497    1.0000 </r>
       <r>  -18.6922    1.0000 </r>
       <r>  -18.6764    1.0000 </r>
       <r>  -18.5677    1.0000 </r>
       <r>  -18.2937    1.0000 </r>
       <r>  -18.1955    1.0000 </r>
       <r>  -18.1847    1.0000 </r>
       <r>  -17.8389    1.0000 </r>
       <r>  -17.8279    1.0000 </r>
       <r>  -17.8039    1.0000 </r>
       <r>  -17.5340    1.0000 </r>
       <r>  -17.4859    1.0000 </r>
       <r>  -17.3064    1.0000 </r>
       <r>  -17.2893    1.0000 </r>
       <r>  -17.1821    1.0000 </r>
       <r>  -17.0651    1.0000 </r>
       <r>  -16.8501    1.0000 </r>
       <r>  -16.8025    1.0000 </r>
       <r>  -16.2932    1.0000 </r>
       <r>  -15.9948    1.0000 </r>
       <r>  -15.7713    1.0000 </r>
       <r>  -15.6436    1.0000 </r>
       <r>  -15.6065    1.0000 </r>
       <r>  -15.4992    1.0000 </r>
       <r>  -15.4603    1.0000 </r>
       <r>  -15.4076    1.0000 </r>
       <r>  -15.1371    1.0000 </r>
       <r>  -14.9909    1.0000 </r>
       <r>  -14.8897    1.0000 </r>
       <r>  -14.8455    1.0000 </r>
       <r>  -14.6982    1.0000 </r>
       <r>  -14.4712    1.0000 </r>
       <r>  -14.3421    1.0000 </r>
       <r>  -14.2378    1.0000 </r>
       <r>  -13.9991    1.0000 </r>
       <r>  -13.9648    1.0000 </r>
       <r>  -13.9559    1.0000 </r>
       <r>  -13.8770    1.0000 </r>
       <r>  -13.6555    1.0000 </r>
       <r>  -13.4389    1.0000 </r>
       <r>  -13.2182    1.0000 </r>
       <r>  -12.9552    1.0000 </r>
       <r>  -12.9282    1.0000 </r>
       <r>  -12.9249    1.0000 </r>
       <r>  -12.5822    1.0000 </r>
       <r>  -12.3992    1.0000 </r>
       <r>  -12.3882    1.0000 </r>
       <r>  -12.2725    1.0000 </r>
       <r>  -12.0607    1.0000 </r>
       <r>  -11.9779    1.0000 </r>
       <r>  -11.9188    1.0000 </r>
       <r>  -11.8216    1.0000 </r>
       <r>  -11.7048    1.0000 </r>
       <r>  -11.6881    1.0000 </r>
       <r>  -11.5551    1.0000 </r>
       <r>  -11.5116    1.0000 </r>
       <r>  -11.3709    1.0000 </r>
       <r>  -11.2243    1.0000 </r>
       <r>  -11.1665    1.0000 </r>
       <r>  -10.9921    1.0000 </r>
       <r>  -10.8908    1.0000 </r>
[...]
       <r>   -14.8997     8.0705    54.4334 </r>
       <r>   -14.8045    12.8244    55.6549 </r>
       <r>   -14.7092    11.7995    56.7789 </r>
       <r>   -14.6140     9.5509    57.6886 </r>
       <r>   -14.5187     5.1032    58.1747 </r>
       <r>   -14.4235     5.7851    58.7257 </r>
       <r>   -14.3282     1.9995    58.9162 </r>
       <r>   -14.2330     3.9047    59.2881 </r>
       <r>   -14.1377     3.9597    59.6653 </r>
       <r>   -14.0425     8.3974    60.4651 </r>
       <r>   -13.9472    13.9487    61.7938 </r>
       <r>   -13.8520    10.3524    62.7799 </r>
       <r>   -13.7567     6.8400    63.4314 </r>
       <r>   -13.6615     6.4468    64.0454 </r>
       <r>   -13.5662     4.3712    64.4618 </r>
       <r>   -13.4710     0.9012    64.5476 </r>
       <r>   -13.3757     5.0030    65.0242 </r>
       <r>   -13.2805     6.0456    65.6000 </r>
       <r>   -13.1852     5.1534    66.0909 </r>
       <r>   -13.0900     7.5714    66.8121 </r>
       <r>   -12.9947     5.7062    67.3556 </r>
       <r>   -12.8995    16.9562    68.9707 </r>
       <r>   -12.8042     9.2757    69.8542 </r>
       <r>   -12.7089     9.9031    70.7975 </r>
       <r>   -12.6137     8.6585    71.6223 </r>
       <r>   -12.5184    10.8986    72.6604 </r>
       <r>   -12.4232     4.6155    73.1000 </r>
       <r>   -12.3279     4.1811    73.4983 </r>
       <r>   -12.2327     3.2446    73.8073 </r>
       <r>   -12.1374     4.2353    74.2107 </r>
       <r>   -12.0422     7.4284    74.9183 </r>
       <r>   -11.9469     9.0412    75.7795 </r>
       <r>   -11.8517    10.4561    76.7754 </r>
       <r>   -11.7564    12.7150    77.9866 </r>
       <r>   -11.6612    18.2074    79.7208 </r>
       <r>   -11.5659     7.3199    80.4181 </r>
       <r>   -11.4707    10.0428    81.3747 </r>
       <r>   -11.3754    10.1094    82.3376 </r>
       <r>   -11.2802    12.5647    83.5344 </r>
       <r>   -11.1849     9.5486    84.4439 </r>
       <r>   -11.0897     3.2109    84.7498 </r>
       <r>   -10.9944     4.4906    85.1775 </r>
       <r>   -10.8992     8.2071    85.9592 </r>
       <r>   -10.8039     3.8794    86.3288 </r>
       <r>   -10.7087     8.3303    87.1222 </r>
       <r>   -10.6134    15.1074    88.5612 </r>
       <r>   -10.5182    11.7149    89.6771 </r>
       <r>   -10.4229    13.6704    90.9792 </r>
       <r>   -10.3277    14.6194    92.3717 </r>
       <r>   -10.2324    14.5547    93.7581 </r>
       <r>   -10.1372    16.9088    95.3687 </r>
       <r>   -10.0419    15.1674    96.8134 </r>
       <r>    -9.9467    14.3158    98.1770 </r>
       <r>    -9.8514    27.0804   100.7564 </r>
       <r>    -9.7562    19.0973   102.5755 </r>
       <r>    -9.6609    13.6621   103.8768 </r>
       <r>    -9.5657    19.8696   105.7694 </r>
       <r>    -9.4704    11.0047   106.8176 </r>
       <r>    -9.3752    22.1113   108.9238 </r>
       <r>    -9.2799    30.6821   111.8463 </r>
       <r>    -9.1846    24.7448   114.2032 </r>
       <r>    -9.0894    16.5947   115.7839 </r>
       <r>    -8.9941    16.3432   117.3406 </r>
       <r>    -8.8989    23.5440   119.5832 </r>
       <r>    -8.8036    15.5004   121.0597 </r>
       <r>    -8.7084    15.6203   122.5475 </r>
       <r>    -8.6131    21.8009   124.6241 </r>
       <r>    -8.5179    26.0663   127.1069 </r>
       <r>    -8.4226    19.1420   128.9302 </r>
       <r>    -8.3274    15.2882   130.3865 </r>
       <r>    -8.2321    10.2575   131.3635 </r>
       <r>    -8.1369    10.7768   132.3900 </r>
       <r>    -8.0416    12.7027   133.5999 </r>
       <r>    -7.9464     9.3256   134.4882 </r>
       <r>    -7.8511     6.6421   135.1209 </r>
       <r>    -7.7559    10.3733   136.1090 </r>
       <r>    -7.6606    25.5643   138.5440 </r>
       <r>    -7.5654    22.9539   140.7304 </r>
       <r>    -7.4701    16.4670   142.2989 </r>
       <r>    -7.3749    12.3283   143.4732 </r>
       <r>    -7.2796     6.8240   144.1232 </r>
       <r>    -7.1844     7.2037   144.8093 </r>
       <r>    -7.0891    10.5928   145.8183 </r>
       <r>    -6.9939    16.4872   147.3888 </r>
       <r>    -6.8986     8.0595   148.1564 </r>
       <r>    -6.8034     6.9946   148.8227 </r>
       <r>    -6.7081    16.0058   150.3473 </r>
       <r>    -6.6129    15.0385   151.7797 </r>
       <r>    -6.5176    14.9875   153.2073 </r>
       <r>    -6.4224     8.9355   154.0584 </r>
       <r>    -6.3271    14.2992   155.4204 </r>
       <r>    -6.2319    13.0975   156.6680 </r>
       <r>    -6.1366     6.4875   157.2859 </r>
       <r>    -6.0414     6.8330   157.9367 </r>
       <r>    -5.9461     3.9522   158.3132 </r>
       <r>    -5.8508     4.5700   158.7485 </r>
       <r>    -5.7556     5.8232   159.3032 </r>
       <r>    -5.6603    10.2066   160.2754 </r>
       <r>    -5.5651     7.8187   161.0201 </r>
       <r>    -5.4698    11.0023   162.0681 </r>
       <r>    -5.3746    26.8246   164.6232 </r>
       <r>    -5.2793    16.7839   166.2218 </r>
       <r>    -5.1841    17.9070   167.9275 </r>
       <r>    -5.0888     3.3634   168.2479 </r>
       <r>    -4.9936     0.5143   168.2969 </r>
       <r>    -4.8983     4.5445   168.7297 </r>
       <r>    -4.8031    10.1255   169.6942 </r>
       <r>    -4.7078     9.9204   170.6391 </r>
       <r>    -4.6126    13.7283   171.9468 </r>
       <r>    -4.5173    16.4168   173.5105 </r>
       <r>    -4.4221    22.5599   175.6594 </r>
       <r>    -4.3268    21.3297   177.6911 </r>
       <r>    -4.2316     5.0248   178.1697 </r>
       <r>    -4.1363    15.2099   179.6184 </r>
       <r>    -4.0411    17.4352   181.2792 </r>
       <r>    -3.9458     5.0051   181.7559 </r>
       <r>    -3.8506     3.7470   182.1128 </r>
       <r>    -3.7553     1.4375   182.2498 </r>
       <r>    -3.6601     0.0850   182.2578 </r>
       <r>    -3.5648     2.0113   182.4494 </r>
       <r>    -3.4696     0.5304   182.4999 </r>
       <r>    -3.3743     0.0554   182.5052 </r>
       <r>    -3.2791     3.3548   182.8248 </r>
       <r>    -3.1838     1.8376   182.9998 </r>
       <r>    -3.0886     2.4940   183.2374 </r>
       <r>    -2.9933     7.9709   183.9966 </r>
       <r>    -2.8981     4.3946   184.4152 </r>
       <r>    -2.8028     0.8896   184.4999 </r>
       <r>    -2.7076     0.0007   184.5000 </r>
       <r>    -2.6123     0.0131   184.5013 </r>
       <r>    -2.5171     1.4247   184.6370 </r>
       <r>    -2.4218     1.9292   184.8207 </r>
       <r>    -2.3265     2.2072   185.0310 </r>
       <r>    -2.2313     3.8453   185.3972 </r>
       <r>    -2.1360     3.3650   185.7178 </r>
       <r>    -2.0408     2.9335   185.9972 </r>
       <r>    -1.9455     0.1919   186.0155 </r>
       <r>    -1.8503     4.0235   186.3987 </r>
       <r>    -1.7550     9.3148   187.2859 </r>
       <r>    -1.6598     2.2412   187.4994 </r>
       <r>    -1.5645     0.0075   187.5001 </r>
       <r>    -1.4693     0.8751   187.5835 </r>
       <r>    -1.3740     6.8673   188.2376 </r>
       <r>    -1.2788    16.5421   189.8133 </r>
       <r>    -1.1835    11.0074   190.8617 </r>
       <r>    -1.0883     9.3448   191.7518 </r>
       <r>    -0.9930     8.0785   192.5213 </r>
       <r>    -0.8978    10.0215   193.4759 </r>
       <r>    -0.8025     6.3044   194.0764 </r>
       <r>    -0.7073     3.0643   194.3683 </r>
       <r>    -0.6120    10.3563   195.3547 </r>
       <r>    -0.5168     8.5092   196.1652 </r>
       <r>    -0.4215    10.9265   197.2060 </r>
       <r>    -0.3263     9.4947   198.1104 </r>
       <r>    -0.2310    12.0820   199.2612 </r>
       <r>    -0.1358     6.7253   199.9018 </r>
       <r>    -0.0405     1.0297   199.9999 </r>
       <r>     0.0547     1.2779   200.1216 </r>
       <r>     0.1500     6.6470   200.7548 </r>
       <r>     0.2452     6.9573   201.4175 </r>
       <r>     0.3405     9.8782   202.3584 </r>
       <r>     0.4357     4.4828   202.7854 </r>
       <r>     0.5310     5.0652   203.2678 </r>
       <r>     0.6262     3.0301   203.5565 </r>
       <r>     0.7215     6.6491   204.1898 </r>
       <r>     0.8167     7.2218   204.8777 </r>
       <r>     0.9120    10.1185   205.8415 </r>
       <r>     1.0073    13.7091   207.1473 </r>
       <r>     1.1025     8.9309   207.9980 </r>
       <r>     1.1978    14.2855   209.3587 </r>
       <r>     1.2930    13.6268   210.6567 </r>
       <r>     1.3883     9.5772   211.5689 </r>
       <r>     1.4835     8.7757   212.4048 </r>
       <r>     1.5788     6.2389   212.9991 </r>
       <r>     1.6740     5.6820   213.5403 </r>
       <r>     1.7693    13.8639   214.8608 </r>
       <r>     1.8645    23.2638   217.0767 </r>
       <r>     1.9598    19.4124   218.9258 </r>
       <r>     2.0550     8.6939   219.7539 </r>
       <r>     2.1503     7.8296   220.4997 </r>
       <r>     2.2455    14.4417   221.8753 </r>
       <r>     2.3408    20.4647   223.8246 </r>
       <r>     2.4360    25.7633   226.2786 </r>
       <r>     2.5313    10.8793   227.3148 </r>
       <r>     2.6265    11.0064   228.3632 </r>
       <r>     2.7218    25.5831   230.8000 </r>
       <r>     2.8170    51.4872   235.7043 </r>
       <r>     2.9123    26.8189   238.2588 </r>
       <r>     3.0075     7.2921   238.9534 </r>
       <r>     3.1028     4.0241   239.3367 </r>
       <r>     3.1980     6.6407   239.9692 </r>
       <r>     3.2933     0.3231   240.0000 </r>
       <r>     3.3885     0.0000   240.0000 </r>
       <r>     3.4838     0.0000   240.0000 </r>
       <r>     3.5790     0.0000   240.0000 </r>
       <r>     3.6743     0.0000   240.0000 </r>
       <r>     3.7695     0.0000   240.0000 </r>
       <r>     3.8648     0.0000   240.0000 </r>
       <r>     3.9600     0.0000   240.0000 </r>
       <r>     4.0553     0.0000   240.0000 </r>
       <r>     4.1505     0.0000   240.0000 </r>
       <r>     4.2458     0.0000   240.0000 </r>
       <r>     4.3411     0.0000   240.0000 </r>
       <r>     4.4363     0.0000   240.0000 </r>
      </set>
     </set>
    </array>
   </total>
  </dos>
 </calculation>
 <structure name="finalpos" >
  <crystal>
   <varray name="basis" >
    <v>      17.27103806       0.00000000       0.00000000 </v>
    <v>      -8.63551903      14.95715771       0.00000000 </v>
    <v>       0.00000000       0.00000000      15.00000000 </v>
   </varray>
   <i name="volume">   3874.88459904 </i>
   <varray name="rec_basis" >
    <v>       0.05790040       0.03342881       0.00000000 </v>
    <v>       0.00000000       0.06685762       0.00000000 </v>
    <v>       0.00000000       0.00000000       0.06666667 </v>
   </varray>
  </crystal>
  <varray name="positions" >
   <v>       0.99977290       0.00187168       0.50260805 </v>
   <v>       0.99896875       0.14415284       0.50263175 </v>
   <v>       0.99876862       0.28717569       0.50277128 </v>
   <v>       0.99901529       0.43045001       0.50312371 </v>
   <v>       0.99978432       0.57357473       0.50338763 </v>
   <v>       0.00127020       0.71687457       0.50290092 </v>
   <v>       0.00120660       0.85999939       0.50257890 </v>
   <v>       0.14411597       0.00360099       0.50177542 </v>
   <v>       0.14353425       0.14622837       0.50211035 </v>
   <v>       0.14187463       0.28734851       0.50228134 </v>
   <v>       0.14190745       0.43013648       0.50252851 </v>
   <v>       0.14350332       0.57292547       0.50273010 </v>
   <v>       0.14413247       0.71615160       0.50243171 </v>
   <v>       0.14414604       0.85988781       0.50187447 </v>
   <v>       0.28674015       0.00314435       0.50202738 </v>
   <v>       0.28732229       0.14786396       0.50226588 </v>
   <v>       0.28832514       0.29517575       0.50294112 </v>
   <v>       0.28461995       0.43032819       0.50318783 </v>
   <v>       0.28836473       0.56865669       0.50317728 </v>
   <v>       0.28736069       0.71510248       0.50273328 </v>
   <v>       0.28673131       0.85924695       0.50225306 </v>
   <v>       0.42929835       0.00254533       0.50318635 </v>
   <v>       0.42936411       0.14737919       0.50341498 </v>
   <v>       0.42933107       0.85777167       0.50335712 </v>
   <v>       0.57116945       0.00125767       0.50411029 </v>
   <v>       0.57119428       0.14572383       0.50441797 </v>
   <v>       0.57343755       0.29345955       0.50513853 </v>
   <v>       0.57343438       0.85580460       0.50471047 </v>
   <v>       0.71323205       0.00010074       0.50427749 </v>
   <v>       0.71359518       0.14466782       0.50438290 </v>
   <v>       0.71326407       0.28887949       0.50497017 </v>
   <v>       0.70903762       0.42984865       0.50572968 </v>
   <v>       0.70877837       0.85472379       0.50533218 </v>
   <v>       0.85578650       0.00036242       0.50376331 </v>
   <v>       0.85587299       0.14395317       0.50358476 </v>
   <v>       0.85588835       0.28755257       0.50398723 </v>
   <v>       0.85588399       0.43112061       0.50441330 </v>
   <v>       0.85622222       0.57427132       0.50460477 </v>
   <v>       0.85865360       0.71712566       0.50422290 </v>
   <v>       0.85618943       0.85759630       0.50401991 </v>
   <v>       0.04771197       0.09750336       0.50235118 </v>
   <v>       0.04622655       0.23929649       0.50241380 </v>
   <v>       0.04624466       0.38251451       0.50267912 </v>
   <v>       0.04768684       0.52585327       0.50301332 </v>
   <v>       0.04849211       0.66896773       0.50285000 </v>
   <v>       0.04872267       0.81219358       0.50232512 </v>
   <v>       0.04845027       0.95513936       0.50221829 </v>
   <v>       0.19165229       0.09897213       0.50190491 </v>
   <v>       0.19133874       0.24180100       0.50232772 </v>
   <v>       0.18876944       0.38215192       0.50249976 </v>
   <v>       0.19130211       0.52515455       0.50268085 </v>
   <v>       0.19167867       0.66831921       0.50258549 </v>
   <v>       0.19166038       0.81185499       0.50204700 </v>
   <v>       0.19165434       0.95543840       0.50171939 </v>
   <v>       0.33429798       0.09935877       0.50245978 </v>
   <v>       0.33854835       0.24456727       0.50308743 </v>
   <v>       0.33870120       0.66969664       0.50327060 </v>
   <v>       0.33427846       0.81058789       0.50274502 </v>
   <v>       0.33395634       0.95480478       0.50239502 </v>
   <v>       0.47637940       0.09830827       0.50370311 </v>
   <v>       0.47415101       0.24380324       0.50425340 </v>
   <v>       0.47408963       0.80613730       0.50402070 </v>
   <v>       0.47633645       0.95384685       0.50356045 </v>
   <v>       0.61825618       0.09702203       0.50436150 </v>
   <v>       0.61821227       0.24182174       0.50485042 </v>
   <v>       0.61819621       0.95220378       0.50433993 </v>
   <v>       0.76080256       0.09631008       0.50408395 </v>
   <v>       0.76081276       0.24021874       0.50461922 </v>
   <v>       0.76021472       0.38436486       0.50513073 </v>
   <v>       0.75927300       0.53067489       0.50576883 </v>
   <v>       0.76279042       0.66939699       0.50583139 </v>
   <v>       0.75910841       0.80401794       0.50544596 </v>
   <v>       0.76009639       0.95148303       0.50444607 </v>
   <v>       0.90332776       0.09573185       0.50324315 </v>
   <v>       0.90336671       0.23950397       0.50340231 </v>
   <v>       0.90339053       0.38324386       0.50383888 </v>
   <v>       0.90398660       0.52647814       0.50412218 </v>
   <v>       0.90559399       0.66926668       0.50383874 </v>
   <v>       0.90553957       0.81194864       0.50359767 </v>
   <v>       0.90395895       0.95313301       0.50336400 </v>
   <v>       0.42839911       0.28854221       0.50429212 </v>
   <v>       0.42846591       0.71572817       0.50401027 </v>
   <v>       0.71607254       0.57728698       0.50663397 </v>
   <v>       0.71608059       0.71438811       0.50672106 </v>
   <v>       0.33141576       0.38500870       0.50354487 </v>
   <v>       0.33137059       0.52201570       0.50375792 </v>
   <v>       0.61916547       0.38395490       0.50594275 </v>
   <v>       0.61901831       0.81099057       0.50548367 </v>
   <v>       0.46985173       0.47238828       0.48650908 </v>
   <v>       0.57463124       0.52124001       0.48808830 </v>
   <v>       0.52385637       0.52540922       0.46511203 </v>
  </varray>
  <varray name="selective"  type="logical" >
   <v type="logical" >  T  T  T </v>
   <v type="logical" >  T  T  T </v>
   <v type="logical" >  T  T  T </v>
   <v type="logical" >  T  T  T </v>
   <v type="logical" >  T  T  T </v>
   <v type="logical" >  T  T  T </v>
   <v type="logical" >  T  T  T </v>
   <v type="logical" >  T  T  T </v>
   <v type="logical" >  T  T  T </v>
   <v type="logical" >  T  T  T </v>
   <v type="logical" >  T  T  T </v>
   <v type="logical" >  T  T  T </v>
   <v type="logical" >  T  T  T </v>
   <v type="logical" >  T  T  T </v>
   <v type="logical" >  T  T  T </v>
   <v type="logical" >  T  T  T </v>
   <v type="logical" >  T  T  T </v>
   <v type="logical" >  T  T  T </v>
   <v type="logical" >  T  T  T </v>
   <v type="logical" >  T  T  T </v>
   <v type="logical" >  T  T  T </v>
   <v type="logical" >  T  T  T </v>
   <v type="logical" >  T  T  T </v>
   <v type="logical" >  T  T  T </v>
   <v type="logical" >  T  T  T </v>
   <v type="logical" >  T  T  T </v>
   <v type="logical" >  T  T  T </v>
   <v type="logical" >  T  T  T </v>
   <v type="logical" >  T  T  T </v>
   <v type="logical" >  T  T  T </v>
   <v type="logical" >  T  T  T </v>
   <v type="logical" >  T  T  T </v>
   <v type="logical" >  T  T  T </v>
   <v type="logical" >  T  T  T </v>
   <v type="logical" >  T  T  T </v>
   <v type="logical" >  T  T  T </v>
   <v type="logical" >  T  T  T </v>
   <v type="logical" >  T  T  T </v>
   <v type="logical" >  T  T  T </v>
   <v type="logical" >  T  T  T </v>
   <v type="logical" >  T  T  T </v>
   <v type="logical" >  T  T  T </v>
   <v type="logical" >  T  T  T </v>
   <v type="logical" >  T  T  T </v>
   <v type="logical" >  T  T  T </v>
   <v type="logical" >  T  T  T </v>
   <v type="logical" >  T  T  T </v>
   <v type="logical" >  T  T  T </v>
   <v type="logical" >  T  T  T </v>
   <v type="logical" >  T  T  T </v>
   <v type="logical" >  T  T  T </v>
   <v type="logical" >  T  T  T </v>
   <v type="logical" >  T  T  T </v>
   <v type="logical" >  T  T  T </v>
   <v type="logical" >  T  T  T </v>
   <v type="logical" >  T  T  T </v>
   <v type="logical" >  T  T  T </v>
   <v type="logical" >  T  T  T </v>
   <v type="logical" >  T  T  T </v>
   <v type="logical" >  T  T  T </v>
   <v type="logical" >  T  T  T </v>
   <v type="logical" >  T  T  T </v>
   <v type="logical" >  T  T  T </v>
   <v type="logical" >  T  T  T </v>
   <v type="logical" >  T  T  T </v>
   <v type="logical" >  T  T  T </v>
   <v type="logical" >  T  T  T </v>
   <v type="logical" >  T  T  T </v>
   <v type="logical" >  T  T  T </v>
   <v type="logical" >  T  T  T </v>
   <v type="logical" >  T  T  T </v>
   <v type="logical" >  T  T  T </v>
   <v type="logical" >  T  T  T </v>
   <v type="logical" >  T  T  T </v>
   <v type="logical" >  T  T  T </v>
   <v type="logical" >  T  T  T </v>
   <v type="logical" >  T  T  T </v>
   <v type="logical" >  T  T  T </v>
   <v type="logical" >  T  T  T </v>
   <v type="logical" >  T  T  T </v>
   <v type="logical" >  T  T  T </v>
   <v type="logical" >  T  T  T </v>
   <v type="logical" >  T  T  T </v>
   <v type="logical" >  T  T  T </v>
   <v type="logical" >  T  T  T </v>
   <v type="logical" >  T  T  T </v>
   <v type="logical" >  T  T  T </v>
   <v type="logical" >  T  T  T </v>
   <v type="logical" >  T  T  T </v>
   <v type="logical" >  T  T  T </v>
   <v type="logical" >  T  T  F </v>
  </varray>
  <nose>
   <v>      -3.00000000       0.00000000       0.00010000       0.00010000 </v>
  </nose>
 </structure>
</modeling>
