unknown system                          
           1
    17.271038    0.000000    0.000000
    -8.635519   14.957158    0.000000
     0.000000    0.000000   15.000000
   C    N    H    O 
    80     8     2     1
Direct configuration=     1
   0.99977290  0.00187168  0.50260805
   0.99896875  0.14415284  0.50263175
   0.99876862  0.28717569  0.50277128
   0.99901529  0.43045001  0.50312371
   0.99978432  0.57357473  0.50338763
   0.00127020  0.71687457  0.50290092
   0.00120660  0.85999939  0.50257890
   0.14411597  0.00360099  0.50177542
   0.14353425  0.14622837  0.50211035
   0.14187463  0.28734851  0.50228134
   0.14190745  0.43013648  0.50252851
   0.14350332  0.57292547  0.50273010
   0.14413247  0.71615160  0.50243171
   0.14414604  0.85988781  0.50187447
   0.28674015  0.00314435  0.50202738
   0.28732229  0.14786396  0.50226588
   0.28832514  0.29517575  0.50294112
   0.28461995  0.43032819  0.50318783
   0.28836473  0.56865669  0.50317728
   0.28736069  0.71510248  0.50273328
   0.28673131  0.85924695  0.50225306
   0.42929835  0.00254533  0.50318635
   0.42936411  0.14737919  0.50341498
   0.42933107  0.85777167  0.50335712
   0.57116945  0.00125767  0.50411029
   0.57119428  0.14572383  0.50441797
   0.57343755  0.29345955  0.50513853
   0.57343438  0.85580460  0.50471047
   0.71323205  0.00010074  0.50427749
   0.71359518  0.14466782  0.50438290
   0.71326407  0.28887949  0.50497017
   0.70903762  0.42984865  0.50572968
   0.70877837  0.85472379  0.50533218
   0.85578650  0.00036242  0.50376331
   0.85587299  0.14395317  0.50358476
   0.85588835  0.28755257  0.50398723
   0.85588399  0.43112061  0.50441330
   0.85622222  0.57427132  0.50460477
   0.85865360  0.71712566  0.50422290
   0.85618943  0.85759630  0.50401991
   0.04771197  0.09750336  0.50235118
   0.04622655  0.23929649  0.50241380
   0.04624466  0.38251451  0.50267912
   0.04768684  0.52585327  0.50301332
   0.04849211  0.66896773  0.50285000
   0.04872267  0.81219358  0.50232512
   0.04845027  0.95513936  0.50221829
   0.19165229  0.09897213  0.50190491
   0.19133874  0.24180100  0.50232772
   0.18876944  0.38215192  0.50249976
   0.19130211  0.52515455  0.50268085
   0.19167867  0.66831921  0.50258549
   0.19166038  0.81185499  0.50204700
   0.19165434  0.95543840  0.50171939
   0.33429798  0.09935877  0.50245978
   0.33854835  0.24456727  0.50308743
   0.33870120  0.66969664  0.50327060
   0.33427846  0.81058789  0.50274502
   0.33395634  0.95480478  0.50239502
   0.47637940  0.09830827  0.50370311
   0.47415101  0.24380324  0.50425340
   0.47408963  0.80613730  0.50402070
   0.47633645  0.95384685  0.50356045
   0.61825618  0.09702203  0.50436150
   0.61821227  0.24182174  0.50485042
   0.61819621  0.95220378  0.50433993
   0.76080256  0.09631008  0.50408395
   0.76081276  0.24021874  0.50461922
   0.76021472  0.38436486  0.50513073
   0.75927300  0.53067489  0.50576883
   0.76279042  0.66939699  0.50583139
   0.75910841  0.80401794  0.50544596
   0.76009639  0.95148303  0.50444607
   0.90332776  0.09573185  0.50324315
   0.90336671  0.23950397  0.50340231
   0.90339053  0.38324386  0.50383888
   0.90398660  0.52647814  0.50412218
   0.90559399  0.66926668  0.50383874
   0.90553957  0.81194864  0.50359767
   0.90395895  0.95313301  0.50336400
   0.42839911  0.28854221  0.50429212
   0.42846591  0.71572817  0.50401027
   0.71607254  0.57728698  0.50663397
   0.71608059  0.71438811  0.50672106
   0.33141576  0.38500870  0.50354487
   0.33137059  0.52201570  0.50375792
   0.61916547  0.38395490  0.50594275
   0.61901831  0.81099057  0.50548367
   0.46985173  0.47238828  0.48650908
   0.57463124  0.52124001  0.48808830
   0.52385637  0.52540922  0.46511203
