  93  93   0   0
  0.4166543E+02  0.1727104E-08  0.1727104E-08  0.1500000E-08  0.0000000E+00
  1.000000000000000E-004
  CAR 
 unknown system                          
      5.74823367    -30.91116279  301     -2.87975964      1.00000000
    -30.911  0.0000E+00  0.0000E+00  0.0000E+00  0.0000E+00
    -30.789  0.0000E+00  0.0000E+00  0.0000E+00  0.0000E+00
    -30.667  0.0000E+00  0.0000E+00  0.0000E+00  0.0000E+00
    -30.545  0.0000E+00  0.0000E+00  0.0000E+00  0.0000E+00
    -30.422  0.0000E+00  0.0000E+00  0.0000E+00  0.0000E+00
    -30.300  0.0000E+00  0.0000E+00  0.0000E+00  0.0000E+00
    -30.178  0.0000E+00  0.0000E+00  0.0000E+00  0.0000E+00
    -30.056  0.0000E+00  0.0000E+00  0.0000E+00  0.0000E+00
    -29.934  0.0000E+00  0.0000E+00  0.0000E+00  0.0000E+00
    -29.811  0.0000E+00  0.0000E+00  0.0000E+00  0.0000E+00
    -29.689  0.0000E+00  0.0000E+00  0.0000E+00  0.0000E+00
    -29.567  0.0000E+00  0.0000E+00  0.0000E+00  0.0000E+00
    -29.445  0.6694E-10  0.6695E-10  0.8180E-11  0.8181E-11
    -29.323  0.1449E-03  0.1449E-03  0.1771E-04  0.1771E-04
    -29.200  0.1360E-01  0.1360E-01  0.1680E-02  0.1680E-02
    -29.078  0.2618E-02  0.2618E-02  0.2000E-02  0.2000E-02
    -28.956  0.9979E-07  0.9979E-07  0.2000E-02  0.2000E-02
    -28.834  0.5542E-16  0.5542E-16  0.2000E-02  0.2000E-02
    -28.712  0.0000E+00  0.0000E+00  0.2000E-02  0.2000E-02
    -28.589  0.0000E+00  0.0000E+00  0.2000E-02  0.2000E-02
    -28.467  0.0000E+00  0.0000E+00  0.2000E-02  0.2000E-02
    -28.345  0.0000E+00  0.0000E+00  0.2000E-02  0.2000E-02
    -28.223  0.0000E+00  0.0000E+00  0.2000E-02  0.2000E-02
    -28.101  0.0000E+00  0.0000E+00  0.2000E-02  0.2000E-02
    -27.978  0.0000E+00  0.0000E+00  0.2000E-02  0.2000E-02
    -27.856  0.0000E+00  0.0000E+00  0.2000E-02  0.2000E-02
    -27.734  0.0000E+00  0.0000E+00  0.2000E-02  0.2000E-02
    -27.612  0.0000E+00  0.0000E+00  0.2000E-02  0.2000E-02
    -27.490  0.0000E+00  0.0000E+00  0.2000E-02  0.2000E-02
    -27.367  0.0000E+00  0.0000E+00  0.2000E-02  0.2000E-02
    -27.245  0.0000E+00  0.0000E+00  0.2000E-02  0.2000E-02
    -27.123  0.0000E+00  0.0000E+00  0.2000E-02  0.2000E-02
    -27.001  0.0000E+00  0.0000E+00  0.2000E-02  0.2000E-02
    -26.879  0.0000E+00  0.0000E+00  0.2000E-02  0.2000E-02
    -26.756  0.0000E+00  0.0000E+00  0.2000E-02  0.2000E-02
    -26.634  0.0000E+00  0.0000E+00  0.2000E-02  0.2000E-02
    -26.512  0.0000E+00  0.0000E+00  0.2000E-02  0.2000E-02
    -26.390  0.0000E+00  0.0000E+00  0.2000E-02  0.2000E-02
    -26.268  0.0000E+00  0.0000E+00  0.2000E-02  0.2000E-02
    -26.145  0.0000E+00  0.0000E+00  0.2000E-02  0.2000E-02
    -26.023  0.0000E+00  0.0000E+00  0.2000E-02  0.2000E-02
    -25.901  0.0000E+00  0.0000E+00  0.2000E-02  0.2000E-02
    -25.779  0.0000E+00  0.0000E+00  0.2000E-02  0.2000E-02
    -25.657  0.0000E+00  0.0000E+00  0.2000E-02  0.2000E-02
    -25.534  0.0000E+00  0.0000E+00  0.2000E-02  0.2000E-02
    -25.412  0.0000E+00  0.0000E+00  0.2000E-02  0.2000E-02
    -25.290  0.0000E+00  0.0000E+00  0.2000E-02  0.2000E-02
    -25.168  0.0000E+00  0.0000E+00  0.2000E-02  0.2000E-02
    -25.046  0.0000E+00  0.0000E+00  0.2000E-02  0.2000E-02
    -24.923  0.0000E+00  0.0000E+00  0.2000E-02  0.2000E-02
    -24.801  0.0000E+00  0.0000E+00  0.2000E-02  0.2000E-02
    -24.679  0.0000E+00  0.0000E+00  0.2000E-02  0.2000E-02
    -24.557  0.0000E+00  0.0000E+00  0.2000E-02  0.2000E-02
    -24.435  0.0000E+00  0.0000E+00  0.2000E-02  0.2000E-02
    -24.312  0.0000E+00  0.0000E+00  0.2000E-02  0.2000E-02
    -24.190  0.0000E+00  0.0000E+00  0.2000E-02  0.2000E-02
    -24.068  0.0000E+00  0.0000E+00  0.2000E-02  0.2000E-02
    -23.946  0.0000E+00  0.0000E+00  0.2000E-02  0.2000E-02
    -23.824  0.0000E+00  0.0000E+00  0.2000E-02  0.2000E-02
    -23.701  0.0000E+00  0.0000E+00  0.2000E-02  0.2000E-02
    -23.579  0.0000E+00  0.0000E+00  0.2000E-02  0.2000E-02
    -23.457  0.0000E+00  0.0000E+00  0.2000E-02  0.2000E-02
    -23.335  0.0000E+00  0.0000E+00  0.2000E-02  0.2000E-02
    -23.213  0.0000E+00  0.0000E+00  0.2000E-02  0.2000E-02
    -23.090  0.0000E+00  0.0000E+00  0.2000E-02  0.2000E-02
    -22.968  0.1136E-18  0.1136E-18  0.2000E-02  0.2000E-02
    -22.846  0.1844E-08  0.1844E-08  0.2000E-02  0.2000E-02
    -22.724  0.3890E-03  0.3890E-03  0.2048E-02  0.2048E-02
    -22.602  0.1168E-01  0.1168E-01  0.3474E-02  0.3474E-02
    -22.480  0.4559E-02  0.4559E-02  0.4031E-02  0.4031E-02
    -22.357  0.1047E-01  0.1047E-01  0.5310E-02  0.5310E-02
    -22.235  0.5635E-02  0.5635E-02  0.5999E-02  0.5999E-02
    -22.113  0.1193E-02  0.1193E-02  0.6145E-02  0.6145E-02
    -21.991  0.8278E-02  0.8278E-02  0.7156E-02  0.7156E-02
    -21.869  0.7161E-02  0.7161E-02  0.8031E-02  0.8031E-02
    -21.746  0.1390E-01  0.1390E-01  0.9730E-02  0.9730E-02
    -21.624  0.6901E-02  0.6901E-02  0.1057E-01  0.1057E-01
    -21.502  0.5646E-02  0.5646E-02  0.1126E-01  0.1126E-01
    -21.380  0.7095E-02  0.7095E-02  0.1213E-01  0.1213E-01
    -21.258  0.5164E-02  0.5164E-02  0.1276E-01  0.1276E-01
    -21.135  0.2087E-02  0.2087E-02  0.1302E-01  0.1302E-01
    -21.013  0.6902E-02  0.6902E-02  0.1386E-01  0.1386E-01
    -20.891  0.6850E-02  0.6850E-02  0.1470E-01  0.1470E-01
    -20.769  0.4770E-02  0.4770E-02  0.1528E-01  0.1528E-01
    -20.647  0.6401E-02  0.6401E-02  0.1606E-01  0.1606E-01
    -20.524  0.6569E-02  0.6569E-02  0.1686E-01  0.1686E-01
    -20.402  0.7376E-02  0.7376E-02  0.1777E-01  0.1777E-01
    -20.280  0.6098E-02  0.6098E-02  0.1851E-01  0.1851E-01
    -20.158  0.5656E-02  0.5656E-02  0.1920E-01  0.1920E-01
    -20.036  0.6422E-02  0.6422E-02  0.1999E-01  0.1999E-01
    -19.913  0.3466E-02  0.3466E-02  0.2041E-01  0.2041E-01
    -19.791  0.7903E-02  0.7903E-02  0.2138E-01  0.2138E-01
    -19.669  0.1055E-01  0.1055E-01  0.2266E-01  0.2266E-01
    -19.547  0.8590E-02  0.8590E-02  0.2371E-01  0.2371E-01
    -19.425  0.3302E-02  0.3302E-02  0.2412E-01  0.2412E-01
    -19.302  0.5967E-02  0.5967E-02  0.2485E-01  0.2485E-01
    -19.180  0.4859E-02  0.4859E-02  0.2544E-01  0.2544E-01
    -19.058  0.4358E-02  0.4358E-02  0.2597E-01  0.2597E-01
    -18.936  0.5193E-02  0.5193E-02  0.2661E-01  0.2661E-01
    -18.814  0.1485E-01  0.1485E-01  0.2842E-01  0.2842E-01
    -18.691  0.8561E-02  0.8561E-02  0.2947E-01  0.2947E-01
    -18.569  0.5985E-02  0.5985E-02  0.3020E-01  0.3020E-01
    -18.447  0.5699E-02  0.5699E-02  0.3090E-01  0.3090E-01
    -18.325  0.6105E-02  0.6105E-02  0.3164E-01  0.3164E-01
    -18.203  0.6910E-02  0.6910E-02  0.3249E-01  0.3249E-01
    -18.080  0.6191E-02  0.6191E-02  0.3324E-01  0.3324E-01
    -17.958  0.5092E-02  0.5092E-02  0.3387E-01  0.3387E-01
    -17.836  0.7531E-02  0.7531E-02  0.3479E-01  0.3479E-01
    -17.714  0.1402E-01  0.1402E-01  0.3650E-01  0.3650E-01
    -17.592  0.1201E-01  0.1201E-01  0.3797E-01  0.3797E-01
    -17.469  0.3702E-02  0.3702E-02  0.3842E-01  0.3842E-01
    -17.347  0.7218E-02  0.7218E-02  0.3930E-01  0.3930E-01
    -17.225  0.8351E-02  0.8351E-02  0.4032E-01  0.4032E-01
    -17.103  0.6900E-02  0.6900E-02  0.4116E-01  0.4116E-01
    -16.981  0.5140E-02  0.5140E-02  0.4179E-01  0.4179E-01
    -16.858  0.4533E-02  0.4533E-02  0.4235E-01  0.4235E-01
    -16.736  0.1439E-01  0.1439E-01  0.4410E-01  0.4410E-01
    -16.614  0.1101E-01  0.1101E-01  0.4545E-01  0.4545E-01
    -16.492  0.4355E-02  0.4355E-02  0.4598E-01  0.4598E-01
    -16.370  0.2098E-02  0.2098E-02  0.4624E-01  0.4624E-01
    -16.247  0.2081E-03  0.2081E-03  0.4626E-01  0.4626E-01
    -16.125  0.1906E-02  0.1906E-02  0.4650E-01  0.4650E-01
    -16.003  0.4427E-02  0.4427E-02  0.4704E-01  0.4704E-01
    -15.881  0.6281E-02  0.6281E-02  0.4781E-01  0.4781E-01
    -15.759  0.7847E-02  0.7847E-02  0.4876E-01  0.4876E-01
    -15.636  0.2426E-02  0.2426E-02  0.4906E-01  0.4906E-01
    -15.514  0.7193E-02  0.7193E-02  0.4994E-01  0.4994E-01
    -15.392  0.1214E-01  0.1214E-01  0.5142E-01  0.5142E-01
    -15.270  0.1046E-01  0.1046E-01  0.5270E-01  0.5270E-01
    -15.148  0.7502E-02  0.7502E-02  0.5362E-01  0.5362E-01
    -15.025  0.6981E-02  0.6981E-02  0.5447E-01  0.5447E-01
    -14.903  0.9304E-02  0.9304E-02  0.5561E-01  0.5561E-01
    -14.781  0.7826E-02  0.7826E-02  0.5656E-01  0.5656E-01
    -14.659  0.1215E-01  0.1215E-01  0.5805E-01  0.5805E-01
    -14.537  0.1034E-01  0.1034E-01  0.5931E-01  0.5931E-01
    -14.414  0.5839E-02  0.5839E-02  0.6003E-01  0.6003E-01
    -14.292  0.5536E-02  0.5536E-02  0.6070E-01  0.6070E-01
    -14.170  0.2138E-02  0.2138E-02  0.6096E-01  0.6096E-01
    -14.048  0.6256E-02  0.6256E-02  0.6173E-01  0.6173E-01
    -13.926  0.8900E-02  0.8900E-02  0.6282E-01  0.6282E-01
    -13.803  0.1102E-01  0.1102E-01  0.6416E-01  0.6416E-01
    -13.681  0.1013E-01  0.1013E-01  0.6540E-01  0.6540E-01
    -13.559  0.6287E-02  0.6287E-02  0.6617E-01  0.6617E-01
    -13.437  0.2550E-02  0.2550E-02  0.6648E-01  0.6648E-01
    -13.315  0.1824E-02  0.1824E-02  0.6670E-01  0.6670E-01
    -13.192  0.6640E-02  0.6640E-02  0.6751E-01  0.6751E-01
    -13.070  0.6070E-02  0.6070E-02  0.6826E-01  0.6826E-01
    -12.948  0.7729E-02  0.7729E-02  0.6920E-01  0.6920E-01
    -12.826  0.1986E-01  0.1986E-01  0.7163E-01  0.7163E-01
    -12.704  0.5280E-02  0.5280E-02  0.7227E-01  0.7227E-01
    -12.581  0.9294E-02  0.9294E-02  0.7341E-01  0.7341E-01
    -12.459  0.8412E-02  0.8412E-02  0.7444E-01  0.7444E-01
    -12.337  0.7566E-02  0.7566E-02  0.7536E-01  0.7536E-01
    -12.215  0.3226E-02  0.3226E-02  0.7576E-01  0.7576E-01
    -12.093  0.7332E-02  0.7332E-02  0.7665E-01  0.7665E-01
    -11.970  0.6465E-02  0.6465E-02  0.7744E-01  0.7744E-01
    -11.848  0.1486E-01  0.1486E-01  0.7926E-01  0.7926E-01
    -11.726  0.9308E-02  0.9308E-02  0.8040E-01  0.8040E-01
    -11.604  0.1363E-01  0.1363E-01  0.8206E-01  0.8206E-01
    -11.482  0.8778E-02  0.8778E-02  0.8313E-01  0.8313E-01
    -11.359  0.1205E-01  0.1205E-01  0.8461E-01  0.8461E-01
    -11.237  0.1237E-01  0.1237E-01  0.8612E-01  0.8612E-01
    -11.115  0.9552E-02  0.9552E-02  0.8728E-01  0.8728E-01
    -10.993  0.5862E-02  0.5862E-02  0.8800E-01  0.8800E-01
    -10.871  0.3026E-02  0.3026E-02  0.8837E-01  0.8837E-01
    -10.748  0.4021E-02  0.4021E-02  0.8886E-01  0.8886E-01
    -10.626  0.1562E-01  0.1562E-01  0.9077E-01  0.9077E-01
    -10.504  0.1556E-01  0.1556E-01  0.9267E-01  0.9267E-01
    -10.382  0.1027E-01  0.1027E-01  0.9393E-01  0.9393E-01
    -10.260  0.1805E-01  0.1805E-01  0.9613E-01  0.9613E-01
    -10.138  0.1659E-01  0.1659E-01  0.9816E-01  0.9816E-01
    -10.015  0.1514E-01  0.1514E-01  0.1000E+00  0.1000E+00
     -9.893  0.1975E-01  0.1975E-01  0.1024E+00  0.1024E+00
     -9.771  0.2111E-01  0.2111E-01  0.1050E+00  0.1050E+00
     -9.649  0.1791E-01  0.1791E-01  0.1072E+00  0.1072E+00
     -9.527  0.2499E-01  0.2499E-01  0.1102E+00  0.1102E+00
     -9.404  0.2269E-01  0.2269E-01  0.1130E+00  0.1130E+00
     -9.282  0.1716E-01  0.1716E-01  0.1151E+00  0.1151E+00
     -9.160  0.2933E-01  0.2933E-01  0.1187E+00  0.1187E+00
     -9.038  0.1902E-01  0.1902E-01  0.1210E+00  0.1210E+00
     -8.916  0.2284E-01  0.2284E-01  0.1238E+00  0.1238E+00
     -8.793  0.1389E-01  0.1389E-01  0.1255E+00  0.1255E+00
     -8.671  0.1108E-01  0.1108E-01  0.1269E+00  0.1269E+00
     -8.549  0.2196E-01  0.2196E-01  0.1295E+00  0.1295E+00
     -8.427  0.2695E-01  0.2695E-01  0.1328E+00  0.1328E+00
     -8.305  0.1846E-01  0.1846E-01  0.1351E+00  0.1351E+00
     -8.182  0.1209E-01  0.1209E-01  0.1366E+00  0.1366E+00
     -8.060  0.9224E-02  0.9224E-02  0.1377E+00  0.1377E+00
     -7.938  0.1141E-01  0.1141E-01  0.1391E+00  0.1391E+00
     -7.816  0.9215E-02  0.9215E-02  0.1402E+00  0.1402E+00
     -7.694  0.1426E-01  0.1426E-01  0.1420E+00  0.1420E+00
     -7.571  0.1882E-01  0.1882E-01  0.1443E+00  0.1443E+00
     -7.449  0.2272E-01  0.2272E-01  0.1470E+00  0.1470E+00
     -7.327  0.1545E-01  0.1545E-01  0.1489E+00  0.1489E+00
     -7.205  0.1362E-01  0.1362E-01  0.1506E+00  0.1506E+00
     -7.083  0.1474E-01  0.1474E-01  0.1524E+00  0.1524E+00
     -6.960  0.7306E-02  0.7306E-02  0.1533E+00  0.1533E+00
     -6.838  0.9841E-02  0.9841E-02  0.1545E+00  0.1545E+00
     -6.716  0.1394E-01  0.1394E-01  0.1562E+00  0.1562E+00
     -6.594  0.1191E-01  0.1191E-01  0.1576E+00  0.1576E+00
     -6.472  0.2017E-01  0.2017E-01  0.1601E+00  0.1601E+00
     -6.349  0.1167E-01  0.1167E-01  0.1615E+00  0.1615E+00
     -6.227  0.1113E-01  0.1113E-01  0.1629E+00  0.1629E+00
     -6.105  0.1358E-01  0.1358E-01  0.1646E+00  0.1646E+00
     -5.983  0.7757E-02  0.7757E-02  0.1655E+00  0.1655E+00
     -5.861  0.1257E-01  0.1257E-01  0.1670E+00  0.1670E+00
     -5.738  0.6389E-02  0.6389E-02  0.1678E+00  0.1678E+00
     -5.616  0.3688E-02  0.3688E-02  0.1683E+00  0.1683E+00
     -5.494  0.6579E-02  0.6579E-02  0.1691E+00  0.1691E+00
     -5.372  0.9368E-02  0.9368E-02  0.1702E+00  0.1702E+00
     -5.250  0.1862E-01  0.1862E-01  0.1725E+00  0.1725E+00
     -5.127  0.1988E-01  0.1988E-01  0.1749E+00  0.1749E+00
     -5.005  0.1058E-01  0.1058E-01  0.1762E+00  0.1762E+00
     -4.883  0.3041E-03  0.3041E-03  0.1763E+00  0.1763E+00
     -4.761  0.2657E-02  0.2657E-02  0.1766E+00  0.1766E+00
     -4.639  0.1123E-01  0.1123E-01  0.1780E+00  0.1780E+00
     -4.516  0.1642E-01  0.1642E-01  0.1800E+00  0.1800E+00
     -4.394  0.1574E-01  0.1574E-01  0.1819E+00  0.1819E+00
     -4.272  0.2443E-01  0.2443E-01  0.1849E+00  0.1849E+00
     -4.150  0.1177E-01  0.1177E-01  0.1863E+00  0.1863E+00
     -4.028  0.5692E-02  0.5692E-02  0.1870E+00  0.1870E+00
     -3.905  0.1775E-02  0.1775E-02  0.1872E+00  0.1872E+00
     -3.783  0.3100E-02  0.3100E-02  0.1876E+00  0.1876E+00
     -3.661  0.1067E-01  0.1067E-01  0.1889E+00  0.1889E+00
     -3.539  0.2983E-02  0.2983E-02  0.1893E+00  0.1893E+00
     -3.417  0.1862E-02  0.1862E-02  0.1895E+00  0.1895E+00
     -3.294  0.5253E-04  0.5253E-04  0.1895E+00  0.1895E+00
     -3.172  0.6692E-05  0.6692E-05  0.1895E+00  0.1895E+00
     -3.050  0.2450E-02  0.2450E-02  0.1898E+00  0.1898E+00
     -2.928  0.1634E-02  0.1634E-02  0.1900E+00  0.1900E+00
     -2.806  0.1195E-04  0.1195E-04  0.1900E+00  0.1900E+00
     -2.683  0.2314E-02  0.2314E-02  0.1903E+00  0.1903E+00
     -2.561  0.1764E-02  0.1764E-02  0.1905E+00  0.1905E+00
     -2.439  0.2901E-05  0.2901E-05  0.1905E+00  0.1905E+00
     -2.317  0.4978E-03  0.4978E-03  0.1906E+00  0.1906E+00
     -2.195  0.3356E-02  0.3356E-02  0.1910E+00  0.1910E+00
     -2.072  0.1985E-02  0.1985E-02  0.1912E+00  0.1912E+00
     -1.950  0.6334E-02  0.6334E-02  0.1920E+00  0.1920E+00
     -1.828  0.1386E-03  0.1386E-03  0.1920E+00  0.1920E+00
     -1.706  0.4290E-02  0.4290E-02  0.1925E+00  0.1925E+00
     -1.584  0.6792E-02  0.6792E-02  0.1934E+00  0.1934E+00
     -1.461  0.1159E-02  0.1159E-02  0.1935E+00  0.1935E+00
     -1.339  0.9886E-03  0.9886E-03  0.1936E+00  0.1936E+00
     -1.217  0.1145E-01  0.1145E-01  0.1950E+00  0.1950E+00
     -1.095  0.1465E-01  0.1465E-01  0.1968E+00  0.1968E+00
     -0.973  0.7147E-02  0.7147E-02  0.1977E+00  0.1977E+00
     -0.850  0.8529E-02  0.8529E-02  0.1987E+00  0.1987E+00
     -0.728  0.9499E-02  0.9499E-02  0.1999E+00  0.1999E+00
     -0.606  0.3240E-02  0.3240E-02  0.2003E+00  0.2003E+00
     -0.484  0.7750E-02  0.7750E-02  0.2012E+00  0.2012E+00
     -0.362  0.9252E-02  0.9252E-02  0.2024E+00  0.2024E+00
     -0.239  0.1094E-01  0.1094E-01  0.2037E+00  0.2037E+00
     -0.117  0.1260E-01  0.1260E-01  0.2052E+00  0.2052E+00
      0.005  0.5606E-02  0.5606E-02  0.2059E+00  0.2059E+00
      0.127  0.1185E-02  0.1185E-02  0.2061E+00  0.2061E+00
      0.249  0.4938E-02  0.4938E-02  0.2067E+00  0.2067E+00
      0.372  0.5620E-02  0.5620E-02  0.2074E+00  0.2074E+00
      0.494  0.8616E-02  0.8616E-02  0.2084E+00  0.2084E+00
      0.616  0.4856E-02  0.4856E-02  0.2090E+00  0.2090E+00
      0.738  0.4063E-02  0.4063E-02  0.2095E+00  0.2095E+00
      0.860  0.8124E-02  0.8124E-02  0.2105E+00  0.2105E+00
      0.983  0.9012E-02  0.9012E-02  0.2116E+00  0.2116E+00
      1.105  0.8662E-02  0.8662E-02  0.2127E+00  0.2127E+00
      1.227  0.1367E-01  0.1367E-01  0.2143E+00  0.2143E+00
      1.349  0.1689E-01  0.1689E-01  0.2164E+00  0.2164E+00
      1.471  0.1108E-01  0.1108E-01  0.2177E+00  0.2177E+00
      1.594  0.6677E-02  0.6677E-02  0.2186E+00  0.2186E+00
      1.716  0.5515E-02  0.5515E-02  0.2192E+00  0.2192E+00
      1.838  0.1217E-01  0.1217E-01  0.2207E+00  0.2207E+00
      1.960  0.2771E-01  0.2771E-01  0.2241E+00  0.2241E+00
      2.082  0.1196E-01  0.1196E-01  0.2256E+00  0.2256E+00
      2.204  0.6900E-02  0.6900E-02  0.2264E+00  0.2264E+00
      2.327  0.2189E-01  0.2189E-01  0.2291E+00  0.2291E+00
      2.449  0.1956E-01  0.1956E-01  0.2315E+00  0.2315E+00
      2.571  0.1554E-01  0.1554E-01  0.2334E+00  0.2334E+00
      2.693  0.9259E-02  0.9259E-02  0.2345E+00  0.2345E+00
      2.815  0.3331E-01  0.3331E-01  0.2386E+00  0.2386E+00
      2.938  0.4690E-01  0.4690E-01  0.2443E+00  0.2443E+00
      3.060  0.1548E-01  0.1548E-01  0.2462E+00  0.2462E+00
      3.182  0.5882E-02  0.5882E-02  0.2469E+00  0.2469E+00
      3.304  0.1795E-01  0.1795E-01  0.2491E+00  0.2491E+00
      3.426  0.2388E-01  0.2388E-01  0.2520E+00  0.2520E+00
      3.549  0.1534E-01  0.1534E-01  0.2539E+00  0.2539E+00
      3.671  0.1421E-01  0.1421E-01  0.2556E+00  0.2556E+00
      3.793  0.2553E-01  0.2553E-01  0.2588E+00  0.2588E+00
      3.915  0.3391E-01  0.3391E-01  0.2629E+00  0.2629E+00
      4.037  0.1494E-01  0.1494E-01  0.2647E+00  0.2647E+00
      4.160  0.2225E-02  0.2225E-02  0.2650E+00  0.2650E+00
      4.282  0.2848E-04  0.2849E-04  0.2650E+00  0.2650E+00
      4.404  0.1587E-10  0.1587E-10  0.2650E+00  0.2650E+00
      4.526  0.0000E+00  0.0000E+00  0.2650E+00  0.2650E+00
      4.648  0.0000E+00  0.0000E+00  0.2650E+00  0.2650E+00
      4.771  0.0000E+00  0.0000E+00  0.2650E+00  0.2650E+00
      4.893  0.0000E+00  0.0000E+00  0.2650E+00  0.2650E+00
      5.015  0.0000E+00  0.0000E+00  0.2650E+00  0.2650E+00
      5.137  0.0000E+00  0.0000E+00  0.2650E+00  0.2650E+00
      5.259  0.0000E+00  0.0000E+00  0.2650E+00  0.2650E+00
      5.382  0.0000E+00  0.0000E+00  0.2650E+00  0.2650E+00
      5.504  0.0000E+00  0.0000E+00  0.2650E+00  0.2650E+00
      5.626  0.0000E+00  0.0000E+00  0.2650E+00  0.2650E+00
      5.748  0.0000E+00  0.0000E+00  0.2650E+00  0.2650E+00
