       N       E                     dE             d eps       ncg     rms          rms(c)
DAV:   1     0.348965785149E+04    0.34897E+04   -0.14363E+05  4590   0.109E+03
DAV:   2    -0.184218072306E+03   -0.36739E+04   -0.34652E+04  6380   0.267E+02
DAV:   3    -0.840476400194E+03   -0.65626E+03   -0.65309E+03  5230   0.118E+02
DAV:   4    -0.863083267406E+03   -0.22607E+02   -0.22499E+02  5220   0.275E+01
DAV:   5    -0.863797151380E+03   -0.71388E+00   -0.71287E+00  5950   0.415E+00    0.512E+01
DAV:   6    -0.715448862521E+03    0.14835E+03   -0.16678E+02  4870   0.205E+01    0.281E+01
DAV:   7    -0.752146838036E+03   -0.36698E+02   -0.53770E+01  4790   0.117E+01    0.139E+01
DAV:   8    -0.784382200933E+03   -0.32235E+02   -0.21987E+01  4870   0.718E+00    0.687E+00
DAV:   9    -0.800057416357E+03   -0.15675E+02   -0.62220E+00  4615   0.361E+00    0.394E+00
DAV:  10    -0.812266774664E+03   -0.12209E+02   -0.45547E+00  4590   0.272E+00    0.223E+00
DAV:  11    -0.818728400723E+03   -0.64616E+01   -0.23251E+00  4620   0.177E+00    0.127E+00
DAV:  12    -0.821316067322E+03   -0.25877E+01   -0.86066E-01  4610   0.108E+00    0.715E-01
DAV:  13    -0.822618820668E+03   -0.13028E+01   -0.37268E-01  4680   0.703E-01    0.224E-01
DAV:  14    -0.822860880167E+03   -0.24206E+00   -0.50265E-02  4730   0.300E-01    0.117E-01
DAV:  15    -0.822876104497E+03   -0.15224E-01   -0.73538E-03  4760   0.125E-01    0.858E-02
DAV:  16    -0.822884775239E+03   -0.86707E-02   -0.21385E-03  4525   0.893E-02    0.569E-02
DAV:  17    -0.822896730470E+03   -0.11955E-01   -0.19026E-03  4630   0.706E-02    0.500E-02
DAV:  18    -0.822911568058E+03   -0.14838E-01   -0.97494E-04  4680   0.523E-02    0.328E-02
DAV:  19    -0.822918938583E+03   -0.73705E-02   -0.84710E-04  4650   0.353E-02    0.192E-02
DAV:  20    -0.822920441319E+03   -0.15027E-02   -0.95536E-05  4890   0.198E-02    0.110E-02
DAV:  21    -0.822922107674E+03   -0.16664E-02   -0.68385E-05  4570   0.130E-02    0.656E-03
DAV:  22    -0.822922498059E+03   -0.39039E-03   -0.10147E-05  4265   0.688E-03    0.377E-03
DAV:  23    -0.822922721252E+03   -0.22319E-03   -0.38945E-06  3820   0.444E-03    0.261E-03
DAV:  24    -0.822922818549E+03   -0.97297E-04   -0.26656E-06  3850   0.420E-03    0.141E-03
DAV:  25    -0.822922844474E+03   -0.25925E-04   -0.12667E-06  3520   0.252E-03    0.159E-03
DAV:  26    -0.822922855660E+03   -0.11186E-04   -0.40263E-07  3200   0.154E-03    0.983E-04
DAV:  27    -0.822922865252E+03   -0.95917E-05   -0.27051E-07  2970   0.112E-03    0.795E-04
DAV:  28    -0.822922870040E+03   -0.47884E-05   -0.12377E-07  2970   0.704E-04    0.736E-04
DAV:  29    -0.822922872075E+03   -0.20348E-05   -0.60965E-08  2830   0.472E-04    0.688E-04
DAV:  30    -0.822922872908E+03   -0.83308E-06   -0.23836E-08  2850   0.271E-04
   1 F= -.83042288E+03 E0= -.83042288E+03  d E =-.830423E+03  mag=    -0.0000
       N       E                     dE             d eps       ncg     rms          rms(c)
DAV:   1    -0.822923191141E+03   -0.31907E-03   -0.17110E-02  4420   0.228E-01    0.261E-02
DAV:   2    -0.822923227074E+03   -0.35933E-04   -0.40830E-04  4700   0.322E-02    0.153E-02
DAV:   3    -0.822923226023E+03    0.10506E-05   -0.65647E-06  4600   0.493E-03    0.926E-03
DAV:   4    -0.822923227260E+03   -0.12372E-05   -0.46380E-06  3790   0.382E-03    0.245E-03
DAV:   5    -0.822923227352E+03   -0.91670E-07   -0.14634E-06  3420   0.198E-03
   2 F= -.83042321E+03 E0= -.83042320E+03  d E =-.326448E-03  mag=    -0.0000
       N       E                     dE             d eps       ncg     rms          rms(c)
DAV:   1    -0.822923769150E+03   -0.54189E-03   -0.69006E-02  4380   0.453E-01    0.530E-02
DAV:   2    -0.822923912941E+03   -0.14379E-03   -0.16440E-03  4500   0.639E-02    0.305E-02
DAV:   3    -0.822923908272E+03    0.46684E-05   -0.25833E-05  4820   0.964E-03    0.184E-02
DAV:   4    -0.822923912496E+03   -0.42237E-05   -0.19679E-05  4260   0.752E-03    0.493E-03
DAV:   5    -0.822923912623E+03   -0.12733E-06   -0.64323E-06  4070   0.397E-03
   3 F= -.83042383E+03 E0= -.83042383E+03  d E =-.629239E-03  mag=    -0.0000
       N       E                     dE             d eps       ncg     rms          rms(c)
DAV:   1    -0.822924612420E+03   -0.69992E-03   -0.15815E-01  4360   0.679E-01    0.810E-02
DAV:   2    -0.822924937949E+03   -0.32553E-03   -0.37641E-03  4500   0.958E-02    0.461E-02
DAV:   3    -0.822924927253E+03    0.10695E-04   -0.58716E-05  4765   0.144E-02    0.277E-02
DAV:   4    -0.822924937084E+03   -0.98304E-05   -0.48559E-05  4500   0.114E-02    0.769E-03
DAV:   5    -0.822924937124E+03   -0.39952E-07   -0.15538E-05  4420   0.596E-03    0.288E-03
DAV:   6    -0.822924937323E+03   -0.19892E-06   -0.71073E-07  3360   0.124E-03
   4 F= -.83042478E+03 E0= -.83042478E+03  d E =-.941057E-03  mag=    -0.0000
       N       E                     dE             d eps       ncg     rms          rms(c)
DAV:   1    -0.822925691575E+03   -0.75445E-03   -0.28560E-01  4330   0.909E-01    0.109E-01
DAV:   2    -0.822926276156E+03   -0.58458E-03   -0.68147E-03  4480   0.128E-01    0.619E-02
DAV:   3    -0.822926255558E+03    0.20598E-04   -0.10669E-04  4740   0.193E-02    0.373E-02
DAV:   4    -0.822926272733E+03   -0.17176E-04   -0.91711E-05  4540   0.155E-02    0.105E-02
DAV:   5    -0.822926272650E+03    0.83470E-07   -0.27579E-05  4505   0.785E-03    0.379E-03
DAV:   6    -0.822926273076E+03   -0.42609E-06   -0.13507E-06  3410   0.162E-03
   5 F= -.83042600E+03 E0= -.83042600E+03  d E =-.122311E-02  mag=    -0.0000
       N       E                     dE             d eps       ncg     rms          rms(c)
DAV:   1    -0.822927021383E+03   -0.74873E-03   -0.44716E-01  4330   0.114E+00    0.137E-01
DAV:   2    -0.822927939370E+03   -0.91799E-03   -0.10682E-02  4500   0.161E-01    0.776E-02
DAV:   3    -0.822927906749E+03    0.32621E-04   -0.16807E-04  4760   0.242E-02    0.468E-02
DAV:   4    -0.822927933111E+03   -0.26362E-04   -0.14423E-04  4600   0.194E-02    0.132E-02
DAV:   5    -0.822927932980E+03    0.13070E-06   -0.43954E-05  4575   0.989E-03    0.471E-03
DAV:   6    -0.822927933622E+03   -0.64226E-06   -0.20566E-06  3510   0.200E-03
   6 F= -.83042752E+03 E0= -.83042752E+03  d E =-.151738E-02  mag=    -0.0000
       N       E                     dE             d eps       ncg     rms          rms(c)
DAV:   1    -0.822928621675E+03   -0.68870E-03   -0.63899E-01  4300   0.136E+00    0.163E-01
DAV:   2    -0.822929940088E+03   -0.13184E-02   -0.15269E-02  4490   0.192E-01    0.931E-02
DAV:   3    -0.822929891446E+03    0.48643E-04   -0.24323E-04  4740   0.290E-02    0.560E-02
DAV:   4    -0.822929926806E+03   -0.35360E-04   -0.20434E-04  4620   0.231E-02    0.158E-02
DAV:   5    -0.822929926649E+03    0.15631E-06   -0.64817E-05  4600   0.120E-02    0.565E-03
DAV:   6    -0.822929927468E+03   -0.81842E-06   -0.28555E-06  3560   0.237E-03
   7 F= -.83042933E+03 E0= -.83042933E+03  d E =-.181862E-02  mag=    -0.0000
       N       E                     dE             d eps       ncg     rms          rms(c)
DAV:   1    -0.822930223459E+03   -0.29681E-03   -0.10947E+00  4305   0.178E+00    0.214E-01
DAV:   2    -0.822932502483E+03   -0.22790E-02   -0.26305E-02  4475   0.251E-01    0.122E-01
DAV:   3    -0.822932412982E+03    0.89502E-04   -0.42003E-04  4800   0.379E-02    0.736E-02
DAV:   4    -0.822932465633E+03   -0.52651E-04   -0.36417E-04  4700   0.305E-02    0.212E-02
DAV:   5    -0.822932464631E+03    0.10011E-05   -0.11407E-04  4660   0.158E-02    0.737E-03
DAV:   6    -0.822932465976E+03   -0.13450E-05   -0.50720E-06  3790   0.315E-03    0.510E-03
DAV:   7    -0.822932467803E+03   -0.18268E-05   -0.18459E-06  3300   0.227E-03    0.240E-03
DAV:   8    -0.822932469024E+03   -0.12203E-05   -0.36596E-07  3150   0.118E-03    0.119E-03
DAV:   9    -0.822932470163E+03   -0.11396E-05   -0.16272E-07  2960   0.808E-04    0.861E-04
DAV:  10    -0.822932471228E+03   -0.10648E-05   -0.10570E-07  2880   0.716E-04    0.857E-04
DAV:  11    -0.822932472268E+03   -0.10400E-05   -0.75122E-08  2840   0.459E-04    0.881E-04
DAV:  12    -0.822932473052E+03   -0.78455E-06   -0.46649E-08  2860   0.314E-04
   8 F= -.83043165E+03 E0= -.83043165E+03  d E =-.231436E-02  mag=     0.0000
       N       E                     dE             d eps       ncg     rms          rms(c)
DAV:   1    -0.822931820641E+03    0.65163E-03   -0.18338E+00  4300   0.230E+00    0.278E-01
DAV:   2    -0.822935700874E+03   -0.38802E-02   -0.44610E-02  4520   0.325E-01    0.159E-01
DAV:   3    -0.822935536440E+03    0.16443E-03   -0.71409E-04  4720   0.492E-02    0.958E-02
DAV:   4    -0.822935611582E+03   -0.75142E-04   -0.64037E-04  4800   0.399E-02    0.283E-02
DAV:   5    -0.822935607448E+03    0.41342E-05   -0.19346E-04  4680   0.206E-02    0.942E-03
DAV:   6    -0.822935609009E+03   -0.15614E-05   -0.90369E-06  4060   0.416E-03    0.647E-03
DAV:   7    -0.822935610494E+03   -0.14848E-05   -0.27314E-06  3265   0.281E-03    0.294E-03
DAV:   8    -0.822935611629E+03   -0.11347E-05   -0.52983E-07  3240   0.136E-03    0.137E-03
DAV:   9    -0.822935612709E+03   -0.10800E-05   -0.19005E-07  2980   0.864E-04    0.898E-04
DAV:  10    -0.822935613864E+03   -0.11551E-05   -0.14982E-07  2960   0.750E-04    0.905E-04
DAV:  11    -0.822935614747E+03   -0.88351E-06   -0.11848E-07  2860   0.696E-04
   9 F= -.83043449E+03 E0= -.83043449E+03  d E =-.284008E-02  mag=     0.0000
       N       E                     dE             d eps       ncg     rms          rms(c)
DAV:   1    -0.822932822122E+03    0.27917E-02   -0.30149E+00  4300   0.295E+00    0.360E-01
DAV:   2    -0.822939690340E+03   -0.68682E-02   -0.77848E-02  4480   0.420E-01    0.205E-01
DAV:   3    -0.822939397796E+03    0.29254E-03   -0.12000E-03  4800   0.633E-02    0.124E-01
DAV:   4    -0.822939485219E+03   -0.87423E-04   -0.10504E-03  4820   0.519E-02    0.354E-02
DAV:   5    -0.822939483276E+03    0.19430E-05   -0.31677E-04  4680   0.270E-02    0.123E-02
DAV:   6    -0.822939485626E+03   -0.23501E-05   -0.16197E-05  4760   0.567E-03    0.836E-03
DAV:   7    -0.822939488133E+03   -0.25074E-05   -0.32458E-06  3330   0.341E-03    0.387E-03
DAV:   8    -0.822939490490E+03   -0.23564E-05   -0.81037E-07  3220   0.172E-03    0.167E-03
DAV:   9    -0.822939492317E+03   -0.18271E-05   -0.32260E-07  3040   0.129E-03    0.972E-04
DAV:  10    -0.822939493959E+03   -0.16426E-05   -0.26901E-07  3100   0.104E-03    0.964E-04
DAV:  11    -0.822939495599E+03   -0.16392E-05   -0.20915E-07  3020   0.993E-04    0.928E-04
DAV:  12    -0.822939496348E+03   -0.74937E-06   -0.11440E-07  2960   0.704E-04
  10 F= -.83043799E+03 E0= -.83043799E+03  d E =-.349998E-02  mag=     0.0000
       N       E                     dE             d eps       ncg     rms          rms(c)
DAV:   1    -0.822933935472E+03    0.55601E-02   -0.48629E+00  4300   0.375E+00    0.456E-01
DAV:   2    -0.822944591795E+03   -0.10656E-01   -0.12128E-01  4450   0.532E-01    0.262E-01
DAV:   3    -0.822944102166E+03    0.48963E-03   -0.20065E-03  4800   0.811E-02    0.158E-01
DAV:   4    -0.822944218569E+03   -0.11640E-03   -0.17322E-03  4820   0.668E-02    0.468E-02
DAV:   5    -0.822944212349E+03    0.62203E-05   -0.54221E-04  4680   0.352E-02    0.156E-02
DAV:   6    -0.822944215768E+03   -0.34189E-05   -0.27775E-05  4920   0.747E-03    0.105E-02
DAV:   7    -0.822944218943E+03   -0.31758E-05   -0.48207E-06  3585   0.442E-03    0.512E-03
DAV:   8    -0.822944222478E+03   -0.35351E-05   -0.12583E-06  3360   0.208E-03    0.224E-03
DAV:   9    -0.822944224891E+03   -0.24122E-05   -0.54601E-07  3120   0.168E-03    0.103E-03
DAV:  10    -0.822944227152E+03   -0.22615E-05   -0.31517E-07  3180   0.938E-04    0.111E-03
DAV:  11    -0.822944229281E+03   -0.21287E-05   -0.15285E-07  3080   0.778E-04    0.861E-04
DAV:  12    -0.822944230697E+03   -0.14162E-05   -0.18510E-07  3060   0.852E-04    0.804E-04
DAV:  13    -0.822944231772E+03   -0.10754E-05   -0.14095E-07  3060   0.769E-04    0.808E-04
DAV:  14    -0.822944232522E+03   -0.74958E-06   -0.46506E-08  2860   0.361E-04
  11 F= -.83044222E+03 E0= -.83044222E+03  d E =-.423460E-02  mag=     0.0000
       N       E                     dE             d eps       ncg     rms          rms(c)
DAV:   1    -0.822933165316E+03    0.11066E-01   -0.78849E+00  4280   0.476E+00    0.588E-01
DAV:   2    -0.822950752436E+03   -0.17587E-01   -0.20067E-01  4480   0.680E-01    0.336E-01
DAV:   3    -0.822949914564E+03    0.83787E-03   -0.34312E-03  4760   0.105E-01    0.203E-01
DAV:   4    -0.822950057119E+03   -0.14255E-03   -0.29415E-03  4840   0.864E-02    0.611E-02
DAV:   5    -0.822950048029E+03    0.90898E-05   -0.91645E-04  4700   0.455E-02    0.203E-02
DAV:   6    -0.822950052962E+03   -0.49332E-05   -0.44252E-05  4960   0.939E-03    0.133E-02
DAV:   7    -0.822950058276E+03   -0.53140E-05   -0.11040E-05  3940   0.603E-03    0.674E-03
DAV:   8    -0.822950062443E+03   -0.41672E-05   -0.23621E-06  3620   0.274E-03    0.269E-03
DAV:   9    -0.822950065908E+03   -0.34647E-05   -0.83723E-07  3280   0.192E-03    0.123E-03
DAV:  10    -0.822950069122E+03   -0.32143E-05   -0.53677E-07  3260   0.102E-03    0.141E-03
DAV:  11    -0.822950071827E+03   -0.27049E-05   -0.16481E-07  3060   0.713E-04    0.941E-04
DAV:  12    -0.822950074176E+03   -0.23491E-05   -0.21307E-07  3040   0.658E-04    0.823E-04
DAV:  13    -0.822950075793E+03   -0.16173E-05   -0.17462E-07  3120   0.829E-04    0.798E-04
DAV:  14    -0.822950076489E+03   -0.69562E-06   -0.70161E-08  2860   0.517E-04
  12 F= -.83044739E+03 E0= -.83044739E+03  d E =-.516380E-02  mag=    -0.0000
       N       E                     dE             d eps       ncg     rms          rms(c)
DAV:   1    -0.822928863498E+03    0.21212E-01   -0.12779E+01  4280   0.607E+00    0.755E-01
DAV:   2    -0.822958056639E+03   -0.29193E-01   -0.33241E-01  4450   0.871E-01    0.435E-01
DAV:   3    -0.822956579343E+03    0.14773E-02   -0.58781E-03  4840   0.136E-01    0.263E-01
DAV:   4    -0.822956774592E+03   -0.19525E-03   -0.51669E-03  4840   0.112E-01    0.827E-02
DAV:   5    -0.822956747319E+03    0.27273E-04   -0.15771E-03  4680   0.603E-02    0.264E-02
DAV:   6    -0.822956756163E+03   -0.88439E-05   -0.77351E-05  5060   0.129E-02    0.171E-02
DAV:   7    -0.822956763562E+03   -0.73991E-05   -0.15053E-05  4050   0.761E-03    0.834E-03
DAV:   8    -0.822956770481E+03   -0.69189E-05   -0.33750E-06  3880   0.348E-03    0.364E-03
DAV:   9    -0.822956775445E+03   -0.49641E-05   -0.16503E-06  3620   0.278E-03    0.135E-03
DAV:  10    -0.822956779817E+03   -0.43719E-05   -0.55689E-07  3200   0.119E-03    0.147E-03
DAV:  11    -0.822956784022E+03   -0.42050E-05   -0.25045E-07  3040   0.793E-04    0.976E-04
DAV:  12    -0.822956787108E+03   -0.30856E-05   -0.23732E-07  3120   0.652E-04    0.896E-04
DAV:  13    -0.822956789527E+03   -0.24189E-05   -0.22856E-07  3140   0.883E-04    0.841E-04
DAV:  14    -0.822956790326E+03   -0.79966E-06   -0.94875E-08  2900   0.643E-04
  13 F= -.83045325E+03 E0= -.83045325E+03  d E =-.585988E-02  mag=    -0.0000
       N       E                     dE             d eps       ncg     rms          rms(c)
DAV:   1    -0.822917871886E+03    0.38918E-01   -0.19886E+01  4280   0.764E+00    0.955E-01
DAV:   2    -0.822964742258E+03   -0.46870E-01   -0.53323E-01  4430   0.110E+00    0.553E-01
DAV:   3    -0.822962208671E+03    0.25336E-02   -0.99944E-03  4820   0.177E-01    0.331E-01
DAV:   4    -0.822962486595E+03   -0.27792E-03   -0.79787E-03  4820   0.141E-01    0.104E-01
DAV:   5    -0.822962463166E+03    0.23429E-04   -0.25452E-03  4680   0.753E-02    0.351E-02
DAV:   6    -0.822962468573E+03   -0.54074E-05   -0.12760E-04  4920   0.161E-02    0.216E-02
DAV:   7    -0.822962480861E+03   -0.12287E-04   -0.36990E-05  4180   0.101E-02    0.114E-02
DAV:   8    -0.822962489607E+03   -0.87460E-05   -0.74843E-06  4380   0.478E-03    0.388E-03
DAV:   9    -0.822962496918E+03   -0.73113E-05   -0.17402E-06  3760   0.264E-03    0.188E-03
DAV:  10    -0.822962503062E+03   -0.61441E-05   -0.11271E-06  3380   0.138E-03    0.162E-03
DAV:  11    -0.822962508724E+03   -0.56617E-05   -0.31308E-07  3040   0.862E-04    0.108E-03
DAV:  12    -0.822962513884E+03   -0.51598E-05   -0.49979E-07  3340   0.919E-04    0.909E-04
DAV:  13    -0.822962516921E+03   -0.30374E-05   -0.36128E-07  3120   0.121E-03    0.812E-04
DAV:  14    -0.822962518037E+03   -0.11158E-05   -0.18188E-07  3070   0.898E-04    0.773E-04
DAV:  15    -0.822962519040E+03   -0.10028E-05   -0.52754E-08  2800   0.389E-04    0.773E-04
DAV:  16    -0.822962519368E+03   -0.32849E-06   -0.11895E-08  2940   0.170E-04
  14 F= -.83045784E+03 E0= -.83045784E+03  d E =-.458804E-02  mag=    -0.0000
       N       E                     dE             d eps       ncg     rms          rms(c)
DAV:   1    -0.822869915374E+03    0.92604E-01   -0.34257E+01  4280   0.101E+01    0.130E+00
DAV:   2    -0.822953973454E+03   -0.84058E-01   -0.98357E-01  4520   0.150E+00    0.769E-01
DAV:   3    -0.822948173572E+03    0.57999E-02   -0.20979E-02  5000   0.257E-01    0.469E-01
DAV:   4    -0.822947888886E+03    0.28469E-03   -0.19231E-02  4660   0.210E-01    0.162E-01
DAV:   5    -0.822947751121E+03    0.13777E-03   -0.40161E-03  4880   0.102E-01    0.514E-02
DAV:   6    -0.822947799323E+03   -0.48203E-04   -0.45285E-04  4800   0.323E-02    0.336E-02
DAV:   7    -0.822947808516E+03   -0.91924E-05   -0.62190E-05  4820   0.162E-02    0.159E-02
DAV:   8    -0.822947831768E+03   -0.23253E-04   -0.17241E-05  4580   0.687E-03    0.103E-02
DAV:   9    -0.822947842033E+03   -0.10264E-04   -0.92312E-06  4140   0.626E-03    0.243E-03
DAV:  10    -0.822947855327E+03   -0.13295E-04   -0.23851E-06  3600   0.278E-03    0.171E-03
DAV:  11    -0.822947867858E+03   -0.12530E-04   -0.71733E-07  3320   0.125E-03    0.153E-03
DAV:  12    -0.822947876332E+03   -0.84744E-05   -0.70329E-07  3280   0.118E-03    0.894E-04
DAV:  13    -0.822947880470E+03   -0.41379E-05   -0.34625E-07  3120   0.124E-03    0.854E-04
DAV:  14    -0.822947882469E+03   -0.19993E-05   -0.23084E-07  3060   0.106E-03    0.794E-04
DAV:  15    -0.822947883878E+03   -0.14086E-05   -0.77326E-08  2880   0.545E-04    0.770E-04
DAV:  16    -0.822947884839E+03   -0.96130E-06   -0.33856E-08  2860   0.270E-04
  15 F= -.83044179E+03 E0= -.83044179E+03  d E =0.160454E-01  mag=    -0.0000
       N       E                     dE             d eps       ncg     rms          rms(c)
DAV:   1    -0.822968954514E+03   -0.21071E-01   -0.21514E+00  4370   0.290E+00    0.335E-01
DAV:   2    -0.822972532772E+03   -0.35783E-02   -0.57066E-02  4940   0.442E-01    0.228E-01
DAV:   3    -0.822971808155E+03    0.72462E-03   -0.30340E-03  5020   0.108E-01    0.130E-01
DAV:   4    -0.822971635656E+03    0.17250E-03   -0.59154E-04  4500   0.469E-02    0.452E-02
DAV:   5    -0.822971632266E+03    0.33905E-05   -0.12693E-04  4620   0.246E-02    0.115E-02
DAV:   6    -0.822971634440E+03   -0.21740E-05   -0.27068E-05  4660   0.105E-02    0.779E-03
DAV:   7    -0.822971636003E+03   -0.15634E-05   -0.16300E-06  3260   0.289E-03    0.405E-03
DAV:   8    -0.822971638487E+03   -0.24839E-05   -0.10978E-06  3180   0.238E-03    0.141E-03
DAV:   9    -0.822971640600E+03   -0.21126E-05   -0.32270E-07  2880   0.138E-03    0.942E-04
DAV:  10    -0.822971642981E+03   -0.23811E-05   -0.20909E-07  2920   0.986E-04    0.875E-04
DAV:  11    -0.822971644857E+03   -0.18765E-05   -0.25690E-07  3060   0.104E-03    0.838E-04
DAV:  12    -0.822971645682E+03   -0.82457E-06   -0.16190E-07  3000   0.865E-04
  16 F= -.83046569E+03 E0= -.83046569E+03  d E =-.238963E-01  mag=     0.0000
       N       E                     dE             d eps       ncg     rms          rms(c)
DAV:   1    -0.822972149049E+03   -0.50419E-03   -0.82277E-03  4420   0.174E-01    0.201E-02
DAV:   2    -0.822972165461E+03   -0.16412E-04   -0.22350E-04  4680   0.263E-02    0.135E-02
DAV:   3    -0.822972163463E+03    0.19981E-05   -0.87487E-06  4740   0.573E-03    0.820E-03
DAV:   4    -0.822972163112E+03    0.35037E-06   -0.24968E-06  3200   0.303E-03
  17 F= -.83046622E+03 E0= -.83046622E+03  d E =-.535501E-03  mag=    -0.0000
       N       E                     dE             d eps       ncg     rms          rms(c)
DAV:   1    -0.822972525215E+03   -0.36175E-03   -0.25930E-02  4240   0.305E-01    0.359E-02
DAV:   2    -0.822972575536E+03   -0.50321E-04   -0.68303E-04  4740   0.456E-02    0.234E-02
DAV:   3    -0.822972569401E+03    0.61348E-05   -0.25636E-05  4860   0.980E-03    0.141E-02
DAV:   4    -0.822972567998E+03    0.14024E-05   -0.79646E-06  4160   0.530E-03    0.422E-03
DAV:   5    -0.822972568177E+03   -0.17833E-06   -0.16349E-06  3320   0.246E-03
  18 F= -.83046666E+03 E0= -.83046666E+03  d E =-.440948E-03  mag=     0.0000
       N       E                     dE             d eps       ncg     rms          rms(c)
DAV:   1    -0.822972281863E+03    0.28614E-03   -0.39597E-02  4240   0.362E-01    0.438E-02
DAV:   2    -0.822972360616E+03   -0.78754E-04   -0.10180E-03  4740   0.539E-02    0.276E-02
DAV:   3    -0.822972352994E+03    0.76228E-05   -0.32339E-05  5060   0.109E-02    0.168E-02
DAV:   4    -0.822972351738E+03    0.12561E-05   -0.12631E-05  4440   0.644E-03    0.470E-03
DAV:   5    -0.822972352019E+03   -0.28173E-06   -0.25823E-06  3440   0.289E-03
  19 F= -.83046650E+03 E0= -.83046650E+03  d E =0.161894E-03  mag=    -0.0000
       N       E                     dE             d eps       ncg     rms          rms(c)
DAV:   1    -0.822971797625E+03    0.55411E-03   -0.41345E-02  4240   0.340E-01    0.442E-02
DAV:   2    -0.822971880704E+03   -0.83079E-04   -0.99867E-04  4640   0.490E-02    0.257E-02
DAV:   3    -0.822971875706E+03    0.49986E-05   -0.21984E-05  5020   0.878E-03    0.155E-02
DAV:   4    -0.822971876624E+03   -0.91826E-06   -0.13282E-05  4140   0.604E-03    0.422E-03
DAV:   5    -0.822971876744E+03   -0.11973E-06   -0.28482E-06  3540   0.283E-03
  20 F= -.83046610E+03 E0= -.83046610E+03  d E =0.404856E-03  mag=     0.0000
       N       E                     dE             d eps       ncg     rms          rms(c)
DAV:   1    -0.822971657654E+03    0.21897E-03   -0.45492E-02  4320   0.330E-01    0.456E-02
DAV:   2    -0.822971745449E+03   -0.87795E-04   -0.10209E-03  4520   0.456E-02    0.253E-02
DAV:   3    -0.822971741793E+03    0.36554E-05   -0.17194E-05  4740   0.704E-03    0.151E-02
DAV:   4    -0.822971744318E+03   -0.25243E-05   -0.13104E-05  4020   0.529E-03    0.411E-03
DAV:   5    -0.822971744294E+03    0.23902E-07   -0.37289E-06  3620   0.289E-03
  21 F= -.83046605E+03 E0= -.83046605E+03  d E =0.488339E-04  mag=    -0.0000
       N       E                     dE             d eps       ncg     rms          rms(c)
DAV:   1    -0.822971845547E+03   -0.10123E-03   -0.58000E-02  4280   0.393E-01    0.524E-02
DAV:   2    -0.822971962759E+03   -0.11721E-03   -0.13828E-03  4480   0.557E-02    0.298E-02
DAV:   3    -0.822971956908E+03    0.58505E-05   -0.26823E-05  5020   0.936E-03    0.179E-02
DAV:   4    -0.822971959259E+03   -0.23505E-05   -0.17201E-05  4060   0.645E-03    0.477E-03
DAV:   5    -0.822971959333E+03   -0.73713E-07   -0.40935E-06  3720   0.315E-03
  22 F= -.83046636E+03 E0= -.83046636E+03  d E =-.309475E-03  mag=     0.0000
       N       E                     dE             d eps       ncg     rms          rms(c)
DAV:   1    -0.822971808233E+03    0.15103E-03   -0.90499E-02  4240   0.516E-01    0.659E-02
DAV:   2    -0.822971996679E+03   -0.18845E-03   -0.22547E-03  4580   0.744E-02    0.386E-02
DAV:   3    -0.822971985447E+03    0.11231E-04   -0.51121E-05  5020   0.134E-02    0.233E-02
DAV:   4    -0.822971987598E+03   -0.21507E-05   -0.26753E-05  4420   0.858E-03    0.619E-03
DAV:   5    -0.822971987946E+03   -0.34753E-06   -0.61094E-06  4000   0.397E-03
  23 F= -.83046650E+03 E0= -.83046650E+03  d E =-.143976E-03  mag=    -0.0000
       N       E                     dE             d eps       ncg     rms          rms(c)
DAV:   1    -0.822971317643E+03    0.66996E-03   -0.11414E-01  4260   0.564E-01    0.734E-02
DAV:   2    -0.822971555292E+03   -0.23765E-03   -0.27607E-03  4460   0.800E-02    0.422E-02
DAV:   3    -0.822971543582E+03    0.11710E-04   -0.55905E-05  5120   0.137E-02    0.253E-02
DAV:   4    -0.822971548321E+03   -0.47391E-05   -0.31393E-05  4360   0.910E-03    0.657E-03
DAV:   5    -0.822971548638E+03   -0.31679E-06   -0.79214E-06  4180   0.440E-03
  24 F= -.83046620E+03 E0= -.83046620E+03  d E =0.299952E-03  mag=    -0.0000
       N       E                     dE             d eps       ncg     rms          rms(c)
DAV:   1    -0.822971173013E+03    0.37531E-03   -0.12693E-01  4320   0.569E-01    0.757E-02
DAV:   2    -0.822971430268E+03   -0.25725E-03   -0.29127E-03  4330   0.783E-02    0.428E-02
DAV:   3    -0.822971420003E+03    0.10265E-04   -0.49299E-05  4800   0.122E-02    0.256E-02
DAV:   4    -0.822971427200E+03   -0.71974E-05   -0.34510E-05  4320   0.888E-03    0.657E-03
DAV:   5    -0.822971427376E+03   -0.17521E-06   -0.10347E-05  4220   0.473E-03    0.260E-03
DAV:   6    -0.822971427599E+03   -0.22347E-06   -0.49284E-07  3360   0.106E-03
  25 F= -.83046623E+03 E0= -.83046623E+03  d E =-.317514E-04  mag=    -0.0000
       N       E                     dE             d eps       ncg     rms          rms(c)
DAV:   1    -0.822971275078E+03    0.15230E-03   -0.16315E-01  4260   0.680E-01    0.852E-02
DAV:   2    -0.822971615239E+03   -0.34016E-03   -0.39410E-03  4360   0.963E-02    0.504E-02
DAV:   3    -0.822971596881E+03    0.18358E-04   -0.77279E-05  4880   0.165E-02    0.307E-02
DAV:   4    -0.822971601489E+03   -0.46084E-05   -0.52496E-05  4560   0.118E-02    0.780E-03
DAV:   5    -0.822971602048E+03   -0.55855E-06   -0.12139E-05  4160   0.555E-03    0.342E-03
DAV:   6    -0.822971602353E+03   -0.30523E-06   -0.82732E-07  3300   0.149E-03
  26 F= -.83046657E+03 E0= -.83046657E+03  d E =-.333808E-03  mag=    -0.0000
       N       E                     dE             d eps       ncg     rms          rms(c)
DAV:   1    -0.822971024816E+03    0.57723E-03   -0.18013E-01  4260   0.735E-01    0.886E-02
DAV:   2    -0.822971402954E+03   -0.37814E-03   -0.43788E-03  4350   0.104E-01    0.525E-02
DAV:   3    -0.822971383949E+03    0.19004E-04   -0.85001E-05  4880   0.178E-02    0.321E-02
DAV:   4    -0.822971388026E+03   -0.40764E-05   -0.55478E-05  4560   0.129E-02    0.766E-03
DAV:   5    -0.822971388840E+03   -0.81393E-06   -0.12762E-05  4280   0.597E-03    0.374E-03
DAV:   6    -0.822971389172E+03   -0.33234E-06   -0.10603E-06  3340   0.172E-03
  27 F= -.83046651E+03 E0= -.83046651E+03  d E =0.554701E-04  mag=    -0.0000
       N       E                     dE             d eps       ncg     rms          rms(c)
DAV:   1    -0.822971506766E+03   -0.11793E-03   -0.64780E-04  4520   0.523E-02    0.568E-03
DAV:   2    -0.822971508103E+03   -0.13370E-05   -0.17307E-05  4740   0.783E-03    0.414E-03
DAV:   3    -0.822971508092E+03    0.11321E-07   -0.78983E-07  3020   0.189E-03
  28 F= -.83046663E+03 E0= -.83046663E+03  d E =-.118433E-03  mag=    -0.0000
       N       E                     dE             d eps       ncg     rms          rms(c)
DAV:   1    -0.822971672717E+03   -0.16461E-03   -0.22822E-03  4420   0.977E-02    0.110E-02
DAV:   2    -0.822971676853E+03   -0.41357E-05   -0.60129E-05  4800   0.145E-02    0.763E-03
DAV:   3    -0.822971676306E+03    0.54698E-06   -0.27237E-06  3480   0.340E-03
  29 F= -.83046679E+03 E0= -.83046679E+03  d E =-.165974E-03  mag=    -0.0000
       N       E                     dE             d eps       ncg     rms          rms(c)
DAV:   1    -0.822971802070E+03   -0.12522E-03   -0.42261E-03  4300   0.131E-01    0.150E-02
DAV:   2    -0.822971809638E+03   -0.75683E-05   -0.10866E-04  4760   0.192E-02    0.101E-02
DAV:   3    -0.822971808705E+03    0.93294E-06   -0.46966E-06  4140   0.435E-03
  30 F= -.83046692E+03 E0= -.83046692E+03  d E =-.126781E-03  mag=    -0.0000
       N       E                     dE             d eps       ncg     rms          rms(c)
DAV:   1    -0.822971874109E+03   -0.64471E-04   -0.62564E-03  4280   0.152E-01    0.180E-02
DAV:   2    -0.822971885359E+03   -0.11250E-04   -0.15376E-04  4720   0.219E-02    0.113E-02
DAV:   3    -0.822971884423E+03    0.93604E-06   -0.51082E-06  4380   0.454E-03
  31 F= -.83046699E+03 E0= -.83046699E+03  d E =-.650443E-04  mag=    -0.0000
       N       E                     dE             d eps       ncg     rms          rms(c)
DAV:   1    -0.822971949388E+03   -0.64029E-04   -0.93454E-03  4300   0.172E-01    0.214E-02
DAV:   2    -0.822971965958E+03   -0.16570E-04   -0.21558E-04  4580   0.241E-02    0.123E-02
DAV:   3    -0.822971965257E+03    0.70132E-06   -0.47340E-06  4360   0.434E-03
  32 F= -.83046705E+03 E0= -.83046705E+03  d E =-.634134E-04  mag=    -0.0000
       N       E                     dE             d eps       ncg     rms          rms(c)
DAV:   1    -0.822972104870E+03   -0.13891E-03   -0.15431E-02  4300   0.209E-01    0.270E-02
DAV:   2    -0.822972132067E+03   -0.27197E-04   -0.34708E-04  4600   0.289E-02    0.147E-02
DAV:   3    -0.822972131141E+03    0.92600E-06   -0.61338E-06  4400   0.468E-03
  33 F= -.83046719E+03 E0= -.83046719E+03  d E =-.140092E-03  mag=    -0.0000
       N       E                     dE             d eps       ncg     rms          rms(c)
DAV:   1    -0.822972382465E+03   -0.25040E-03   -0.33697E-02  4280   0.305E-01    0.398E-02
DAV:   2    -0.822972443513E+03   -0.61047E-04   -0.76974E-04  4540   0.425E-02    0.216E-02
DAV:   3    -0.822972440981E+03    0.25315E-05   -0.13557E-05  4680   0.683E-03    0.128E-02
DAV:   4    -0.822972442860E+03   -0.18786E-05   -0.10376E-05  4060   0.516E-03    0.346E-03
DAV:   5    -0.822972442946E+03   -0.85856E-07   -0.22708E-06  3460   0.237E-03
  34 F= -.83046746E+03 E0= -.83046746E+03  d E =-.270729E-03  mag=     0.0000
       N       E                     dE             d eps       ncg     rms          rms(c)
DAV:   1    -0.822972741331E+03   -0.29847E-03   -0.74117E-02  4280   0.452E-01    0.576E-02
DAV:   2    -0.822972886577E+03   -0.14525E-03   -0.17642E-03  4450   0.642E-02    0.323E-02
DAV:   3    -0.822972879503E+03    0.70742E-05   -0.30689E-05  4700   0.103E-02    0.194E-02
DAV:   4    -0.822972882657E+03   -0.31540E-05   -0.25395E-05  4380   0.796E-03    0.538E-03
DAV:   5    -0.822972882755E+03   -0.98138E-07   -0.59238E-06  4060   0.371E-03
  35 F= -.83046784E+03 E0= -.83046784E+03  d E =-.375466E-03  mag=     0.0000
       N       E                     dE             d eps       ncg     rms          rms(c)
DAV:   1    -0.822973108215E+03   -0.22556E-03   -0.15622E-01  4280   0.654E-01    0.837E-02
DAV:   2    -0.822973418806E+03   -0.31059E-03   -0.37385E-03  4390   0.929E-02    0.468E-02
DAV:   3    -0.822973404724E+03    0.14082E-04   -0.63539E-05  4700   0.147E-02    0.280E-02
DAV:   4    -0.822973411665E+03   -0.69402E-05   -0.53250E-05  4560   0.114E-02    0.783E-03
DAV:   5    -0.822973411733E+03   -0.68634E-07   -0.13377E-05  4440   0.549E-03    0.299E-03
DAV:   6    -0.822973412047E+03   -0.31358E-06   -0.87306E-07  3340   0.136E-03
  36 F= -.83046827E+03 E0= -.83046827E+03  d E =-.429950E-03  mag=    -0.0000
       N       E                     dE             d eps       ncg     rms          rms(c)
DAV:   1    -0.822973469992E+03   -0.58258E-04   -0.31995E-01  4280   0.931E-01    0.120E-01
DAV:   2    -0.822974108922E+03   -0.63893E-03   -0.76404E-03  4390   0.132E-01    0.667E-02
DAV:   3    -0.822974081338E+03    0.27583E-04   -0.12668E-04  4740   0.205E-02    0.399E-02
DAV:   4    -0.822974096504E+03   -0.15165E-04   -0.10621E-04  4600   0.161E-02    0.111E-02
DAV:   5    -0.822974096439E+03    0.64683E-07   -0.30448E-05  4560   0.820E-03    0.396E-03
DAV:   6    -0.822974096864E+03   -0.42480E-06   -0.12399E-06  3400   0.166E-03
  37 F= -.83046880E+03 E0= -.83046880E+03  d E =-.534534E-03  mag=    -0.0000
       N       E                     dE             d eps       ncg     rms          rms(c)
DAV:   1    -0.822973831322E+03    0.26512E-03   -0.65486E-01  4280   0.134E+00    0.171E-01
DAV:   2    -0.822975164353E+03   -0.13330E-02   -0.15755E-02  4470   0.189E-01    0.956E-02
DAV:   3    -0.822975106712E+03    0.57641E-04   -0.26187E-04  4780   0.292E-02    0.571E-02
DAV:   4    -0.822975139116E+03   -0.32404E-04   -0.21240E-04  4640   0.230E-02    0.158E-02
DAV:   5    -0.822975139144E+03   -0.27561E-07   -0.66117E-05  4620   0.122E-02    0.581E-03
DAV:   6    -0.822975139709E+03   -0.56507E-06   -0.28550E-06  3560   0.244E-03
  38 F= -.83046962E+03 E0= -.83046962E+03  d E =-.821582E-03  mag=    -0.0000
       N       E                     dE             d eps       ncg     rms          rms(c)
DAV:   1    -0.822973857515E+03    0.12816E-02   -0.13311E+00  4280   0.191E+00    0.245E-01
DAV:   2    -0.822976625264E+03   -0.27677E-02   -0.32434E-02  4470   0.271E-01    0.137E-01
DAV:   3    -0.822976500559E+03    0.12470E-03   -0.55138E-04  4780   0.422E-02    0.822E-02
DAV:   4    -0.822976561220E+03   -0.60661E-04   -0.43518E-04  4720   0.332E-02    0.230E-02
DAV:   5    -0.822976561228E+03   -0.81127E-08   -0.13394E-04  4640   0.177E-02    0.822E-03
DAV:   6    -0.822976562380E+03   -0.11524E-05   -0.61698E-06  3970   0.364E-03    0.533E-03
DAV:   7    -0.822976564729E+03   -0.23488E-05   -0.16778E-06  3320   0.252E-03    0.255E-03
DAV:   8    -0.822976566089E+03   -0.13601E-05   -0.43676E-07  3180   0.129E-03    0.128E-03
DAV:   9    -0.822976567154E+03   -0.10655E-05   -0.12037E-07  2860   0.828E-04    0.102E-03
DAV:  10    -0.822976568356E+03   -0.12017E-05   -0.11877E-07  3040   0.593E-04    0.996E-04
DAV:  11    -0.822976569624E+03   -0.12679E-05   -0.43530E-08  2840   0.361E-04    0.969E-04
DAV:  12    -0.822976570458E+03   -0.83444E-06   -0.46973E-08  2900   0.316E-04
  39 F= -.83047073E+03 E0= -.83047073E+03  d E =-.110738E-02  mag=    -0.0000
       N       E                     dE             d eps       ncg     rms          rms(c)
DAV:   1    -0.822972921449E+03    0.36482E-02   -0.26681E+00  4280   0.270E+00    0.347E-01
DAV:   2    -0.822978593731E+03   -0.56723E-02   -0.65827E-02  4480   0.383E-01    0.196E-01
DAV:   3    -0.822978323642E+03    0.27009E-03   -0.11417E-03  4740   0.600E-02    0.117E-01
DAV:   4    -0.822978420597E+03   -0.96955E-04   -0.91277E-04  4780   0.476E-02    0.337E-02
DAV:   5    -0.822978418460E+03    0.21372E-05   -0.28200E-04  4660   0.257E-02    0.118E-02
DAV:   6    -0.822978419774E+03   -0.13139E-05   -0.14213E-05  4720   0.537E-03    0.743E-03
DAV:   7    -0.822978422374E+03   -0.26001E-05   -0.31907E-06  3390   0.345E-03    0.356E-03
DAV:   8    -0.822978423958E+03   -0.15847E-05   -0.81378E-07  3240   0.172E-03    0.158E-03
DAV:   9    -0.822978425480E+03   -0.15221E-05   -0.29631E-07  2980   0.127E-03    0.102E-03
DAV:  10    -0.822978426775E+03   -0.12945E-05   -0.28415E-07  3180   0.995E-04    0.107E-03
DAV:  11    -0.822978427962E+03   -0.11870E-05   -0.12377E-07  2960   0.761E-04    0.941E-04
DAV:  12    -0.822978428693E+03   -0.73117E-06   -0.95070E-08  2900   0.597E-04
  40 F= -.83047212E+03 E0= -.83047212E+03  d E =-.138941E-02  mag=    -0.0000
       N       E                     dE             d eps       ncg     rms          rms(c)
DAV:   1    -0.822969802439E+03    0.86255E-02   -0.52479E+00  4280   0.379E+00    0.490E-01
DAV:   2    -0.822981257340E+03   -0.11455E-01   -0.13209E-01  4480   0.539E-01    0.278E-01
DAV:   3    -0.822980662218E+03    0.59512E-03   -0.23493E-03  4780   0.853E-02    0.166E-01
DAV:   4    -0.822980807925E+03   -0.14571E-03   -0.19302E-03  4760   0.686E-02    0.497E-02
DAV:   5    -0.822980801733E+03    0.61923E-05   -0.56911E-04  4680   0.372E-02    0.162E-02
DAV:   6    -0.822980804941E+03   -0.32079E-05   -0.29943E-05  4980   0.790E-03    0.102E-02
DAV:   7    -0.822980809632E+03   -0.46913E-05   -0.52752E-06  3900   0.478E-03    0.488E-03
DAV:   8    -0.822980812902E+03   -0.32700E-05   -0.13744E-06  3340   0.226E-03    0.218E-03
DAV:   9    -0.822980815550E+03   -0.26475E-05   -0.69748E-07  3220   0.179E-03    0.103E-03
DAV:  10    -0.822980818024E+03   -0.24746E-05   -0.31517E-07  3180   0.103E-03    0.116E-03
DAV:  11    -0.822980820062E+03   -0.20373E-05   -0.16107E-07  3060   0.757E-04    0.844E-04
DAV:  12    -0.822980821608E+03   -0.15464E-05   -0.17984E-07  3040   0.800E-04    0.787E-04
DAV:  13    -0.822980822793E+03   -0.11855E-05   -0.16207E-07  2980   0.817E-04    0.783E-04
DAV:  14    -0.822980823634E+03   -0.84058E-06   -0.59078E-08  2860   0.374E-04
  41 F= -.83047384E+03 E0= -.83047384E+03  d E =-.172114E-02  mag=    -0.0000
       N       E                     dE             d eps       ncg     rms          rms(c)
DAV:   1    -0.822962435334E+03    0.18387E-01   -0.99316E+00  4280   0.523E+00    0.680E-01
DAV:   2    -0.822984594346E+03   -0.22159E-01   -0.25505E-01  4500   0.747E-01    0.389E-01
DAV:   3    -0.822983362394E+03    0.12320E-02   -0.48066E-03  4780   0.121E-01    0.233E-01
DAV:   4    -0.822983570838E+03   -0.20844E-03   -0.39960E-03  4760   0.985E-02    0.734E-02
DAV:   5    -0.822983548099E+03    0.22739E-04   -0.11164E-03  4680   0.533E-02    0.216E-02
DAV:   6    -0.822983556678E+03   -0.85786E-05   -0.60371E-05  4980   0.115E-02    0.137E-02
DAV:   7    -0.822983564094E+03   -0.74161E-05   -0.83666E-06  4030   0.660E-03    0.676E-03
DAV:   8    -0.822983570057E+03   -0.59625E-05   -0.24660E-06  3660   0.302E-03    0.326E-03
DAV:   9    -0.822983574032E+03   -0.39754E-05   -0.14784E-06  3540   0.267E-03    0.119E-03
DAV:  10    -0.822983578028E+03   -0.39957E-05   -0.42286E-07  3130   0.115E-03    0.126E-03
DAV:  11    -0.822983581290E+03   -0.32623E-05   -0.22655E-07  3040   0.779E-04    0.826E-04
DAV:  12    -0.822983583834E+03   -0.25435E-05   -0.20032E-07  3100   0.819E-04    0.787E-04
DAV:  13    -0.822983585495E+03   -0.16613E-05   -0.21352E-07  3120   0.943E-04    0.777E-04
DAV:  14    -0.822983586585E+03   -0.10903E-05   -0.88594E-08  2840   0.575E-04    0.748E-04
DAV:  15    -0.822983587161E+03   -0.57559E-06   -0.30638E-08  2920   0.313E-04
  42 F= -.83047566E+03 E0= -.83047566E+03  d E =-.181504E-02  mag=     0.0000
       N       E                     dE             d eps       ncg     rms          rms(c)
DAV:   1    -0.822946841770E+03    0.36745E-01   -0.17946E+01  4280   0.704E+00    0.929E-01
DAV:   2    -0.822988557289E+03   -0.41716E-01   -0.47908E-01  4500   0.101E+00    0.534E-01
DAV:   3    -0.822986098413E+03    0.24589E-02   -0.94371E-03  4780   0.167E-01    0.319E-01
DAV:   4    -0.822986385476E+03   -0.28706E-03   -0.79265E-03  4780   0.139E-01    0.105E-01
DAV:   5    -0.822986324137E+03    0.61339E-04   -0.21313E-03  4740   0.756E-02    0.291E-02
DAV:   6    -0.822986342101E+03   -0.17964E-04   -0.11975E-04  4920   0.167E-02    0.185E-02
DAV:   7    -0.822986353974E+03   -0.11873E-04   -0.13912E-05  4110   0.922E-03    0.909E-03
DAV:   8    -0.822986364465E+03   -0.10492E-04   -0.47850E-06  4410   0.404E-03    0.500E-03
DAV:   9    -0.822986370327E+03   -0.58614E-05   -0.30096E-06  3880   0.394E-03    0.152E-03
DAV:  10    -0.822986376534E+03   -0.62070E-05   -0.71765E-07  3260   0.150E-03    0.148E-03
DAV:  11    -0.822986382143E+03   -0.56095E-05   -0.36124E-07  3100   0.832E-04    0.941E-04
DAV:  12    -0.822986386272E+03   -0.41289E-05   -0.27835E-07  3220   0.863E-04    0.896E-04
DAV:  13    -0.822986389101E+03   -0.28290E-05   -0.34000E-07  3080   0.113E-03    0.873E-04
DAV:  14    -0.822986390639E+03   -0.15381E-05   -0.17420E-07  3080   0.762E-04    0.843E-04
DAV:  15    -0.822986391437E+03   -0.79740E-06   -0.32218E-08  2900   0.371E-04
  43 F= -.83047716E+03 E0= -.83047716E+03  d E =-.150210E-02  mag=     0.0000
       N       E                     dE             d eps       ncg     rms          rms(c)
DAV:   1    -0.822915833006E+03    0.70558E-01   -0.31041E+01  4280   0.931E+00    0.125E+00
DAV:   2    -0.822993836152E+03   -0.78003E-01   -0.88827E-01  4470   0.135E+00    0.718E-01
DAV:   3    -0.822989202089E+03    0.46341E-02   -0.17684E-02  4760   0.226E-01    0.428E-01
DAV:   4    -0.822989516704E+03   -0.31461E-03   -0.14913E-02  4780   0.193E-01    0.146E-01
DAV:   5    -0.822989395333E+03    0.12137E-03   -0.36487E-03  4700   0.104E-01    0.376E-02
DAV:   6    -0.822989434274E+03   -0.38942E-04   -0.21859E-04  4940   0.236E-02    0.245E-02
DAV:   7    -0.822989450794E+03   -0.16520E-04   -0.20433E-05  4230   0.127E-02    0.118E-02
DAV:   8    -0.822989469208E+03   -0.18413E-04   -0.10437E-05  4760   0.557E-03    0.759E-03
DAV:   9    -0.822989477462E+03   -0.82546E-05   -0.54129E-06  4080   0.585E-03    0.185E-03
DAV:  10    -0.822989487151E+03   -0.96882E-05   -0.14782E-06  3380   0.207E-03    0.161E-03
DAV:  11    -0.822989496476E+03   -0.93256E-05   -0.61311E-07  3280   0.106E-03    0.908E-04
DAV:  12    -0.822989502661E+03   -0.61845E-05   -0.44496E-07  3160   0.116E-03    0.770E-04
DAV:  13    -0.822989506923E+03   -0.42625E-05   -0.54265E-07  3220   0.162E-03    0.676E-04
DAV:  14    -0.822989508897E+03   -0.19735E-05   -0.26431E-07  3080   0.107E-03    0.682E-04
DAV:  15    -0.822989510030E+03   -0.11333E-05   -0.35875E-08  2900   0.371E-04    0.643E-04
DAV:  16    -0.822989510788E+03   -0.75811E-06   -0.31329E-08  2900   0.339E-04
  44 F= -.83047853E+03 E0= -.83047853E+03  d E =-.137491E-02  mag=     0.0000
       N       E                     dE             d eps       ncg     rms          rms(c)
DAV:   1    -0.822865666558E+03    0.12384E+00   -0.51673E+01  4280   0.120E+01    0.164E+00
DAV:   2    -0.822999974068E+03   -0.13431E+00   -0.15418E+00  4440   0.177E+00    0.962E-01
DAV:   3    -0.822990989676E+03    0.89844E-02   -0.33320E-02  4800   0.312E-01    0.571E-01
DAV:   4    -0.822991272197E+03   -0.28252E-03   -0.29351E-02  4780   0.270E-01    0.208E-01
DAV:   5    -0.822990923947E+03    0.34825E-03   -0.65748E-03  4800   0.143E-01    0.502E-02
DAV:   6    -0.822991008475E+03   -0.84527E-04   -0.44541E-04  4900   0.341E-02    0.318E-02
DAV:   7    -0.822991030640E+03   -0.22166E-04   -0.36702E-05  4430   0.175E-02    0.158E-02
DAV:   8    -0.822991060528E+03   -0.29888E-04   -0.23012E-05  4740   0.835E-03    0.118E-02
DAV:   9    -0.822991071902E+03   -0.11374E-04   -0.11289E-05  4240   0.881E-03    0.261E-03
DAV:  10    -0.822991086001E+03   -0.14099E-04   -0.30732E-06  4180   0.296E-03    0.202E-03
DAV:  11    -0.822991101023E+03   -0.15022E-04   -0.93291E-07  3380   0.114E-03    0.129E-03
DAV:  12    -0.822991110350E+03   -0.93270E-05   -0.60510E-07  3320   0.114E-03    0.989E-04
DAV:  13    -0.822991117622E+03   -0.72717E-05   -0.76454E-07  3360   0.178E-03    0.922E-04
DAV:  14    -0.822991119669E+03   -0.20474E-05   -0.40235E-07  3240   0.142E-03    0.919E-04
DAV:  15    -0.822991121422E+03   -0.17525E-05   -0.73576E-08  2860   0.632E-04    0.823E-04
DAV:  16    -0.822991122693E+03   -0.12715E-05   -0.60148E-08  2920   0.423E-04    0.827E-04
DAV:  17    -0.822991123057E+03   -0.36389E-06   -0.17694E-08  3060   0.283E-04
  45 F= -.83047784E+03 E0= -.83047784E+03  d E =0.692921E-03  mag=    -0.0000
       N       E                     dE             d eps       ncg     rms          rms(c)
DAV:   1    -0.822775211692E+03    0.21591E+00   -0.81772E+01  4280   0.151E+01    0.212E+00
DAV:   2    -0.823007001405E+03   -0.23179E+00   -0.26552E+00  4430   0.225E+00    0.125E+00
DAV:   3    -0.822990912808E+03    0.16089E-01   -0.57797E-02  4840   0.417E-01    0.742E-01
DAV:   4    -0.822990801203E+03    0.11161E-03   -0.53677E-02  4780   0.363E-01    0.281E-01
DAV:   5    -0.822990131242E+03    0.66996E-03   -0.11583E-02  4780   0.190E-01    0.659E-02
DAV:   6    -0.822990276748E+03   -0.14551E-03   -0.79977E-04  4880   0.463E-02    0.415E-02
DAV:   7    -0.822990306153E+03   -0.29405E-04   -0.64019E-05  4590   0.230E-02    0.212E-02
DAV:   8    -0.822990350672E+03   -0.44518E-04   -0.43265E-05  4660   0.117E-02    0.162E-02
DAV:   9    -0.822990366713E+03   -0.16041E-04   -0.19868E-05  4320   0.120E-02    0.349E-03
DAV:  10    -0.822990386701E+03   -0.19988E-04   -0.58793E-06  4360   0.409E-03    0.262E-03
DAV:  11    -0.822990407007E+03   -0.20306E-04   -0.12451E-06  3440   0.122E-03    0.152E-03
DAV:  12    -0.822990421013E+03   -0.14007E-04   -0.83123E-07  3340   0.109E-03    0.103E-03
DAV:  13    -0.822990432312E+03   -0.11298E-04   -0.81213E-07  3280   0.142E-03    0.913E-04
DAV:  14    -0.822990435263E+03   -0.29512E-05   -0.40412E-07  3240   0.139E-03    0.849E-04
DAV:  15    -0.822990437577E+03   -0.23144E-05   -0.23169E-07  2980   0.105E-03    0.745E-04
DAV:  16    -0.822990439311E+03   -0.17337E-05   -0.10179E-07  2900   0.587E-04    0.737E-04
DAV:  17    -0.822990440062E+03   -0.75078E-06   -0.26942E-08  2900   0.301E-04
  46 F= -.83047419E+03 E0= -.83047419E+03  d E =0.364508E-02  mag=    -0.0000
       N       E                     dE             d eps       ncg     rms          rms(c)
DAV:   1    -0.822678335675E+03    0.31210E+00   -0.11076E+02  4280   0.177E+01    0.252E+00
DAV:   2    -0.823011498539E+03   -0.33316E+00   -0.38135E+00  4370   0.265E+00    0.149E+00
DAV:   3    -0.822987829921E+03    0.23669E-01   -0.82448E-02  4840   0.502E-01    0.885E-01
DAV:   4    -0.822987151952E+03    0.67797E-03   -0.78105E-02  4800   0.445E-01    0.337E-01
DAV:   5    -0.822986205682E+03    0.94627E-03   -0.15519E-02  4760   0.227E-01    0.799E-02
DAV:   6    -0.822986412712E+03   -0.20703E-03   -0.11892E-03  4880   0.573E-02    0.495E-02
DAV:   7    -0.822986446825E+03   -0.34114E-04   -0.10147E-04  4630   0.286E-02    0.254E-02
DAV:   8    -0.822986502810E+03   -0.55984E-04   -0.70466E-05  4640   0.154E-02    0.201E-02
DAV:   9    -0.822986523299E+03   -0.20489E-04   -0.28979E-05  4400   0.151E-02    0.429E-03
DAV:  10    -0.822986546873E+03   -0.23574E-04   -0.85456E-06  4540   0.505E-03    0.296E-03
DAV:  11    -0.822986573510E+03   -0.26637E-04   -0.16593E-06  3460   0.155E-03    0.192E-03
DAV:  12    -0.822986590887E+03   -0.17377E-04   -0.10957E-06  3420   0.130E-03    0.141E-03
DAV:  13    -0.822986605114E+03   -0.14227E-04   -0.10992E-06  3360   0.185E-03    0.119E-03
DAV:  14    -0.822986609246E+03   -0.41323E-05   -0.62109E-07  3220   0.174E-03    0.114E-03
DAV:  15    -0.822986612307E+03   -0.30606E-05   -0.27930E-07  3040   0.116E-03    0.993E-04
DAV:  16    -0.822986614768E+03   -0.24610E-05   -0.12328E-07  2940   0.646E-04    0.985E-04
DAV:  17    -0.822986615798E+03   -0.10297E-05   -0.41920E-08  2900   0.381E-04    0.973E-04
DAV:  18    -0.822986616247E+03   -0.44907E-06   -0.18406E-08  2900   0.268E-04
  47 F= -.83046691E+03 E0= -.83046691E+03  d E =0.728277E-02  mag=     0.0000
       N       E                     dE             d eps       ncg     rms          rms(c)
DAV:   1    -0.822672926629E+03    0.31369E+00   -0.11016E+02  4280   0.178E+01    0.248E+00
DAV:   2    -0.823001508228E+03   -0.32858E+00   -0.37284E+00  4360   0.265E+00    0.147E+00
DAV:   3    -0.822978885968E+03    0.22622E-01   -0.78632E-02  4900   0.492E-01    0.874E-01
DAV:   4    -0.822978148804E+03    0.73716E-03   -0.71842E-02  4740   0.421E-01    0.323E-01
DAV:   5    -0.822977412486E+03    0.73632E-03   -0.15890E-02  4800   0.221E-01    0.768E-02
DAV:   6    -0.822977573331E+03   -0.16085E-03   -0.99905E-04  4820   0.521E-02    0.496E-02
DAV:   7    -0.822977610072E+03   -0.36741E-04   -0.89703E-05  4530   0.272E-02    0.257E-02
DAV:   8    -0.822977665462E+03   -0.55390E-04   -0.50845E-05  4620   0.128E-02    0.181E-02
DAV:   9    -0.822977687222E+03   -0.21760E-04   -0.27017E-05  4560   0.136E-02    0.377E-03
DAV:  10    -0.822977713468E+03   -0.26246E-04   -0.63841E-06  4540   0.441E-03    0.264E-03
DAV:  11    -0.822977738594E+03   -0.25125E-04   -0.12597E-06  3440   0.132E-03    0.159E-03
DAV:  12    -0.822977758445E+03   -0.19851E-04   -0.13202E-06  3460   0.127E-03    0.912E-04
DAV:  13    -0.822977772011E+03   -0.13566E-04   -0.79148E-07  3400   0.124E-03    0.598E-04
DAV:  14    -0.822977777072E+03   -0.50611E-05   -0.47907E-07  3260   0.143E-03    0.555E-04
DAV:  15    -0.822977779899E+03   -0.28268E-05   -0.43746E-07  3280   0.141E-03    0.501E-04
DAV:  16    -0.822977782015E+03   -0.21169E-05   -0.15728E-07  2980   0.768E-04    0.458E-04
DAV:  17    -0.822977782894E+03   -0.87885E-06   -0.31073E-08  2960   0.292E-04
  48 F= -.83045459E+03 E0= -.83045459E+03  d E =0.123209E-01  mag=     0.0000
       N       E                     dE             d eps       ncg     rms          rms(c)
DAV:   1    -0.822982977199E+03   -0.51952E-02   -0.35156E-01  4240   0.122E+00    0.136E-01
DAV:   2    -0.822983646817E+03   -0.66962E-03   -0.95281E-03  4740   0.186E-01    0.836E-02
DAV:   3    -0.822983569876E+03    0.76940E-04   -0.42719E-04  5180   0.417E-02    0.491E-02
DAV:   4    -0.822983556359E+03    0.13517E-04   -0.74455E-05  4560   0.184E-02    0.175E-02
DAV:   5    -0.822983557999E+03   -0.16399E-05   -0.17528E-05  4600   0.910E-03    0.438E-03
DAV:   6    -0.822983558131E+03   -0.13202E-06   -0.27853E-06  3700   0.338E-03
  49 F= -.83046054E+03 E0= -.83046054E+03  d E =-.595188E-02  mag=     0.0000
       N       E                     dE             d eps       ncg     rms          rms(c)
DAV:   1    -0.822980096297E+03    0.34617E-02   -0.79240E-01  4260   0.171E+00    0.196E-01
DAV:   2    -0.822981785827E+03   -0.16895E-02   -0.21132E-02  4700   0.257E-01    0.115E-01
DAV:   3    -0.822981672383E+03    0.11344E-03   -0.59367E-04  5080   0.502E-02    0.693E-02
DAV:   4    -0.822981661104E+03    0.11279E-04   -0.18272E-04  4500   0.283E-02    0.202E-02
DAV:   5    -0.822981668905E+03   -0.78006E-05   -0.40240E-05  4820   0.124E-02    0.745E-03
DAV:   6    -0.822981669347E+03   -0.44252E-06   -0.34254E-06  3980   0.374E-03
  50 F= -.83045895E+03 E0= -.83045895E+03  d E =0.158904E-02  mag=     0.0000
       N       E                     dE             d eps       ncg     rms          rms(c)
DAV:   1    -0.822980606438E+03    0.10625E-02   -0.10050E+00  4280   0.169E+00    0.211E-01
DAV:   2    -0.822982860945E+03   -0.22545E-02   -0.25335E-02  4490   0.240E-01    0.116E-01
DAV:   3    -0.822982792824E+03    0.68120E-04   -0.32643E-04  4840   0.367E-02    0.711E-02
DAV:   4    -0.822982833821E+03   -0.40997E-04   -0.27782E-04  4540   0.323E-02    0.181E-02
DAV:   5    -0.822982834496E+03   -0.67472E-06   -0.61985E-05  4560   0.152E-02    0.903E-03
DAV:   6    -0.822982835626E+03   -0.11301E-05   -0.81456E-06  4440   0.555E-03    0.478E-03
DAV:   7    -0.822982836388E+03   -0.76263E-06   -0.78530E-07  3210   0.258E-03
  51 F= -.83046050E+03 E0= -.83046050E+03  d E =-.154579E-02  mag=    -0.0000
       N       E                     dE             d eps       ncg     rms          rms(c)
DAV:   1    -0.822984468781E+03   -0.16332E-02   -0.15158E+00  4260   0.224E+00    0.263E-01
DAV:   2    -0.822987853538E+03   -0.33848E-02   -0.39228E-02  4460   0.328E-01    0.151E-01
DAV:   3    -0.822987708568E+03    0.14497E-03   -0.80134E-04  5040   0.578E-02    0.928E-02
DAV:   4    -0.822987730673E+03   -0.22106E-04   -0.36634E-04  4510   0.419E-02    0.254E-02
DAV:   5    -0.822987741310E+03   -0.10637E-04   -0.80499E-05  4620   0.194E-02    0.109E-02
DAV:   6    -0.822987743316E+03   -0.20062E-05   -0.14109E-05  4580   0.792E-03    0.645E-03
DAV:   7    -0.822987744157E+03   -0.84102E-06   -0.15065E-06  3600   0.375E-03
  52 F= -.83046583E+03 E0= -.83046583E+03  d E =-.533453E-02  mag=     0.0000
       N       E                     dE             d eps       ncg     rms          rms(c)
DAV:   1    -0.822982948258E+03    0.47951E-02   -0.18044E+00  4260   0.241E+00    0.283E-01
DAV:   2    -0.822987040588E+03   -0.40923E-02   -0.46407E-02  4430   0.349E-01    0.163E-01
DAV:   3    -0.822986888362E+03    0.15223E-03   -0.85597E-04  4900   0.593E-02    0.999E-02
DAV:   4    -0.822986927433E+03   -0.39071E-04   -0.42006E-04  4580   0.445E-02    0.262E-02
DAV:   5    -0.822986938145E+03   -0.10712E-04   -0.96896E-05  4510   0.210E-02    0.117E-02
DAV:   6    -0.822986940514E+03   -0.23685E-05   -0.14963E-05  4700   0.809E-03    0.686E-03
DAV:   7    -0.822986941673E+03   -0.11592E-05   -0.16964E-06  3660   0.400E-03    0.370E-03
DAV:   8    -0.822986944004E+03   -0.23306E-05   -0.99088E-07  3460   0.219E-03    0.194E-03
DAV:   9    -0.822986945459E+03   -0.14550E-05   -0.47985E-07  3140   0.199E-03    0.972E-04
DAV:  10    -0.822986946984E+03   -0.15256E-05   -0.72094E-07  3220   0.193E-03    0.100E-03
DAV:  11    -0.822986947743E+03   -0.75904E-06   -0.42216E-07  3200   0.142E-03
  53 F= -.83046552E+03 E0= -.83046552E+03  d E =0.311891E-03  mag=    -0.0000
       N       E                     dE             d eps       ncg     rms          rms(c)
DAV:   1    -0.822988052335E+03   -0.11054E-02   -0.72569E-03  4440   0.181E-01    0.201E-02
DAV:   2    -0.822988064166E+03   -0.11831E-04   -0.19419E-04  4800   0.278E-02    0.130E-02
DAV:   3    -0.822988062160E+03    0.20051E-05   -0.13446E-05  4980   0.726E-03    0.726E-03
DAV:   4    -0.822988061929E+03    0.23134E-06   -0.14591E-06  3100   0.274E-03
  54 F= -.83046665E+03 E0= -.83046665E+03  d E =-.113039E-02  mag=    -0.0000
       N       E                     dE             d eps       ncg     rms          rms(c)
DAV:   1    -0.822989387920E+03   -0.13258E-02   -0.22866E-02  4380   0.322E-01    0.357E-02
DAV:   2    -0.822989423852E+03   -0.35932E-04   -0.60318E-04  4720   0.490E-02    0.230E-02
DAV:   3    -0.822989416999E+03    0.68529E-05   -0.42717E-05  5120   0.129E-02    0.127E-02
DAV:   4    -0.822989415685E+03    0.13144E-05   -0.48563E-06  4100   0.475E-03    0.566E-03
DAV:   5    -0.822989415658E+03    0.26492E-07   -0.14413E-06  3040   0.309E-03
  55 F= -.83046803E+03 E0= -.83046803E+03  d E =-.137994E-02  mag=     0.0000
       N       E                     dE             d eps       ncg     rms          rms(c)
DAV:   1    -0.822989939752E+03   -0.52407E-03   -0.34585E-02  4310   0.396E-01    0.434E-02
DAV:   2    -0.822989996146E+03   -0.56394E-04   -0.92056E-04  4700   0.605E-02    0.283E-02
DAV:   3    -0.822989985662E+03    0.10485E-04   -0.63380E-05  5280   0.158E-02    0.157E-02
DAV:   4    -0.822989983585E+03    0.20769E-05   -0.73837E-06  4540   0.583E-03    0.682E-03
DAV:   5    -0.822989983465E+03    0.11913E-06   -0.19632E-06  3160   0.364E-03
  56 F= -.83046863E+03 E0= -.83046863E+03  d E =-.594786E-03  mag=    -0.0000
       N       E                     dE             d eps       ncg     rms          rms(c)
DAV:   1    -0.822989993578E+03   -0.99937E-05   -0.62593E-05  4460   0.141E-02    0.205E-03
DAV:   2    -0.822989993687E+03   -0.10876E-06   -0.16576E-06  3580   0.237E-03
  57 F= -.83046864E+03 E0= -.83046864E+03  d E =-.915594E-05  mag=    -0.0000
       N       E                     dE             d eps       ncg     rms          rms(c)
DAV:   1    -0.822990009459E+03   -0.15881E-04   -0.39602E-04  4420   0.338E-02    0.457E-03
DAV:   2    -0.822990010149E+03   -0.68963E-06   -0.91861E-06  4260   0.477E-03
  58 F= -.83046865E+03 E0= -.83046865E+03  d E =-.125986E-04  mag=    -0.0000
       N       E                     dE             d eps       ncg     rms          rms(c)
DAV:   1    -0.822990024385E+03   -0.14926E-04   -0.14215E-03  4300   0.622E-02    0.898E-03
DAV:   2    -0.822990026755E+03   -0.23698E-05   -0.32908E-05  4540   0.870E-03    0.517E-03
DAV:   3    -0.822990026726E+03    0.29788E-07   -0.59237E-07  3240   0.155E-03
  59 F= -.83046866E+03 E0= -.83046866E+03  d E =-.778486E-05  mag=     0.0000
       N       E                     dE             d eps       ncg     rms          rms(c)
DAV:   1    -0.822990026460E+03    0.29513E-06   -0.39150E-03  4300   0.101E-01    0.142E-02
DAV:   2    -0.822990033412E+03   -0.69517E-05   -0.92774E-05  4600   0.142E-02    0.726E-03
DAV:   3    -0.822990033190E+03    0.22137E-06   -0.14318E-06  3260   0.228E-03
  60 F= -.83046865E+03 E0= -.83046865E+03  d E =0.989704E-05  mag=    -0.0000
       N       E                     dE             d eps       ncg     rms          rms(c)
DAV:   1    -0.822990004689E+03    0.28723E-04   -0.93285E-03  4280   0.155E-01    0.220E-02
DAV:   2    -0.822990021384E+03   -0.16695E-04   -0.22249E-04  4620   0.217E-02    0.112E-02
DAV:   3    -0.822990020877E+03    0.50696E-06   -0.34069E-06  3800   0.345E-03
  61 F= -.83046861E+03 E0= -.83046861E+03  d E =0.393873E-04  mag=     0.0000
       N       E                     dE             d eps       ncg     rms          rms(c)
DAV:   1    -0.822989938671E+03    0.82713E-04   -0.20035E-02  4280   0.225E-01    0.324E-02
DAV:   2    -0.822989974698E+03   -0.36026E-04   -0.47913E-04  4520   0.316E-02    0.163E-02
DAV:   3    -0.822989973587E+03    0.11110E-05   -0.73526E-06  4280   0.498E-03    0.972E-03
DAV:   4    -0.822989975506E+03   -0.19192E-05   -0.62562E-06  3700   0.403E-03    0.263E-03
DAV:   5    -0.822989975546E+03   -0.40200E-07   -0.11869E-06  3380   0.188E-03
  62 F= -.83046852E+03 E0= -.83046852E+03  d E =0.868963E-04  mag=    -0.0000
       N       E                     dE             d eps       ncg     rms          rms(c)
DAV:   1    -0.822989760857E+03    0.21465E-03   -0.51741E-02  4280   0.362E-01    0.505E-02
DAV:   2    -0.822989862175E+03   -0.10132E-03   -0.12787E-03  4410   0.514E-02    0.261E-02
DAV:   3    -0.822989858047E+03    0.41281E-05   -0.18596E-05  4580   0.794E-03    0.157E-02
DAV:   4    -0.822989862454E+03   -0.44071E-05   -0.17786E-05  4220   0.657E-03    0.440E-03
DAV:   5    -0.822989862512E+03   -0.57968E-07   -0.33579E-06  3540   0.297E-03
  63 F= -.83046834E+03 E0= -.83046834E+03  d E =0.181568E-03  mag=     0.0000
       N       E                     dE             d eps       ncg     rms          rms(c)
DAV:   1    -0.822989424307E+03    0.43815E-03   -0.11123E-01  4280   0.531E-01    0.741E-02
DAV:   2    -0.822989645157E+03   -0.22085E-03   -0.27616E-03  4410   0.755E-02    0.384E-02
DAV:   3    -0.822989636233E+03    0.89242E-05   -0.40112E-05  4680   0.116E-02    0.231E-02
DAV:   4    -0.822989645010E+03   -0.87771E-05   -0.38331E-05  4440   0.966E-03    0.646E-03
DAV:   5    -0.822989645061E+03   -0.51448E-07   -0.76363E-06  4180   0.443E-03
  64 F= -.83046802E+03 E0= -.83046802E+03  d E =0.319831E-03  mag=    -0.0000
       N       E                     dE             d eps       ncg     rms          rms(c)
DAV:   1    -0.822988863311E+03    0.78170E-03   -0.21470E-01  4280   0.740E-01    0.103E-01
DAV:   2    -0.822989296089E+03   -0.43278E-03   -0.53458E-03  4410   0.105E-01    0.536E-02
DAV:   3    -0.822989277429E+03    0.18660E-04   -0.78284E-05  4660   0.162E-02    0.322E-02
DAV:   4    -0.822989293850E+03   -0.16421E-04   -0.73821E-05  4540   0.135E-02    0.898E-03
DAV:   5    -0.822989293913E+03   -0.63104E-07   -0.15791E-05  4490   0.640E-03    0.382E-03
DAV:   6    -0.822989294452E+03   -0.53858E-06   -0.15806E-06  3280   0.203E-03
  65 F= -.83046752E+03 E0= -.83046752E+03  d E =0.494915E-03  mag=    -0.0000
       N       E                     dE             d eps       ncg     rms          rms(c)
DAV:   1    -0.822988009119E+03    0.12848E-02   -0.38339E-01  4280   0.994E-01    0.137E-01
DAV:   2    -0.822988796510E+03   -0.78739E-03   -0.95385E-03  4460   0.141E-01    0.721E-02
DAV:   3    -0.822988761369E+03    0.35140E-04   -0.14087E-04  4680   0.218E-02    0.433E-02
DAV:   4    -0.822988784122E+03   -0.22753E-04   -0.12961E-04  4540   0.180E-02    0.119E-02
DAV:   5    -0.822988784442E+03   -0.32012E-06   -0.29975E-05  4580   0.890E-03    0.457E-03
DAV:   6    -0.822988785227E+03   -0.78493E-06   -0.19562E-06  3440   0.232E-03
  66 F= -.83046682E+03 E0= -.83046682E+03  d E =0.704255E-03  mag=    -0.0000
       N       E                     dE             d eps       ncg     rms          rms(c)
DAV:   1    -0.822986763476E+03    0.20210E-02   -0.64335E-01  4280   0.130E+00    0.176E-01
DAV:   2    -0.822988118071E+03   -0.13546E-02   -0.16083E-02  4450   0.184E-01    0.942E-02
DAV:   3    -0.822988057265E+03    0.60806E-04   -0.24355E-04  4720   0.285E-02    0.565E-02
DAV:   4    -0.822988087975E+03   -0.30710E-04   -0.21846E-04  4600   0.235E-02    0.157E-02
DAV:   5    -0.822988088537E+03   -0.56169E-06   -0.55105E-05  4560   0.121E-02    0.553E-03
DAV:   6    -0.822988089748E+03   -0.12110E-05   -0.27614E-06  3820   0.277E-03    0.364E-03
DAV:   7    -0.822988091199E+03   -0.14510E-05   -0.46190E-07  3120   0.181E-03    0.163E-03
DAV:   8    -0.822988092469E+03   -0.12701E-05   -0.39838E-07  3140   0.128E-03    0.997E-04
DAV:   9    -0.822988093357E+03   -0.88738E-06   -0.29645E-07  3080   0.131E-03
  67 F= -.83046587E+03 E0= -.83046587E+03  d E =0.947367E-03  mag=     0.0000
       N       E                     dE             d eps       ncg     rms          rms(c)
DAV:   1    -0.822985158708E+03    0.29338E-02   -0.10230E+00  4280   0.165E+00    0.219E-01
DAV:   2    -0.822987357695E+03   -0.21990E-02   -0.25645E-02  4460   0.234E-01    0.120E-01
DAV:   3    -0.822987255620E+03    0.10208E-03   -0.39916E-04  4730   0.366E-02    0.721E-02
DAV:   4    -0.822987298032E+03   -0.42413E-04   -0.35179E-04  4630   0.301E-02    0.204E-02
DAV:   5    -0.822987298032E+03    0.65484E-10   -0.96013E-05  4550   0.161E-02    0.687E-03
DAV:   6    -0.822987299207E+03   -0.11743E-05   -0.46320E-06  4100   0.358E-03    0.457E-03
DAV:   7    -0.822987300842E+03   -0.16352E-05   -0.92791E-07  3240   0.255E-03    0.199E-03
DAV:   8    -0.822987301983E+03   -0.11412E-05   -0.79918E-07  3340   0.191E-03    0.113E-03
DAV:   9    -0.822987303005E+03   -0.10219E-05   -0.66346E-07  3260   0.186E-03    0.729E-04
DAV:  10    -0.822987303626E+03   -0.62153E-06   -0.59410E-07  3200   0.162E-03
  68 F= -.83046476E+03 E0= -.83046476E+03  d E =0.111620E-02  mag=     0.0000
       N       E                     dE             d eps       ncg     rms          rms(c)
DAV:   1    -0.822983135483E+03    0.41675E-02   -0.15537E+00  4280   0.206E+00    0.269E-01
DAV:   2    -0.822986554529E+03   -0.34190E-02   -0.39173E-02  4490   0.291E-01    0.150E-01
DAV:   3    -0.822986393640E+03    0.16089E-03   -0.62086E-04  4720   0.458E-02    0.898E-02
DAV:   4    -0.822986452090E+03   -0.58450E-04   -0.52838E-04  4670   0.374E-02    0.256E-02
DAV:   5    -0.822986451993E+03    0.97250E-07   -0.15066E-04  4540   0.202E-02    0.855E-03
DAV:   6    -0.822986453579E+03   -0.15856E-05   -0.72953E-06  4480   0.421E-03    0.562E-03
DAV:   7    -0.822986455311E+03   -0.17327E-05   -0.10359E-06  3190   0.261E-03    0.244E-03
DAV:   8    -0.822986456825E+03   -0.15133E-05   -0.47311E-07  3120   0.131E-03    0.132E-03
DAV:   9    -0.822986458040E+03   -0.12156E-05   -0.29797E-07  3020   0.137E-03    0.664E-04
DAV:  10    -0.822986459173E+03   -0.11325E-05   -0.35443E-07  3120   0.120E-03    0.794E-04
DAV:  11    -0.822986459933E+03   -0.76010E-06   -0.24081E-07  3030   0.100E-03
  69 F= -.83046351E+03 E0= -.83046351E+03  d E =0.125117E-02  mag=    -0.0000
       N       E                     dE             d eps       ncg     rms          rms(c)
DAV:   1    -0.822980580479E+03    0.58787E-02   -0.22886E+00  4280   0.252E+00    0.325E-01
DAV:   2    -0.822985723781E+03   -0.51433E-02   -0.58092E-02  4470   0.357E-01    0.184E-01
DAV:   3    -0.822985477992E+03    0.24579E-03   -0.94273E-04  4740   0.566E-02    0.110E-01
DAV:   4    -0.822985554798E+03   -0.76806E-04   -0.76811E-04  4730   0.456E-02    0.315E-02
DAV:   5    -0.822985555052E+03   -0.25418E-06   -0.22780E-04  4580   0.252E-02    0.106E-02
DAV:   6    -0.822985556888E+03   -0.18355E-05   -0.11807E-05  4620   0.535E-03    0.680E-03
DAV:   7    -0.822985559163E+03   -0.22753E-05   -0.19478E-06  3350   0.339E-03    0.301E-03
DAV:   8    -0.822985560859E+03   -0.16956E-05   -0.86512E-07  3220   0.196E-03    0.157E-03
DAV:   9    -0.822985562521E+03   -0.16624E-05   -0.79144E-07  3220   0.206E-03    0.674E-04
DAV:  10    -0.822985563660E+03   -0.11386E-05   -0.96379E-07  3280   0.205E-03    0.769E-04
DAV:  11    -0.822985564534E+03   -0.87435E-06   -0.43504E-07  3130   0.132E-03
  70 F= -.83046211E+03 E0= -.83046211E+03  d E =0.139532E-02  mag=    -0.0000
       N       E                     dE             d eps       ncg     rms          rms(c)
DAV:   1    -0.822977211966E+03    0.83517E-02   -0.32895E+00  4280   0.305E+00    0.390E-01
DAV:   2    -0.822984724260E+03   -0.75123E-02   -0.84029E-02  4470   0.431E-01    0.223E-01
DAV:   3    -0.822984358766E+03    0.36549E-03   -0.14011E-03  4720   0.689E-02    0.133E-01
DAV:   4    -0.822984461702E+03   -0.10294E-03   -0.11129E-03  4730   0.548E-02    0.388E-02
DAV:   5    -0.822984462233E+03   -0.53156E-06   -0.34649E-04  4600   0.310E-02    0.133E-02
DAV:   6    -0.822984464492E+03   -0.22588E-05   -0.19102E-05  4760   0.658E-03    0.821E-03
DAV:   7    -0.822984467551E+03   -0.30583E-05   -0.33052E-06  3650   0.403E-03    0.378E-03
DAV:   8    -0.822984469765E+03   -0.22141E-05   -0.87824E-07  3280   0.193E-03    0.191E-03
DAV:   9    -0.822984471792E+03   -0.20269E-05   -0.73413E-07  3160   0.195E-03    0.788E-04
DAV:  10    -0.822984473556E+03   -0.17642E-05   -0.54130E-07  3180   0.158E-03    0.889E-04
DAV:  11    -0.822984474954E+03   -0.13980E-05   -0.48595E-07  3180   0.142E-03    0.661E-04
DAV:  12    -0.822984475910E+03   -0.95616E-06   -0.32106E-07  3100   0.108E-03
  71 F= -.83046042E+03 E0= -.83046042E+03  d E =0.169227E-02  mag=    -0.0000
       N       E                     dE             d eps       ncg     rms          rms(c)
DAV:   1    -0.822972612482E+03    0.11862E-01   -0.46434E+00  4280   0.363E+00    0.464E-01
DAV:   2    -0.822983338325E+03   -0.10726E-01   -0.11962E-01  4450   0.513E-01    0.267E-01
DAV:   3    -0.822982809716E+03    0.52861E-03   -0.20238E-03  4700   0.822E-02    0.159E-01
DAV:   4    -0.822982943526E+03   -0.13381E-03   -0.15645E-03  4750   0.647E-02    0.462E-02
DAV:   5    -0.822982945626E+03   -0.20993E-05   -0.50240E-04  4620   0.368E-02    0.163E-02
DAV:   6    -0.822982947512E+03   -0.18868E-05   -0.28659E-05  4840   0.788E-03    0.982E-03
DAV:   7    -0.822982951540E+03   -0.40275E-05   -0.54544E-06  3880   0.484E-03    0.468E-03
DAV:   8    -0.822982954216E+03   -0.26763E-05   -0.11663E-06  3320   0.218E-03    0.230E-03
DAV:   9    -0.822982956643E+03   -0.24272E-05   -0.84319E-07  3220   0.201E-03    0.101E-03
DAV:  10    -0.822982958662E+03   -0.20191E-05   -0.23043E-07  3020   0.956E-04    0.113E-03
DAV:  11    -0.822982960575E+03   -0.19126E-05   -0.14908E-07  2960   0.746E-04    0.791E-04
DAV:  12    -0.822982962253E+03   -0.16779E-05   -0.26305E-07  3180   0.889E-04    0.823E-04
DAV:  13    -0.822982963015E+03   -0.76203E-06   -0.20702E-07  3040   0.919E-04
  72 F= -.83045819E+03 E0= -.83045819E+03  d E =0.222807E-02  mag=     0.0000
       N       E                     dE             d eps       ncg     rms          rms(c)
DAV:   1    -0.822966494847E+03    0.16467E-01   -0.64094E+00  4280   0.424E+00    0.549E-01
DAV:   2    -0.822981365644E+03   -0.14871E-01   -0.16686E-01  4430   0.601E-01    0.313E-01
DAV:   3    -0.822980632854E+03    0.73279E-03   -0.28201E-03  4700   0.959E-02    0.186E-01
DAV:   4    -0.822980794748E+03   -0.16189E-03   -0.22344E-03  4750   0.755E-02    0.540E-02
DAV:   5    -0.822980797425E+03   -0.26767E-05   -0.72925E-04  4625   0.426E-02    0.199E-02
DAV:   6    -0.822980798764E+03   -0.13390E-05   -0.40819E-05  4900   0.908E-03    0.117E-02
DAV:   7    -0.822980804237E+03   -0.54732E-05   -0.87614E-06  3900   0.571E-03    0.578E-03
DAV:   8    -0.822980807543E+03   -0.33063E-05   -0.17709E-06  3460   0.267E-03    0.266E-03
DAV:   9    -0.822980810673E+03   -0.31292E-05   -0.10279E-06  3380   0.222E-03    0.124E-03
DAV:  10    -0.822980813195E+03   -0.25219E-05   -0.44976E-07  3160   0.129E-03    0.143E-03
DAV:  11    -0.822980815642E+03   -0.24476E-05   -0.27989E-07  3140   0.105E-03    0.101E-03
DAV:  12    -0.822980817719E+03   -0.20767E-05   -0.43836E-07  3200   0.128E-03    0.976E-04
DAV:  13    -0.822980818640E+03   -0.92100E-06   -0.35652E-07  3100   0.119E-03
  73 F= -.83045522E+03 E0= -.83045522E+03  d E =0.297341E-02  mag=    -0.0000
       N       E                     dE             d eps       ncg     rms          rms(c)
DAV:   1    -0.822959730502E+03    0.21087E-01   -0.84846E+00  4280   0.483E+00    0.642E-01
DAV:   2    -0.822979376053E+03   -0.19646E-01   -0.22450E-01  4410   0.687E-01    0.359E-01
DAV:   3    -0.822978389213E+03    0.98684E-03   -0.37940E-03  4740   0.110E-01    0.214E-01
DAV:   4    -0.822978578004E+03   -0.18879E-03   -0.31996E-03  4790   0.861E-02    0.626E-02
DAV:   5    -0.822978578678E+03   -0.67383E-06   -0.10734E-03  4640   0.476E-02    0.246E-02
DAV:   6    -0.822978577975E+03    0.70246E-06   -0.56137E-05  4920   0.981E-03    0.142E-02
DAV:   7    -0.822978586105E+03   -0.81299E-05   -0.20267E-05  3980   0.675E-03    0.805E-03
DAV:   8    -0.822978589392E+03   -0.32871E-05   -0.42326E-06  3480   0.341E-03    0.280E-03
DAV:   9    -0.822978593476E+03   -0.40840E-05   -0.97245E-07  3400   0.199E-03    0.156E-03
DAV:  10    -0.822978596510E+03   -0.30339E-05   -0.62788E-07  3160   0.117E-03    0.156E-03
DAV:  11    -0.822978600258E+03   -0.37480E-05   -0.23187E-07  3130   0.805E-04    0.118E-03
DAV:  12    -0.822978603013E+03   -0.27553E-05   -0.35631E-07  3160   0.987E-04    0.107E-03
DAV:  13    -0.822978604583E+03   -0.15693E-05   -0.43052E-07  3190   0.131E-03    0.105E-03
DAV:  14    -0.822978605376E+03   -0.79358E-06   -0.19117E-07  3090   0.810E-04
  74 F= -.83045208E+03 E0= -.83045208E+03  d E =0.313264E-02  mag=    -0.0000
       N       E                     dE             d eps       ncg     rms          rms(c)
DAV:   1    -0.822954995149E+03    0.23609E-01   -0.99891E+00  4280   0.525E+00    0.700E-01
DAV:   2    -0.822978044044E+03   -0.23049E-01   -0.26596E-01  4420   0.747E-01    0.390E-01
DAV:   3    -0.822976847333E+03    0.11967E-02   -0.45327E-03  4780   0.121E-01    0.233E-01
DAV:   4    -0.822977049495E+03   -0.20216E-03   -0.39128E-03  4770   0.940E-02    0.682E-02
DAV:   5    -0.822977047903E+03    0.15916E-05   -0.12034E-03  4640   0.491E-02    0.245E-02
DAV:   6    -0.822977052494E+03   -0.45905E-05   -0.47525E-05  4860   0.906E-03    0.159E-02
DAV:   7    -0.822977063255E+03   -0.10761E-04   -0.25668E-05  3980   0.710E-03    0.862E-03
DAV:   8    -0.822977066572E+03   -0.33173E-05   -0.49175E-06  3600   0.336E-03    0.320E-03
DAV:   9    -0.822977071593E+03   -0.50203E-05   -0.13842E-06  3300   0.193E-03    0.131E-03
DAV:  10    -0.822977075900E+03   -0.43076E-05   -0.48404E-07  3160   0.112E-03    0.151E-03
DAV:  11    -0.822977080347E+03   -0.44464E-05   -0.24885E-07  3160   0.716E-04    0.108E-03
DAV:  12    -0.822977083648E+03   -0.33016E-05   -0.29717E-07  3160   0.776E-04    0.960E-04
DAV:  13    -0.822977085569E+03   -0.19206E-05   -0.29002E-07  3200   0.102E-03    0.910E-04
DAV:  14    -0.822977086401E+03   -0.83191E-06   -0.22134E-07  3100   0.882E-04
  75 F= -.83044963E+03 E0= -.83044963E+03  d E =0.245399E-02  mag=    -0.0000
       N       E                     dE             d eps       ncg     rms          rms(c)
DAV:   1    -0.822977185883E+03   -0.10031E-03   -0.99474E-04  4530   0.481E-02    0.815E-03
DAV:   2    -0.822977187435E+03   -0.15525E-05   -0.24992E-05  4700   0.715E-03    0.377E-03
DAV:   3    -0.822977187431E+03    0.41400E-08   -0.55741E-07  3180   0.136E-03
  76 F= -.83044974E+03 E0= -.83044974E+03  d E =-.108738E-03  mag=     0.0000
       N       E                     dE             d eps       ncg     rms          rms(c)
DAV:   1    -0.822977358805E+03   -0.17137E-03   -0.35235E-03  4420   0.921E-02    0.155E-02
DAV:   2    -0.822977363457E+03   -0.46520E-05   -0.86489E-05  4640   0.136E-02    0.714E-03
DAV:   3    -0.822977363172E+03    0.28523E-06   -0.21164E-06  3440   0.259E-03
  77 F= -.83044993E+03 E0= -.83044993E+03  d E =-.190289E-03  mag=    -0.0000
       N       E                     dE             d eps       ncg     rms          rms(c)
DAV:   1    -0.822977572359E+03   -0.20890E-03   -0.67420E-03  4280   0.131E-01    0.212E-02
DAV:   2    -0.822977581247E+03   -0.88875E-05   -0.16367E-04  4660   0.192E-02    0.100E-02
DAV:   3    -0.822977580696E+03    0.55086E-06   -0.42290E-06  3720   0.371E-03
  78 F= -.83045017E+03 E0= -.83045017E+03  d E =-.238000E-03  mag=     0.0000
       N       E                     dE             d eps       ncg     rms          rms(c)
DAV:   1    -0.822977798218E+03   -0.21697E-03   -0.96397E-03  4260   0.164E-01    0.245E-02
DAV:   2    -0.822977811817E+03   -0.13599E-04   -0.23187E-04  4640   0.239E-02    0.121E-02
DAV:   3    -0.822977811088E+03    0.72829E-06   -0.59957E-06  4220   0.462E-03
  79 F= -.83045042E+03 E0= -.83045042E+03  d E =-.255412E-03  mag=    -0.0000
       N       E                     dE             d eps       ncg     rms          rms(c)
DAV:   1    -0.822978030931E+03   -0.21911E-03   -0.11226E-02  4260   0.187E-01    0.251E-02
DAV:   2    -0.822978048627E+03   -0.17696E-04   -0.26784E-04  4640   0.271E-02    0.133E-02
DAV:   3    -0.822978047849E+03    0.77752E-06   -0.65609E-06  4540   0.519E-03
  80 F= -.83045069E+03 E0= -.83045069E+03  d E =-.263981E-03  mag=     0.0000
       N       E                     dE             d eps       ncg     rms          rms(c)
DAV:   1    -0.822978281912E+03   -0.23329E-03   -0.11472E-02  4260   0.201E-01    0.236E-02
DAV:   2    -0.822978302074E+03   -0.20162E-04   -0.27077E-04  4620   0.288E-02    0.135E-02
DAV:   3    -0.822978301401E+03    0.67297E-06   -0.61225E-06  4560   0.541E-03
  81 F= -.83045097E+03 E0= -.83045097E+03  d E =-.279307E-03  mag=    -0.0000
       N       E                     dE             d eps       ncg     rms          rms(c)
DAV:   1    -0.822978580480E+03   -0.27841E-03   -0.14744E-02  4260   0.235E-01    0.248E-02
DAV:   2    -0.822978607662E+03   -0.27181E-04   -0.33964E-04  4540   0.333E-02    0.151E-02
DAV:   3    -0.822978606830E+03    0.83131E-06   -0.72567E-06  4640   0.614E-03
  82 F= -.83045129E+03 E0= -.83045129E+03  d E =-.327549E-03  mag=     0.0000
       N       E                     dE             d eps       ncg     rms          rms(c)
DAV:   1    -0.822978906174E+03   -0.29851E-03   -0.23564E-02  4260   0.292E-01    0.318E-02
DAV:   2    -0.822978948424E+03   -0.42250E-04   -0.53849E-04  4480   0.414E-02    0.189E-02
DAV:   3    -0.822978946942E+03    0.14815E-05   -0.12236E-05  4680   0.771E-03    0.116E-02
DAV:   4    -0.822978947594E+03   -0.65241E-06   -0.70047E-06  4150   0.710E-03
  83 F= -.83045165E+03 E0= -.83045165E+03  d E =-.352535E-03  mag=     0.0000
       N       E                     dE             d eps       ncg     rms          rms(c)
DAV:   1    -0.822979159392E+03   -0.21245E-03   -0.48504E-02  4260   0.392E-01    0.475E-02
DAV:   2    -0.822979246800E+03   -0.87409E-04   -0.11452E-03  4470   0.561E-02    0.265E-02
DAV:   3    -0.822979242668E+03    0.41321E-05   -0.23522E-05  4680   0.103E-02    0.160E-02
DAV:   4    -0.822979243706E+03   -0.10375E-05   -0.15470E-05  4580   0.907E-03    0.455E-03
DAV:   5    -0.822979243942E+03   -0.23666E-06   -0.32854E-06  4180   0.375E-03
  84 F= -.83045193E+03 E0= -.83045193E+03  d E =-.286499E-03  mag=    -0.0000
       N       E                     dE             d eps       ncg     rms          rms(c)
DAV:   1    -0.822979161864E+03    0.81841E-04   -0.11448E-01  4280   0.565E-01    0.738E-02
DAV:   2    -0.822979369471E+03   -0.20761E-03   -0.26916E-03  4410   0.790E-02    0.401E-02
DAV:   3    -0.822979358218E+03    0.11253E-04   -0.48125E-05  4700   0.139E-02    0.239E-02
DAV:   4    -0.822979361769E+03   -0.35514E-05   -0.37549E-05  4630   0.119E-02    0.616E-03
DAV:   5    -0.822979362210E+03   -0.44092E-06   -0.73950E-06  4440   0.502E-03
  85 F= -.83045200E+03 E0= -.83045200E+03  d E =-.701152E-04  mag=     0.0000
       N       E                     dE             d eps       ncg     rms          rms(c)
DAV:   1    -0.822978680380E+03    0.68139E-03   -0.28087E-01  4300   0.862E-01    0.117E-01
DAV:   2    -0.822979216820E+03   -0.53644E-03   -0.67114E-03  4380   0.120E-01    0.629E-02
DAV:   3    -0.822979188789E+03    0.28031E-04   -0.11240E-04  4690   0.201E-02    0.373E-02
DAV:   4    -0.822979199751E+03   -0.10962E-04   -0.95392E-05  4620   0.168E-02    0.966E-03
DAV:   5    -0.822979200394E+03   -0.64378E-06   -0.19057E-05  4500   0.751E-03    0.551E-03
DAV:   6    -0.822979201094E+03   -0.69950E-06   -0.40832E-06  3760   0.359E-03
  86 F= -.83045173E+03 E0= -.83045173E+03  d E =0.274013E-03  mag=     0.0000
       N       E                     dE             d eps       ncg     rms          rms(c)
DAV:   1    -0.822977805110E+03    0.13953E-02   -0.57022E-01  4300   0.124E+00    0.165E-01
DAV:   2    -0.822978947046E+03   -0.11419E-02   -0.13712E-02  4420   0.172E-01    0.909E-02
DAV:   3    -0.822978887370E+03    0.59676E-04   -0.23242E-04  4650   0.283E-02    0.537E-02
DAV:   4    -0.822978910644E+03   -0.23274E-04   -0.19176E-04  4650   0.227E-02    0.142E-02
DAV:   5    -0.822978911822E+03   -0.11776E-05   -0.47623E-05  4510   0.113E-02    0.556E-03
DAV:   6    -0.822978913044E+03   -0.12220E-05   -0.29761E-06  3620   0.285E-03    0.357E-03
DAV:   7    -0.822978914385E+03   -0.13406E-05   -0.47344E-07  3180   0.177E-03    0.167E-03
DAV:   8    -0.822978915622E+03   -0.12379E-05   -0.33411E-07  3140   0.115E-03    0.108E-03
DAV:   9    -0.822978916704E+03   -0.10817E-05   -0.31461E-07  3080   0.131E-03    0.813E-04
DAV:  10    -0.822978917427E+03   -0.72311E-06   -0.41446E-07  3080   0.130E-03
  87 F= -.83045125E+03 E0= -.83045125E+03  d E =0.473156E-03  mag=     0.0000
       N       E                     dE             d eps       ncg     rms          rms(c)
DAV:   1    -0.822976703034E+03    0.22137E-02   -0.10226E+00  4300   0.168E+00    0.217E-01
DAV:   2    -0.822978831033E+03   -0.21280E-02   -0.24672E-02  4460   0.235E-01    0.124E-01
DAV:   3    -0.822978718306E+03    0.11273E-03   -0.43614E-04  4710   0.388E-02    0.731E-02
DAV:   4    -0.822978757505E+03   -0.39199E-04   -0.33958E-04  4660   0.297E-02    0.202E-02
DAV:   5    -0.822978759568E+03   -0.20638E-05   -0.11279E-04  4530   0.161E-02    0.790E-03
DAV:   6    -0.822978759977E+03   -0.40884E-06   -0.54337E-06  3740   0.342E-03
  88 F= -.83045082E+03 E0= -.83045082E+03  d E =0.433074E-03  mag=     0.0000
       N       E                     dE             d eps       ncg     rms          rms(c)
DAV:   1    -0.822975036290E+03    0.37233E-02   -0.16879E+00  4300   0.219E+00    0.278E-01
DAV:   2    -0.822978641694E+03   -0.36054E-02   -0.40979E-02  4460   0.307E-01    0.162E-01
DAV:   3    -0.822978443315E+03    0.19838E-03   -0.75525E-04  4740   0.509E-02    0.947E-02
DAV:   4    -0.822978502532E+03   -0.59217E-04   -0.53521E-04  4660   0.378E-02    0.266E-02
DAV:   5    -0.822978509497E+03   -0.69653E-05   -0.20099E-04  4450   0.214E-02    0.113E-02
DAV:   6    -0.822978508713E+03    0.78421E-06   -0.13231E-05  4000   0.549E-03    0.621E-03
DAV:   7    -0.822978514333E+03   -0.56202E-05   -0.73306E-06  3680   0.460E-03    0.392E-03
DAV:   8    -0.822978513872E+03    0.46087E-06   -0.37304E-06  3770   0.389E-03
  89 F= -.83045021E+03 E0= -.83045021E+03  d E =0.612133E-03  mag=     0.0000
       N       E                     dE             d eps       ncg     rms          rms(c)
DAV:   1    -0.822972421834E+03    0.60925E-02   -0.26547E+00  4300   0.276E+00    0.348E-01
DAV:   2    -0.822978123584E+03   -0.57017E-02   -0.64724E-02  4440   0.385E-01    0.204E-01
DAV:   3    -0.822977806788E+03    0.31680E-03   -0.11868E-03  4760   0.640E-02    0.119E-01
DAV:   4    -0.822977879787E+03   -0.73000E-04   -0.88052E-04  4660   0.480E-02    0.337E-02
DAV:   5    -0.822977892682E+03   -0.12895E-04   -0.33518E-04  4390   0.278E-02    0.146E-02
[...]
DAV:   5    -0.823037616940E+03    0.14967E-06   -0.34567E-06  3700   0.336E-03
 380 F= -.83053725E+03 E0= -.83053725E+03  d E =-.207278E-03  mag=     0.0000
       N       E                     dE             d eps       ncg     rms          rms(c)
DAV:   1    -0.823037703286E+03   -0.86196E-04   -0.12715E-01  4320   0.586E-01    0.734E-02
DAV:   2    -0.823037960493E+03   -0.25721E-03   -0.29800E-03  4490   0.828E-02    0.416E-02
DAV:   3    -0.823037952403E+03    0.80900E-05   -0.45012E-05  4640   0.124E-02    0.254E-02
DAV:   4    -0.823037959567E+03   -0.71637E-05   -0.43863E-05  4480   0.102E-02    0.717E-03
DAV:   5    -0.823037959352E+03    0.21495E-06   -0.92398E-06  4200   0.474E-03
 381 F= -.83053754E+03 E0= -.83053754E+03  d E =-.285475E-03  mag=    -0.0000
       N       E                     dE             d eps       ncg     rms          rms(c)
DAV:   1    -0.823037875923E+03    0.83644E-04   -0.28415E-01  4320   0.883E-01    0.109E-01
DAV:   2    -0.823038458117E+03   -0.58219E-03   -0.67120E-03  4480   0.125E-01    0.625E-02
DAV:   3    -0.823038437955E+03    0.20162E-04   -0.10236E-04  4630   0.186E-02    0.382E-02
DAV:   4    -0.823038454043E+03   -0.16088E-04   -0.10185E-04  4600   0.153E-02    0.111E-02
DAV:   5    -0.823038453597E+03    0.44570E-06   -0.21702E-05  4440   0.705E-03    0.551E-03
DAV:   6    -0.823038454096E+03   -0.49880E-06   -0.43675E-06  3340   0.254E-03
 382 F= -.83053794E+03 E0= -.83053794E+03  d E =-.398983E-03  mag=    -0.0000
       N       E                     dE             d eps       ncg     rms          rms(c)
DAV:   1    -0.823037952855E+03    0.50074E-03   -0.58412E-01  4320   0.127E+00    0.157E-01
DAV:   2    -0.823039167037E+03   -0.12142E-02   -0.13946E-02  4510   0.180E-01    0.906E-02
DAV:   3    -0.823039123767E+03    0.43269E-04   -0.21586E-04  4640   0.270E-02    0.552E-02
DAV:   4    -0.823039156509E+03   -0.32742E-04   -0.21032E-04  4620   0.222E-02    0.161E-02
DAV:   5    -0.823039155375E+03    0.11345E-05   -0.47821E-05  4440   0.105E-02    0.693E-03
DAV:   6    -0.823039156519E+03   -0.11444E-05   -0.68727E-06  3500   0.331E-03    0.377E-03
DAV:   7    -0.823039157500E+03   -0.98102E-06   -0.14774E-06  3260   0.205E-03
 383 F= -.83053849E+03 E0= -.83053849E+03  d E =-.547615E-03  mag=     0.0000
       N       E                     dE             d eps       ncg     rms          rms(c)
DAV:   1    -0.823037571878E+03    0.15846E-02   -0.11449E+00  4320   0.179E+00    0.221E-01
DAV:   2    -0.823040079665E+03   -0.25078E-02   -0.28598E-02  4510   0.254E-01    0.128E-01
DAV:   3    -0.823039984256E+03    0.95409E-04   -0.44356E-04  4660   0.384E-02    0.780E-02
DAV:   4    -0.823040044067E+03   -0.59811E-04   -0.41908E-04  4660   0.314E-02    0.225E-02
DAV:   5    -0.823040041793E+03    0.22732E-05   -0.10405E-04  4480   0.154E-02    0.833E-03
DAV:   6    -0.823040043809E+03   -0.20154E-05   -0.91064E-06  3800   0.392E-03    0.516E-03
DAV:   7    -0.823040045629E+03   -0.18206E-05   -0.23317E-06  3230   0.270E-03    0.267E-03
DAV:   8    -0.823040046970E+03   -0.13411E-05   -0.71626E-07  3300   0.183E-03    0.127E-03
DAV:   9    -0.823040047987E+03   -0.10167E-05   -0.43429E-07  3160   0.136E-03    0.767E-04
DAV:  10    -0.823040049121E+03   -0.11337E-05   -0.28134E-07  2980   0.118E-03    0.778E-04
DAV:  11    -0.823040050253E+03   -0.11317E-05   -0.11257E-07  2880   0.633E-04    0.767E-04
DAV:  12    -0.823040051135E+03   -0.88201E-06   -0.50281E-08  2850   0.327E-04
 384 F= -.83053914E+03 E0= -.83053914E+03  d E =-.657701E-03  mag=    -0.0000
       N       E                     dE             d eps       ncg     rms          rms(c)
DAV:   1    -0.823036848440E+03    0.32018E-02   -0.21016E+00  4320   0.241E+00    0.302E-01
DAV:   2    -0.823041281404E+03   -0.44330E-02   -0.50997E-02  4480   0.343E-01    0.174E-01
DAV:   3    -0.823041090055E+03    0.19135E-03   -0.84248E-04  4660   0.525E-02    0.106E-01
DAV:   4    -0.823041194663E+03   -0.10461E-03   -0.82217E-04  4660   0.431E-02    0.324E-02
DAV:   5    -0.823041186218E+03    0.84450E-05   -0.19752E-04  4520   0.208E-02    0.118E-02
DAV:   6    -0.823041188989E+03   -0.27711E-05   -0.21256E-05  4090   0.558E-03    0.726E-03
DAV:   7    -0.823041190552E+03   -0.15630E-05   -0.52400E-06  3310   0.327E-03    0.383E-03
DAV:   8    -0.823041192194E+03   -0.16420E-05   -0.76116E-07  3210   0.164E-03    0.172E-03
DAV:   9    -0.823041193371E+03   -0.11763E-05   -0.45064E-07  3260   0.108E-03    0.769E-04
DAV:  10    -0.823041194997E+03   -0.16266E-05   -0.15075E-07  2940   0.793E-04    0.747E-04
DAV:  11    -0.823041196301E+03   -0.13035E-05   -0.21190E-07  3000   0.907E-04    0.775E-04
DAV:  12    -0.823041196965E+03   -0.66435E-06   -0.12834E-07  2930   0.712E-04
 385 F= -.83053996E+03 E0= -.83053996E+03  d E =-.811561E-03  mag=     0.0000
       N       E                     dE             d eps       ncg     rms          rms(c)
DAV:   1    -0.823035194401E+03    0.60019E-02   -0.36087E+00  4320   0.316E+00    0.397E-01
DAV:   2    -0.823042782597E+03   -0.75882E-02   -0.87296E-02  4460   0.449E-01    0.230E-01
DAV:   3    -0.823042421806E+03    0.36079E-03   -0.14971E-03  4690   0.695E-02    0.139E-01
DAV:   4    -0.823042568042E+03   -0.14624E-03   -0.14817E-03  4700   0.571E-02    0.438E-02
DAV:   5    -0.823042551935E+03    0.16107E-04   -0.35873E-04  4590   0.278E-02    0.152E-02
DAV:   6    -0.823042556973E+03   -0.50376E-05   -0.35378E-05  4230   0.703E-03    0.952E-03
DAV:   7    -0.823042559931E+03   -0.29580E-05   -0.97464E-06  3340   0.420E-03    0.515E-03
DAV:   8    -0.823042562587E+03   -0.26561E-05   -0.14020E-06  3320   0.210E-03    0.219E-03
DAV:   9    -0.823042564544E+03   -0.19576E-05   -0.83642E-07  3320   0.122E-03    0.895E-04
DAV:  10    -0.823042567250E+03   -0.27056E-05   -0.13435E-07  2900   0.635E-04    0.767E-04
DAV:  11    -0.823042569491E+03   -0.22414E-05   -0.16065E-07  3010   0.644E-04    0.772E-04
DAV:  12    -0.823042570925E+03   -0.14340E-05   -0.20670E-07  3000   0.929E-04    0.707E-04
DAV:  13    -0.823042571816E+03   -0.89035E-06   -0.13739E-07  2960   0.700E-04
 386 F= -.83054089E+03 E0= -.83054089E+03  d E =-.929790E-03  mag=     0.0000
       N       E                     dE             d eps       ncg     rms          rms(c)
DAV:   1    -0.823036437738E+03    0.61332E-02   -0.35186E+00  4320   0.317E+00    0.382E-01
DAV:   2    -0.823043831837E+03   -0.73941E-02   -0.82354E-02  4470   0.447E-01    0.234E-01
DAV:   3    -0.823043467777E+03    0.36406E-03   -0.14408E-03  4660   0.707E-02    0.141E-01
DAV:   4    -0.823043597911E+03   -0.13013E-03   -0.12195E-03  4600   0.568E-02    0.389E-02
DAV:   5    -0.823043595498E+03    0.24126E-05   -0.36047E-04  4640   0.295E-02    0.135E-02
DAV:   6    -0.823043599643E+03   -0.41443E-05   -0.18667E-05  4780   0.613E-03    0.887E-03
DAV:   7    -0.823043602936E+03   -0.32936E-05   -0.43093E-06  3480   0.415E-03    0.447E-03
DAV:   8    -0.823043605270E+03   -0.23336E-05   -0.11420E-06  3280   0.201E-03    0.206E-03
DAV:   9    -0.823043607215E+03   -0.19449E-05   -0.63601E-07  3220   0.153E-03    0.970E-04
DAV:  10    -0.823043609912E+03   -0.26970E-05   -0.16271E-07  2960   0.729E-04    0.971E-04
DAV:  11    -0.823043612044E+03   -0.21326E-05   -0.12133E-07  2880   0.574E-04    0.804E-04
DAV:  12    -0.823043613519E+03   -0.14741E-05   -0.16367E-07  3020   0.712E-04    0.791E-04
DAV:  13    -0.823043614391E+03   -0.87271E-06   -0.13177E-07  2940   0.736E-04
 387 F= -.83054152E+03 E0= -.83054152E+03  d E =-.635435E-03  mag=     0.0000
       N       E                     dE             d eps       ncg     rms          rms(c)
DAV:   1    -0.823043859914E+03   -0.24640E-03   -0.13344E-02  4360   0.234E-01    0.270E-02
DAV:   2    -0.823043886990E+03   -0.27076E-04   -0.36418E-04  4600   0.356E-02    0.178E-02
DAV:   3    -0.823043884040E+03    0.29501E-05   -0.19414E-05  4780   0.836E-03    0.942E-03
DAV:   4    -0.823043884051E+03   -0.10208E-07   -0.22054E-06  3300   0.336E-03
 388 F= -.83054183E+03 E0= -.83054183E+03  d E =-.308078E-03  mag=    -0.0000
       N       E                     dE             d eps       ncg     rms          rms(c)
DAV:   1    -0.823043768260E+03    0.11578E-03   -0.42363E-02  4260   0.399E-01    0.449E-02
DAV:   2    -0.823043862471E+03   -0.94211E-04   -0.11242E-03  4620   0.589E-02    0.292E-02
DAV:   3    -0.823043856517E+03    0.59534E-05   -0.39520E-05  4840   0.120E-02    0.163E-02
DAV:   4    -0.823043857334E+03   -0.81684E-06   -0.65637E-06  4480   0.582E-03
 389 F= -.83054188E+03 E0= -.83054188E+03  d E =-.481500E-04  mag=     0.0000
       N       E                     dE             d eps       ncg     rms          rms(c)
DAV:   1    -0.823043465071E+03    0.39145E-03   -0.87094E-02  4320   0.520E-01    0.598E-02
DAV:   2    -0.823043651335E+03   -0.18626E-03   -0.20813E-03  4540   0.736E-02    0.359E-02
DAV:   3    -0.823043645906E+03    0.54286E-05   -0.38378E-05  4920   0.119E-02    0.213E-02
DAV:   4    -0.823043651496E+03   -0.55902E-05   -0.17938E-05  4400   0.821E-03    0.545E-03
DAV:   5    -0.823043651960E+03   -0.46351E-06   -0.52950E-06  4100   0.420E-03
 390 F= -.83054178E+03 E0= -.83054178E+03  d E =0.962737E-04  mag=    -0.0000
       N       E                     dE             d eps       ncg     rms          rms(c)
DAV:   1    -0.823043256826E+03    0.39467E-03   -0.17053E-01  4320   0.690E-01    0.862E-02
DAV:   2    -0.823043591491E+03   -0.33466E-03   -0.39960E-03  4500   0.981E-02    0.473E-02
DAV:   3    -0.823043580799E+03    0.10693E-04   -0.65832E-05  4880   0.154E-02    0.285E-02
DAV:   4    -0.823043590912E+03   -0.10114E-04   -0.53824E-05  4580   0.120E-02    0.814E-03
DAV:   5    -0.823043590558E+03    0.35395E-06   -0.12738E-05  4460   0.589E-03    0.342E-03
DAV:   6    -0.823043590810E+03   -0.25213E-06   -0.14201E-06  3480   0.189E-03
 391 F= -.83054186E+03 E0= -.83054186E+03  d E =-.779646E-04  mag=    -0.0000
       N       E                     dE             d eps       ncg     rms          rms(c)
DAV:   1    -0.823042813764E+03    0.77679E-03   -0.28003E-01  4320   0.864E-01    0.114E-01
DAV:   2    -0.823043339965E+03   -0.52620E-03   -0.66090E-03  4400   0.124E-01    0.598E-02
DAV:   3    -0.823043320963E+03    0.19003E-04   -0.11260E-04  4880   0.198E-02    0.360E-02
DAV:   4    -0.823043335259E+03   -0.14296E-04   -0.92649E-05  4620   0.152E-02    0.103E-02
DAV:   5    -0.823043334971E+03    0.28794E-06   -0.17969E-05  4580   0.685E-03    0.559E-03
DAV:   6    -0.823043335210E+03   -0.23918E-06   -0.46179E-06  3420   0.306E-03
 392 F= -.83054177E+03 E0= -.83054177E+03  d E =0.850686E-04  mag=    -0.0000
       N       E                     dE             d eps       ncg     rms          rms(c)
DAV:   1    -0.823042204832E+03    0.11301E-02   -0.36890E-01  4320   0.987E-01    0.129E-01
DAV:   2    -0.823042904379E+03   -0.69955E-03   -0.85736E-03  4360   0.140E-01    0.684E-02
DAV:   3    -0.823042880704E+03    0.23675E-04   -0.13494E-04  4860   0.216E-02    0.411E-02
DAV:   4    -0.823042901648E+03   -0.20944E-04   -0.11923E-04  4620   0.170E-02    0.117E-02
DAV:   5    -0.823042901084E+03    0.56381E-06   -0.24862E-05  4540   0.789E-03    0.588E-03
DAV:   6    -0.823042901631E+03   -0.54704E-06   -0.49197E-06  3460   0.309E-03
 393 F= -.83054155E+03 E0= -.83054155E+03  d E =0.227790E-03  mag=    -0.0000
       N       E                     dE             d eps       ncg     rms          rms(c)
DAV:   1    -0.823041464003E+03    0.14371E-02   -0.53317E-01  4320   0.123E+00    0.150E-01
DAV:   2    -0.823042530681E+03   -0.10667E-02   -0.12384E-02  4350   0.173E-01    0.848E-02
DAV:   3    -0.823042496135E+03    0.34545E-04   -0.20134E-04  4880   0.270E-02    0.508E-02
DAV:   4    -0.823042529085E+03   -0.32950E-04   -0.15411E-04  4470   0.206E-02    0.137E-02
DAV:   5    -0.823042528979E+03    0.10602E-06   -0.42889E-05  4640   0.105E-02    0.514E-03
DAV:   6    -0.823042529839E+03   -0.85947E-06   -0.25148E-06  3460   0.247E-03
 394 F= -.83054144E+03 E0= -.83054144E+03  d E =0.110398E-03  mag=    -0.0000
       N       E                     dE             d eps       ncg     rms          rms(c)
DAV:   1    -0.823040359938E+03    0.21690E-02   -0.77108E-01  4320   0.150E+00    0.178E-01
DAV:   2    -0.823041949487E+03   -0.15895E-02   -0.17915E-02  4305   0.212E-01    0.105E-01
DAV:   3    -0.823041894323E+03    0.55164E-04   -0.30528E-04  4890   0.335E-02    0.621E-02
DAV:   4    -0.823041946014E+03   -0.51692E-04   -0.18391E-04  4460   0.238E-02    0.155E-02
DAV:   5    -0.823041948419E+03   -0.24043E-05   -0.63297E-05  4620   0.129E-02    0.614E-03
DAV:   6    -0.823041949063E+03   -0.64397E-06   -0.37053E-06  3560   0.300E-03
 395 F= -.83054117E+03 E0= -.83054117E+03  d E =0.261452E-03  mag=    -0.0000
       N       E                     dE             d eps       ncg     rms          rms(c)
DAV:   1    -0.823038604322E+03    0.33441E-02   -0.12022E+00  4320   0.186E+00    0.226E-01
DAV:   2    -0.823041205701E+03   -0.26014E-02   -0.29468E-02  4290   0.262E-01    0.129E-01
DAV:   3    -0.823041119086E+03    0.86615E-04   -0.47145E-04  4800   0.409E-02    0.772E-02
DAV:   4    -0.823041193951E+03   -0.74865E-04   -0.31928E-04  4490   0.302E-02    0.193E-02
DAV:   5    -0.823041196535E+03   -0.25832E-05   -0.10475E-04  4570   0.167E-02    0.759E-03
DAV:   6    -0.823041196832E+03   -0.29747E-06   -0.64587E-06  3960   0.453E-03
 396 F= -.83054080E+03 E0= -.83054080E+03  d E =0.375054E-03  mag=    -0.0000
       N       E                     dE             d eps       ncg     rms          rms(c)
DAV:   1    -0.823037208837E+03    0.39877E-02   -0.15984E+00  4340   0.206E+00    0.268E-01
DAV:   2    -0.823040309300E+03   -0.31005E-02   -0.37386E-02  4320   0.291E-01    0.143E-01
DAV:   3    -0.823040201647E+03    0.10765E-03   -0.60229E-04  4780   0.460E-02    0.854E-02
DAV:   4    -0.823040293603E+03   -0.91956E-04   -0.49384E-04  4640   0.365E-02    0.230E-02
DAV:   5    -0.823040290709E+03    0.28940E-05   -0.10674E-04  4490   0.178E-02    0.124E-02
DAV:   6    -0.823040292271E+03   -0.15621E-05   -0.23894E-05  4190   0.819E-03    0.643E-03
DAV:   7    -0.823040295809E+03   -0.35378E-05   -0.66805E-06  4000   0.636E-03    0.321E-03
DAV:   8    -0.823040298001E+03   -0.21929E-05   -0.78083E-06  4060   0.656E-03    0.167E-03
DAV:   9    -0.823040296902E+03    0.10998E-05   -0.31735E-06  3900   0.427E-03    0.132E-03
DAV:  10    -0.823040298294E+03   -0.13928E-05   -0.43068E-07  3030   0.157E-03    0.850E-04
DAV:  11    -0.823040299661E+03   -0.13668E-05   -0.13656E-07  2910   0.641E-04    0.883E-04
DAV:  12    -0.823040301664E+03   -0.20032E-05   -0.66608E-08  2820   0.426E-04    0.877E-04
DAV:  13    -0.823040302578E+03   -0.91369E-06   -0.54002E-08  2920   0.452E-04
 397 F= -.83054034E+03 E0= -.83054034E+03  d E =0.458943E-03  mag=     0.0000
       N       E                     dE             d eps       ncg     rms          rms(c)
DAV:   1    -0.823040379499E+03   -0.77834E-04   -0.14837E-03  4620   0.663E-02    0.101E-02
DAV:   2    -0.823040381849E+03   -0.23506E-05   -0.40399E-05  4840   0.104E-02    0.538E-03
DAV:   3    -0.823040381696E+03    0.15306E-06   -0.18745E-06  3400   0.258E-03
 398 F= -.83054042E+03 E0= -.83054042E+03  d E =-.769319E-04  mag=     0.0000
       N       E                     dE             d eps       ncg     rms          rms(c)
DAV:   1    -0.823040460925E+03   -0.79076E-04   -0.48390E-03  4440   0.118E-01    0.189E-02
DAV:   2    -0.823040467453E+03   -0.65276E-05   -0.12763E-04  4660   0.183E-02    0.988E-03
DAV:   3    -0.823040466656E+03    0.79720E-06   -0.61901E-06  3760   0.452E-03
 399 F= -.83054050E+03 E0= -.83054050E+03  d E =-.801810E-04  mag=    -0.0000
       N       E                     dE             d eps       ncg     rms          rms(c)
DAV:   1    -0.823040501786E+03   -0.34333E-04   -0.77399E-03  4340   0.145E-01    0.233E-02
DAV:   2    -0.823040513208E+03   -0.11421E-04   -0.20018E-04  4620   0.222E-02    0.121E-02
DAV:   3    -0.823040512257E+03    0.95108E-06   -0.76848E-06  4220   0.501E-03
 400 F= -.83054053E+03 E0= -.83054053E+03  d E =-.375015E-04  mag=     0.0000
       N       E                     dE             d eps       ncg     rms          rms(c)
DAV:   1    -0.823040545972E+03   -0.32764E-04   -0.90557E-03  4340   0.154E-01    0.234E-02
DAV:   2    -0.823040561824E+03   -0.15852E-04   -0.22644E-04  4580   0.228E-02    0.124E-02
DAV:   3    -0.823040561198E+03    0.62573E-06   -0.53212E-06  4080   0.431E-03
 401 F= -.83054057E+03 E0= -.83054057E+03  d E =-.378269E-04  mag=    -0.0000
       N       E                     dE             d eps       ncg     rms          rms(c)
DAV:   1    -0.823040649653E+03   -0.87829E-04   -0.10187E-02  4340   0.167E-01    0.226E-02
DAV:   2    -0.823040668393E+03   -0.18740E-04   -0.23275E-04  4580   0.242E-02    0.128E-02
DAV:   3    -0.823040667878E+03    0.51482E-06   -0.42832E-06  4080   0.416E-03
 402 F= -.83054067E+03 E0= -.83054067E+03  d E =-.933114E-04  mag=     0.0000
       N       E                     dE             d eps       ncg     rms          rms(c)
DAV:   1    -0.823040795134E+03   -0.12674E-03   -0.12193E-02  4320   0.191E-01    0.243E-02
DAV:   2    -0.823040819063E+03   -0.23929E-04   -0.28250E-04  4620   0.276E-02    0.146E-02
DAV:   3    -0.823040818144E+03    0.91943E-06   -0.60585E-06  4440   0.505E-03
 403 F= -.83054080E+03 E0= -.83054080E+03  d E =-.135915E-03  mag=    -0.0000
       N       E                     dE             d eps       ncg     rms          rms(c)
DAV:   1    -0.823040932083E+03   -0.11302E-03   -0.18175E-02  4320   0.234E-01    0.302E-02
DAV:   2    -0.823040967618E+03   -0.35536E-04   -0.42112E-04  4640   0.336E-02    0.187E-02
DAV:   3    -0.823040965717E+03    0.19016E-05   -0.11005E-05  4700   0.653E-03    0.107E-02
DAV:   4    -0.823040966507E+03   -0.79029E-06   -0.45391E-06  3900   0.457E-03
 404 F= -.83054093E+03 E0= -.83054093E+03  d E =-.131981E-03  mag=    -0.0000
       N       E                     dE             d eps       ncg     rms          rms(c)
DAV:   1    -0.823041053484E+03   -0.87767E-04   -0.25145E-02  4320   0.260E-01    0.338E-02
DAV:   2    -0.823041100337E+03   -0.46854E-04   -0.53896E-04  4550   0.370E-02    0.210E-02
DAV:   3    -0.823041098018E+03    0.23190E-05   -0.12103E-05  4590   0.685E-03    0.121E-02
DAV:   4    -0.823041099132E+03   -0.11136E-05   -0.65579E-06  4140   0.505E-03    0.313E-03
DAV:   5    -0.823041099326E+03   -0.19406E-06   -0.15638E-06  3350   0.293E-03
 405 F= -.83054105E+03 E0= -.83054105E+03  d E =-.115330E-03  mag=     0.0000
       N       E                     dE             d eps       ncg     rms          rms(c)
DAV:   1    -0.823041224624E+03   -0.12549E-03   -0.36318E-02  4320   0.299E-01    0.398E-02
DAV:   2    -0.823041290224E+03   -0.65600E-04   -0.76192E-04  4400   0.423E-02    0.239E-02
DAV:   3    -0.823041287388E+03    0.28366E-05   -0.13989E-05  4530   0.724E-03    0.142E-02
DAV:   4    -0.823041289147E+03   -0.17598E-05   -0.13228E-05  4200   0.638E-03    0.383E-03
DAV:   5    -0.823041289127E+03    0.20656E-07   -0.27777E-06  3350   0.320E-03
 406 F= -.83054122E+03 E0= -.83054122E+03  d E =-.171898E-03  mag=    -0.0000
       N       E                     dE             d eps       ncg     rms          rms(c)
DAV:   1    -0.823041415563E+03   -0.12642E-03   -0.54195E-02  4320   0.352E-01    0.516E-02
DAV:   2    -0.823041514569E+03   -0.99006E-04   -0.12364E-03  4500   0.509E-02    0.287E-02
DAV:   3    -0.823041510597E+03    0.39724E-05   -0.24233E-05  4650   0.884E-03    0.173E-02
DAV:   4    -0.823041512579E+03   -0.19828E-05   -0.20376E-05  4220   0.743E-03    0.443E-03
DAV:   5    -0.823041512726E+03   -0.14633E-06   -0.37945E-06  3450   0.326E-03
 407 F= -.83054143E+03 E0= -.83054142E+03  d E =-.204325E-03  mag=     0.0000
