unknown system                          
           1
    17.271038    0.000000    0.000000
    -8.635519   14.957158    0.000000
     0.000000    0.000000   15.000000
   C    F    N    H    O 
    82     2     6     2     1
Direct configuration=     1
   0.99937200  0.99800259  0.50579824
   0.99958914  0.14101077  0.50771207
   0.99949638  0.28390846  0.50832733
   0.99913594  0.42688575  0.50700915
   0.99949587  0.56969811  0.50550740
   0.00052843  0.71271619  0.50447948
   0.99974676  0.85559657  0.50424796
   0.14318368  0.99904839  0.51015268
   0.14363108  0.14237185  0.51169439
   0.14315033  0.28449659  0.51279857
   0.14201234  0.42726551  0.51173851
   0.14310729  0.56977292  0.50972849
   0.14350415  0.71251690  0.50887417
   0.14308426  0.85572400  0.50910724
   0.28604734  0.99851857  0.51035329
   0.28679703  0.14212773  0.51208706
   0.28922048  0.28780732  0.51457142
   0.28474278  0.43106531  0.51489621
   0.28782096  0.56756801  0.51205175
   0.28695316  0.71230998  0.50944312
   0.28608720  0.85548361  0.50940767
   0.42892771  0.99832909  0.50725224
   0.42916813  0.14231153  0.50852757
   0.42901011  0.85431103  0.50577818
   0.57103550  0.99776834  0.50271043
   0.57117488  0.14152175  0.50440805
   0.57341006  0.28857621  0.50330190
   0.57321399  0.85320628  0.49769402
   0.71336648  0.99748852  0.49864870
   0.71379946  0.14106685  0.50244782
   0.71343111  0.28447194  0.50194869
   0.70881961  0.42448703  0.49700866
   0.70905841  0.85364612  0.48917237
   0.85611698  0.99747606  0.49953622
   0.85637520  0.14071831  0.50338174
   0.85631732  0.28383814  0.50410542
   0.85590860  0.42689866  0.50188058
   0.85603979  0.56953735  0.49797419
   0.85807373  0.71241760  0.49440889
   0.85507353  0.85384541  0.49506471
   0.04772628  0.09383498  0.50873893
   0.04736745  0.23630147  0.50996414
   0.04652623  0.37923786  0.50927860
   0.04748304  0.52226552  0.50767711
   0.04792473  0.66505689  0.50660276
   0.04761986  0.80800172  0.50628779
   0.04756438  0.95086458  0.50709590
   0.19115487  0.09438071  0.51178345
   0.19225178  0.23817295  0.51344056
   0.18929069  0.37974548  0.51356743
   0.19101115  0.52245756  0.51146119
   0.19127008  0.66507661  0.50966373
   0.19088968  0.80804326  0.50950416
   0.19087269  0.95114142  0.51025639
   0.33399074  0.09427483  0.51053988
   0.33839634  0.23823282  0.51261791
   0.33827950  0.66740654  0.50946913
   0.33392823  0.80744649  0.50849870
   0.33351209  0.95070305  0.50917404
   0.47630794  0.09383690  0.50671605
   0.47421278  0.23837231  0.50755693
   0.47403866  0.80309125  0.50336500
   0.47617834  0.95013096  0.50512483
   0.61841481  0.09330422  0.50304728
   0.61836369  0.23737297  0.50311886
   0.61819624  0.94931581  0.49949931
   0.76125162  0.09325320  0.50152010
   0.76119754  0.23634442  0.50283302
   0.76027397  0.37967679  0.50018755
   0.75930475  0.52453183  0.49216506
   0.76328544  0.66143158  0.48291324
   0.75865097  0.80452547  0.48467128
   0.76051612  0.94964154  0.49556204
   0.90398414  0.09276416  0.50373061
   0.90406457  0.23613022  0.50540544
   0.90360572  0.37938756  0.50440918
   0.90389799  0.52221191  0.50197742
   0.90505957  0.66471974  0.49931010
   0.90416813  0.80754944  0.49788322
   0.90356045  0.94950325  0.50051087
   0.71785413  0.71140278  0.47170491
   0.33140615  0.38181874  0.51566672
   0.63269622  0.66483733  0.44541179
   0.42053327  0.43083874  0.51628987
   0.42834886  0.28252709  0.51015790
   0.42826976  0.71262766  0.50643951
   0.71620754  0.57036157  0.48236336
   0.33165769  0.52206475  0.51386901
   0.61891069  0.37895584  0.49932000
   0.61901805  0.80913536  0.49079060
   0.49998895  0.62194991  0.56781826
   0.54338288  0.56383771  0.57385310
   0.53537223  0.60721920  0.60803114
Direct configuration=     2
   0.99937022  0.99799989  0.50579174
   0.99958985  0.14100988  0.50770603
   0.99949743  0.28390674  0.50832246
   0.99913521  0.42688324  0.50700827
   0.99949722  0.56969634  0.50550561
   0.00052671  0.71271306  0.50447608
   0.99974312  0.85559230  0.50424278
   0.14318280  0.99904633  0.51013738
   0.14363101  0.14237033  0.51168031
   0.14315379  0.28449837  0.51278081
   0.14201371  0.42726313  0.51172230
   0.14310759  0.56976973  0.50971840
   0.14350420  0.71251647  0.50886617
   0.14308483  0.85572383  0.50909707
   0.28604545  0.99851716  0.51034035
   0.28679670  0.14212482  0.51206299
   0.28922105  0.28780725  0.51454004
   0.28474471  0.43106666  0.51485349
   0.28782416  0.56756668  0.51202764
   0.28695295  0.71230822  0.50942899
   0.28608734  0.85548302  0.50939913
   0.42892576  0.99832898  0.50724291
   0.42916859  0.14231205  0.50851227
   0.42900844  0.85430944  0.50577460
   0.57103396  0.99776704  0.50270975
   0.57117486  0.14152075  0.50440484
   0.57340976  0.28857367  0.50329701
   0.57321302  0.85320706  0.49769870
   0.71336756  0.99748716  0.49865124
   0.71379951  0.14106486  0.50244695
   0.71343111  0.28446968  0.50195138
   0.70881910  0.42448526  0.49701580
   0.70905515  0.85364394  0.48918604
   0.85611751  0.99747522  0.49953871
   0.85637556  0.14071601  0.50338256
   0.85631583  0.28383637  0.50410790
   0.85590876  0.42689537  0.50188651
   0.85603968  0.56953554  0.49797973
   0.85807363  0.71241752  0.49441881
   0.85507113  0.85384254  0.49506893
   0.04773065  0.09383397  0.50873074
   0.04737015  0.23630095  0.50995707
   0.04652742  0.37923661  0.50927063
   0.04748412  0.52226419  0.50767293
   0.04792586  0.66505689  0.50659782
   0.04761905  0.80799806  0.50628158
   0.04756022  0.95086096  0.50709058
   0.19115500  0.09437941  0.51176452
   0.19224946  0.23817066  0.51342037
   0.18929173  0.37974493  0.51354251
   0.19101007  0.52245627  0.51144370
   0.19127031  0.66507598  0.50965279
   0.19088984  0.80804145  0.50949281
   0.19087072  0.95113949  0.51024265
   0.33398977  0.09427131  0.51052695
   0.33839513  0.23822838  0.51259084
   0.33827950  0.66740511  0.50945402
   0.33392697  0.80744380  0.50848999
   0.33351158  0.95070203  0.50916321
   0.47630966  0.09383719  0.50670803
   0.47421464  0.23837134  0.50754065
   0.47403884  0.80309015  0.50336116
   0.47617755  0.95012920  0.50512131
   0.61841392  0.09330313  0.50304517
   0.61836389  0.23737267  0.50311537
   0.61819546  0.94931265  0.49950068
   0.76125122  0.09325002  0.50152076
   0.76119852  0.23634336  0.50283532
   0.76027358  0.37967503  0.50019295
   0.75930425  0.52452876  0.49217678
   0.76328071  0.66142573  0.48293840
   0.75864471  0.80451887  0.48469255
   0.76051367  0.94963794  0.49556882
   0.90398544  0.09276364  0.50373072
   0.90406567  0.23613037  0.50540572
   0.90360584  0.37938610  0.50441251
   0.90389737  0.52221029  0.50198054
   0.90505770  0.66471545  0.49931399
   0.90416498  0.80754869  0.49788657
   0.90355834  0.94950098  0.50051060
   0.71784595  0.71139605  0.47174563
   0.33140347  0.38181378  0.51561316
   0.63266617  0.66481637  0.44549866
   0.42053115  0.43083747  0.51620477
   0.42834989  0.28252751  0.51013597
   0.42826937  0.71262679  0.50643120
   0.71620403  0.57036016  0.48239036
   0.33166025  0.52206754  0.51382616
   0.61891078  0.37895466  0.49932032
   0.61901343  0.80913231  0.49080751
   0.50006585  0.62206170  0.56792898
   0.54338894  0.56387104  0.57401268
   0.53536511  0.60724903  0.60816710
Direct configuration=     3
   0.99936854  0.99799677  0.50578224
   0.99959350  0.14100870  0.50769722
   0.99949934  0.28390481  0.50831511
   0.99913488  0.42688121  0.50700595
   0.99949860  0.56969453  0.50550286
   0.00052507  0.71270832  0.50447101
   0.99973951  0.85558715  0.50423547
   0.14317994  0.99904328  0.51011459
   0.14363102  0.14236808  0.51165882
   0.14315678  0.28449831  0.51275380
   0.14201493  0.42726109  0.51169740
   0.14310832  0.56976743  0.50970294
   0.14350477  0.71251527  0.50885373
   0.14308435  0.85572131  0.50908135
   0.28604409  0.99851476  0.51032180
   0.28679586  0.14211925  0.51202827
   0.28921924  0.28780251  0.51449159
   0.28474470  0.43106342  0.51478885
   0.28782353  0.56756506  0.51199224
   0.28695219  0.71230518  0.50940786
   0.28608725  0.85548100  0.50938567
   0.42892480  0.99832851  0.50722906
   0.42916915  0.14231122  0.50848949
   0.42900677  0.85430670  0.50576865
   0.57103263  0.99776448  0.50270846
   0.57117494  0.14151902  0.50440015
   0.57341041  0.28857152  0.50328913
   0.57321060  0.85320652  0.49770594
   0.71336731  0.99748374  0.49865463
   0.71379947  0.14106178  0.50244580
   0.71343134  0.28446739  0.50195525
   0.70881891  0.42448283  0.49702637
   0.70904894  0.85363853  0.48920744
   0.85611659  0.99747284  0.49954242
   0.85637638  0.14071414  0.50338385
   0.85631581  0.28383457  0.50411173
   0.85590858  0.42689242  0.50189528
   0.85603786  0.56953113  0.49798806
   0.85807112  0.71241415  0.49443341
   0.85506650  0.85383965  0.49507626
   0.04773274  0.09383142  0.50871800
   0.04737330  0.23630008  0.50994581
   0.04652877  0.37923418  0.50925875
   0.04748473  0.52226087  0.50766664
   0.04792632  0.66505525  0.50659029
   0.04761727  0.80799396  0.50627192
   0.04755580  0.95085549  0.50708160
   0.19115518  0.09437662  0.51173566
   0.19225101  0.23817100  0.51339147
   0.18929533  0.37974670  0.51350528
   0.19101102  0.52245321  0.51141735
   0.19127016  0.66507372  0.50963603
   0.19089052  0.80804058  0.50947605
   0.19086864  0.95113741  0.51022176
   0.33398936  0.09426778  0.51050610
   0.33839468  0.23822407  0.51255015
   0.33827974  0.66740296  0.50943089
   0.33392559  0.80744116  0.50847673
   0.33350965  0.95070103  0.50914807
   0.47631034  0.09383730  0.50669553
   0.47421623  0.23837007  0.50751858
   0.47403787  0.80308922  0.50335578
   0.47617524  0.95012729  0.50511594
   0.61841350  0.09330157  0.50304206
   0.61836439  0.23737119  0.50311045
   0.61819522  0.94931121  0.49950292
   0.76125150  0.09324674  0.50152182
   0.76119842  0.23634034  0.50283869
   0.76027339  0.37967163  0.50020130
   0.75930286  0.52452539  0.49219490
   0.76327704  0.66142293  0.48297576
   0.75863669  0.80451169  0.48472369
   0.76051245  0.94963438  0.49557889
   0.90398420  0.09275990  0.50373083
   0.90406619  0.23612865  0.50540601
   0.90360569  0.37938291  0.50441761
   0.90389801  0.52220610  0.50198424
   0.90505810  0.66471401  0.49931892
   0.90416092  0.80754509  0.49789178
   0.90355560  0.94949799  0.50051002
   0.71783014  0.71138298  0.47180611
   0.33139921  0.38180903  0.51553376
   0.63262507  0.66478644  0.44563089
   0.42052971  0.43083896  0.51608035
   0.42835055  0.28252655  0.51010321
   0.42826966  0.71262592  0.50641886
   0.71619884  0.57035442  0.48243088
   0.33166481  0.52206833  0.51376227
   0.61891019  0.37895210  0.49932092
   0.61900866  0.80912866  0.49083246
   0.50018027  0.62222771  0.56809200
   0.54339704  0.56391718  0.57424656
   0.53535456  0.60729834  0.60837839
Direct configuration=     4
   0.99936811  0.99799329  0.50577237
   0.99959800  0.14100625  0.50768566
   0.99950144  0.28390244  0.50830515
   0.99913533  0.42687863  0.50700193
   0.99949964  0.56969203  0.50549903
   0.00052429  0.71270328  0.50446417
   0.99973646  0.85558319  0.50422609
   0.14317498  0.99903877  0.51008430
   0.14363226  0.14236570  0.51162926
   0.14316115  0.28449704  0.51271806
   0.14201588  0.42725965  0.51166313
   0.14310925  0.56976547  0.50968170
   0.14350564  0.71251312  0.50883629
   0.14308212  0.85571654  0.50905951
   0.28604263  0.99851119  0.51029717
   0.28679489  0.14211234  0.51198278
   0.28921600  0.28779430  0.51442724
   0.28474335  0.43105898  0.51470369
   0.28782086  0.56756169  0.51194550
   0.28695287  0.71230197  0.50938002
   0.28608679  0.85547806  0.50936664
   0.42892534  0.99832747  0.50721205
   0.42916848  0.14230839  0.50846062
   0.42900497  0.85430342  0.50575975
   0.57103142  0.99776117  0.50270628
   0.57117537  0.14151698  0.50439338
   0.57341178  0.28856956  0.50327792
   0.57320662  0.85320451  0.49771599
   0.71336566  0.99747873  0.49865917
   0.71379922  0.14105759  0.50244454
   0.71343161  0.28446452  0.50196018
   0.70881874  0.42447897  0.49704038
   0.70904096  0.85363036  0.48923767
   0.85611345  0.99746831  0.49954735
   0.85637713  0.14071222  0.50338563
   0.85631710  0.28383185  0.50411700
   0.85590795  0.42688919  0.50190679
   0.85603581  0.56952584  0.49799801
   0.85806635  0.71240778  0.49445266
   0.85505777  0.85383119  0.49508451
   0.04772942  0.09382888  0.50869981
   0.04737636  0.23629830  0.50992962
   0.04652968  0.37923077  0.50924287
   0.04748489  0.52225635  0.50765805
   0.04792600  0.66505119  0.50658002
   0.04761455  0.80798945  0.50625847
   0.04755181  0.95084886  0.50706783
   0.19115294  0.09437175  0.51169728
   0.19225496  0.23817158  0.51335285
   0.18929958  0.37974841  0.51345486
   0.19101335  0.52244907  0.51138188
   0.19126939  0.66506961  0.50961299
   0.19089136  0.80803905  0.50945511
   0.19086542  0.95113335  0.51019417
   0.33398990  0.09426451  0.51047581
   0.33839651  0.23822109  0.51249588
   0.33827975  0.66740015  0.50939922
   0.33392478  0.80743772  0.50845949
   0.33350699  0.95070009  0.50912948
   0.47630945  0.09383630  0.50667796
   0.47421632  0.23836796  0.50749143
   0.47403532  0.80308853  0.50334920
   0.47617181  0.95012508  0.50510843
   0.61841339  0.09329879  0.50303803
   0.61836509  0.23736806  0.50310443
   0.61819494  0.94931124  0.49950609
   0.76125230  0.09324359  0.50152329
   0.76119717  0.23633543  0.50284305
   0.76027339  0.37966720  0.50021284
   0.75930048  0.52452137  0.49222029
   0.76327208  0.66142030  0.48302598
   0.75862611  0.80450317  0.48476497
   0.76051159  0.94963025  0.49559211
   0.90398729  0.09275905  0.50373091
   0.90406645  0.23612500  0.50540624
   0.90360520  0.37937847  0.50442455
   0.90389922  0.52220151  0.50198993
   0.90505865  0.66471294  0.49932496
   0.90415558  0.80754058  0.49789834
   0.90355424  0.94949459  0.50050796
   0.71780549  0.71136356  0.47188565
   0.33139721  0.38180724  0.51542858
   0.63257535  0.66475062  0.44581215
   0.42053115  0.43084240  0.51591711
   0.42835017  0.28252353  0.51005982
   0.42827063  0.71262486  0.50640266
   0.71619260  0.57034580  0.48248470
   0.33166941  0.52206572  0.51367759
   0.61890937  0.37894862  0.49932186
   0.61900353  0.80912431  0.49086522
   0.50033198  0.62244561  0.56830541
   0.54340483  0.56397782  0.57455374
   0.53534379  0.60736665  0.60866614
Direct configuration=     5
   0.99936706  0.99798885  0.50576142
   0.99959637  0.14100227  0.50767206
   0.99950330  0.28390029  0.50829367
   0.99913615  0.42687418  0.50699618
   0.99950022  0.56968767  0.50549413
   0.00052453  0.71269917  0.50445546
   0.99973294  0.85557888  0.50421481
   0.14316933  0.99903218  0.51004645
   0.14363280  0.14236243  0.51159226
   0.14316668  0.28449791  0.51267579
   0.14201612  0.42725728  0.51162017
   0.14311015  0.56976199  0.50965421
   0.14350640  0.71250961  0.50881338
   0.14307853  0.85571065  0.50903122
   0.28603994  0.99850605  0.51026716
   0.28679235  0.14210451  0.51192964
   0.28921608  0.28778814  0.51434478
   0.28474663  0.43105700  0.51460005
   0.28782050  0.56755568  0.51188537
   0.28695634  0.71230058  0.50934608
   0.28608638  0.85547530  0.50934175
   0.42892325  0.99832398  0.50719264
   0.42916819  0.14230364  0.50842701
   0.42900277  0.85430087  0.50574736
   0.57102970  0.99775819  0.50270306
   0.57117835  0.14151671  0.50438360
   0.57341277  0.28856643  0.50326346
   0.57320189  0.85320237  0.49772929
   0.71336418  0.99747411  0.49866542
   0.71379895  0.14105251  0.50244356
   0.71343195  0.28445997  0.50196629
   0.70881844  0.42447322  0.49705811
   0.70903375  0.85362161  0.48927815
   0.85611081  0.99746347  0.49955368
   0.85637828  0.14070931  0.50338807
   0.85631824  0.28382688  0.50412397
   0.85590748  0.42688467  0.50192125
   0.85603582  0.56952154  0.49801033
   0.85806087  0.71240100  0.49447673
   0.85504862  0.85382270  0.49509604
   0.04772754  0.09382371  0.50867682
   0.04738026  0.23629605  0.50990782
   0.04653021  0.37922712  0.50922284
   0.04748345  0.52225223  0.50764767
   0.04792506  0.66504596  0.50656968
   0.04761124  0.80798442  0.50624092
   0.04754879  0.95084309  0.50704980
   0.19114971  0.09436589  0.51165017
   0.19225864  0.23816862  0.51330316
   0.18930113  0.37974660  0.51339020
   0.19101516  0.52244545  0.51133697
   0.19126954  0.66506637  0.50958452
   0.19089144  0.80803561  0.50942974
   0.19086127  0.95112756  0.51015939
   0.33398746  0.09425940  0.51043674
   0.33839988  0.23821818  0.51242737
   0.33827962  0.66739644  0.50935861
   0.33392572  0.80743493  0.50843883
   0.33350533  0.95069778  0.50910673
   0.47630871  0.09383393  0.50665640
   0.47421435  0.23836528  0.50745859
   0.47403181  0.80308777  0.50334175
   0.47616912  0.95012224  0.50509852
   0.61840980  0.09329275  0.50303527
   0.61836599  0.23736387  0.50309764
   0.61819346  0.94931025  0.49951038
   0.76125350  0.09324046  0.50152391
   0.76119626  0.23632982  0.50284854
   0.76027379  0.37966394  0.50022668
   0.75929790  0.52451568  0.49225414
   0.76326308  0.66141238  0.48308766
   0.75861013  0.80448981  0.48481542
   0.76050849  0.94962479  0.49560722
   0.90398977  0.09275695  0.50373099
   0.90406750  0.23612065  0.50540653
   0.90360294  0.37937425  0.50442937
   0.90389982  0.52219762  0.50199775
   0.90505704  0.66470837  0.49933240
   0.90414875  0.80753413  0.49790636
   0.90355273  0.94948909  0.50050474
   0.71777731  0.71134410  0.47198492
   0.33139926  0.38180651  0.51529670
   0.63251886  0.66470256  0.44603775
   0.42053533  0.43084548  0.51570903
   0.42834951  0.28251921  0.51000607
   0.42827187  0.71262333  0.50638277
   0.71618595  0.57033764  0.48255184
   0.33167154  0.52206065  0.51357228
   0.61890940  0.37894507  0.49932331
   0.61899686  0.80911889  0.49090584
   0.50052319  0.62271286  0.56857004
   0.54340991  0.56405767  0.57493608
   0.53532836  0.60745112  0.60902704
Direct configuration=     6
   0.99936440  0.99798275  0.50574808
   0.99959183  0.14099780  0.50765612
   0.99950524  0.28389681  0.50828010
   0.99913432  0.42686739  0.50699077
   0.99949952  0.56968144  0.50548846
   0.00052416  0.71269488  0.50444480
   0.99972781  0.85557262  0.50420153
   0.14316610  0.99902662  0.51000368
   0.14363145  0.14235750  0.51154659
   0.14317145  0.28449736  0.51262669
   0.14201640  0.42725317  0.51156738
   0.14311109  0.56975890  0.50962141
   0.14350568  0.71250400  0.50878642
   0.14307458  0.85570423  0.50899618
   0.28603529  0.99849948  0.51023052
   0.28678790  0.14209631  0.51187037
   0.28922307  0.28778735  0.51424297
   0.28475248  0.43105939  0.51447556
   0.28782407  0.56754790  0.51180933
   0.28695999  0.71229924  0.50930566
   0.28608598  0.85547234  0.50931096
   0.42891908  0.99831944  0.50717211
   0.42916710  0.14229810  0.50838808
   0.42900083  0.85429991  0.50573104
   0.57102621  0.99775488  0.50269877
   0.57117782  0.14151265  0.50437237
   0.57341212  0.28856198  0.50324736
   0.57319699  0.85320115  0.49774630
   0.71336312  0.99747075  0.49867368
   0.71379746  0.14104594  0.50244333
   0.71343294  0.28445426  0.50197363
   0.70881974  0.42446773  0.49707852
   0.70902762  0.85361600  0.48932913
   0.85610992  0.99745849  0.49956124
   0.85637971  0.14070466  0.50339114
   0.85631786  0.28381973  0.50413242
   0.85590717  0.42687961  0.50193844
   0.85603726  0.56951772  0.49802612
   0.85805481  0.71239377  0.49450550
   0.85504183  0.85381601  0.49511079
   0.04772784  0.09381528  0.50865058
   0.04738416  0.23629358  0.50988014
   0.04653055  0.37922349  0.50919854
   0.04748245  0.52224807  0.50763498
   0.04792520  0.66504218  0.50655951
   0.04760765  0.80797902  0.50621884
   0.04754581  0.95083732  0.50702801
   0.19114629  0.09435870  0.51159642
   0.19226023  0.23816254  0.51324552
   0.18930094  0.37974197  0.51331071
   0.19101536  0.52244236  0.51128209
   0.19127204  0.66506403  0.50954969
   0.19089003  0.80802997  0.50939907
   0.19085653  0.95112011  0.51011675
   0.33398254  0.09425087  0.51038944
   0.33840048  0.23821231  0.51234362
   0.33828006  0.66739127  0.50930861
   0.33392628  0.80743300  0.50841512
   0.33350437  0.95069282  0.50907893
   0.47630951  0.09382998  0.50663044
   0.47421047  0.23836061  0.50742077
   0.47402809  0.80308635  0.50333361
   0.47616775  0.95011859  0.50508588
   0.61840715  0.09328775  0.50303189
   0.61836762  0.23736005  0.50309012
   0.61819064  0.94930672  0.49951602
   0.76125450  0.09323643  0.50152414
   0.76119674  0.23632386  0.50285534
   0.76027396  0.37966013  0.50024345
   0.75929708  0.52450830  0.49229610
   0.76324823  0.66139923  0.48315814
   0.75859024  0.80447248  0.48487660
   0.76050298  0.94961729  0.49562506
   0.90398844  0.09275150  0.50373089
   0.90406985  0.23611634  0.50540714
   0.90360105  0.37936945  0.50443308
   0.90389934  0.52219390  0.50200776
   0.90505350  0.66470022  0.49934161
   0.90414140  0.80752598  0.49791473
   0.90354696  0.94948035  0.50050232
   0.71775006  0.71132359  0.47210600
   0.33140646  0.38180519  0.51513494
   0.63244822  0.66463926  0.44630327
   0.42054759  0.43085396  0.51545795
   0.42834959  0.28251492  0.50994218
   0.42827300  0.71262138  0.50635936
   0.71617858  0.57033039  0.48263230
   0.33167146  0.52205485  0.51344672
   0.61890998  0.37894084  0.49932537
   0.61898852  0.80911236  0.49095457
   0.50075522  0.62302708  0.56888606
   0.54340998  0.56415992  0.57539448
   0.53531149  0.60754992  0.60945941
Direct configuration=     7
   0.99935899  0.99797246  0.50572912
   0.99959371  0.14099196  0.50763575
   0.99950826  0.28389139  0.50826161
   0.99913021  0.42685963  0.50698403
   0.99949704  0.56967572  0.50548065
   0.00052127  0.71268806  0.50443100
   0.99972090  0.85556329  0.50418417
   0.14316506  0.99902019  0.50994993
   0.14363112  0.14235046  0.51148612
   0.14317251  0.28448962  0.51256329
   0.14201710  0.42724730  0.51149603
   0.14310972  0.56975131  0.50957963
   0.14350460  0.71249656  0.50875182
   0.14307074  0.85569608  0.50894917
   0.28603193  0.99849368  0.51018394
   0.28678288  0.14208835  0.51179468
   0.28923563  0.28778958  0.51410440
   0.28475680  0.43105841  0.51431551
   0.28782879  0.56754079  0.51170416
   0.28696056  0.71229482  0.50925483
   0.28608414  0.85546670  0.50927035
   0.42891560  0.99831397  0.50714698
   0.42916298  0.14229045  0.50833787
   0.42899939  0.85429934  0.50570828
   0.57102169  0.99775025  0.50269282
   0.57117428  0.14150430  0.50435765
   0.57341003  0.28855531  0.50322799
   0.57319180  0.85319702  0.49776882
   0.71336085  0.99746677  0.49868534
   0.71379481  0.14103756  0.50244451
   0.71343506  0.28444775  0.50198335
   0.70882205  0.42446074  0.49710180
   0.70901755  0.85360894  0.48939641
   0.85610730  0.99745015  0.49957077
   0.85637754  0.14069947  0.50339376
   0.85631655  0.28381107  0.50414307
   0.85590668  0.42687459  0.50196023
   0.85603748  0.56951019  0.49804729
   0.85804511  0.71238546  0.49454177
   0.85503300  0.85380601  0.49513145
   0.04772348  0.09380824  0.50861685
   0.04738356  0.23628984  0.50984425
   0.04653053  0.37921855  0.50916871
   0.04748262  0.52224171  0.50761783
   0.04792564  0.66503790  0.50654672
   0.04760320  0.80797248  0.50618874
   0.04754138  0.95082961  0.50699828
   0.19114375  0.09434981  0.51153017
   0.19226084  0.23815655  0.51317147
   0.18930576  0.37973822  0.51320711
   0.19101450  0.52243660  0.51121043
   0.19127593  0.66506303  0.50950460
   0.19088673  0.80802212  0.50935771
   0.19085140  0.95111082  0.51005987
   0.33397666  0.09423912  0.51032696
   0.33839669  0.23820202  0.51223266
   0.33828200  0.66738368  0.50924196
   0.33392540  0.80743134  0.50838331
   0.33350001  0.95068247  0.50904308
   0.47631167  0.09382601  0.50660031
   0.47420727  0.23835165  0.50737114
   0.47402413  0.80308421  0.50332411
   0.47616619  0.95011464  0.50506865
   0.61840698  0.09328407  0.50302719
   0.61836899  0.23735559  0.50308115
   0.61818716  0.94930187  0.49952443
   0.76125494  0.09323082  0.50152497
   0.76119819  0.23631583  0.50286479
   0.76027408  0.37965293  0.50026620
   0.75930020  0.52450468  0.49235136
   0.76323430  0.66138396  0.48324786
   0.75856951  0.80445285  0.48495780
   0.76049798  0.94961091  0.49564809
   0.90398656  0.09274476  0.50373033
   0.90407305  0.23611071  0.50540856
   0.90360002  0.37936134  0.50443791
   0.90389867  0.52218655  0.50201989
   0.90504952  0.66469143  0.49935450
   0.90413306  0.80751604  0.49792538
   0.90353752  0.94946894  0.50050162
   0.71771932  0.71129761  0.47226445
   0.33142889  0.38181247  0.51492824
   0.63234990  0.66455087  0.44664864
   0.42056295  0.43086750  0.51512940
   0.42834922  0.28251004  0.50985995
   0.42827467  0.71261943  0.50632969
   0.71616862  0.57031902  0.48273659
   0.33167286  0.52204915  0.51328504
   0.61891068  0.37893454  0.49932864
   0.61897904  0.80910524  0.49101872
   0.50105952  0.62342625  0.56929490
   0.54340270  0.56429427  0.57598408
   0.53528671  0.60768233  0.61002833
Direct configuration=     8
   0.99934948  0.99795790  0.50570403
   0.99959532  0.14098555  0.50761046
   0.99951010  0.28388464  0.50823598
   0.99913162  0.42685449  0.50697223
   0.99949616  0.56966889  0.50547563
   0.00051553  0.71267791  0.50441389
   0.99971368  0.85555160  0.50416092
   0.14316240  0.99900875  0.50988085
   0.14363036  0.14234044  0.51140687
   0.14317010  0.28447665  0.51247733
   0.14201928  0.42723819  0.51140606
   0.14310938  0.56974393  0.50952715
   0.14350618  0.71248987  0.50870977
   0.14306857  0.85568420  0.50889055
   0.28602618  0.99848132  0.51012347
   0.28678497  0.14208533  0.51170138
   0.28925047  0.28779271  0.51391827
   0.28477028  0.43105364  0.51411081
   0.28783043  0.56753817  0.51157018
   0.28696015  0.71228736  0.50918916
   0.28607706  0.85545756  0.50922174
   0.42890976  0.99830652  0.50711750
   0.42915570  0.14227847  0.50827198
   0.42899684  0.85429582  0.50567750
   0.57102213  0.99774671  0.50268317
   0.57117765  0.14150066  0.50433759
   0.57340881  0.28854513  0.50320719
   0.57318554  0.85319444  0.49779341
   0.71335587  0.99745968  0.49870159
   0.71379555  0.14103221  0.50244592
   0.71343673  0.28443856  0.50199681
   0.70882763  0.42445719  0.49713044
   0.70900306  0.85360241  0.48947908
   0.85609926  0.99743860  0.49958302
   0.85637436  0.14069238  0.50339638
   0.85631722  0.28380145  0.50415632
   0.85590250  0.42686530  0.50198512
   0.85603591  0.56949930  0.49807808
   0.85803332  0.71237101  0.49458705
   0.85501761  0.85378765  0.49516090
   0.04771686  0.09379908  0.50857798
   0.04738097  0.23628116  0.50979847
   0.04652977  0.37921052  0.50913130
   0.04748092  0.52223214  0.50759471
   0.04792137  0.66502731  0.50652963
   0.04759715  0.80796293  0.50614818
   0.04753513  0.95081814  0.50695714
   0.19114160  0.09434194  0.51144811
   0.19226335  0.23815071  0.51307287
   0.18931445  0.37973122  0.51307688
   0.19101548  0.52242722  0.51111504
   0.19127621  0.66505685  0.50944758
   0.19088146  0.80801213  0.50930115
   0.19084809  0.95110110  0.50998485
   0.33397123  0.09422898  0.51024761
   0.33839328  0.23818836  0.51208966
   0.33828613  0.66737724  0.50915747
   0.33392176  0.80742344  0.50833998
   0.33349411  0.95067292  0.50899799
   0.47630511  0.09381311  0.50656649
   0.47420490  0.23833855  0.50730439
   0.47402013  0.80308194  0.50331303
   0.47616267  0.95011118  0.50504556
   0.61840676  0.09327809  0.50302076
   0.61836791  0.23734725  0.50307068
   0.61818315  0.94929680  0.49953716
   0.76125151  0.09322290  0.50152822
   0.76119792  0.23630409  0.50287832
   0.76027435  0.37964334  0.50029465
   0.75930301  0.52450002  0.49242437
   0.76322085  0.66136640  0.48336262
   0.75854999  0.80443570  0.48506632
   0.76049561  0.94960861  0.49567658
   0.90398461  0.09273575  0.50372927
   0.90407404  0.23610251  0.50541126
   0.90359727  0.37934911  0.50444729
   0.90389793  0.52217504  0.50203538
   0.90504444  0.66468304  0.49937059
   0.90412241  0.80750463  0.49794055
   0.90353054  0.94945541  0.50050234
   0.71767184  0.71125806  0.47246920
   0.33145392  0.38182871  0.51467673
   0.63222016  0.66444279  0.44708023
   0.42059225  0.43089531  0.51468696
   0.42834602  0.28250049  0.50975388
   0.42827749  0.71261747  0.50629206
   0.71615586  0.57030025  0.48287076
   0.33167774  0.52204280  0.51307822
   0.61891191  0.37892611  0.49933350
   0.61896980  0.80909644  0.49110356
   0.50145078  0.62393192  0.56981714
   0.54338612  0.56446571  0.57673562
   0.53525541  0.60785281  0.61077007
Direct configuration=     9
   0.99933874  0.99794307  0.50566958
   0.99959067  0.14097550  0.50757898
   0.99950972  0.28387481  0.50820294
   0.99912835  0.42684117  0.50695513
   0.99949435  0.56965694  0.50547134
   0.00051131  0.71266787  0.50439422
   0.99970517  0.85553777  0.50412810
   0.14315602  0.99899627  0.50979208
   0.14362663  0.14232850  0.51130468
   0.14318001  0.28447591  0.51236797
   0.14202391  0.42722184  0.51129200
   0.14310950  0.56973377  0.50945735
   0.14350323  0.71248172  0.50866075
   0.14306195  0.85567173  0.50881920
   0.28601839  0.99846543  0.51003992
   0.28678412  0.14207550  0.51158240
   0.28926088  0.28779217  0.51367831
   0.28479330  0.43104900  0.51385488
   0.28783568  0.56753241  0.51139894
   0.28696042  0.71227648  0.50910183
   0.28606579  0.85544399  0.50916640
   0.42890096  0.99829416  0.50707954
   0.42914472  0.14226011  0.50819045
   0.42899029  0.85428913  0.50563920
   0.57101815  0.99773966  0.50267191
   0.57117665  0.14149249  0.50431131
   0.57340899  0.28853237  0.50318553
   0.57317710  0.85319419  0.49782265
   0.71334934  0.99745178  0.49872364
   0.71379604  0.14102459  0.50244885
   0.71343462  0.28442429  0.50201537
   0.70882979  0.42445021  0.49716903