  99  99   0   0
  0.3914025E+02  0.1727104E-08  0.1727104E-08  0.1500000E-08  0.0000000E+00
  1.000000000000000E-004
  CAR 
 unknown system                          
      4.56904534    -31.23599622  301     -2.39182166      1.00000000
    -31.236  0.0000E+00  0.0000E+00  0.0000E+00  0.0000E+00
    -31.117  0.0000E+00  0.0000E+00  0.0000E+00  0.0000E+00
    -30.997  0.0000E+00  0.0000E+00  0.0000E+00  0.0000E+00
    -30.878  0.0000E+00  0.0000E+00  0.0000E+00  0.0000E+00
    -30.759  0.0000E+00  0.0000E+00  0.0000E+00  0.0000E+00
    -30.639  0.0000E+00  0.0000E+00  0.0000E+00  0.0000E+00
    -30.520  0.0000E+00  0.0000E+00  0.0000E+00  0.0000E+00
    -30.401  0.0000E+00  0.0000E+00  0.0000E+00  0.0000E+00
    -30.281  0.0000E+00  0.0000E+00  0.0000E+00  0.0000E+00
    -30.162  0.0000E+00  0.0000E+00  0.0000E+00  0.0000E+00
    -30.042  0.0000E+00  0.0000E+00  0.0000E+00  0.0000E+00
    -29.923  0.0000E+00  0.0000E+00  0.0000E+00  0.0000E+00
    -29.804  0.2766E-09  0.2766E-09  0.3301E-10  0.3301E-10
    -29.684  0.2651E-03  0.2651E-03  0.3164E-04  0.3164E-04
    -29.565  0.1474E-01  0.1474E-01  0.1791E-02  0.1791E-02
    -29.446  0.1512E-01  0.1512E-01  0.3596E-02  0.3596E-02
    -29.326  0.3389E-02  0.3389E-02  0.4000E-02  0.4000E-02
    -29.207  0.2145E-06  0.2145E-06  0.4000E-02  0.4000E-02
    -29.088  0.2786E-15  0.2786E-15  0.4000E-02  0.4000E-02
    -28.968  0.0000E+00  0.0000E+00  0.4000E-02  0.4000E-02
    -28.849  0.0000E+00  0.0000E+00  0.4000E-02  0.4000E-02
    -28.730  0.0000E+00  0.0000E+00  0.4000E-02  0.4000E-02
    -28.610  0.0000E+00  0.0000E+00  0.4000E-02  0.4000E-02
    -28.491  0.0000E+00  0.0000E+00  0.4000E-02  0.4000E-02
    -28.372  0.0000E+00  0.0000E+00  0.4000E-02  0.4000E-02
    -28.252  0.0000E+00  0.0000E+00  0.4000E-02  0.4000E-02
    -28.133  0.0000E+00  0.0000E+00  0.4000E-02  0.4000E-02
    -28.014  0.0000E+00  0.0000E+00  0.4000E-02  0.4000E-02
    -27.894  0.0000E+00  0.0000E+00  0.4000E-02  0.4000E-02
    -27.775  0.0000E+00  0.0000E+00  0.4000E-02  0.4000E-02
    -27.655  0.0000E+00  0.0000E+00  0.4000E-02  0.4000E-02
    -27.536  0.0000E+00  0.0000E+00  0.4000E-02  0.4000E-02
    -27.417  0.0000E+00  0.0000E+00  0.4000E-02  0.4000E-02
    -27.297  0.0000E+00  0.0000E+00  0.4000E-02  0.4000E-02
    -27.178  0.0000E+00  0.0000E+00  0.4000E-02  0.4000E-02
    -27.059  0.0000E+00  0.0000E+00  0.4000E-02  0.4000E-02
    -26.939  0.0000E+00  0.0000E+00  0.4000E-02  0.4000E-02
    -26.820  0.0000E+00  0.0000E+00  0.4000E-02  0.4000E-02
    -26.701  0.0000E+00  0.0000E+00  0.4000E-02  0.4000E-02
    -26.581  0.0000E+00  0.0000E+00  0.4000E-02  0.4000E-02
    -26.462  0.0000E+00  0.0000E+00  0.4000E-02  0.4000E-02
    -26.343  0.0000E+00  0.0000E+00  0.4000E-02  0.4000E-02
    -26.223  0.0000E+00  0.0000E+00  0.4000E-02  0.4000E-02
    -26.104  0.0000E+00  0.0000E+00  0.4000E-02  0.4000E-02
    -25.985  0.0000E+00  0.0000E+00  0.4000E-02  0.4000E-02
    -25.865  0.0000E+00  0.0000E+00  0.4000E-02  0.4000E-02
    -25.746  0.0000E+00  0.0000E+00  0.4000E-02  0.4000E-02
    -25.627  0.0000E+00  0.0000E+00  0.4000E-02  0.4000E-02
    -25.507  0.0000E+00  0.0000E+00  0.4000E-02  0.4000E-02
    -25.388  0.0000E+00  0.0000E+00  0.4000E-02  0.4000E-02
    -25.268  0.0000E+00  0.0000E+00  0.4000E-02  0.4000E-02
    -25.149  0.0000E+00  0.0000E+00  0.4000E-02  0.4000E-02
    -25.030  0.0000E+00  0.0000E+00  0.4000E-02  0.4000E-02
    -24.910  0.0000E+00  0.0000E+00  0.4000E-02  0.4000E-02
    -24.791  0.0000E+00  0.0000E+00  0.4000E-02  0.4000E-02
    -24.672  0.0000E+00  0.0000E+00  0.4000E-02  0.4000E-02
    -24.552  0.0000E+00  0.0000E+00  0.4000E-02  0.4000E-02
    -24.433  0.0000E+00  0.0000E+00  0.4000E-02  0.4000E-02
    -24.314  0.0000E+00  0.0000E+00  0.4000E-02  0.4000E-02
    -24.194  0.0000E+00  0.0000E+00  0.4000E-02  0.4000E-02
    -24.075  0.6512E-17  0.6512E-17  0.4000E-02  0.4000E-02
    -23.956  0.2284E-07  0.2284E-07  0.4000E-02  0.4000E-02
    -23.836  0.1580E-02  0.1580E-02  0.4189E-02  0.4189E-02
    -23.717  0.1485E-01  0.1485E-01  0.5961E-02  0.5961E-02
    -23.598  0.3293E-03  0.3293E-03  0.6000E-02  0.6000E-02
    -23.478  0.4547E-09  0.4547E-09  0.6000E-02  0.6000E-02
    -23.359  0.0000E+00  0.0000E+00  0.6000E-02  0.6000E-02
    -23.240  0.0000E+00  0.0000E+00  0.6000E-02  0.6000E-02
    -23.120  0.0000E+00  0.0000E+00  0.6000E-02  0.6000E-02
    -23.001  0.0000E+00  0.0000E+00  0.6000E-02  0.6000E-02
    -22.881  0.0000E+00  0.0000E+00  0.6000E-02  0.6000E-02
    -22.762  0.0000E+00  0.0000E+00  0.6000E-02  0.6000E-02
    -22.643  0.0000E+00  0.0000E+00  0.6000E-02  0.6000E-02
    -22.523  0.0000E+00  0.0000E+00  0.6000E-02  0.6000E-02
    -22.404  0.0000E+00  0.0000E+00  0.6000E-02  0.6000E-02
    -22.285  0.0000E+00  0.0000E+00  0.6000E-02  0.6000E-02
    -22.165  0.0000E+00  0.0000E+00  0.6000E-02  0.6000E-02
    -22.046  0.4035E-15  0.4035E-15  0.6000E-02  0.6000E-02
    -21.927  0.1458E-06  0.1458E-06  0.6000E-02  0.6000E-02
    -21.807  0.1279E-02  0.1279E-02  0.6153E-02  0.6153E-02
    -21.688  0.1415E-01  0.1415E-01  0.7842E-02  0.7842E-02
    -21.569  0.1296E-01  0.1296E-01  0.9389E-02  0.9389E-02
    -21.449  0.4850E-02  0.4850E-02  0.9968E-02  0.9968E-02
    -21.330  0.2364E-01  0.2364E-01  0.1279E-01  0.1279E-01
    -21.211  0.1299E-01  0.1299E-01  0.1434E-01  0.1434E-01
    -21.091  0.4734E-02  0.4734E-02  0.1490E-01  0.1490E-01
    -20.972  0.1269E-01  0.1269E-01  0.1642E-01  0.1642E-01
    -20.853  0.2318E-01  0.2318E-01  0.1919E-01  0.1919E-01
    -20.733  0.1727E-01  0.1727E-01  0.2125E-01  0.2125E-01
    -20.614  0.2238E-02  0.2238E-02  0.2151E-01  0.2151E-01
    -20.494  0.9344E-02  0.9344E-02  0.2263E-01  0.2263E-01
    -20.375  0.1625E-01  0.1625E-01  0.2457E-01  0.2457E-01
    -20.256  0.2125E-01  0.2125E-01  0.2711E-01  0.2711E-01
    -20.136  0.2291E-01  0.2291E-01  0.2984E-01  0.2984E-01
    -20.017  0.5350E-02  0.5350E-02  0.3048E-01  0.3048E-01
    -19.898  0.5566E-02  0.5566E-02  0.3114E-01  0.3114E-01
    -19.778  0.1782E-01  0.1782E-01  0.3327E-01  0.3327E-01
    -19.659  0.6043E-02  0.6043E-02  0.3399E-01  0.3399E-01
    -19.540  0.1712E-01  0.1712E-01  0.3603E-01  0.3603E-01
    -19.420  0.2897E-01  0.2897E-01  0.3949E-01  0.3949E-01
    -19.301  0.1531E-01  0.1531E-01  0.4132E-01  0.4132E-01
    -19.182  0.4744E-02  0.4744E-02  0.4188E-01  0.4188E-01
    -19.062  0.1783E-01  0.1783E-01  0.4401E-01  0.4401E-01
    -18.943  0.8675E-02  0.8675E-02  0.4505E-01  0.4505E-01
    -18.824  0.9650E-02  0.9650E-02  0.4620E-01  0.4620E-01
    -18.704  0.9418E-02  0.9418E-02  0.4732E-01  0.4732E-01
    -18.585  0.1816E-01  0.1816E-01  0.4949E-01  0.4949E-01
    -18.466  0.3350E-01  0.3350E-01  0.5349E-01  0.5349E-01
    -18.346  0.8776E-02  0.8776E-02  0.5454E-01  0.5454E-01
    -18.227  0.1392E-01  0.1392E-01  0.5620E-01  0.5620E-01
    -18.107  0.1552E-01  0.1552E-01  0.5805E-01  0.5805E-01
    -17.988  0.1366E-01  0.1366E-01  0.5968E-01  0.5968E-01
    -17.869  0.1139E-01  0.1139E-01  0.6104E-01  0.6104E-01
    -17.749  0.8848E-02  0.8848E-02  0.6210E-01  0.6210E-01
    -17.630  0.7911E-02  0.7911E-02  0.6304E-01  0.6304E-01
    -17.511  0.1519E-01  0.1519E-01  0.6485E-01  0.6485E-01
    -17.391  0.3246E-01  0.3246E-01  0.6873E-01  0.6873E-01
    -17.272  0.1945E-01  0.1945E-01  0.7105E-01  0.7105E-01
    -17.153  0.2500E-01  0.2500E-01  0.7403E-01  0.7403E-01
    -17.033  0.5507E-02  0.5507E-02  0.7469E-01  0.7469E-01
    -16.914  0.1537E-01  0.1537E-01  0.7652E-01  0.7652E-01
    -16.795  0.1975E-01  0.1975E-01  0.7888E-01  0.7888E-01
    -16.675  0.9774E-02  0.9774E-02  0.8005E-01  0.8005E-01
    -16.556  0.1443E-01  0.1443E-01  0.8177E-01  0.8177E-01
    -16.437  0.5226E-02  0.5226E-02  0.8239E-01  0.8239E-01
    -16.317  0.3343E-01  0.3343E-01  0.8638E-01  0.8638E-01
    -16.198  0.2189E-01  0.2189E-01  0.8900E-01  0.8900E-01
    -16.079  0.7863E-02  0.7863E-02  0.8993E-01  0.8993E-01
    -15.959  0.6476E-02  0.6476E-02  0.9071E-01  0.9071E-01
    -15.840  0.6611E-02  0.6611E-02  0.9150E-01  0.9150E-01
    -15.720  0.1876E-02  0.1876E-02  0.9172E-01  0.9172E-01
    -15.601  0.6375E-02  0.6375E-02  0.9248E-01  0.9248E-01
    -15.482  0.4713E-02  0.4713E-02  0.9304E-01  0.9304E-01
    -15.362  0.1543E-01  0.1543E-01  0.9489E-01  0.9489E-01
    -15.243  0.2099E-01  0.2099E-01  0.9739E-01  0.9739E-01
    -15.124  0.1155E-01  0.1155E-01  0.9877E-01  0.9877E-01
    -15.004  0.1400E-01  0.1400E-01  0.1004E+00  0.1004E+00
    -14.885  0.2937E-01  0.2937E-01  0.1039E+00  0.1039E+00
    -14.766  0.1704E-01  0.1704E-01  0.1060E+00  0.1060E+00
    -14.646  0.5317E-02  0.5317E-02  0.1066E+00  0.1066E+00
    -14.527  0.2124E-01  0.2124E-01  0.1091E+00  0.1091E+00
    -14.408  0.2410E-01  0.2410E-01  0.1120E+00  0.1120E+00
    -14.288  0.1656E-01  0.1656E-01  0.1140E+00  0.1140E+00
    -14.169  0.2019E-01  0.2019E-01  0.1164E+00  0.1164E+00
    -14.050  0.2356E-01  0.2356E-01  0.1192E+00  0.1192E+00
    -13.930  0.7875E-02  0.7875E-02  0.1202E+00  0.1202E+00
    -13.811  0.1172E-01  0.1172E-01  0.1216E+00  0.1216E+00
    -13.692  0.1104E-01  0.1104E-01  0.1229E+00  0.1229E+00
    -13.572  0.1343E-01  0.1343E-01  0.1245E+00  0.1245E+00
    -13.453  0.2012E-01  0.2012E-01  0.1269E+00  0.1269E+00
    -13.333  0.1487E-01  0.1487E-01  0.1287E+00  0.1287E+00
    -13.214  0.1542E-01  0.1542E-01  0.1305E+00  0.1305E+00
    -13.095  0.1232E-01  0.1232E-01  0.1320E+00  0.1320E+00
    -12.975  0.8492E-02  0.8492E-02  0.1330E+00  0.1330E+00
    -12.856  0.1150E-01  0.1150E-01  0.1344E+00  0.1344E+00
    -12.737  0.2015E-01  0.2015E-01  0.1368E+00  0.1368E+00
    -12.617  0.1270E-01  0.1270E-01  0.1383E+00  0.1383E+00
    -12.498  0.2572E-01  0.2572E-01  0.1413E+00  0.1413E+00
    -12.379  0.2181E-01  0.2181E-01  0.1439E+00  0.1439E+00
    -12.259  0.2438E-01  0.2438E-01  0.1469E+00  0.1469E+00
    -12.140  0.1558E-01  0.1558E-01  0.1487E+00  0.1487E+00
    -12.021  0.1473E-01  0.1473E-01  0.1505E+00  0.1505E+00
    -11.901  0.1208E-01  0.1208E-01  0.1519E+00  0.1519E+00
    -11.782  0.2339E-01  0.2339E-01  0.1547E+00  0.1547E+00
    -11.663  0.1656E-01  0.1656E-01  0.1567E+00  0.1567E+00
    -11.543  0.1754E-01  0.1754E-01  0.1588E+00  0.1588E+00
    -11.424  0.2666E-01  0.2666E-01  0.1620E+00  0.1620E+00
    -11.305  0.1830E-01  0.1830E-01  0.1641E+00  0.1641E+00
    -11.185  0.2316E-01  0.2316E-01  0.1669E+00  0.1669E+00
    -11.066  0.2321E-01  0.2321E-01  0.1697E+00  0.1697E+00
    -10.946  0.2078E-01  0.2078E-01  0.1722E+00  0.1722E+00
    -10.827  0.2914E-01  0.2914E-01  0.1756E+00  0.1756E+00
    -10.708  0.1864E-01  0.1864E-01  0.1779E+00  0.1779E+00
    -10.588  0.6412E-02  0.6412E-02  0.1786E+00  0.1786E+00
    -10.469  0.1136E-01  0.1136E-01  0.1800E+00  0.1800E+00
    -10.350  0.1682E-01  0.1682E-01  0.1820E+00  0.1820E+00
    -10.230  0.2467E-01  0.2467E-01  0.1849E+00  0.1849E+00
    -10.111  0.3782E-01  0.3782E-01  0.1895E+00  0.1895E+00
     -9.992  0.3143E-01  0.3143E-01  0.1932E+00  0.1932E+00
     -9.872  0.4026E-01  0.4026E-01  0.1980E+00  0.1980E+00
     -9.753  0.3659E-01  0.3659E-01  0.2024E+00  0.2024E+00
     -9.634  0.3530E-01  0.3530E-01  0.2066E+00  0.2066E+00
     -9.514  0.2194E-01  0.2194E-01  0.2092E+00  0.2092E+00
     -9.395  0.3620E-01  0.3620E-01  0.2135E+00  0.2135E+00
     -9.276  0.3437E-01  0.3437E-01  0.2176E+00  0.2176E+00
     -9.156  0.3251E-01  0.3251E-01  0.2215E+00  0.2215E+00
     -9.037  0.4575E-01  0.4575E-01  0.2270E+00  0.2270E+00
     -8.918  0.4530E-01  0.4530E-01  0.2324E+00  0.2324E+00
     -8.798  0.5833E-01  0.5833E-01  0.2393E+00  0.2393E+00
     -8.679  0.4973E-01  0.4973E-01  0.2453E+00  0.2453E+00
     -8.559  0.4124E-01  0.4124E-01  0.2502E+00  0.2502E+00
     -8.440  0.3475E-01  0.3475E-01  0.2543E+00  0.2543E+00
     -8.321  0.3648E-01  0.3648E-01  0.2587E+00  0.2587E+00
     -8.201  0.3668E-01  0.3668E-01  0.2631E+00  0.2631E+00
     -8.082  0.4025E-01  0.4025E-01  0.2679E+00  0.2679E+00
     -7.963  0.4688E-01  0.4688E-01  0.2735E+00  0.2735E+00
     -7.843  0.3777E-01  0.3777E-01  0.2780E+00  0.2780E+00
     -7.724  0.3347E-01  0.3347E-01  0.2820E+00  0.2820E+00
     -7.605  0.2959E-01  0.2959E-01  0.2855E+00  0.2855E+00
     -7.485  0.3036E-01  0.3036E-01  0.2891E+00  0.2891E+00
     -7.366  0.2204E-01  0.2204E-01  0.2918E+00  0.2918E+00
     -7.247  0.2423E-01  0.2423E-01  0.2947E+00  0.2947E+00
     -7.127  0.5114E-01  0.5114E-01  0.3008E+00  0.3008E+00
     -7.008  0.3756E-01  0.3756E-01  0.3052E+00  0.3052E+00
     -6.889  0.3065E-01  0.3065E-01  0.3089E+00  0.3089E+00
     -6.769  0.2444E-01  0.2444E-01  0.3118E+00  0.3118E+00
     -6.650  0.1785E-01  0.1785E-01  0.3139E+00  0.3139E+00
     -6.531  0.2838E-01  0.2838E-01  0.3173E+00  0.3173E+00
     -6.411  0.2006E-01  0.2006E-01  0.3197E+00  0.3197E+00
     -6.292  0.2509E-01  0.2509E-01  0.3227E+00  0.3227E+00
     -6.172  0.2764E-01  0.2764E-01  0.3260E+00  0.3260E+00
     -6.053  0.4027E-01  0.4027E-01  0.3308E+00  0.3308E+00
     -5.934  0.2200E-01  0.2200E-01  0.3334E+00  0.3334E+00
     -5.814  0.2881E-01  0.2881E-01  0.3369E+00  0.3369E+00
     -5.695  0.3371E-01  0.3371E-01  0.3409E+00  0.3409E+00
     -5.576  0.3272E-01  0.3272E-01  0.3448E+00  0.3448E+00
     -5.456  0.2079E-01  0.2079E-01  0.3473E+00  0.3473E+00
     -5.337  0.1205E-01  0.1205E-01  0.3487E+00  0.3487E+00
     -5.218  0.7124E-02  0.7124E-02  0.3496E+00  0.3496E+00
     -5.098  0.4312E-02  0.4312E-02  0.3501E+00  0.3501E+00
     -4.979  0.3263E-01  0.3263E-01  0.3540E+00  0.3540E+00
     -4.860  0.4081E-01  0.4081E-01  0.3589E+00  0.3589E+00
     -4.740  0.2990E-01  0.2990E-01  0.3624E+00  0.3624E+00
     -4.621  0.8440E-02  0.8440E-02  0.3634E+00  0.3634E+00
     -4.502  0.1840E-01  0.1840E-01  0.3656E+00  0.3656E+00
     -4.382  0.7243E-02  0.7243E-02  0.3665E+00  0.3665E+00
     -4.263  0.4510E-02  0.4510E-02  0.3670E+00  0.3670E+00
     -4.144  0.1639E-01  0.1639E-01  0.3690E+00  0.3690E+00
     -4.024  0.1241E-01  0.1241E-01  0.3705E+00  0.3705E+00
     -3.905  0.1598E-01  0.1598E-01  0.3724E+00  0.3724E+00
     -3.785  0.1431E-01  0.1431E-01  0.3741E+00  0.3741E+00
     -3.666  0.1373E-01  0.1373E-01  0.3757E+00  0.3757E+00
     -3.547  0.2278E-02  0.2278E-02  0.3760E+00  0.3760E+00
     -3.427  0.7555E-05  0.7555E-05  0.3760E+00  0.3760E+00
     -3.308  0.3024E-02  0.3024E-02  0.3764E+00  0.3764E+00
     -3.189  0.1156E-01  0.1156E-01  0.3777E+00  0.3777E+00
     -3.069  0.6326E-02  0.6326E-02  0.3785E+00  0.3785E+00
     -2.950  0.2762E-02  0.2762E-02  0.3788E+00  0.3788E+00
     -2.831  0.1455E-02  0.1455E-02  0.3790E+00  0.3790E+00
     -2.711  0.4065E-05  0.4065E-05  0.3790E+00  0.3790E+00
     -2.592  0.3673E-02  0.3673E-02  0.3794E+00  0.3794E+00
     -2.473  0.4691E-02  0.4691E-02  0.3800E+00  0.3800E+00
     -2.353  0.1132E-04  0.1132E-04  0.3800E+00  0.3800E+00
     -2.234  0.1233E-02  0.1233E-02  0.3801E+00  0.3801E+00
     -2.115  0.6827E-02  0.6827E-02  0.3810E+00  0.3810E+00
     -1.995  0.3191E-03  0.3191E-03  0.3810E+00  0.3810E+00
     -1.876  0.2950E-05  0.2950E-05  0.3810E+00  0.3810E+00
     -1.757  0.2527E-02  0.2527E-02  0.3813E+00  0.3813E+00
     -1.637  0.5669E-02  0.5669E-02  0.3820E+00  0.3820E+00
     -1.518  0.1252E-01  0.1252E-01  0.3835E+00  0.3835E+00
     -1.398  0.4414E-02  0.4414E-02  0.3840E+00  0.3840E+00
     -1.279  0.2083E-03  0.2083E-03  0.3840E+00  0.3840E+00
     -1.160  0.7307E-02  0.7307E-02  0.3849E+00  0.3849E+00
     -1.040  0.1480E-01  0.1480E-01  0.3867E+00  0.3867E+00
     -0.921  0.7139E-02  0.7139E-02  0.3875E+00  0.3875E+00
     -0.802  0.2429E-01  0.2429E-01  0.3904E+00  0.3904E+00
     -0.682  0.2690E-01  0.2690E-01  0.3936E+00  0.3936E+00
     -0.563  0.8471E-02  0.8471E-02  0.3946E+00  0.3946E+00
     -0.444  0.2520E-01  0.2520E-01  0.3976E+00  0.3976E+00
     -0.324  0.1582E-01  0.1582E-01  0.3995E+00  0.3995E+00
     -0.205  0.1004E-01  0.1004E-01  0.4007E+00  0.4007E+00
     -0.086  0.1251E-01  0.1251E-01  0.4022E+00  0.4022E+00
      0.034  0.1843E-01  0.1843E-01  0.4044E+00  0.4044E+00
      0.153  0.1812E-01  0.1812E-01  0.4066E+00  0.4066E+00
      0.272  0.2618E-01  0.2618E-01  0.4097E+00  0.4097E+00
      0.392  0.1520E-01  0.1520E-01  0.4115E+00  0.4115E+00
      0.511  0.3961E-02  0.3961E-02  0.4120E+00  0.4120E+00
      0.630  0.3916E-02  0.3916E-02  0.4125E+00  0.4125E+00
      0.750  0.2368E-01  0.2368E-01  0.4153E+00  0.4153E+00
      0.869  0.2565E-01  0.2565E-01  0.4184E+00  0.4184E+00
      0.989  0.1113E-01  0.1113E-01  0.4197E+00  0.4197E+00
      1.108  0.1928E-01  0.1928E-01  0.4220E+00  0.4220E+00
      1.227  0.1487E-01  0.1487E-01  0.4238E+00  0.4238E+00
      1.347  0.1496E-01  0.1496E-01  0.4255E+00  0.4255E+00
      1.466  0.1926E-01  0.1926E-01  0.4278E+00  0.4278E+00
      1.585  0.3846E-01  0.3846E-01  0.4324E+00  0.4324E+00
      1.705  0.3387E-01  0.3387E-01  0.4365E+00  0.4365E+00
      1.824  0.2592E-01  0.2592E-01  0.4396E+00  0.4396E+00
      1.943  0.1399E-01  0.1399E-01  0.4412E+00  0.4412E+00
      2.063  0.3649E-01  0.3649E-01  0.4456E+00  0.4456E+00
      2.182  0.3933E-01  0.3933E-01  0.4503E+00  0.4503E+00
      2.301  0.3679E-01  0.3679E-01  0.4547E+00  0.4547E+00
      2.421  0.4000E-01  0.4000E-01  0.4594E+00  0.4594E+00
      2.540  0.3784E-01  0.3784E-01  0.4640E+00  0.4640E+00
      2.659  0.1947E-01  0.1947E-01  0.4663E+00  0.4663E+00
      2.779  0.3184E-01  0.3184E-01  0.4701E+00  0.4701E+00
      2.898  0.5023E-01  0.5023E-01  0.4761E+00  0.4761E+00
      3.017  0.3262E-01  0.3262E-01  0.4800E+00  0.4800E+00
      3.137  0.1911E-03  0.1911E-03  0.4800E+00  0.4800E+00
      3.256  0.1256E-09  0.1256E-09  0.4800E+00  0.4800E+00
      3.376  0.0000E+00  0.0000E+00  0.4800E+00  0.4800E+00
      3.495  0.0000E+00  0.0000E+00  0.4800E+00  0.4800E+00
      3.614  0.0000E+00  0.0000E+00  0.4800E+00  0.4800E+00
      3.734  0.0000E+00  0.0000E+00  0.4800E+00  0.4800E+00
      3.853  0.0000E+00  0.0000E+00  0.4800E+00  0.4800E+00
      3.972  0.0000E+00  0.0000E+00  0.4800E+00  0.4800E+00
      4.092  0.0000E+00  0.0000E+00  0.4800E+00  0.4800E+00
      4.211  0.0000E+00  0.0000E+00  0.4800E+00  0.4800E+00
      4.330  0.0000E+00  0.0000E+00  0.4800E+00  0.4800E+00
      4.450  0.0000E+00  0.0000E+00  0.4800E+00  0.4800E+00
      4.569  0.0000E+00  0.0000E+00  0.4800E+00  0.4800E+00
