       N       E                     dE             d eps       ncg     rms          rms(c)
DAV:   1     0.356362009329E+04    0.35636E+04   -0.14453E+05  4200   0.120E+03
DAV:   2    -0.199691993960E+03   -0.37633E+04   -0.35802E+04  5630   0.290E+02
DAV:   3    -0.886949413466E+03   -0.68726E+03   -0.68432E+03  4640   0.130E+02
DAV:   4    -0.912419520737E+03   -0.25470E+02   -0.25318E+02  4600   0.317E+01
DAV:   5    -0.913203245526E+03   -0.78372E+00   -0.78210E+00  5310   0.484E+00    0.438E+01
DAV:   6    -0.880086679049E+03    0.33117E+02   -0.21486E+01  4400   0.930E+00    0.334E+01
DAV:   7    -0.851918833341E+03    0.28168E+02   -0.10687E+02  4260   0.187E+01    0.133E+01
DAV:   8    -0.851615562428E+03    0.30327E+00   -0.64497E+00  4490   0.581E+00    0.663E+00
DAV:   9    -0.851691529156E+03   -0.75967E-01   -0.13161E+00  4410   0.274E+00    0.260E+00
DAV:  10    -0.851564569975E+03    0.12696E+00   -0.41203E-01  4490   0.152E+00    0.117E+00
DAV:  11    -0.851547322057E+03    0.17248E-01   -0.14087E-01  4400   0.851E-01    0.320E-01
DAV:  12    -0.851545827945E+03    0.14941E-02   -0.24736E-02  4380   0.407E-01    0.157E-01
DAV:  13    -0.851545890979E+03   -0.63034E-04   -0.38458E-03  4490   0.158E-01    0.113E-01
DAV:  14    -0.851545879195E+03    0.11784E-04   -0.18747E-03  4360   0.952E-02    0.515E-02
DAV:  15    -0.851545882046E+03   -0.28510E-05   -0.18114E-04  4660   0.410E-02    0.366E-02
DAV:  16    -0.851545915093E+03   -0.33047E-04   -0.19843E-04  4440   0.404E-02    0.278E-02
DAV:  17    -0.851545904241E+03    0.10853E-04   -0.10402E-04  5030   0.326E-02    0.753E-03
DAV:  18    -0.851545906851E+03   -0.26104E-05   -0.20476E-05  4410   0.920E-03    0.623E-03
DAV:  19    -0.851545906423E+03    0.42839E-06   -0.30022E-06  3790   0.593E-03
   1 F= -.85945775E+03 E0= -.85945775E+03  d E =-.859458E+03  mag=     0.0000
       N       E                     dE             d eps       ncg     rms          rms(c)
DAV:   1    -0.851546063757E+03   -0.15691E-03   -0.29765E-03  4000   0.125E-01    0.118E-02
DAV:   2    -0.851546068892E+03   -0.51348E-05   -0.70064E-05  4510   0.176E-02    0.106E-02
DAV:   3    -0.851546067986E+03    0.90530E-06   -0.25355E-06  3080   0.356E-03
   2 F= -.85945790E+03 E0= -.85945790E+03  d E =-.150989E-03  mag=     0.0000
       N       E                     dE             d eps       ncg     rms          rms(c)
DAV:   1    -0.851546310149E+03   -0.24126E-03   -0.67214E-03  4000   0.179E-01    0.192E-02
DAV:   2    -0.851546318795E+03   -0.86463E-05   -0.12640E-04  4160   0.234E-02    0.161E-02
DAV:   3    -0.851546318201E+03    0.59380E-06   -0.40800E-06  4120   0.468E-03
   3 F= -.85945813E+03 E0= -.85945813E+03  d E =-.228139E-03  mag=     0.0000
       N       E                     dE             d eps       ncg     rms          rms(c)
DAV:   1    -0.851546731989E+03   -0.41319E-03   -0.13132E-02  4000   0.245E-01    0.263E-02
DAV:   2    -0.851546748113E+03   -0.16124E-04   -0.23663E-04  4040   0.319E-02    0.216E-02
DAV:   3    -0.851546747885E+03    0.22754E-06   -0.70206E-06  4690   0.613E-03
   4 F= -.85945853E+03 E0= -.85945853E+03  d E =-.397758E-03  mag=     0.0000
       N       E                     dE             d eps       ncg     rms          rms(c)
DAV:   1    -0.851547244646E+03   -0.49653E-03   -0.24194E-02  3960   0.335E-01    0.361E-02
DAV:   2    -0.851547274560E+03   -0.29914E-04   -0.43958E-04  4080   0.435E-02    0.299E-02
DAV:   3    -0.851547274124E+03    0.43552E-06   -0.13495E-05  4660   0.851E-03    0.218E-02
DAV:   4    -0.851547281291E+03   -0.71667E-05   -0.13121E-05  3940   0.914E-03    0.553E-03
DAV:   5    -0.851547282136E+03   -0.84553E-06   -0.40986E-06  3550   0.385E-03
   5 F= -.85945902E+03 E0= -.85945902E+03  d E =-.490321E-03  mag=    -0.0000
       N       E                     dE             d eps       ncg     rms          rms(c)
DAV:   1    -0.851547899383E+03   -0.61809E-03   -0.34698E-02  4000   0.395E-01    0.399E-02
DAV:   2    -0.851547943886E+03   -0.44503E-04   -0.62788E-04  3960   0.516E-02    0.324E-02
DAV:   3    -0.851547941794E+03    0.20925E-05   -0.15769E-05  4630   0.945E-03    0.242E-02
DAV:   4    -0.851547950906E+03   -0.91116E-05   -0.20397E-05  3820   0.112E-02    0.600E-03
DAV:   5    -0.851547951801E+03   -0.89491E-06   -0.58056E-06  4080   0.461E-03
   6 F= -.85945964E+03 E0= -.85945964E+03  d E =-.616613E-03  mag=     0.0000
       N       E                     dE             d eps       ncg     rms          rms(c)
DAV:   1    -0.851548652107E+03   -0.70120E-03   -0.49446E-02  3970   0.474E-01    0.477E-02
DAV:   2    -0.851548717169E+03   -0.65062E-04   -0.90380E-04  4020   0.622E-02    0.393E-02
DAV:   3    -0.851548713215E+03    0.39537E-05   -0.24755E-05  4690   0.116E-02    0.294E-02
DAV:   4    -0.851548724469E+03   -0.11253E-04   -0.30247E-05  3900   0.137E-02    0.768E-03
DAV:   5    -0.851548725938E+03   -0.14696E-05   -0.86308E-06  4260   0.567E-03    0.447E-03
DAV:   6    -0.851548725771E+03    0.16734E-06   -0.15990E-06  2880   0.338E-03
   7 F= -.85946035E+03 E0= -.85946035E+03  d E =-.714180E-03  mag=     0.0000
       N       E                     dE             d eps       ncg     rms          rms(c)
DAV:   1    -0.851549610226E+03   -0.88429E-03   -0.79505E-02  3920   0.595E-01    0.600E-02
DAV:   2    -0.851549709620E+03   -0.99394E-04   -0.13896E-03  3980   0.769E-02    0.495E-02
DAV:   3    -0.851549702931E+03    0.66893E-05   -0.37051E-05  4630   0.145E-02    0.366E-02
DAV:   4    -0.851549720010E+03   -0.17079E-04   -0.50694E-05  4020   0.172E-02    0.896E-03
DAV:   5    -0.851549721681E+03   -0.16705E-05   -0.13909E-05  4300   0.721E-03    0.530E-03
DAV:   6    -0.851549721482E+03    0.19926E-06   -0.24941E-06  3480   0.399E-03
   8 F= -.85946127E+03 E0= -.85946127E+03  d E =-.922555E-03  mag=     0.0000
       N       E                     dE             d eps       ncg     rms          rms(c)
DAV:   1    -0.851550779783E+03   -0.10581E-02   -0.13002E-01  3900   0.759E-01    0.766E-02
DAV:   2    -0.851550940134E+03   -0.16035E-03   -0.22454E-03  4000   0.975E-02    0.642E-02
DAV:   3    -0.851550926954E+03    0.13181E-04   -0.65561E-05  4620   0.191E-02    0.473E-02
DAV:   4    -0.851550951116E+03   -0.24163E-04   -0.85728E-05  4130   0.223E-02    0.120E-02
DAV:   5    -0.851550953977E+03   -0.28612E-05   -0.23983E-05  4300   0.944E-03    0.697E-03
DAV:   6    -0.851550953756E+03    0.22155E-06   -0.41550E-06  3740   0.496E-03
   9 F= -.85946241E+03 E0= -.85946241E+03  d E =-.113707E-02  mag=    -0.0000
       N       E                     dE             d eps       ncg     rms          rms(c)
DAV:   1    -0.851552227955E+03   -0.12740E-02   -0.19880E-01  3880   0.934E-01    0.946E-02
DAV:   2    -0.851552460561E+03   -0.23261E-03   -0.33147E-03  4000   0.118E-01    0.798E-02
DAV:   3    -0.851552441339E+03    0.19222E-04   -0.10073E-04  4650   0.239E-02    0.581E-02
DAV:   4    -0.851552479095E+03   -0.37756E-04   -0.13334E-04  4310   0.274E-02    0.145E-02
DAV:   5    -0.851552482341E+03   -0.32461E-05   -0.37505E-05  4320   0.119E-02    0.843E-03
DAV:   6    -0.851552482197E+03    0.14360E-06   -0.62585E-06  3800   0.584E-03
  10 F= -.85946382E+03 E0= -.85946382E+03  d E =-.140754E-02  mag=     0.0000
       N       E                     dE             d eps       ncg     rms          rms(c)
DAV:   1    -0.851553950925E+03   -0.14686E-02   -0.30572E-01  3880   0.115E+00    0.117E-01
DAV:   2    -0.851554296150E+03   -0.34523E-03   -0.49543E-03  4020   0.144E-01    0.990E-02
DAV:   3    -0.851554264848E+03    0.31302E-04   -0.15174E-04  4590   0.295E-02    0.714E-02
DAV:   4    -0.851554325705E+03   -0.60857E-04   -0.21196E-04  4360   0.341E-02    0.172E-02
DAV:   5    -0.851554328405E+03   -0.27001E-05   -0.60558E-05  4310   0.153E-02    0.101E-02
DAV:   6    -0.851554328602E+03   -0.19700E-06   -0.89501E-06  3800   0.683E-03
  11 F= -.85946551E+03 E0= -.85946551E+03  d E =-.169513E-02  mag=     0.0000
       N       E                     dE             d eps       ncg     rms          rms(c)
DAV:   1    -0.851555922196E+03   -0.15938E-02   -0.48650E-01  3880   0.145E+00    0.146E-01
DAV:   2    -0.851556484898E+03   -0.56270E-03   -0.79710E-03  4000   0.183E-01    0.124E-01
DAV:   3    -0.851556429845E+03    0.55053E-04   -0.24483E-04  4540   0.372E-02    0.899E-02
DAV:   4    -0.851556520043E+03   -0.90198E-04   -0.34336E-04  4500   0.437E-02    0.216E-02
DAV:   5    -0.851556524193E+03   -0.41492E-05   -0.96769E-05  4320   0.193E-02    0.128E-02
DAV:   6    -0.851556524798E+03   -0.60507E-06   -0.13923E-05  4000   0.861E-03    0.649E-03
DAV:   7    -0.851556524847E+03   -0.49680E-07   -0.25833E-06  3440   0.355E-03
  12 F= -.85946751E+03 E0= -.85946751E+03  d E =-.199513E-02  mag=    -0.0000
       N       E                     dE             d eps       ncg     rms          rms(c)
DAV:   1    -0.851558009743E+03   -0.14849E-02   -0.72508E-01  3880   0.178E+00    0.177E-01
DAV:   2    -0.851558835820E+03   -0.82608E-03   -0.11759E-02  4000   0.223E-01    0.153E-01
DAV:   3    -0.851558728300E+03    0.10752E-03   -0.39615E-04  4660   0.469E-02    0.110E-01
DAV:   4    -0.851558837477E+03   -0.10918E-03   -0.52039E-04  4300   0.537E-02    0.284E-02
DAV:   5    -0.851558844659E+03   -0.71819E-05   -0.15762E-04  4320   0.244E-02    0.161E-02
DAV:   6    -0.851558846657E+03   -0.19983E-05   -0.20497E-05  4180   0.981E-03    0.813E-03
DAV:   7    -0.851558846678E+03   -0.20766E-07   -0.31866E-06  3670   0.402E-03
  13 F= -.85946960E+03 E0= -.85946960E+03  d E =-.208954E-02  mag=     0.0000
       N       E                     dE             d eps       ncg     rms          rms(c)
DAV:   1    -0.851558221625E+03    0.62503E-03   -0.11802E+00  3840   0.233E+00    0.228E-01
DAV:   2    -0.851559792340E+03   -0.15707E-02   -0.21671E-02  4160   0.303E-01    0.201E-01
DAV:   3    -0.851559535743E+03    0.25660E-03   -0.86823E-04  4800   0.650E-02    0.150E-01
DAV:   4    -0.851559562933E+03   -0.27190E-04   -0.95553E-04  4290   0.747E-02    0.481E-02
DAV:   5    -0.851559596492E+03   -0.33559E-04   -0.26405E-04  4300   0.315E-02    0.259E-02
DAV:   6    -0.851559600925E+03   -0.44329E-05   -0.44277E-05  4180   0.144E-02    0.114E-02
DAV:   7    -0.851559600500E+03    0.42538E-06   -0.57871E-06  4440   0.550E-03
  14 F= -.85947005E+03 E0= -.85947005E+03  d E =-.449186E-03  mag=     0.0000
       N       E                     dE             d eps       ncg     rms          rms(c)
DAV:   1    -0.851561878581E+03   -0.22777E-02   -0.12854E-01  3920   0.831E-01    0.829E-02
DAV:   2    -0.851562104288E+03   -0.22571E-03   -0.33098E-03  4640   0.120E-01    0.745E-02
DAV:   3    -0.851562033602E+03    0.70686E-04   -0.19008E-04  5100   0.284E-02    0.549E-02
DAV:   4    -0.851561982427E+03    0.51174E-04   -0.12712E-04  4160   0.267E-02    0.252E-02
DAV:   5    -0.851561979304E+03    0.31229E-05   -0.36846E-05  4340   0.124E-02    0.962E-03
DAV:   6    -0.851561979884E+03   -0.57902E-06   -0.35042E-06  2960   0.423E-03
  15 F= -.85947244E+03 E0= -.85947244E+03  d E =-.239726E-02  mag=     0.0000
       N       E                     dE             d eps       ncg     rms          rms(c)
DAV:   1    -0.851562006775E+03   -0.27471E-04   -0.12001E-04  4000   0.250E-02    0.374E-03
DAV:   2    -0.851562006842E+03   -0.66961E-07   -0.26131E-06  2960   0.352E-03
  16 F= -.85947247E+03 E0= -.85947247E+03  d E =-.258301E-04  mag=     0.0000
       N       E                     dE             d eps       ncg     rms          rms(c)
DAV:   1    -0.851562053131E+03   -0.46356E-04   -0.41821E-04  3900   0.465E-02    0.543E-03
DAV:   2    -0.851562053588E+03   -0.45666E-06   -0.86023E-06  4600   0.617E-03
  17 F= -.85947251E+03 E0= -.85947251E+03  d E =-.443836E-04  mag=     0.0000
       N       E                     dE             d eps       ncg     rms          rms(c)
DAV:   1    -0.851562111891E+03   -0.58760E-04   -0.78378E-04  3880   0.629E-02    0.883E-03
DAV:   2    -0.851562112410E+03   -0.51828E-06   -0.14930E-05  4460   0.817E-03    0.764E-03
DAV:   3    -0.851562111956E+03    0.45339E-06   -0.12409E-06  2340   0.284E-03
  18 F= -.85947257E+03 E0= -.85947257E+03  d E =-.547456E-04  mag=     0.0000
       N       E                     dE             d eps       ncg     rms          rms(c)
DAV:   1    -0.851562181798E+03   -0.69388E-04   -0.11280E-03  3840   0.741E-02    0.780E-03
DAV:   2    -0.851562183070E+03   -0.12723E-05   -0.19014E-05  4160   0.908E-03    0.672E-03
DAV:   3    -0.851562182932E+03    0.13797E-06   -0.58724E-07  2600   0.196E-03
  19 F= -.85947263E+03 E0= -.85947263E+03  d E =-.660652E-04  mag=    -0.0000
       N       E                     dE             d eps       ncg     rms          rms(c)
DAV:   1    -0.851562271532E+03   -0.88462E-04   -0.15141E-03  3840   0.843E-02    0.847E-03
DAV:   2    -0.851562273094E+03   -0.15623E-05   -0.23532E-05  4120   0.100E-02    0.728E-03
DAV:   3    -0.851562272942E+03    0.15153E-06   -0.69089E-07  2710   0.214E-03
  20 F= -.85947272E+03 E0= -.85947272E+03  d E =-.839918E-04  mag=     0.0000
       N       E                     dE             d eps       ncg     rms          rms(c)
DAV:   1    -0.851562383287E+03   -0.11019E-03   -0.20958E-03  3840   0.988E-02    0.991E-03
DAV:   2    -0.851562385447E+03   -0.21599E-05   -0.32493E-05  4080   0.118E-02    0.855E-03
DAV:   3    -0.851562385230E+03    0.21677E-06   -0.95235E-07  2820   0.252E-03
  21 F= -.85947282E+03 E0= -.85947282E+03  d E =-.104893E-03  mag=    -0.0000
       N       E                     dE             d eps       ncg     rms          rms(c)
DAV:   1    -0.851562525358E+03   -0.13991E-03   -0.35697E-03  3840   0.129E-01    0.128E-02
DAV:   2    -0.851562529179E+03   -0.38209E-05   -0.56588E-05  4080   0.156E-02    0.111E-02
DAV:   3    -0.851562528760E+03    0.41906E-06   -0.18949E-06  3200   0.334E-03
  22 F= -.85947296E+03 E0= -.85947296E+03  d E =-.133484E-03  mag=     0.0000
       N       E                     dE             d eps       ncg     rms          rms(c)
DAV:   1    -0.851562699028E+03   -0.16985E-03   -0.58113E-03  3840   0.164E-01    0.165E-02
DAV:   2    -0.851562705034E+03   -0.60059E-05   -0.90892E-05  3940   0.197E-02    0.143E-02
DAV:   3    -0.851562704432E+03    0.60246E-06   -0.32008E-06  3660   0.433E-03
  23 F= -.85947312E+03 E0= -.85947312E+03  d E =-.161470E-03  mag=    -0.0000
       N       E                     dE             d eps       ncg     rms          rms(c)
DAV:   1    -0.851562918896E+03   -0.21386E-03   -0.90578E-03  3840   0.203E-01    0.206E-02
DAV:   2    -0.851562927904E+03   -0.90079E-05   -0.13875E-04  3900   0.243E-02    0.177E-02
DAV:   3    -0.851562927123E+03    0.78168E-06   -0.49218E-06  4280   0.538E-03
  24 F= -.85947332E+03 E0= -.85947332E+03  d E =-.202871E-03  mag=     0.0000
       N       E                     dE             d eps       ncg     rms          rms(c)
DAV:   1    -0.851563201263E+03   -0.27336E-03   -0.14357E-02  3840   0.256E-01    0.259E-02
DAV:   2    -0.851563215602E+03   -0.14339E-04   -0.22074E-04  3840   0.308E-02    0.223E-02
DAV:   3    -0.851563214334E+03    0.12677E-05   -0.78478E-06  4600   0.675E-03    0.156E-02
DAV:   4    -0.851563217389E+03   -0.30545E-05   -0.81391E-06  3720   0.699E-03    0.392E-03
DAV:   5    -0.851563217630E+03   -0.24119E-06   -0.28476E-06  3160   0.317E-03
  25 F= -.85947358E+03 E0= -.85947358E+03  d E =-.264099E-03  mag=    -0.0000
       N       E                     dE             d eps       ncg     rms          rms(c)
DAV:   1    -0.851563548395E+03   -0.33101E-03   -0.23296E-02  3880   0.326E-01    0.304E-02
DAV:   2    -0.851563574389E+03   -0.25994E-04   -0.38650E-04  3840   0.408E-02    0.262E-02
DAV:   3    -0.851563570654E+03    0.37345E-05   -0.12729E-05  4660   0.852E-03    0.192E-02
DAV:   4    -0.851563573781E+03   -0.31267E-05   -0.15623E-05  3720   0.965E-03    0.521E-03
DAV:   5    -0.851563574200E+03   -0.41867E-06   -0.48515E-06  3640   0.415E-03
  26 F= -.85947391E+03 E0= -.85947391E+03  d E =-.321481E-03  mag=    -0.0000
       N       E                     dE             d eps       ncg     rms          rms(c)
DAV:   1    -0.851563974252E+03   -0.40047E-03   -0.35840E-02  3840   0.404E-01    0.376E-02
DAV:   2    -0.851564014877E+03   -0.40625E-04   -0.59800E-04  3840   0.506E-02    0.325E-02
DAV:   3    -0.851564009389E+03    0.54878E-05   -0.19088E-05  4620   0.104E-02    0.239E-02
DAV:   4    -0.851564014330E+03   -0.49405E-05   -0.24722E-05  3700   0.121E-02    0.623E-03
DAV:   5    -0.851564014955E+03   -0.62487E-06   -0.74641E-06  4140   0.510E-03
  27 F= -.85947430E+03 E0= -.85947430E+03  d E =-.395661E-03  mag=    -0.0000
       N       E                     dE             d eps       ncg     rms          rms(c)
DAV:   1    -0.851564489878E+03   -0.47555E-03   -0.55785E-02  3840   0.504E-01    0.466E-02
DAV:   2    -0.851564554989E+03   -0.65112E-04   -0.94228E-04  3840   0.636E-02    0.402E-02
DAV:   3    -0.851564546638E+03    0.83510E-05   -0.29118E-05  4640   0.128E-02    0.297E-02
DAV:   4    -0.851564554317E+03   -0.76784E-05   -0.38713E-05  3800   0.151E-02    0.774E-03
DAV:   5    -0.851564555272E+03   -0.95491E-06   -0.11282E-05  4300   0.635E-03    0.448E-03
DAV:   6    -0.851564555345E+03   -0.73429E-07   -0.15663E-06  2800   0.315E-03
  28 F= -.85947478E+03 E0= -.85947478E+03  d E =-.482697E-03  mag=     0.0000
       N       E                     dE             d eps       ncg     rms          rms(c)
DAV:   1    -0.851565114825E+03   -0.55955E-03   -0.85140E-02  3840   0.622E-01    0.573E-02
DAV:   2    -0.851565213843E+03   -0.99018E-04   -0.14374E-03  3840   0.784E-02    0.493E-02
DAV:   3    -0.851565199991E+03    0.13852E-04   -0.43981E-05  4640   0.160E-02    0.363E-02
DAV:   4    -0.851565210411E+03   -0.10420E-04   -0.60550E-05  4120   0.187E-02    0.946E-03
DAV:   5    -0.851565211735E+03   -0.13236E-05   -0.17094E-05  4260   0.805E-03    0.538E-03
DAV:   6    -0.851565211953E+03   -0.21864E-06   -0.23853E-06  3240   0.374E-03
  29 F= -.85947537E+03 E0= -.85947537E+03  d E =-.582857E-03  mag=    -0.0000
       N       E                     dE             d eps       ncg     rms          rms(c)
DAV:   1    -0.851565848330E+03   -0.63660E-03   -0.13039E-01  3840   0.772E-01    0.708E-02
DAV:   2    -0.851566005498E+03   -0.15717E-03   -0.22438E-03  3900   0.981E-02    0.606E-02
DAV:   3    -0.851565985049E+03    0.20450E-04   -0.66535E-05  4640   0.195E-02    0.449E-02
DAV:   4    -0.851566001035E+03   -0.15987E-04   -0.91878E-05  4300   0.231E-02    0.117E-02
DAV:   5    -0.851566003039E+03   -0.20038E-05   -0.25139E-05  4300   0.984E-03    0.661E-03
DAV:   6    -0.851566003413E+03   -0.37349E-06   -0.36187E-06  3600   0.457E-03
  30 F= -.85947606E+03 E0= -.85947606E+03  d E =-.696926E-03  mag=    -0.0000
       N       E                     dE             d eps       ncg     rms          rms(c)
DAV:   1    -0.851566707843E+03   -0.70480E-03   -0.19395E-01  3840   0.941E-01    0.862E-02
DAV:   2    -0.851566942907E+03   -0.23506E-03   -0.33391E-03  3940   0.120E-01    0.737E-02
DAV:   3    -0.851566912606E+03    0.30301E-04   -0.98407E-05  4640   0.237E-02    0.545E-02
DAV:   4    -0.851566935496E+03   -0.22890E-04   -0.13592E-04  4360   0.279E-02    0.141E-02
DAV:   5    -0.851566938312E+03   -0.28157E-05   -0.36737E-05  4320   0.119E-02    0.795E-03
DAV:   6    -0.851566938835E+03   -0.52308E-06   -0.53563E-06  3680   0.554E-03
  31 F= -.85947689E+03 E0= -.85947689E+03  d E =-.822064E-03  mag=    -0.0000
       N       E                     dE             d eps       ncg     rms          rms(c)
DAV:   1    -0.851567663570E+03   -0.72526E-03   -0.29099E-01  3840   0.116E+00    0.105E-01
DAV:   2    -0.851568026532E+03   -0.36296E-03   -0.51042E-03  3940   0.148E-01    0.893E-02
DAV:   3    -0.851567981987E+03    0.44545E-04   -0.14683E-04  4660   0.289E-02    0.663E-02
DAV:   4    -0.851568015555E+03   -0.33568E-04   -0.20207E-04  4420   0.340E-02    0.173E-02
DAV:   5    -0.851568019827E+03   -0.42719E-05   -0.53837E-05  4320   0.144E-02    0.972E-03
DAV:   6    -0.851568020633E+03   -0.80630E-06   -0.82542E-06  3740   0.688E-03
  32 F= -.85947783E+03 E0= -.85947783E+03  d E =-.943124E-03  mag=    -0.0000
       N       E                     dE             d eps       ncg     rms          rms(c)
DAV:   1    -0.851568678182E+03   -0.65836E-03   -0.44500E-01  3840   0.144E+00    0.129E-01
DAV:   2    -0.851569258332E+03   -0.58015E-03   -0.80157E-03  3940   0.185E-01    0.109E-01
DAV:   3    -0.851569190140E+03    0.68192E-04   -0.22252E-04  4660   0.357E-02    0.815E-02
DAV:   4    -0.851569236887E+03   -0.46747E-04   -0.30997E-04  4460   0.428E-02    0.213E-02
DAV:   5    -0.851569244249E+03   -0.73615E-05   -0.82453E-05  4300   0.177E-02    0.121E-02
DAV:   6    -0.851569245422E+03   -0.11730E-05   -0.12405E-05  3820   0.868E-03    0.577E-03
DAV:   7    -0.851569245838E+03   -0.41633E-06   -0.25231E-06  3520   0.354E-03
  33 F= -.85947887E+03 E0= -.85947887E+03  d E =-.104465E-02  mag=     0.0000
       N       E                     dE             d eps       ncg     rms          rms(c)
DAV:   1    -0.851569675284E+03   -0.42986E-03   -0.63461E-01  3840   0.173E+00    0.155E-01
DAV:   2    -0.851570536726E+03   -0.86144E-03   -0.11790E-02  3980   0.226E-01    0.131E-01
DAV:   3    -0.851570435173E+03    0.10155E-03   -0.32867E-04  4720   0.424E-02    0.986E-02
DAV:   4    -0.851570485640E+03   -0.50467E-04   -0.42952E-04  4450   0.506E-02    0.271E-02
DAV:   5    -0.851570500657E+03   -0.15017E-04   -0.11525E-04  4320   0.205E-02    0.151E-02
DAV:   6    -0.851570501438E+03   -0.78139E-06   -0.18339E-05  4020   0.106E-02    0.699E-03
DAV:   7    -0.851570502044E+03   -0.60601E-06   -0.44778E-06  4360   0.446E-03
  34 F= -.85947993E+03 E0= -.85947993E+03  d E =-.105952E-02  mag=    -0.0000
       N       E                     dE             d eps       ncg     rms          rms(c)
DAV:   1    -0.851569991970E+03    0.50947E-03   -0.92945E-01  3840   0.212E+00    0.189E-01
DAV:   2    -0.851571365058E+03   -0.13731E-02   -0.18366E-02  4000   0.282E-01    0.160E-01
DAV:   3    -0.851571198870E+03    0.16619E-03   -0.54544E-04  4880   0.532E-02    0.122E-01
DAV:   4    -0.851571222469E+03   -0.23599E-04   -0.61729E-04  4420   0.623E-02    0.372E-02
DAV:   5    -0.851571252311E+03   -0.29842E-04   -0.18029E-04  4320   0.255E-02    0.197E-02
DAV:   6    -0.851571253786E+03   -0.14743E-05   -0.27892E-05  4180   0.134E-02    0.883E-03
DAV:   7    -0.851571254541E+03   -0.75500E-06   -0.62606E-06  4360   0.524E-03
  35 F= -.85948044E+03 E0= -.85948044E+03  d E =-.509026E-03  mag=     0.0000
       N       E                     dE             d eps       ncg     rms          rms(c)
DAV:   1    -0.851572037681E+03   -0.78389E-03   -0.35174E-02  3920   0.433E-01    0.428E-02
DAV:   2    -0.851572100250E+03   -0.62570E-04   -0.90016E-04  4680   0.625E-02    0.387E-02
DAV:   3    -0.851572081924E+03    0.18327E-04   -0.47535E-05  5040   0.143E-02    0.289E-02
DAV:   4    -0.851572066801E+03    0.15123E-04   -0.35686E-05  4000   0.143E-02    0.124E-02
DAV:   5    -0.851572066131E+03    0.67040E-06   -0.10259E-05  4060   0.648E-03    0.504E-03
DAV:   6    -0.851572066264E+03   -0.13324E-06   -0.88892E-07  2360   0.224E-03
  36 F= -.85948125E+03 E0= -.85948125E+03  d E =-.811950E-03  mag=    -0.0000
       N       E                     dE             d eps       ncg     rms          rms(c)
DAV:   1    -0.851571540356E+03    0.52577E-03   -0.37359E-02  3860   0.448E-01    0.432E-02
DAV:   2    -0.851571610529E+03   -0.70173E-04   -0.96213E-04  4720   0.648E-02    0.390E-02
DAV:   3    -0.851571593759E+03    0.16770E-04   -0.46998E-05  5020   0.142E-02    0.298E-02
DAV:   4    -0.851571579055E+03    0.14704E-04   -0.39202E-05  4080   0.149E-02    0.124E-02
DAV:   5    -0.851571578695E+03    0.35996E-06   -0.10342E-05  4080   0.653E-03    0.564E-03
DAV:   6    -0.851571578852E+03   -0.15678E-06   -0.11079E-06  2340   0.245E-03
  37 F= -.85948076E+03 E0= -.85948076E+03  d E =0.496557E-03  mag=    -0.0000
       N       E                     dE             d eps       ncg     rms          rms(c)
DAV:   1    -0.851571827552E+03   -0.24886E-03   -0.16277E-03  3940   0.933E-02    0.920E-03
DAV:   2    -0.851571830296E+03   -0.27442E-05   -0.42169E-05  4700   0.135E-02    0.853E-03
DAV:   3    -0.851571829349E+03    0.94731E-06   -0.18266E-06  2680   0.307E-03
  38 F= -.85948101E+03 E0= -.85948101E+03  d E =-.248970E-03  mag=    -0.0000
       N       E                     dE             d eps       ncg     rms          rms(c)
DAV:   1    -0.851572109406E+03   -0.27911E-03   -0.50418E-03  3920   0.164E-01    0.176E-02
DAV:   2    -0.851572117598E+03   -0.81921E-05   -0.12023E-04  4720   0.228E-02    0.157E-02
DAV:   3    -0.851572114617E+03    0.29811E-05   -0.69815E-06  4660   0.564E-03    0.113E-02
DAV:   4    -0.851572112754E+03    0.18628E-05   -0.54496E-06  3840   0.568E-03    0.447E-03
DAV:   5    -0.851572112699E+03    0.54919E-07   -0.14015E-06  2420   0.240E-03
  39 F= -.85948129E+03 E0= -.85948129E+03  d E =-.280052E-03  mag=    -0.0000
       N       E                     dE             d eps       ncg     rms          rms(c)
DAV:   1    -0.851572189056E+03   -0.76302E-04   -0.74015E-03  3920   0.199E-01    0.194E-02
DAV:   2    -0.851572202705E+03   -0.13649E-04   -0.18860E-04  4700   0.285E-02    0.174E-02
DAV:   3    -0.851572199209E+03    0.34958E-05   -0.97652E-06  4780   0.644E-03    0.131E-02
DAV:   4    -0.851572196470E+03    0.27388E-05   -0.72572E-06  3920   0.638E-03    0.574E-03
DAV:   5    -0.851572196356E+03    0.11397E-06   -0.18665E-06  2700   0.282E-03
  40 F= -.85948137E+03 E0= -.85948137E+03  d E =-.780057E-04  mag=    -0.0000
       N       E                     dE             d eps       ncg     rms          rms(c)
DAV:   1    -0.851572200227E+03   -0.37570E-05   -0.54558E-06  3660   0.536E-03    0.146E-03
DAV:   2    -0.851572200227E+03    0.26193E-09   -0.20380E-07  2100   0.102E-03
  41 F= -.85948137E+03 E0= -.85948137E+03  d E =-.351139E-05  mag=     0.0000
       N       E                     dE             d eps       ncg     rms          rms(c)
DAV:   1    -0.851572207255E+03   -0.70282E-05   -0.16745E-05  3880   0.942E-03    0.140E-03
DAV:   2    -0.851572207275E+03   -0.19892E-07   -0.34780E-07  2100   0.134E-03
  42 F= -.85948137E+03 E0= -.85948137E+03  d E =-.634589E-05  mag=    -0.0000
       N       E                     dE             d eps       ncg     rms          rms(c)
DAV:   1    -0.851572217039E+03   -0.97833E-05   -0.36274E-05  3880   0.139E-02    0.199E-03
DAV:   2    -0.851572217070E+03   -0.31898E-07   -0.74299E-07  2100   0.195E-03
  43 F= -.85948138E+03 E0= -.85948138E+03  d E =-.874017E-05  mag=    -0.0000
       N       E                     dE             d eps       ncg     rms          rms(c)
DAV:   1    -0.851572228591E+03   -0.11552E-04   -0.58483E-05  3900   0.175E-02    0.250E-03
DAV:   2    -0.851572228639E+03   -0.48436E-07   -0.11367E-06  2160   0.241E-03
  44 F= -.85948139E+03 E0= -.85948139E+03  d E =-.101491E-04  mag=     0.0000
       N       E                     dE             d eps       ncg     rms          rms(c)
DAV:   1    -0.851572241190E+03   -0.12599E-04   -0.81575E-05  3880   0.206E-02    0.288E-03
DAV:   2    -0.851572241274E+03   -0.84190E-07   -0.16471E-06  2890   0.282E-03
  45 F= -.85948140E+03 E0= -.85948140E+03  d E =-.108035E-04  mag=     0.0000
       N       E                     dE             d eps       ncg     rms          rms(c)
DAV:   1    -0.851572254633E+03   -0.13443E-04   -0.10420E-04  3840   0.231E-02    0.331E-03
DAV:   2    -0.851572254719E+03   -0.85784E-07   -0.19314E-06  2600   0.309E-03
  46 F= -.85948142E+03 E0= -.85948142E+03  d E =-.112053E-04  mag=     0.0000
       N       E                     dE             d eps       ncg     rms          rms(c)
DAV:   1    -0.851572270497E+03   -0.15863E-04   -0.15423E-04  3870   0.278E-02    0.374E-03
DAV:   2    -0.851572270633E+03   -0.13669E-06   -0.27663E-06  3340   0.362E-03
  47 F= -.85948143E+03 E0= -.85948143E+03  d E =-.129638E-04  mag=    -0.0000
       N       E                     dE             d eps       ncg     rms          rms(c)
DAV:   1    -0.851572289838E+03   -0.19342E-04   -0.22512E-04  3860   0.332E-02    0.449E-03
DAV:   2    -0.851572290001E+03   -0.16251E-06   -0.37903E-06  3540   0.422E-03
  48 F= -.85948144E+03 E0= -.85948144E+03  d E =-.155649E-04  mag=    -0.0000
       N       E                     dE             d eps       ncg     rms          rms(c)
DAV:   1    -0.851572314720E+03   -0.24882E-04   -0.32411E-04  3840   0.394E-02    0.529E-03
DAV:   2    -0.851572314941E+03   -0.22088E-06   -0.52559E-06  3800   0.492E-03
  49 F= -.85948146E+03 E0= -.85948146E+03  d E =-.202005E-04  mag=    -0.0000
       N       E                     dE             d eps       ncg     rms          rms(c)
DAV:   1    -0.851572347243E+03   -0.32523E-04   -0.48804E-04  3860   0.481E-02    0.637E-03
DAV:   2    -0.851572347551E+03   -0.30787E-06   -0.75764E-06  3980   0.590E-03
  50 F= -.85948149E+03 E0= -.85948149E+03  d E =-.268402E-04  mag=    -0.0000
       N       E                     dE             d eps       ncg     rms          rms(c)
DAV:   1    -0.851572388615E+03   -0.41372E-04   -0.75606E-04  3860   0.599E-02    0.781E-03
DAV:   2    -0.851572389102E+03   -0.48728E-06   -0.11766E-05  4020   0.735E-03    0.672E-03
DAV:   3    -0.851572389033E+03    0.69449E-07   -0.76674E-07  2520   0.230E-03
  51 F= -.85948153E+03 E0= -.85948153E+03  d E =-.344065E-04  mag=     0.0000
       N       E                     dE             d eps       ncg     rms          rms(c)
DAV:   1    -0.851572438609E+03   -0.49507E-04   -0.11781E-03  3880   0.746E-02    0.694E-03
DAV:   2    -0.851572439894E+03   -0.12846E-05   -0.18453E-05  3980   0.906E-03    0.614E-03
DAV:   3    -0.851572439739E+03    0.15521E-06   -0.53160E-07  2560   0.186E-03
  52 F= -.85948157E+03 E0= -.85948157E+03  d E =-.420348E-04  mag=    -0.0000
       N       E                     dE             d eps       ncg     rms          rms(c)
DAV:   1    -0.851572498074E+03   -0.58180E-04   -0.17839E-03  3840   0.916E-02    0.843E-03
DAV:   2    -0.851572499996E+03   -0.19223E-05   -0.28033E-05  3980   0.111E-02    0.750E-03
DAV:   3    -0.851572499718E+03    0.27849E-06   -0.84480E-07  2770   0.235E-03
  53 F= -.85948162E+03 E0= -.85948162E+03  d E =-.492797E-04  mag=    -0.0000
       N       E                     dE             d eps       ncg     rms          rms(c)
DAV:   1    -0.851572569909E+03   -0.69913E-04   -0.26688E-03  3860   0.111E-01    0.103E-02
DAV:   2    -0.851572572597E+03   -0.26875E-05   -0.40350E-05  3920   0.133E-02    0.914E-03
DAV:   3    -0.851572572205E+03    0.39218E-06   -0.13334E-06  3000   0.287E-03
  54 F= -.85948168E+03 E0= -.85948168E+03  d E =-.592442E-04  mag=    -0.0000
       N       E                     dE             d eps       ncg     rms          rms(c)
DAV:   1    -0.851572659689E+03   -0.87093E-04   -0.40017E-03  3840   0.136E-01    0.126E-02
DAV:   2    -0.851572663695E+03   -0.40053E-05   -0.60515E-05  3860   0.162E-02    0.111E-02
DAV:   3    -0.851572663124E+03    0.57078E-06   -0.20670E-06  3320   0.353E-03
  55 F= -.85948175E+03 E0= -.85948175E+03  d E =-.745091E-04  mag=    -0.0000
       N       E                     dE             d eps       ncg     rms          rms(c)
DAV:   1    -0.851572771097E+03   -0.10740E-03   -0.61201E-03  3840   0.168E-01    0.156E-02
DAV:   2    -0.851572777250E+03   -0.61523E-05   -0.93512E-05  3840   0.201E-02    0.138E-02
DAV:   3    -0.851572776356E+03    0.89367E-06   -0.32723E-06  3530   0.438E-03
  56 F= -.85948184E+03 E0= -.85948184E+03  d E =-.929209E-04  mag=     0.0000
       N       E                     dE             d eps       ncg     rms          rms(c)
DAV:   1    -0.851572903548E+03   -0.12630E-03   -0.93937E-03  3840   0.209E-01    0.193E-02
DAV:   2    -0.851572913029E+03   -0.94814E-05   -0.14441E-04  3840   0.250E-02    0.171E-02
DAV:   3    -0.851572911634E+03    0.13949E-05   -0.51771E-06  4180   0.543E-03    0.119E-02
DAV:   4    -0.851572913166E+03   -0.15315E-05   -0.58849E-06  3520   0.588E-03    0.298E-03
DAV:   5    -0.851572913184E+03   -0.18073E-07   -0.23994E-06  3020   0.291E-03
  57 F= -.85948196E+03 E0= -.85948196E+03  d E =-.112201E-03  mag=    -0.0000
       N       E                     dE             d eps       ncg     rms          rms(c)
DAV:   1    -0.851573062737E+03   -0.14957E-03   -0.14461E-02  3880   0.258E-01    0.224E-02
DAV:   2    -0.851573078236E+03   -0.15499E-04   -0.23768E-04  3840   0.323E-02    0.198E-02
DAV:   3    -0.851573075137E+03    0.30993E-05   -0.83198E-06  4540   0.689E-03    0.142E-02
DAV:   4    -0.851573076367E+03   -0.12302E-05   -0.94367E-06  3640   0.742E-03    0.399E-03
DAV:   5    -0.851573076535E+03   -0.16820E-06   -0.36353E-06  3120   0.353E-03
  58 F= -.85948209E+03 E0= -.85948209E+03  d E =-.132732E-03  mag=    -0.0000
       N       E                     dE             d eps       ncg     rms          rms(c)
DAV:   1    -0.851573256575E+03   -0.18021E-03   -0.21411E-02  3880   0.315E-01    0.273E-02
DAV:   2    -0.851573279427E+03   -0.22852E-04   -0.35048E-04  3840   0.393E-02    0.241E-02
DAV:   3    -0.851573274852E+03    0.45742E-05   -0.12250E-05  4560   0.834E-03    0.173E-02
DAV:   4    -0.851573276607E+03   -0.17542E-05   -0.13948E-05  3680   0.903E-03    0.485E-03
DAV:   5    -0.851573276878E+03   -0.27156E-06   -0.53757E-06  3780   0.425E-03
  59 F= -.85948225E+03 E0= -.85948225E+03  d E =-.162950E-03  mag=     0.0000
       N       E                     dE             d eps       ncg     rms          rms(c)
DAV:   1    -0.851573480399E+03   -0.20379E-03   -0.31766E-02  3880   0.383E-01    0.333E-02
DAV:   2    -0.851573513899E+03   -0.33500E-04   -0.51617E-04  3840   0.476E-02    0.295E-02
DAV:   3    -0.851573507089E+03    0.68102E-05   -0.18239E-05  4660   0.102E-02    0.212E-02
DAV:   4    -0.851573509622E+03   -0.25330E-05   -0.21019E-05  3700   0.111E-02    0.590E-03
DAV:   5    -0.851573510020E+03   -0.39801E-06   -0.80676E-06  4220   0.520E-03
  60 F= -.85948244E+03 E0= -.85948244E+03  d E =-.189146E-03  mag=     0.0000
       N       E                     dE             d eps       ncg     rms          rms(c)
DAV:   1    -0.851573745628E+03   -0.23601E-03   -0.46011E-02  3880   0.459E-01    0.401E-02
DAV:   2    -0.851573792652E+03   -0.47024E-04   -0.73498E-04  3840   0.565E-02    0.357E-02
DAV:   3    -0.851573782594E+03    0.10058E-04   -0.26515E-05  4640   0.123E-02    0.256E-02
DAV:   4    -0.851573786209E+03   -0.36156E-05   -0.30730E-05  3760   0.134E-02    0.711E-03
DAV:   5    -0.851573786794E+03   -0.58451E-06   -0.11842E-05  4240   0.635E-03    0.365E-03
DAV:   6    -0.851573787149E+03   -0.35516E-06   -0.73165E-07  2360   0.203E-03
  61 F= -.85948267E+03 E0= -.85948267E+03  d E =-.226876E-03  mag=     0.0000
       N       E                     dE             d eps       ncg     rms          rms(c)
DAV:   1    -0.851574054677E+03   -0.26788E-03   -0.67447E-02  3880   0.554E-01    0.484E-02
DAV:   2    -0.851574120748E+03   -0.66071E-04   -0.10603E-03  3880   0.673E-02    0.435E-02
DAV:   3    -0.851574104252E+03    0.16497E-04   -0.40021E-05  4660   0.152E-02    0.310E-02
DAV:   4    -0.851574107924E+03   -0.36726E-05   -0.45096E-05  3900   0.162E-02    0.884E-03
DAV:   5    -0.851574108938E+03   -0.10139E-05   -0.17643E-05  4220   0.777E-03    0.434E-03
DAV:   6    -0.851574109492E+03   -0.55345E-06   -0.97506E-07  2400   0.240E-03
  62 F= -.85948294E+03 E0= -.85948294E+03  d E =-.268324E-03  mag=    -0.0000
       N       E                     dE             d eps       ncg     rms          rms(c)
DAV:   1    -0.851574415484E+03   -0.30655E-03   -0.97323E-02  3880   0.663E-01    0.578E-02
DAV:   2    -0.851574508689E+03   -0.93204E-04   -0.15082E-03  3900   0.796E-02    0.524E-02
DAV:   3    -0.851574483715E+03    0.24974E-04   -0.58643E-05  4680   0.186E-02    0.370E-02
DAV:   4    -0.851574488284E+03   -0.45694E-05   -0.64658E-05  3940   0.192E-02    0.106E-02
DAV:   5    -0.851574489616E+03   -0.13319E-05   -0.26505E-05  4240   0.962E-03    0.520E-03
DAV:   6    -0.851574490545E+03   -0.92874E-06   -0.13438E-06  2340   0.278E-03
  63 F= -.85948326E+03 E0= -.85948326E+03  d E =-.324496E-03  mag=    -0.0000
       N       E                     dE             d eps       ncg     rms          rms(c)
DAV:   1    -0.851574830951E+03   -0.34133E-03   -0.14193E-01  3880   0.800E-01    0.696E-02
DAV:   2    -0.851574966094E+03   -0.13514E-03   -0.21898E-03  3880   0.958E-02    0.631E-02
DAV:   3    -0.851574929133E+03    0.36960E-04   -0.86852E-05  4680   0.227E-02    0.441E-02
DAV:   4    -0.851574935527E+03   -0.63940E-05   -0.91629E-05  3920   0.228E-02    0.127E-02
DAV:   5    -0.851574937399E+03   -0.18711E-05   -0.39478E-05  4240   0.118E-02    0.616E-03
DAV:   6    -0.851574938861E+03   -0.14625E-05   -0.19468E-06  2820   0.326E-03    0.329E-03
DAV:   7    -0.851574938822E+03    0.39276E-07   -0.83822E-07  2680   0.204E-03
  64 F= -.85948364E+03 E0= -.85948364E+03  d E =-.381667E-03  mag=     0.0000
       N       E                     dE             d eps       ncg     rms          rms(c)
DAV:   1    -0.851575317573E+03   -0.37871E-03   -0.20731E-01  3880   0.968E-01    0.837E-02
DAV:   2    -0.851575516177E+03   -0.19860E-03   -0.31994E-03  3880   0.116E-01    0.761E-02
DAV:   3    -0.851575461081E+03    0.55096E-04   -0.12741E-04  4640   0.274E-02    0.531E-02
DAV:   4    -0.851575468317E+03   -0.72359E-05   -0.13279E-04  3940   0.274E-02    0.152E-02
DAV:   5    -0.851575470807E+03   -0.24901E-05   -0.59290E-05  4200   0.143E-02    0.722E-03
DAV:   6    -0.851575472994E+03   -0.21864E-05   -0.26805E-06  3260   0.377E-03    0.388E-03
DAV:   7    -0.851575472892E+03    0.10234E-06   -0.86238E-07  2720   0.216E-03
  65 F= -.85948409E+03 E0= -.85948409E+03  d E =-.449710E-03  mag=     0.0000
       N       E                     dE             d eps       ncg     rms          rms(c)
DAV:   1    -0.851575841864E+03   -0.36887E-03   -0.29971E-01  3880   0.117E+00    0.100E-01
DAV:   2    -0.851576139465E+03   -0.29760E-03   -0.47221E-03  3860   0.142E-01    0.912E-02
DAV:   3    -0.851576060870E+03    0.78595E-04   -0.18343E-04  4600   0.325E-02    0.643E-02
DAV:   4    -0.851576069551E+03   -0.86813E-05   -0.20112E-04  4300   0.337E-02    0.181E-02
DAV:   5    -0.851576072526E+03   -0.29749E-05   -0.85528E-05  4220   0.171E-02    0.878E-03
DAV:   6    -0.851576075650E+03   -0.31238E-05   -0.39399E-06  3640   0.443E-03    0.462E-03
DAV:   7    -0.851576075517E+03    0.13255E-06   -0.11233E-06  2780   0.246E-03
  66 F= -.85948459E+03 E0= -.85948459E+03  d E =-.497587E-03  mag=     0.0000
       N       E                     dE             d eps       ncg     rms          rms(c)
DAV:   1    -0.851576377256E+03   -0.30161E-03   -0.42508E-01  3880   0.139E+00    0.120E-01
DAV:   2    -0.851576805066E+03   -0.42781E-03   -0.67759E-03  3920   0.170E-01    0.109E-01
DAV:   3    -0.851576690242E+03    0.11482E-03   -0.27058E-04  4700   0.388E-02    0.778E-02
DAV:   4    -0.851576694385E+03   -0.41438E-05   -0.29165E-04  4280   0.407E-02    0.227E-02
DAV:   5    -0.851576699370E+03   -0.49841E-05   -0.11832E-04  4200   0.202E-02    0.110E-02
DAV:   6    -0.851576703806E+03   -0.44365E-05   -0.66845E-06  4060   0.555E-03    0.563E-03
DAV:   7    -0.851576703567E+03    0.23910E-06   -0.11633E-06  2780   0.256E-03
  67 F= -.85948510E+03 E0= -.85948510E+03  d E =-.507548E-03  mag=    -0.0000
       N       E                     dE             d eps       ncg     rms          rms(c)
DAV:   1    -0.851576580696E+03    0.12311E-03   -0.61894E-01  3880   0.170E+00    0.146E-01
DAV:   2    -0.851577256217E+03   -0.67552E-03   -0.10451E-02  4040   0.212E-01    0.134E-01
DAV:   3    -0.851577083817E+03    0.17240E-03   -0.42925E-04  4860   0.470E-02    0.984E-02
DAV:   4    -0.851577061654E+03    0.22163E-04   -0.45595E-04  4320   0.511E-02    0.310E-02
DAV:   5    -0.851577071665E+03   -0.10011E-04   -0.15732E-04  4240   0.234E-02    0.153E-02
DAV:   6    -0.851577078026E+03   -0.63607E-05   -0.12705E-05  4160   0.733E-03    0.710E-03
DAV:   7    -0.851577077607E+03    0.41912E-06   -0.15121E-06  2900   0.304E-03
  68 F= -.85948532E+03 E0= -.85948532E+03  d E =-.220891E-03  mag=    -0.0000
       N       E                     dE             d eps       ncg     rms          rms(c)
DAV:   1    -0.851577639785E+03   -0.56176E-03   -0.26947E-02  3920   0.376E-01    0.374E-02
DAV:   2    -0.851577685722E+03   -0.45937E-04   -0.67372E-04  4720   0.538E-02    0.338E-02
DAV:   3    -0.851577671522E+03    0.14200E-04   -0.35374E-05  4960   0.123E-02    0.253E-02
DAV:   4    -0.851577661026E+03    0.10496E-04   -0.27164E-05  4100   0.122E-02    0.115E-02
DAV:   5    -0.851577660539E+03    0.48699E-06   -0.75120E-06  3800   0.561E-03
  69 F= -.85948590E+03 E0= -.85948590E+03  d E =-.586340E-03  mag=     0.0000
       N       E                     dE             d eps       ncg     rms          rms(c)
DAV:   1    -0.851577253871E+03    0.40716E-03   -0.26807E-02  3920   0.376E-01    0.368E-02
DAV:   2    -0.851577300034E+03   -0.46163E-04   -0.65351E-04  4720   0.531E-02    0.330E-02
DAV:   3    -0.851577287337E+03    0.12697E-04   -0.33397E-05  4940   0.120E-02    0.249E-02
DAV:   4    -0.851577278674E+03    0.86627E-05   -0.28359E-05  4080   0.124E-02    0.109E-02
DAV:   5    -0.851577278517E+03    0.15731E-06   -0.70891E-06  3740   0.540E-03
  70 F= -.85948552E+03 E0= -.85948552E+03  d E =0.386376E-03  mag=    -0.0000
       N       E                     dE             d eps       ncg     rms          rms(c)
DAV:   1    -0.851577477693E+03   -0.19902E-03   -0.13707E-03  3920   0.849E-02    0.874E-03
DAV:   2    -0.851577479847E+03   -0.21542E-05   -0.36477E-05  4720   0.125E-02    0.814E-03
DAV:   3    -0.851577478908E+03    0.93906E-06   -0.16728E-06  2580   0.292E-03
  71 F= -.85948572E+03 E0= -.85948572E+03  d E =-.198595E-03  mag=     0.0000
       N       E                     dE             d eps       ncg     rms          rms(c)
DAV:   1    -0.851577697975E+03   -0.21813E-03   -0.41359E-03  3920   0.148E-01    0.163E-02
DAV:   2    -0.851577704148E+03   -0.61729E-05   -0.96166E-05  4720   0.204E-02    0.145E-02
DAV:   3    -0.851577701482E+03    0.26663E-05   -0.60673E-06  4560   0.526E-03    0.104E-02
DAV:   4    -0.851577700117E+03    0.13646E-05   -0.44249E-06  3700   0.498E-03    0.450E-03
DAV:   5    -0.851577700052E+03    0.65520E-07   -0.11499E-06  2360   0.224E-03
  72 F= -.85948593E+03 E0= -.85948593E+03  d E =-.217301E-03  mag=    -0.0000
       N       E                     dE             d eps       ncg     rms          rms(c)
DAV:   1    -0.851577745419E+03   -0.45301E-04   -0.59576E-03  3920   0.177E-01    0.176E-02
DAV:   2    -0.851577755786E+03   -0.10368E-04   -0.14805E-04  4720   0.252E-02    0.157E-02
DAV:   3    -0.851577752794E+03    0.29923E-05   -0.78420E-06  4820   0.581E-03    0.117E-02
DAV:   4    -0.851577750823E+03    0.19713E-05   -0.57664E-06  3900   0.555E-03    0.549E-03
DAV:   5    -0.851577750731E+03    0.92354E-07   -0.14301E-06  2560   0.254E-03
  73 F= -.85948598E+03 E0= -.85948598E+03  d E =-.444491E-04  mag=    -0.0000
       N       E                     dE             d eps       ncg     rms          rms(c)
DAV:   1    -0.851577754405E+03   -0.35825E-05   -0.61122E-06  3640   0.565E-03    0.138E-03
DAV:   2    -0.851577754409E+03   -0.31432E-08   -0.21318E-07  2040   0.103E-03
  74 F= -.85948598E+03 E0= -.85948598E+03  d E =-.346184E-05  mag=     0.0000
       N       E                     dE             d eps       ncg     rms          rms(c)
DAV:   1    -0.851577761136E+03   -0.67304E-05   -0.19482E-05  3800   0.101E-02    0.143E-03
DAV:   2    -0.851577761158E+03   -0.22024E-07   -0.40198E-07  1980   0.142E-03
  75 F= -.85948599E+03 E0= -.85948599E+03  d E =-.631432E-05  mag=    -0.0000
       N       E                     dE             d eps       ncg     rms          rms(c)
DAV:   1    -0.851577770076E+03   -0.89404E-05   -0.42159E-05  3880   0.149E-02    0.210E-03
DAV:   2    -0.851577770111E+03   -0.35012E-07   -0.83709E-07  2040   0.206E-03
  76 F= -.85948600E+03 E0= -.85948600E+03  d E =-.828952E-05  mag=     0.0000
       N       E                     dE             d eps       ncg     rms          rms(c)
DAV:   1    -0.851577780018E+03   -0.99415E-05   -0.67272E-05  3840   0.187E-02    0.264E-03
DAV:   2    -0.851577780075E+03   -0.57516E-07   -0.12833E-06  2540   0.253E-03
  77 F= -.85948601E+03 E0= -.85948601E+03  d E =-.905613E-05  mag=    -0.0000
       N       E                     dE             d eps       ncg     rms          rms(c)
DAV:   1    -0.851577790108E+03   -0.10090E-04   -0.93334E-05  3900   0.219E-02    0.306E-03
DAV:   2    -0.851577790200E+03   -0.92878E-07   -0.18361E-06  2820   0.292E-03
  78 F= -.85948601E+03 E0= -.85948601E+03  d E =-.891044E-05  mag=     0.0000
       N       E                     dE             d eps       ncg     rms          rms(c)
DAV:   1    -0.851577800017E+03   -0.99099E-05   -0.11779E-04  3840   0.244E-02    0.352E-03
DAV:   2    -0.851577800107E+03   -0.89254E-07   -0.21378E-06  2980   0.318E-03
  79 F= -.85948602E+03 E0= -.85948602E+03  d E =-.843835E-05  mag=    -0.0000
       N       E                     dE             d eps       ncg     rms          rms(c)
DAV:   1    -0.851577810890E+03   -0.10873E-04   -0.16998E-04  3860   0.290E-02    0.393E-03
DAV:   2    -0.851577811014E+03   -0.12386E-06   -0.28362E-06  3180   0.365E-03
  80 F= -.85948603E+03 E0= -.85948603E+03  d E =-.890266E-05  mag=    -0.0000
       N       E                     dE             d eps       ncg     rms          rms(c)
DAV:   1    -0.851577824091E+03   -0.13201E-04   -0.24212E-04  3860   0.342E-02    0.454E-03
DAV:   2    -0.851577824245E+03   -0.15429E-06   -0.38444E-06  3320   0.423E-03
  81 F= -.85948604E+03 E0= -.85948604E+03  d E =-.105882E-04  mag=     0.0000
       N       E                     dE             d eps       ncg     rms          rms(c)
DAV:   1    -0.851577841809E+03   -0.17718E-04   -0.34984E-04  3900   0.407E-02    0.532E-03
DAV:   2    -0.851577842006E+03   -0.19661E-06   -0.53101E-06  3580   0.492E-03
  82 F= -.85948606E+03 E0= -.85948606E+03  d E =-.144024E-04  mag=    -0.0000
       N       E                     dE             d eps       ncg     rms          rms(c)
DAV:   1    -0.851577865856E+03   -0.24046E-04   -0.52809E-04  3860   0.498E-02    0.643E-03
DAV:   2    -0.851577866155E+03   -0.29981E-06   -0.81339E-06  3860   0.602E-03
  83 F= -.85948608E+03 E0= -.85948608E+03  d E =-.199407E-04  mag=     0.0000
       N       E                     dE             d eps       ncg     rms          rms(c)
DAV:   1    -0.851577897123E+03   -0.31267E-04   -0.82258E-04  3860   0.624E-02    0.803E-03
DAV:   2    -0.851577897594E+03   -0.47170E-06   -0.12930E-05  4020   0.761E-03    0.697E-03
DAV:   3    -0.851577897430E+03    0.16385E-06   -0.85156E-07  2520   0.242E-03
  84 F= -.85948610E+03 E0= -.85948610E+03  d E =-.259890E-04  mag=     0.0000
       N       E                     dE             d eps       ncg     rms          rms(c)
DAV:   1    -0.851577933988E+03   -0.36393E-04   -0.12937E-03  3900   0.782E-02    0.723E-03
DAV:   2    -0.851577935335E+03   -0.13473E-05   -0.20301E-05  3940   0.944E-03    0.643E-03
DAV:   3    -0.851577935109E+03    0.22559E-06   -0.60354E-07  2640   0.199E-03
  85 F= -.85948613E+03 E0= -.85948613E+03  d E =-.310188E-04  mag=     0.0000
       N       E                     dE             d eps       ncg     rms          rms(c)
DAV:   1    -0.851577976287E+03   -0.40952E-04   -0.19665E-03  3860   0.963E-02    0.875E-03
DAV:   2    -0.851577978365E+03   -0.20779E-05   -0.31373E-05  3940   0.117E-02    0.783E-03
DAV:   3    -0.851577977995E+03    0.36920E-06   -0.97884E-07  2840   0.247E-03
  86 F= -.85948617E+03 E0= -.85948617E+03  d E =-.343754E-04  mag=     0.0000
       N       E                     dE             d eps       ncg     rms          rms(c)
DAV:   1    -0.851578026737E+03   -0.48373E-04   -0.29178E-03  3860   0.117E-01    0.106E-02
DAV:   2    -0.851578029734E+03   -0.29968E-05   -0.45789E-05  3900   0.141E-02    0.944E-03
DAV:   3    -0.851578029215E+03    0.51902E-06   -0.14600E-06  3000   0.298E-03
  87 F= -.85948621E+03 E0= -.85948621E+03  d E =-.403387E-04  mag=     0.0000
       N       E                     dE             d eps       ncg     rms          rms(c)
DAV:   1    -0.851578091816E+03   -0.62082E-04   -0.43384E-03  3900   0.142E-01    0.128E-02
DAV:   2    -0.851578096131E+03   -0.43143E-05   -0.66547E-05  3840   0.171E-02    0.113E-02
DAV:   3    -0.851578095383E+03    0.74751E-06   -0.20938E-06  3200   0.361E-03
  88 F= -.85948626E+03 E0= -.85948626E+03  d E =-.526315E-04  mag=    -0.0000
       N       E                     dE             d eps       ncg     rms          rms(c)
DAV:   1    -0.851578172537E+03   -0.76407E-04   -0.65646E-03  3900   0.175E-01    0.157E-02
DAV:   2    -0.851578179155E+03   -0.66177E-05   -0.10154E-04  3840   0.211E-02    0.139E-02
DAV:   3    -0.851578178003E+03    0.11521E-05   -0.33651E-06  3620   0.447E-03    0.992E-03
DAV:   4    -0.851578178886E+03   -0.88317E-06   -0.46552E-06  3420   0.518E-03
  89 F= -.85948633E+03 E0= -.85948633E+03  d E =-.670685E-04  mag=     0.0000
       N       E                     dE             d eps       ncg     rms          rms(c)
DAV:   1    -0.851578266094E+03   -0.88091E-04   -0.10240E-02  3980   0.218E-01    0.191E-02
DAV:   2    -0.851578276133E+03   -0.10039E-04   -0.16218E-04  3840   0.269E-02    0.168E-02
DAV:   3    -0.851578273786E+03    0.23472E-05   -0.57808E-06  4300   0.587E-03    0.118E-02
DAV:   4    -0.851578274560E+03   -0.77389E-06   -0.60615E-06  3480   0.600E-03
  90 F= -.85948640E+03 E0= -.85948640E+03  d E =-.762920E-04  mag=     0.0000
       N       E                     dE             d eps       ncg     rms          rms(c)
DAV:   1    -0.851578377163E+03   -0.10338E-03   -0.14973E-02  3940   0.263E-01    0.230E-02
DAV:   2    -0.851578391916E+03   -0.14753E-04   -0.23808E-04  3840   0.326E-02    0.202E-02
DAV:   3    -0.851578388544E+03    0.33718E-05   -0.86657E-06  4580   0.713E-03    0.142E-02
DAV:   4    -0.851578389604E+03   -0.10601E-05   -0.85238E-06  3540   0.712E-03    0.426E-03
DAV:   5    -0.851578389878E+03   -0.27342E-06   -0.40577E-06  3240   0.357E-03
  91 F= -.85948650E+03 E0= -.85948650E+03  d E =-.924012E-04  mag=     0.0000
       N       E                     dE             d eps       ncg     rms          rms(c)
DAV:   1    -0.851578508690E+03   -0.11909E-03   -0.21916E-02  3920   0.319E-01    0.269E-02
DAV:   2    -0.851578531727E+03   -0.23038E-04   -0.36088E-04  3840   0.400E-02    0.238E-02
DAV:   3    -0.851578526605E+03    0.51224E-05   -0.12833E-05  4670   0.853E-03    0.172E-02
DAV:   4    -0.851578527480E+03   -0.87513E-06   -0.12952E-05  3600   0.874E-03    0.526E-03
DAV:   5    -0.851578527888E+03   -0.40797E-06   -0.55190E-06  3620   0.416E-03
  92 F= -.85948661E+03 E0= -.85948661E+03  d E =-.112176E-03  mag=     0.0000
       N       E                     dE             d eps       ncg     rms          rms(c)
DAV:   1    -0.851578661926E+03   -0.13445E-03   -0.32611E-02  3920   0.389E-01    0.328E-02
DAV:   2    -0.851578696252E+03   -0.34326E-04   -0.53628E-04  3840   0.488E-02    0.291E-02
DAV:   3    -0.851578688693E+03    0.75586E-05   -0.18701E-05  4700   0.103E-02    0.210E-02
DAV:   4    -0.851578690024E+03   -0.13309E-05   -0.19642E-05  3700   0.108E-02    0.631E-03
DAV:   5    -0.851578690588E+03   -0.56388E-06   -0.82452E-06  3900   0.511E-03
  93 F= -.85948674E+03 E0= -.85948674E+03  d E =-.132623E-03  mag=    -0.0000
       N       E                     dE             d eps       ncg     rms          rms(c)
DAV:   1    -0.851578845038E+03   -0.15501E-03   -0.47910E-02  3920   0.471E-01    0.397E-02
DAV:   2    -0.851578895953E+03   -0.50915E-04   -0.79090E-04  3840   0.592E-02    0.352E-02
DAV:   3    -0.851578884915E+03    0.11037E-04   -0.27357E-05  4720   0.126E-02    0.254E-02
DAV:   4    -0.851578886979E+03   -0.20640E-05   -0.29328E-05  3760   0.132E-02    0.755E-03
DAV:   5    -0.851578887750E+03   -0.77096E-06   -0.12247E-05  4120   0.629E-03    0.341E-03
DAV:   6    -0.851578888103E+03   -0.35300E-06   -0.61182E-07  2480   0.182E-03
  94 F= -.85948690E+03 E0= -.85948690E+03  d E =-.162334E-03  mag=     0.0000
       N       E                     dE             d eps       ncg     rms          rms(c)
DAV:   1    -0.851579063233E+03   -0.17548E-03   -0.69940E-02  3880   0.569E-01    0.477E-02
DAV:   2    -0.851579137037E+03   -0.73803E-04   -0.11608E-03  3840   0.714E-02    0.427E-02
DAV:   3    -0.851579119831E+03    0.17206E-04   -0.41895E-05  4700   0.155E-02    0.307E-02
DAV:   4    -0.851579121677E+03   -0.18466E-05   -0.43351E-05  3940   0.159E-02    0.929E-03
DAV:   5    -0.851579122820E+03   -0.11428E-05   -0.17976E-05  4120   0.769E-03    0.412E-03
DAV:   6    -0.851579123363E+03   -0.54272E-06   -0.86387E-07  2440   0.217E-03
  95 F= -.85948710E+03 E0= -.85948710E+03  d E =-.195581E-03  mag=     0.0000
       N       E                     dE             d eps       ncg     rms          rms(c)
DAV:   1    -0.851579326137E+03   -0.20332E-03   -0.10195E-01  3880   0.686E-01    0.576E-02
DAV:   2    -0.851579433118E+03   -0.10698E-03   -0.16871E-03  3840   0.859E-02    0.516E-02
DAV:   3    -0.851579408071E+03    0.25047E-04   -0.61159E-05  4680   0.187E-02    0.370E-02
DAV:   4    -0.851579410692E+03   -0.26216E-05   -0.62524E-05  4040   0.191E-02    0.112E-02
DAV:   5    -0.851579412391E+03   -0.16985E-05   -0.25959E-05  4140   0.923E-03    0.495E-03
DAV:   6    -0.851579413173E+03   -0.78270E-06   -0.12541E-06  2460   0.261E-03
  96 F= -.85948734E+03 E0= -.85948734E+03  d E =-.243121E-03  mag=     0.0000
       N       E                     dE             d eps       ncg     rms          rms(c)
DAV:   1    -0.851579629961E+03   -0.21757E-03   -0.14988E-01  3880   0.833E-01    0.699E-02
DAV:   2    -0.851579788841E+03   -0.15888E-03   -0.24952E-03  3840   0.105E-01    0.625E-02
DAV:   3    -0.851579752214E+03    0.36627E-04   -0.89176E-05  4740   0.227E-02    0.450E-02
DAV:   4    -0.851579756306E+03   -0.40917E-05   -0.95018E-05  4220   0.236E-02    0.135E-02
DAV:   5    -0.851579758657E+03   -0.23518E-05   -0.38131E-05  4180   0.113E-02    0.603E-03
DAV:   6    -0.851579759854E+03   -0.11971E-05   -0.21084E-06  3180   0.329E-03    0.309E-03
DAV:   7    -0.851579759908E+03   -0.53624E-07   -0.56919E-07  2520   0.180E-03
  97 F= -.85948763E+03 E0= -.85948763E+03  d E =-.287784E-03  mag=     0.0000
       N       E                     dE             d eps       ncg     rms          rms(c)
DAV:   1    -0.851579993542E+03   -0.23369E-03   -0.22092E-01  3880   0.101E+00    0.851E-02
DAV:   2    -0.851580230928E+03   -0.23739E-03   -0.37079E-03  3840   0.128E-01    0.760E-02
DAV:   3    -0.851580176821E+03    0.54106E-04   -0.13136E-04  4740   0.273E-02    0.548E-02
DAV:   4    -0.851580181502E+03   -0.46807E-05   -0.13819E-04  4420   0.284E-02    0.164E-02
DAV:   5    -0.851580185151E+03   -0.36488E-05   -0.53856E-05  4180   0.134E-02    0.715E-03
DAV:   6    -0.851580186783E+03   -0.16320E-05   -0.31771E-06  3460   0.394E-03    0.363E-03
DAV:   7    -0.851580186874E+03   -0.91393E-07   -0.64298E-07  2660   0.196E-03
  98 F= -.85948798E+03 E0= -.85948798E+03  d E =-.351303E-03  mag=     0.0000
       N       E                     dE             d eps       ncg     rms          rms(c)
DAV:   1    -0.851580414786E+03   -0.22800E-03   -0.31961E-01  3880   0.122E+00    0.102E-01
DAV:   2    -0.851580761615E+03   -0.34683E-03   -0.53936E-03  3840   0.154E-01    0.913E-02
DAV:   3    -0.851580683276E+03    0.78340E-04   -0.19204E-04  4660   0.328E-02    0.662E-02
DAV:   4    -0.851580687576E+03   -0.43000E-05   -0.19909E-04  4480   0.340E-02    0.200E-02
DAV:   5    -0.851580693317E+03   -0.57409E-05   -0.76735E-05  4160   0.158E-02    0.876E-03
DAV:   6    -0.851580695668E+03   -0.23512E-05   -0.47481E-06  3760   0.471E-03    0.439E-03
DAV:   7    -0.851580695810E+03   -0.14158E-06   -0.90918E-07  2660   0.233E-03
  99 F= -.85948840E+03 E0= -.85948840E+03  d E =-.413921E-03  mag=     0.0000
       N       E                     dE             d eps       ncg     rms          rms(c)
DAV:   1    -0.851580839311E+03   -0.14364E-03   -0.45787E-01  3920   0.146E+00    0.122E-01
DAV:   2    -0.851581334059E+03   -0.49475E-03   -0.76813E-03  3900   0.185E-01    0.109E-01
DAV:   3    -0.851581217762E+03    0.11630E-03   -0.27667E-04  4700   0.392E-02    0.795E-02
DAV:   4    -0.851581217445E+03    0.31666E-06   -0.29769E-04  4340   0.413E-02    0.241E-02
DAV:   5    -0.851581224675E+03   -0.72305E-05   -0.11462E-04  4220   0.196E-02    0.109E-02
DAV:   6    -0.851581228557E+03   -0.38811E-05   -0.72262E-06  4160   0.557E-03    0.539E-03
DAV:   7    -0.851581228721E+03   -0.16421E-06   -0.86302E-07  2760   0.228E-03
 100 F= -.85948881E+03 E0= -.85948881E+03  d E =-.412799E-03  mag=     0.0000
       N       E                     dE             d eps       ncg     rms          rms(c)
DAV:   1    -0.851580735039E+03    0.49352E-03   -0.67661E-01  3860   0.180E+00    0.148E-01
DAV:   2    -0.851581554585E+03   -0.81955E-03   -0.12198E-02  3980   0.232E-01    0.136E-01
DAV:   3    -0.851581383004E+03    0.17158E-03   -0.45425E-04  4860   0.479E-02    0.102E-01
DAV:   4    -0.851581345917E+03    0.37087E-04   -0.47778E-04  4480   0.528E-02    0.329E-02
DAV:   5    -0.851581358859E+03   -0.12942E-04   -0.16022E-04  4220   0.232E-02    0.156E-02
DAV:   6    -0.851581364872E+03   -0.60128E-05   -0.13407E-05  4300   0.751E-03    0.695E-03
DAV:   7    -0.851581364925E+03   -0.52802E-07   -0.15328E-06  2820   0.307E-03
 101 F= -.85948881E+03 E0= -.85948881E+03  d E =0.185281E-05  mag=     0.0000
       N       E                     dE             d eps       ncg     rms          rms(c)
DAV:   1    -0.851582062310E+03   -0.69744E-03   -0.36601E-02  3920   0.439E-01    0.430E-02
DAV:   2    -0.851582126617E+03   -0.64307E-04   -0.91450E-04  4660   0.624E-02    0.393E-02
DAV:   3    -0.851582109284E+03    0.17333E-04   -0.45490E-05  5000   0.139E-02    0.302E-02
DAV:   4    -0.851582093433E+03    0.15852E-04   -0.35209E-05  4020   0.142E-02    0.129E-02
DAV:   5    -0.851582092759E+03    0.67371E-06   -0.11045E-05  4100   0.684E-03    0.521E-03
DAV:   6    -0.851582092871E+03   -0.11248E-06   -0.93385E-07  2380   0.226E-03
 102 F= -.85948953E+03 E0= -.85948953E+03  d E =-.721519E-03  mag=     0.0000
       N       E                     dE             d eps       ncg     rms          rms(c)
DAV:   1    -0.851582101281E+03   -0.85219E-05   -0.53605E-05  3960   0.165E-02    0.211E-03
DAV:   2    -0.851582101345E+03   -0.64385E-07   -0.10759E-06  2180   0.232E-03
 103 F= -.85948954E+03 E0= -.85948954E+03  d E =-.735313E-05  mag=     0.0000
       N       E                     dE             d eps       ncg     rms          rms(c)
DAV:   1    -0.851582116059E+03   -0.14778E-04   -0.19593E-04  3920   0.315E-02    0.333E-03
DAV:   2    -0.851582116279E+03   -0.21984E-06   -0.35955E-06  3530   0.409E-03
 104 F= -.85948955E+03 E0= -.85948955E+03  d E =-.127366E-04  mag=     0.0000
       N       E                     dE             d eps       ncg     rms          rms(c)
DAV:   1    -0.851582135245E+03   -0.19186E-04   -0.40155E-04  3840   0.447E-02    0.531E-03
DAV:   2    -0.851582135620E+03   -0.37522E-06   -0.73872E-06  4280   0.576E-03
 105 F= -.85948956E+03 E0= -.85948956E+03  d E =-.160160E-04  mag=     0.0000
       N       E                     dE             d eps       ncg     rms          rms(c)
DAV:   1    -0.851582158640E+03   -0.23395E-04   -0.64695E-04  3840   0.563E-02    0.701E-03
DAV:   2    -0.851582159141E+03   -0.50133E-06   -0.11096E-05  4280   0.707E-03    0.611E-03
DAV:   3    -0.851582158919E+03    0.22185E-06   -0.73042E-07  2420   0.228E-03
 106 F= -.85948958E+03 E0= -.85948958E+03  d E =-.188081E-04  mag=     0.0000
       N       E                     dE             d eps       ncg     rms          rms(c)
DAV:   1    -0.851582186435E+03   -0.27294E-04   -0.94399E-04  3860   0.675E-02    0.582E-03
DAV:   2    -0.851582187599E+03   -0.11637E-05   -0.15577E-05  4140   0.826E-03    0.519E-03
DAV:   3    -0.851582187466E+03    0.13324E-06   -0.38304E-07  2290   0.161E-03
 107 F= -.85948961E+03 E0= -.85948961E+03  d E =-.230541E-04  mag=     0.0000
       N       E                     dE             d eps       ncg     rms          rms(c)
DAV:   1    -0.851582220138E+03   -0.32539E-04   -0.12997E-03  3840   0.791E-02    0.657E-03
DAV:   2    -0.851582221733E+03   -0.15952E-05   -0.21448E-05  4040   0.967E-03    0.588E-03
DAV:   3    -0.851582221539E+03    0.19449E-06   -0.52436E-07  2660   0.187E-03
 108 F= -.85948963E+03 E0= -.85948963E+03  d E =-.277944E-04  mag=     0.0000
       N       E                     dE             d eps       ncg     rms          rms(c)
DAV:   1    -0.851582262085E+03   -0.40351E-04   -0.21696E-03  3860   0.102E-01    0.846E-03
DAV:   2    -0.851582264684E+03   -0.25997E-05   -0.35805E-05  3980   0.125E-02    0.758E-03
DAV:   3    -0.851582264345E+03    0.33914E-06   -0.95435E-07  2800   0.242E-03
 109 F= -.85948967E+03 E0= -.85948967E+03  d E =-.348452E-04  mag=     0.0000
       N       E                     dE             d eps       ncg     rms          rms(c)
DAV:   1    -0.851582312677E+03   -0.47993E-04   -0.35049E-03  3840   0.129E-01    0.108E-02
DAV:   2    -0.851582316813E+03   -0.41350E-05   -0.57771E-05  3960   0.159E-02    0.969E-03
DAV:   3    -0.851582316260E+03    0.55287E-06   -0.16479E-06  2980   0.310E-03
 110 F= -.85948971E+03 E0= -.85948971E+03  d E =-.418192E-04  mag=     0.0000
       N       E                     dE             d eps       ncg     rms          rms(c)
DAV:   1    -0.851582372715E+03   -0.55903E-04   -0.55199E-03  3840   0.162E-01    0.135E-02
DAV:   2    -0.851582379079E+03   -0.63631E-05   -0.90090E-05  3880   0.199E-02    0.121E-02
DAV:   3    -0.851582378223E+03    0.85540E-06   -0.26636E-06  3420   0.389E-03
 111 F= -.85948976E+03 E0= -.85948976E+03  d E =-.492915E-04  mag=    -0.0000
       N       E                     dE             d eps       ncg     rms          rms(c)
DAV:   1    -0.851582447538E+03   -0.68460E-04   -0.84498E-03  3840   0.199E-01    0.168E-02
DAV:   2    -0.851582456784E+03   -0.92464E-05   -0.13421E-04  3860   0.242E-02    0.152E-02
DAV:   3    -0.851582455401E+03    0.13838E-05   -0.42549E-06  3780   0.488E-03    0.111E-02
DAV:   4    -0.851582456291E+03   -0.88994E-06   -0.63940E-06  3500   0.601E-03
 112 F= -.85948982E+03 E0= -.85948982E+03  d E =-.618569E-04  mag=    -0.0000
       N       E                     dE             d eps       ncg     rms          rms(c)
DAV:   1    -0.851582541941E+03   -0.86540E-04   -0.13404E-02  3960   0.249E-01    0.210E-02
DAV:   2    -0.851582555263E+03   -0.13322E-04   -0.21036E-04  3840   0.307E-02    0.187E-02
DAV:   3    -0.851582552291E+03    0.29719E-05   -0.72746E-06  4380   0.659E-03    0.133E-02
DAV:   4    -0.851582553075E+03   -0.78372E-06   -0.81542E-06  3600   0.690E-03
 113 F= -.85948990E+03 E0= -.85948990E+03  d E =-.769853E-04  mag=    -0.0000
       N       E                     dE             d eps       ncg     rms          rms(c)
DAV:   1    -0.851582650730E+03   -0.98439E-04   -0.20350E-02  3940   0.306E-01    0.259E-02
DAV:   2    -0.851582670850E+03   -0.20121E-04   -0.32210E-04  3840   0.379E-02    0.231E-02
DAV:   3    -0.851582666138E+03    0.47126E-05   -0.11698E-05  4640   0.831E-03    0.163E-02
DAV:   4    -0.851582667190E+03   -0.10520E-05   -0.12334E-05  3620   0.846E-03    0.474E-03
DAV:   5    -0.851582667452E+03   -0.26207E-06   -0.60199E-06  3800   0.448E-03
 114 F= -.85948999E+03 E0= -.85948999E+03  d E =-.921572E-04  mag=    -0.0000
       N       E                     dE             d eps       ncg     rms          rms(c)
DAV:   1    -0.851582778524E+03   -0.11133E-03   -0.30491E-02  3920   0.375E-01    0.305E-02
DAV:   2    -0.851582810385E+03   -0.31861E-04   -0.49547E-04  3840   0.467E-02    0.274E-02
DAV:   3    -0.851582803345E+03    0.70402E-05   -0.17322E-05  4680   0.993E-03    0.198E-02
DAV:   4    -0.851582804270E+03   -0.92489E-06   -0.19063E-05  3640   0.105E-02    0.577E-03
DAV:   5    -0.851582804642E+03   -0.37209E-06   -0.83774E-06  4020   0.527E-03
 115 F= -.85949010E+03 E0= -.85949010E+03  d E =-.110946E-03  mag=     0.0000
       N       E                     dE             d eps       ncg     rms          rms(c)
DAV:   1    -0.851582935568E+03   -0.13130E-03   -0.46285E-02  3920   0.463E-01    0.377E-02
DAV:   2    -0.851582984237E+03   -0.48669E-04   -0.75461E-04  3840   0.577E-02    0.338E-02
DAV:   3    -0.851582973603E+03    0.10634E-04   -0.26009E-05  4620   0.121E-02    0.245E-02
DAV:   4    -0.851582974880E+03   -0.12770E-05   -0.29004E-05  3820   0.130E-02    0.707E-03
DAV:   5    -0.851582975490E+03   -0.61030E-06   -0.12114E-05  4060   0.629E-03    0.324E-03
DAV:   6    -0.851582975912E+03   -0.42182E-06   -0.48510E-07  2320   0.164E-03
 116 F= -.85949024E+03 E0= -.85949024E+03  d E =-.140350E-03  mag=     0.0000
       N       E                     dE             d eps       ncg     rms          rms(c)
DAV:   1    -0.851583118309E+03   -0.14282E-03   -0.70132E-02  3880   0.572E-01    0.463E-02
DAV:   2    -0.851583195331E+03   -0.77022E-04   -0.11822E-03  3840   0.721E-02    0.417E-02
DAV:   3    -0.851583178904E+03    0.16427E-04   -0.40765E-05  4640   0.149E-02    0.305E-02
DAV:   4    -0.851583179739E+03   -0.83501E-06   -0.45787E-05  3920   0.163E-02    0.888E-03
DAV:   5    -0.851583180724E+03   -0.98559E-06   -0.17264E-05  4080   0.754E-03    0.411E-03
DAV:   6    -0.851583181355E+03   -0.63014E-06   -0.83398E-07  2400   0.214E-03
 117 F= -.85949041E+03 E0= -.85949041E+03  d E =-.167993E-03  mag=    -0.0000
       N       E                     dE             d eps       ncg     rms          rms(c)
DAV:   1    -0.851583338130E+03   -0.15741E-03   -0.10465E-01  3880   0.699E-01    0.568E-02
DAV:   2    -0.851583454225E+03   -0.11610E-03   -0.17789E-03  3840   0.885E-02    0.509E-02
DAV:   3    -0.851583429796E+03    0.24429E-04   -0.60766E-05  4630   0.182E-02    0.374E-02
DAV:   4    -0.851583430963E+03   -0.11673E-05   -0.68979E-05  4120   0.200E-02    0.109E-02
DAV:   5    -0.851583432497E+03   -0.15331E-05   -0.24890E-05  4140   0.913E-03    0.503E-03
DAV:   6    -0.851583433426E+03   -0.92945E-06   -0.14210E-06  2600   0.276E-03
 118 F= -.85949062E+03 E0= -.85949062E+03  d E =-.207944E-03  mag=     0.0000
       N       E                     dE             d eps       ncg     rms          rms(c)
DAV:   1    -0.851583600711E+03   -0.16821E-03   -0.15527E-01  3840   0.853E-01    0.690E-02
DAV:   2    -0.851583780849E+03   -0.18014E-03   -0.27067E-03  3840   0.109E-01    0.618E-02
DAV:   3    -0.851583746083E+03    0.34766E-04   -0.90906E-05  4660   0.221E-02    0.459E-02
DAV:   4    -0.851583747634E+03   -0.15502E-05   -0.10455E-04  4380   0.245E-02    0.135E-02
DAV:   5    -0.851583750020E+03   -0.23860E-05   -0.33203E-05  4220   0.108E-02    0.633E-03
DAV:   6    -0.851583751302E+03   -0.12828E-05   -0.26655E-06  3260   0.369E-03    0.289E-03
DAV:   7    -0.851583751419E+03   -0.11674E-06   -0.52324E-07  2620   0.173E-03
 119 F= -.85949088E+03 E0= -.85949088E+03  d E =-.266110E-03  mag=     0.0000
       N       E                     dE             d eps       ncg     rms          rms(c)
DAV:   1    -0.851583895567E+03   -0.14426E-03   -0.23157E-01  3840   0.105E+00    0.843E-02
DAV:   2    -0.851584174647E+03   -0.27908E-03   -0.41098E-03  3880   0.134E-01    0.751E-02
DAV:   3    -0.851584123091E+03    0.51556E-04   -0.13301E-04  4740   0.267E-02    0.562E-02
DAV:   4    -0.851584122354E+03    0.73692E-06   -0.15456E-04  4420   0.298E-02    0.166E-02
DAV:   5    -0.851584126114E+03   -0.37597E-05   -0.47225E-05  4200   0.129E-02    0.786E-03
DAV:   6    -0.851584127686E+03   -0.15720E-05   -0.42757E-06  3620   0.457E-03    0.358E-03
DAV:   7    -0.851584127918E+03   -0.23214E-06   -0.82041E-07  2660   0.213E-03
 120 F= -.85949120E+03 E0= -.85949120E+03  d E =-.312427E-03  mag=     0.0000
       N       E                     dE             d eps       ncg     rms          rms(c)
DAV:   1    -0.851584208183E+03   -0.80497E-04   -0.33679E-01  3840   0.126E+00    0.101E-01
DAV:   2    -0.851584627198E+03   -0.41901E-03   -0.60765E-03  3880   0.163E-01    0.902E-02
DAV:   3    -0.851584552806E+03    0.74392E-04   -0.19128E-04  4720   0.323E-02    0.677E-02
DAV:   4    -0.851584550888E+03    0.19180E-05   -0.23754E-04  4520   0.370E-02    0.195E-02
DAV:   5    -0.851584555093E+03   -0.42054E-05   -0.71683E-05  4200   0.161E-02    0.962E-03
DAV:   6    -0.851584557600E+03   -0.25068E-05   -0.61744E-06  3860   0.540E-03    0.437E-03
DAV:   7    -0.851584557855E+03   -0.25491E-06   -0.93517E-07  2780   0.232E-03
 121 F= -.85949155E+03 E0= -.85949155E+03  d E =-.352415E-03  mag=     0.0000
