<?xml version="1.0" encoding="ISO-8859-1"?>
<modeling>
 <generator>
  <i name="program" type="string">vasp </i>
  <i name="version" type="string">6.4.2  </i>
  <i name="subversion" type="string">20Jul23 (build Aug 26 2025 15:10:52) complex                          parallel </i>
  <i name="platform" type="string">LinuxIFC </i>
  <i name="date" type="string">2025 12 02 </i>
  <i name="time" type="string">12:36:20 </i>
 </generator>
 <incar>
  <i type="int" name="ISTART">     0</i>
  <i type="string" name="ALGO">Normal</i>
  <i type="logical" name="ADDGRID"> T  </i>
  <i type="int" name="ISPIN">     2</i>
  <i type="int" name="IMIX">     4</i>
  <i name="AMIX">      0.20000000</i>
  <i name="BMIX">      0.00010000</i>
  <i name="AMIX_MAG">      0.80000000</i>
  <i name="BMIX_MAG">      0.00010000</i>
  <i type="int" name="ICHARG">     2</i>
  <i type="int" name="NELM">   200</i>
  <i type="int" name="IBRION">     3</i>
  <i name="EDIFF">      0.00000100</i>
  <i name="EDIFFG">     -0.03000000</i>
  <i type="int" name="NSW">   500</i>
  <i type="int" name="ISIF">     2</i>
  <i type="int" name="ISYM">     0</i>
  <i name="ENCUT">    520.00000000</i>
  <i name="POTIM">      0.00000000</i>
  <v name="MAGMOM">      0.00000000      0.00000000      0.00000000      0.00000000      0.00000000      0.00000000      0.00000000      0.00000000      0.00000000      0.00000000      0.00000000      0.00000000      0.00000000      0.00000000      0.00000000      0.00000000      0.00000000      0.00000000      0.00000000      0.00000000
      0.00000000      0.00000000      0.00000000      0.00000000      0.00000000      0.00000000      0.00000000      0.00000000      0.00000000      0.00000000      0.00000000      0.00000000      0.00000000      0.00000000      0.00000000      0.00000000      0.00000000      0.00000000      0.00000000      0.00000000
      0.00000000      0.00000000      0.00000000      0.00000000      0.00000000      0.00000000      0.00000000      0.00000000      0.00000000      0.00000000      0.00000000      0.00000000      0.00000000      0.00000000      0.00000000      0.00000000      0.00000000      0.00000000      0.00000000      0.00000000
      0.00000000      0.00000000      0.00000000      0.00000000      0.00000000      0.00000000      0.00000000      0.00000000      0.00000000      0.00000000      0.00000000      0.00000000      0.00000000      0.00000000      0.00000000      0.00000000      0.00000000      0.00000000      0.00000000      0.00000000
      0.00000000      0.00000000      0.00000000      0.00000000      0.00000000      0.00000000      0.00000000      0.00000000      0.00000000      0.00000000      0.00000000      0.00000000      0.00000000      0.00000000      0.00000000      0.00000000      0.00000000      0.00000000      0.00000000</v>
  <i type="string" name="LREAL">Auto</i>
  <i type="int" name="ISMEAR">     0</i>
  <i name="SIGMA">      0.05000000</i>
  <i type="logical" name="LWAVE"> F  </i>
  <i type="logical" name="LCHARG"> F  </i>
  <i type="logical" name="LASPH"> T  </i>
  <i type="int" name="IVDW">    12</i>
  <i name="SPRING">     -5.00000000</i>
 </incar>
 <primitive_cell>
  <structure name="primitive_cell" >
   <crystal>
    <varray name="basis" >
     <v>      17.27103806       0.00000000       0.00000000 </v>
     <v>      -8.63551903      14.95715771       0.00000000 </v>
     <v>       0.00000000       0.00000000      15.00000000 </v>
    </varray>
    <i name="volume">   3874.88459904 </i>
    <varray name="rec_basis" >
     <v>       0.05790040       0.03342881       0.00000000 </v>
     <v>       0.00000000       0.06685762       0.00000000 </v>
     <v>       0.00000000       0.00000000       0.06666667 </v>
    </varray>
   </crystal>
   <varray name="positions" >
    <v>       0.00112518       0.00131471       0.50331740 </v>
    <v>       0.00050294       0.14378942       0.50278865 </v>
    <v>       0.00028982       0.28659384       0.50254313 </v>
    <v>       0.00076625       0.42969268       0.50360698 </v>
    <v>       0.00158458       0.57279197       0.50414885 </v>
    <v>       0.00270094       0.71613010       0.50466437 </v>
    <v>       0.00239305       0.85928110       0.50436568 </v>
    <v>       0.14430564       0.00181607       0.49719650 </v>
    <v>       0.14348023       0.14414116       0.49255017 </v>
    <v>       0.14197687       0.28589270       0.48776290 </v>
    <v>       0.14233881       0.42922069       0.48985846 </v>
    <v>       0.14386609       0.57241230       0.49536896 </v>
    <v>       0.14456622       0.71564043       0.49912499 </v>
    <v>       0.14463106       0.85887771       0.50044342 </v>
    <v>       0.28675645       0.00144553       0.49505441 </v>
    <v>       0.28624339       0.14388793       0.48369059 </v>
    <v>       0.28408196       0.28572230       0.46360904 </v>
    <v>       0.27989787       0.42732730       0.45522915 </v>
    <v>       0.28538965       0.57102803       0.47297238 </v>
    <v>       0.28655632       0.71554299       0.48943231 </v>
    <v>       0.28680679       0.85871547       0.49658807 </v>
    <v>       0.42957793       0.00158296       0.49644240 </v>
    <v>       0.42929271       0.14412084       0.49092582 </v>
    <v>       0.42748978       0.28348411       0.47555509 </v>
    <v>       0.42749721       0.71711218       0.48383745 </v>
    <v>       0.42923415       0.85865115       0.49366107 </v>
    <v>       0.57213603       0.00194632       0.49955005 </v>
    <v>       0.57217583       0.14421986       0.49849886 </v>
    <v>       0.57288508       0.28757920       0.49464502 </v>
    <v>       0.57280775       0.85984922       0.49622331 </v>
    <v>       0.71502121       0.00142040       0.50382844 </v>
    <v>       0.71511814       0.14425750       0.50438779 </v>
    <v>       0.71503756       0.28694630       0.50306067 </v>
    <v>       0.71482282       0.42894590       0.50192636 </v>
    <v>       0.71959819       0.57455279       0.50248035 </v>
    <v>       0.72231484       0.71767764       0.50347966 </v>
    <v>       0.71408942       0.85861048       0.50211390 </v>
    <v>       0.85798281       0.00127132       0.50586296 </v>
    <v>       0.85769704       0.14395768       0.50656675 </v>
    <v>       0.85776876       0.28677563       0.50648146 </v>
    <v>       0.85832704       0.42973867       0.50562293 </v>
    <v>       0.85948487       0.57318535       0.50535235 </v>
    <v>       0.86144599       0.71686030       0.50557722 </v>
    <v>       0.85884284       0.85845776       0.50511608 </v>
    <v>       0.04854173       0.09656589       0.50053466 </v>
    <v>       0.04744916       0.23864402       0.49904830 </v>
    <v>       0.04761375       0.38171839       0.50003558 </v>
    <v>       0.04894302       0.52500909       0.50181197 </v>
    <v>       0.04955264       0.66815663       0.50301169 </v>
    <v>       0.04965232       0.81132214       0.50348106 </v>
    <v>       0.04923577       0.95414341       0.50205703 </v>
    <v>       0.19128802       0.09644497       0.49056024 </v>
    <v>       0.18989937       0.23878859       0.48305847 </v>
    <v>       0.18782035       0.38043546       0.47975243 </v>
    <v>       0.19057166       0.52438916       0.48706908 </v>
    <v>       0.19159104       0.66794764       0.49422481 </v>
    <v>       0.19196894       0.81111734       0.49871124 </v>
    <v>       0.19188871       0.95398182       0.49746871 </v>
    <v>       0.33417024       0.09677050       0.48989557 </v>
    <v>       0.33421690       0.23865150       0.47166266 </v>
    <v>       0.32019423       0.37493731       0.43931955 </v>
    <v>       0.32651144       0.52167729       0.45093394 </v>
    <v>       0.33449465       0.66836645       0.48111821 </v>
    <v>       0.33422625       0.81075842       0.49334798 </v>
    <v>       0.33424414       0.95383819       0.49636301 </v>
    <v>       0.47705078       0.09661917       0.49576946 </v>
    <v>       0.47607504       0.23913995       0.48733880 </v>
    <v>       0.47614798       0.81053965       0.49117598 </v>
    <v>       0.47703277       0.95405095       0.49691152 </v>
    <v>       0.61972044       0.09682068       0.50125073 </v>
    <v>       0.61990989       0.23946781       0.49889521 </v>
    <v>       0.62172744       0.38091381       0.49776200 </v>
    <v>       0.62117648       0.81523085       0.49728823 </v>
    <v>       0.61988851       0.95456633       0.50027863 </v>
    <v>       0.76269524       0.09671819       0.50562574 </v>
    <v>       0.76270107       0.23923594       0.50529082 </v>
    <v>       0.76301977       0.38202158       0.50382035 </v>
    <v>       0.76384019       0.52618475       0.50362404 </v>
    <v>       0.76657536       0.66835258       0.50414898 </v>
    <v>       0.76263780       0.81008703       0.50374584 </v>
    <v>       0.76276876       0.95395482       0.50452572 </v>
    <v>       0.90529664       0.09611223       0.50598396 </v>
    <v>       0.90521351       0.23908115       0.50619513 </v>
    <v>       0.90553838       0.38218155       0.50603258 </v>
    <v>       0.90649420       0.52526850       0.50551853 </v>
    <v>       0.90764508       0.66838416       0.50566133 </v>
    <v>       0.90726080       0.81167650       0.50558493 </v>
    <v>       0.90586360       0.95354284       0.50521718 </v>
    <v>       0.46368523       0.35568123       0.47191184 </v>
    <v>       0.39648228       0.55618036       0.43097940 </v>
    <v>       0.64715721       0.54041804       0.49976507 </v>
    <v>       0.58547743       0.41723683       0.49792112 </v>
    <v>       0.58415892       0.74349180       0.49415455 </v>
    <v>       0.46340426       0.68041143       0.48178553 </v>
    <v>       0.54048393       0.55032838       0.56291425 </v>
    <v>       0.47133411       0.49809803       0.48936932 </v>
    <v>       0.40237787       0.41875618       0.39800764 </v>
    <v>       0.63068485       0.66557942       0.50219279 </v>
    <v>       0.50780935       0.49193234       0.53488800 </v>
   </varray>
  </structure>
  <varray name="primitive_index" >
   <v type="int" >        1 </v>
   <v type="int" >        2 </v>
   <v type="int" >        3 </v>
   <v type="int" >        4 </v>
   <v type="int" >        5 </v>
   <v type="int" >        6 </v>
   <v type="int" >        7 </v>
   <v type="int" >        8 </v>
   <v type="int" >        9 </v>
   <v type="int" >       10 </v>
   <v type="int" >       11 </v>
   <v type="int" >       12 </v>
   <v type="int" >       13 </v>
   <v type="int" >       14 </v>
   <v type="int" >       15 </v>
   <v type="int" >       16 </v>
   <v type="int" >       17 </v>
   <v type="int" >       18 </v>
   <v type="int" >       19 </v>
   <v type="int" >       20 </v>
   <v type="int" >       21 </v>
   <v type="int" >       22 </v>
   <v type="int" >       23 </v>
   <v type="int" >       24 </v>
   <v type="int" >       25 </v>
   <v type="int" >       26 </v>
   <v type="int" >       27 </v>
   <v type="int" >       28 </v>
   <v type="int" >       29 </v>
   <v type="int" >       30 </v>
   <v type="int" >       31 </v>
   <v type="int" >       32 </v>
   <v type="int" >       33 </v>
   <v type="int" >       34 </v>
   <v type="int" >       35 </v>
   <v type="int" >       36 </v>
   <v type="int" >       37 </v>
   <v type="int" >       38 </v>
   <v type="int" >       39 </v>
   <v type="int" >       40 </v>
   <v type="int" >       41 </v>
   <v type="int" >       42 </v>
   <v type="int" >       43 </v>
   <v type="int" >       44 </v>
   <v type="int" >       45 </v>
   <v type="int" >       46 </v>
   <v type="int" >       47 </v>
   <v type="int" >       48 </v>
   <v type="int" >       49 </v>
   <v type="int" >       50 </v>
   <v type="int" >       51 </v>
   <v type="int" >       52 </v>
   <v type="int" >       53 </v>
   <v type="int" >       54 </v>
   <v type="int" >       55 </v>
   <v type="int" >       56 </v>
   <v type="int" >       57 </v>
   <v type="int" >       58 </v>
   <v type="int" >       59 </v>
   <v type="int" >       60 </v>
   <v type="int" >       61 </v>
   <v type="int" >       62 </v>
   <v type="int" >       63 </v>
   <v type="int" >       64 </v>
   <v type="int" >       65 </v>
   <v type="int" >       66 </v>
   <v type="int" >       67 </v>
   <v type="int" >       68 </v>
   <v type="int" >       69 </v>
   <v type="int" >       70 </v>
   <v type="int" >       71 </v>
   <v type="int" >       72 </v>
   <v type="int" >       73 </v>
   <v type="int" >       74 </v>
   <v type="int" >       75 </v>
   <v type="int" >       76 </v>
   <v type="int" >       77 </v>
   <v type="int" >       78 </v>
   <v type="int" >       79 </v>
   <v type="int" >       80 </v>
   <v type="int" >       81 </v>
   <v type="int" >       82 </v>
   <v type="int" >       83 </v>
   <v type="int" >       84 </v>
   <v type="int" >       85 </v>
   <v type="int" >       86 </v>
   <v type="int" >       87 </v>
   <v type="int" >       88 </v>
   <v type="int" >       89 </v>
   <v type="int" >       90 </v>
   <v type="int" >       91 </v>
   <v type="int" >       92 </v>
   <v type="int" >       93 </v>
   <v type="int" >       94 </v>
   <v type="int" >       95 </v>
   <v type="int" >       96 </v>
   <v type="int" >       97 </v>
   <v type="int" >       98 </v>
   <v type="int" >       99 </v>
  </varray>
 </primitive_cell>
 <kpoints>
  <generation param="Gamma">
   <v type="int" name="divisions">       2        2        1 </v>
   <v name="usershift">      0.00000000       0.00000000       0.00000000 </v>
   <v name="genvec1">      0.50000000       0.00000000       0.00000000 </v>
   <v name="genvec2">      0.00000000       0.50000000       0.00000000 </v>
   <v name="genvec3">      0.00000000       0.00000000       1.00000000 </v>
   <v name="shift">      0.00000000       0.00000000       0.00000000 </v>
  </generation>
  <varray name="kpointlist" >
   <v>       0.00000000       0.00000000       0.00000000 </v>
   <v>       0.50000000       0.00000000       0.00000000 </v>
   <v>       0.00000000       0.50000000       0.00000000 </v>
   <v>       0.50000000       0.50000000       0.00000000 </v>
  </varray>
  <varray name="weights" >
   <v>       0.25000000 </v>
   <v>       0.25000000 </v>
   <v>       0.25000000 </v>
   <v>       0.25000000 </v>
  </varray>
 </kpoints>
 <parameters>
  <separator name="general" >
   <i type="string" name="SYSTEM">unknown system</i>
   <i type="logical" name="LCOMPAT"> F  </i>
  </separator>
  <separator name="electronic" >
   <i type="string" name="PREC">normal</i>
   <i name="ENMAX">    520.00000000</i>
   <i name="ENAUG">    644.87300000</i>
   <i name="EDIFF">      0.00000100</i>
   <i type="int" name="IALGO">    38</i>
   <i type="int" name="IWAVPR">    11</i>
   <i type="int" name="NBANDS">   240</i>
   <i type="int" name="NBANDSLOW">    -1</i>
   <i type="int" name="NBANDSHIGH">    -1</i>
   <i name="NELECT">    380.00000000</i>
   <i type="int" name="TURBO">     0</i>
   <i type="int" name="IRESTART">     0</i>
   <i type="int" name="NREBOOT">     0</i>
   <i type="int" name="NMIN">     0</i>
   <i name="EREF">      0.00000000</i>
   <separator name="electronic smearing" >
    <i type="int" name="ISMEAR">     0</i>
    <i name="SIGMA">      0.05000000</i>
    <i name="KSPACING">      0.50000000</i>
    <i type="logical" name="KGAMMA"> T  </i>
    <i type="logical" name="KBLOWUP"> T  </i>
   </separator>
   <separator name="electronic projectors" >
    <i type="logical" name="LREAL"> T  </i>
    <v name="ROPT">     -0.00050000     -0.00050000     -0.00050000     -0.00050000</v>
    <i type="int" name="LMAXPAW">  -100</i>
    <i type="int" name="LMAXMIX">     2</i>
    <i type="logical" name="NLSPLINE"> F  </i>
   </separator>
   <separator name="electronic startup" >
    <i type="int" name="ISTART">     0</i>
    <i type="int" name="ICHARG">     2</i>
    <i type="int" name="INIWAV">     1</i>
   </separator>
   <separator name="electronic spin" >
    <i type="int" name="ISPIN">     2</i>
    <i type="logical" name="LNONCOLLINEAR"> F  </i>
    <v name="MAGMOM">      0.00000000      0.00000000      0.00000000      0.00000000      0.00000000      0.00000000      0.00000000      0.00000000      0.00000000      0.00000000      0.00000000      0.00000000      0.00000000      0.00000000      0.00000000      0.00000000      0.00000000      0.00000000      0.00000000      0.00000000
      0.00000000      0.00000000      0.00000000      0.00000000      0.00000000      0.00000000      0.00000000      0.00000000      0.00000000      0.00000000      0.00000000      0.00000000      0.00000000      0.00000000      0.00000000      0.00000000      0.00000000      0.00000000      0.00000000      0.00000000
      0.00000000      0.00000000      0.00000000      0.00000000      0.00000000      0.00000000      0.00000000      0.00000000      0.00000000      0.00000000      0.00000000      0.00000000      0.00000000      0.00000000      0.00000000      0.00000000      0.00000000      0.00000000      0.00000000      0.00000000
      0.00000000      0.00000000      0.00000000      0.00000000      0.00000000      0.00000000      0.00000000      0.00000000      0.00000000      0.00000000      0.00000000      0.00000000      0.00000000      0.00000000      0.00000000      0.00000000      0.00000000      0.00000000      0.00000000      0.00000000
      0.00000000      0.00000000      0.00000000      0.00000000      0.00000000      0.00000000      0.00000000      0.00000000      0.00000000      0.00000000      0.00000000      0.00000000      0.00000000      0.00000000      0.00000000      0.00000000      0.00000000      0.00000000      0.00000000</v>
    <i name="NUPDOWN">     -1.00000000</i>
    <i type="logical" name="LSORBIT"> F  </i>
    <v name="SAXIS">      0.00000000      0.00000000      1.00000000</v>
    <i type="logical" name="LSPIRAL"> F  </i>
    <v name="QSPIRAL">      0.00000000      0.00000000      0.00000000</v>
    <i type="logical" name="LZEROZ"> F  </i>
   </separator>
   <separator name="electronic exchange-correlation" >
    <i type="logical" name="LASPH"> T  </i>
    <i type="logical" name="LMETAGGA"> F  </i>
   </separator>
   <separator name="electronic convergence" >
    <i type="int" name="NELM">   200</i>
    <i type="int" name="NELMDL">    -5</i>
    <i type="int" name="NELMIN">     2</i>
    <i name="ENINI">    520.00000000</i>
    <separator name="electronic convergence detail" >
     <i type="logical" name="LDIAG"> T  </i>
     <i type="logical" name="LSUBROT"> F  </i>
     <i name="WEIMIN">      0.00100000</i>
     <i name="EBREAK">      0.00000000</i>
     <i name="DEPER">      0.30000000</i>
     <i type="int" name="NRMM">     4</i>
     <i name="TIME">      0.40000000</i>
    </separator>
   </separator>
   <separator name="electronic mixer" >
    <i name="AMIX">      0.20000000</i>
    <i name="BMIX">      0.00010000</i>
    <i name="AMIN">      0.10000000</i>
    <i name="AMIX_MAG">      0.80000000</i>
    <i name="BMIX_MAG">      0.00010000</i>
    <separator name="electronic mixer details" >
     <i type="int" name="IMIX">     4</i>
     <i type="logical" name="MIXFIRST"> F  </i>
     <i type="int" name="MAXMIX">   -45</i>
     <i name="WC">    100.00000000</i>
     <i type="int" name="INIMIX">     1</i>
     <i type="int" name="MIXPRE">     1</i>
     <i type="int" name="MREMOVE">     5</i>
    </separator>
   </separator>
   <separator name="electronic dipolcorrection" >
    <i type="logical" name="LDIPOL"> F  </i>
    <i type="logical" name="LMONO"> F  </i>
    <i type="int" name="IDIPOL">     0</i>
    <i name="EPSILON">      1.00000000</i>
    <v name="DIPOL">   -100.00000000   -100.00000000   -100.00000000</v>
    <i name="EFIELD">      0.00000000</i>
   </separator>
  </separator>
  <separator name="grids" >
   <i type="int" name="NGX">    96</i>
   <i type="int" name="NGY">    96</i>
   <i type="int" name="NGZ">    84</i>
   <i type="int" name="NGXF">   192</i>
   <i type="int" name="NGYF">   192</i>
   <i type="int" name="NGZF">   168</i>
   <i type="logical" name="ADDGRID"> T  </i>
  </separator>
  <separator name="ionic" >
   <i type="int" name="NSW">   500</i>
   <i type="int" name="IBRION">     3</i>
   <i type="int" name="MDALGO">     0</i>
   <i type="int" name="ISIF">     2</i>
   <i name="PSTRESS">      0.00000000</i>
   <i name="EDIFFG">     -0.03000000</i>
   <i type="int" name="NFREE">     0</i>
   <i name="POTIM">      0.00000000</i>
   <i name="SMASS">     -3.00000000</i>
   <i name="SCALEE">      1.00000000</i>
  </separator>
  <separator name="ionic md" >
   <i name="TEBEG">      0.00010000</i>
   <i name="TEEND">      0.00010000</i>
   <i type="int" name="NBLOCK">     1</i>
   <i type="int" name="KBLOCK">   500</i>
   <i type="int" name="NPACO">   256</i>
   <i name="APACO">     10.00000000</i>
  </separator>
  <separator name="symmetry" >
   <i type="int" name="ISYM">     0</i>
   <i name="SYMPREC">      0.00001000</i>
  </separator>
  <separator name="dos" >
   <i type="int" name="LORBIT">     0</i>
   <v name="RWIGS">     -1.00000000     -1.00000000     -1.00000000     -1.00000000</v>
   <i type="int" name="NEDOS">   301</i>
   <i name="EMIN">     10.00000000</i>
   <i name="EMAX">    -10.00000000</i>
   <i name="EFERMI">      0.00000000</i>
  </separator>
  <separator name="writing" >
   <i type="int" name="NWRITE">     2</i>
   <i type="logical" name="LWAVE"> F  </i>
   <i type="logical" name="LDOWNSAMPLE"> F  </i>
   <i type="logical" name="LCHARG"> F  </i>
   <i type="logical" name="LPARD"> F  </i>
   <i type="logical" name="LVTOT"> F  </i>
   <i type="logical" name="LVHAR"> F  </i>
   <i type="logical" name="LELF"> F  </i>
   <i type="logical" name="LOPTICS"> F  </i>
   <v name="STM">      0.00000000      0.00000000      0.00000000      0.00000000      0.00000000      0.00000000      0.00000000</v>
  </separator>
  <separator name="performance" >
   <i type="int" name="NPAR">     5</i>
   <i type="int" name="NSIM">     4</i>
   <i type="int" name="NBLK">    -1</i>
   <i type="logical" name="LPLANE"> T  </i>
   <i type="logical" name="LSCALAPACK"> T  </i>
   <i type="logical" name="LSCAAWARE"> F  </i>
   <i type="logical" name="LSCALU"> F  </i>
   <i type="logical" name="LASYNC"> F  </i>
   <i type="logical" name="LORBITALREAL"> F  </i>
  </separator>
  <separator name="miscellaneous" >
   <i type="int" name="IDIOT">     3</i>
   <i type="int" name="PHON_NSTRUCT">    -1</i>
   <i type="logical" name="LMUSIC"> F  </i>
   <v name="POMASS">     12.01100000      1.00000000     18.99800000     16.00000000</v>
   <v name="DARWINR">      0.00000000      0.00000000      0.00000000      0.00000000</v>
   <v name="DARWINV">      1.00000000      1.00000000      1.00000000      1.00000000</v>
   <i type="logical" name="LCORR"> T  </i>
  </separator>
  <i type="logical" name="GGA_COMPAT"> T  </i>
  <i type="logical" name="LBERRY"> F  </i>
  <i type="int" name="ICORELEVEL">     0</i>
  <i type="logical" name="LDAU"> F  </i>
  <i type="int" name="I_CONSTRAINED_M">     0</i>
  <separator name="electronic exchange-correlation" >
   <i type="string" name="GGA">--</i>
   <i type="int" name="VOSKOWN">     0</i>
   <i type="logical" name="LHFCALC"> F  </i>
   <i type="string" name="PRECFOCK"></i>
   <i type="logical" name="LSYMGRAD"> F  </i>
   <i type="logical" name="LHFONE"> F  </i>
   <i type="logical" name="LRHFCALC"> F  </i>
   <i type="logical" name="LTHOMAS"> F  </i>
   <i type="logical" name="LMODELHF"> F  </i>
   <i type="logical" name="LFOCKACE"> F  </i>
   <i name="ENCUT4O">     -1.00000000</i>
   <i type="int" name="EXXOEP">     0</i>
   <i type="int" name="FOURORBIT">     0</i>
   <i name="AEXX">      0.00000000</i>
   <i name="HFALPHA">      0.00000000</i>
   <i name="MCALPHA">      0.00000000</i>
   <i name="ALDAX">      1.00000000</i>
   <i name="AGGAX">      1.00000000</i>
   <i name="ALDAC">      1.00000000</i>
   <i name="AGGAC">      1.00000000</i>
   <i type="int" name="NKREDX">     1</i>
   <i type="int" name="NKREDY">     1</i>
   <i type="int" name="NKREDZ">     1</i>
   <i type="logical" name="SHIFTRED"> F  </i>
   <i type="logical" name="ODDONLY"> F  </i>
   <i type="logical" name="EVENONLY"> F  </i>
   <i type="int" name="LMAXFOCK">     0</i>
   <i type="int" name="NMAXFOCKAE">     0</i>
   <i type="logical" name="LFOCKAEDFT"> F  </i>
   <i name="HFSCREEN">      0.00000000</i>
   <i name="HFSCREENC">      0.00000000</i>
   <i type="int" name="NBANDSGWLOW">     0</i>
  </separator>
  <separator name="vdW DFT" >
   <i type="logical" name="LUSE_VDW"> F  </i>
   <i type="int" name="IVDW_NL">     1</i>
   <i type="logical" name="LSPIN_VDW"> F  </i>
   <i name="Zab_VDW">     -0.84910000</i>
   <i name="PARAM1">      0.12340000</i>
   <i name="PARAM2">      1.00000000</i>
   <i name="PARAM3">      0.00000000</i>
  </separator>
  <separator name="model GW" >
   <i type="int" name="MODEL_GW">     0</i>
   <i name="MODEL_EPS0">     23.48414909</i>
   <i name="MODEL_ALPHA">      1.00000000</i>
  </separator>
  <separator name="linear response parameters" >
   <i type="logical" name="LEPSILON"> F  </i>
   <i type="logical" name="LRPA"> F  </i>
   <i type="logical" name="LNABLA"> F  </i>
   <i type="logical" name="LVEL"> F  </i>
   <i name="CSHIFT">      0.10000000</i>
   <i name="OMEGAMAX">     -1.00000000</i>
   <i name="DEG_THRESHOLD">      0.00200000</i>
   <i name="RTIME">     -0.10000000</i>
   <i name="WPLASMAI">      0.00000000</i>
   <v name="DFIELD">      0.00000000      0.00000000      0.00000000</v>
   <v name="WPLASMA">      0.00000000      0.00000000      0.00000000      0.00000000      0.00000000      0.00000000      0.00000000      0.00000000      0.00000000</v>
  </separator>
  <separator name="orbital magnetization" >
   <i type="logical" name="NUCIND"> F  </i>
   <v name="MAGPOS">      0.00000000      0.00000000      0.00000000</v>
   <i type="logical" name="LNICSALL"> T  </i>
   <i type="logical" name="ORBITALMAG"> F  </i>
   <i type="logical" name="LMAGBLOCH"> F  </i>
   <i type="logical" name="LCHIMAG"> F  </i>
   <i type="logical" name="LGAUGE"> T  </i>
   <i type="int" name="MAGATOM">     0</i>
   <v name="MAGDIPOL">      0.00000000      0.00000000      0.00000000</v>
   <v name="AVECCONST">      0.00000000      0.00000000      0.00000000</v>
  </separator>
  <separator name="response functions" >
   <i type="logical" name="LALL_IN_ONE"> F  </i>
   <i type="int" name="IALL_IN_ONE">    -1</i>
   <i type="int" name="NBANDS_WAVE">    -1</i>
   <i type="logical" name="LFINITE_TEMPERATURE"> F  </i>
   <i type="logical" name="LADDER"> F  </i>
   <i type="logical" name="LRPAFORCE"> F  </i>
   <i type="logical" name="LFXC"> F  </i>
   <i type="logical" name="LHARTREE"> T  </i>
   <i type="int" name="IBSE">     0</i>
   <v type="int" name="KPOINT">    -1     0     0     0</v>
   <i type="logical" name="LTCTC"> F  </i>
   <i type="logical" name="LTCTE"> F  </i>
   <i type="logical" name="LTETE"> F  </i>
   <i type="logical" name="LTRIPLET"> F  </i>
   <i type="logical" name="LFXCEPS"> F  </i>
   <i type="logical" name="LFXHEG"> F  </i>
   <i type="int" name="NATURALO">     2</i>
   <i type="logical" name="LHOLEGF"> F  </i>
   <i type="logical" name="L2ORDER"> F  </i>
   <i type="logical" name="LDMP1"> F  </i>
   <i type="logical" name="LMP2LT"> F  </i>
   <i type="logical" name="LSMP2LT"> F  </i>
   <i type="logical" name="LGWLF"> F  </i>
   <i name="ENCUTGW">     -1.60000002</i>
   <i name="ENCUTGWSOFT">     -1.60000002</i>
   <i name="ENCUTLF">     -1.00000000</i>
   <i type="logical" name="LESF_SPLINES"> F  </i>
   <i type="int" name="LMAXMP2">    -1</i>
   <i name="SCISSOR">      0.00000000</i>
   <i type="int" name="NOMEGA">     0</i>
   <i type="int" name="NOMEGAR">     0</i>
   <i type="int" name="NBANDSGW">    -1</i>
   <i type="int" name="NBANDSO">    -1</i>
   <i type="int" name="NBANDSV">    -1</i>
   <i type="int" name="NELMGW">     1</i>
   <i type="int" name="NELMHF">     1</i>
   <i type="int" name="DIM">     3</i>
   <i type="int" name="IESPILON">     4</i>
   <i type="int" name="ANTIRES">     0</i>
   <i name="OMEGAMAX">    -30.00000000</i>
   <i name="OMEGAMIN">    -30.00000000</i>
   <i name="OMEGATL">   -200.00000000</i>
   <i type="int" name="OMEGAGRID">     0</i>
   <i name="CSHIFT">     -0.10000000</i>
   <i type="logical" name="LSELFENERGY"> F  </i>
   <i type="logical" name="LSPECTRAL"> F  </i>
   <i type="logical" name="LSPECTRALGW"> F  </i>
   <i type="logical" name="LSINGLES"> F  </i>
   <i type="logical" name="LFERMIGW"> F  </i>
   <i type="logical" name="ODDONLYGW"> F  </i>
   <i type="logical" name="EVENONLYGW"> F  </i>
   <i type="int" name="NKREDLFX">     1</i>
   <i type="int" name="NKREDLFY">     1</i>
   <i type="int" name="NKREDLFZ">     1</i>
   <i type="int" name="MAXMEM">  2800</i>
   <i type="int" name="TELESCOPE">     0</i>
   <i type="int" name="NTAUPAR">    -1</i>
   <i type="int" name="NOMEGAPAR">    -1</i>
   <i name="DAMP_NEWTON">      0.80000001</i>
   <i name="LAMBDA">      1.00000000</i>
  </separator>
  <separator name="External order field" >
   <i name="OFIELD_KAPPA">      0.00000000</i>
   <v name="OFIELD_K">      0.00000000      0.00000000      0.00000000</v>
   <i name="OFIELD_Q6_NEAR">      0.00000000</i>
   <i name="OFIELD_Q6_FAR">      0.00000000</i>
   <i name="OFIELD_A">      0.00000000</i>
  </separator>
  <separator name="optional k-points parameters" >
   <i type="int" name="KPOINTS_OPT_MODE">     1</i>
   <i type="logical" name="LKPOINTS_OPT"> F  </i>
  </separator>
 </parameters>
 <atominfo>
  <atoms>      99 </atoms>
  <types>       4 </types>
  <array name="atoms" >
   <dimension dim="1">ion</dimension>
   <field type="string">element</field>
   <field type="int">atomtype</field>
   <set>
    <rc><c>C </c><c>   1</c></rc>
    <rc><c>C </c><c>   1</c></rc>
    <rc><c>C </c><c>   1</c></rc>
    <rc><c>C </c><c>   1</c></rc>
    <rc><c>C </c><c>   1</c></rc>
    <rc><c>C </c><c>   1</c></rc>
    <rc><c>C </c><c>   1</c></rc>
    <rc><c>C </c><c>   1</c></rc>
    <rc><c>C </c><c>   1</c></rc>
    <rc><c>C </c><c>   1</c></rc>
    <rc><c>C </c><c>   1</c></rc>
    <rc><c>C </c><c>   1</c></rc>
    <rc><c>C </c><c>   1</c></rc>
    <rc><c>C </c><c>   1</c></rc>
    <rc><c>C </c><c>   1</c></rc>
    <rc><c>C </c><c>   1</c></rc>
    <rc><c>C </c><c>   1</c></rc>
    <rc><c>C </c><c>   1</c></rc>
    <rc><c>C </c><c>   1</c></rc>
    <rc><c>C </c><c>   1</c></rc>
    <rc><c>C </c><c>   1</c></rc>
    <rc><c>C </c><c>   1</c></rc>
    <rc><c>C </c><c>   1</c></rc>
    <rc><c>C </c><c>   1</c></rc>
    <rc><c>C </c><c>   1</c></rc>
    <rc><c>C </c><c>   1</c></rc>
    <rc><c>C </c><c>   1</c></rc>
    <rc><c>C </c><c>   1</c></rc>
    <rc><c>C </c><c>   1</c></rc>
    <rc><c>C </c><c>   1</c></rc>
    <rc><c>C </c><c>   1</c></rc>
    <rc><c>C </c><c>   1</c></rc>
    <rc><c>C </c><c>   1</c></rc>
    <rc><c>C </c><c>   1</c></rc>
    <rc><c>C </c><c>   1</c></rc>
    <rc><c>C </c><c>   1</c></rc>
    <rc><c>C </c><c>   1</c></rc>
    <rc><c>C </c><c>   1</c></rc>
    <rc><c>C </c><c>   1</c></rc>
    <rc><c>C </c><c>   1</c></rc>
    <rc><c>C </c><c>   1</c></rc>
    <rc><c>C </c><c>   1</c></rc>
    <rc><c>C </c><c>   1</c></rc>
    <rc><c>C </c><c>   1</c></rc>
    <rc><c>C </c><c>   1</c></rc>
    <rc><c>C </c><c>   1</c></rc>
    <rc><c>C </c><c>   1</c></rc>
    <rc><c>C </c><c>   1</c></rc>
    <rc><c>C </c><c>   1</c></rc>
    <rc><c>C </c><c>   1</c></rc>
    <rc><c>C </c><c>   1</c></rc>
    <rc><c>C </c><c>   1</c></rc>
    <rc><c>C </c><c>   1</c></rc>
    <rc><c>C </c><c>   1</c></rc>
    <rc><c>C </c><c>   1</c></rc>
    <rc><c>C </c><c>   1</c></rc>
    <rc><c>C </c><c>   1</c></rc>
    <rc><c>C </c><c>   1</c></rc>
    <rc><c>C </c><c>   1</c></rc>
    <rc><c>C </c><c>   1</c></rc>
    <rc><c>C </c><c>   1</c></rc>
    <rc><c>C </c><c>   1</c></rc>
    <rc><c>C </c><c>   1</c></rc>
    <rc><c>C </c><c>   1</c></rc>
    <rc><c>C </c><c>   1</c></rc>
    <rc><c>C </c><c>   1</c></rc>
    <rc><c>C </c><c>   1</c></rc>
    <rc><c>C </c><c>   1</c></rc>
    <rc><c>C </c><c>   1</c></rc>
    <rc><c>C </c><c>   1</c></rc>
    <rc><c>C </c><c>   1</c></rc>
    <rc><c>C </c><c>   1</c></rc>
    <rc><c>C </c><c>   1</c></rc>
    <rc><c>C </c><c>   1</c></rc>
    <rc><c>C </c><c>   1</c></rc>
    <rc><c>C </c><c>   1</c></rc>
    <rc><c>C </c><c>   1</c></rc>
    <rc><c>C </c><c>   1</c></rc>
    <rc><c>C </c><c>   1</c></rc>
    <rc><c>C </c><c>   1</c></rc>
    <rc><c>C </c><c>   1</c></rc>
    <rc><c>C </c><c>   1</c></rc>
    <rc><c>C </c><c>   1</c></rc>
    <rc><c>C </c><c>   1</c></rc>
    <rc><c>C </c><c>   1</c></rc>
    <rc><c>C </c><c>   1</c></rc>
    <rc><c>C </c><c>   1</c></rc>
    <rc><c>C </c><c>   1</c></rc>
    <rc><c>H </c><c>   2</c></rc>
    <rc><c>H </c><c>   2</c></rc>
    <rc><c>H </c><c>   2</c></rc>
    <rc><c>H </c><c>   2</c></rc>
    <rc><c>H </c><c>   2</c></rc>
    <rc><c>H </c><c>   2</c></rc>
    <rc><c>H </c><c>   2</c></rc>
    <rc><c>H </c><c>   2</c></rc>
    <rc><c>F </c><c>   3</c></rc>
    <rc><c>F </c><c>   3</c></rc>
    <rc><c>O </c><c>   4</c></rc>
   </set>
  </array>
  <array name="atomtypes" >
   <dimension dim="1">type</dimension>
   <field type="int">atomspertype</field>
   <field type="string">element</field>
   <field>mass</field>
   <field>valence</field>
   <field type="string">pseudopotential</field>
   <set>
    <rc><c>  88</c><c>C </c><c>     12.01100000</c><c>      4.00000000</c><c>  PAW_PBE C 08Apr2002                   </c></rc>
    <rc><c>   8</c><c>H </c><c>      1.00000000</c><c>      1.00000000</c><c>  PAW_PBE H 15Jun2001                   </c></rc>
    <rc><c>   2</c><c>F </c><c>     18.99800000</c><c>      7.00000000</c><c>  PAW_PBE F 08Apr2002                   </c></rc>
    <rc><c>   1</c><c>O </c><c>     16.00000000</c><c>      6.00000000</c><c>  PAW_PBE O 08Apr2002                   </c></rc>
   </set>
  </array>
 </atominfo>
 <structure name="initialpos" >
  <crystal>
   <varray name="basis" >
    <v>      17.27103806       0.00000000       0.00000000 </v>
    <v>      -8.63551903      14.95715771       0.00000000 </v>
    <v>       0.00000000       0.00000000      15.00000000 </v>
   </varray>
   <i name="volume">   3874.88459904 </i>
   <varray name="rec_basis" >
    <v>       0.05790040       0.03342881       0.00000000 </v>
    <v>       0.00000000       0.06685762       0.00000000 </v>
    <v>       0.00000000       0.00000000       0.06666667 </v>
   </varray>
  </crystal>
  <varray name="positions" >
   <v>       0.00112518       0.00131471       0.50331740 </v>
   <v>       0.00050294       0.14378942       0.50278865 </v>
   <v>       0.00028982       0.28659384       0.50254313 </v>
   <v>       0.00076625       0.42969268       0.50360698 </v>
   <v>       0.00158458       0.57279197       0.50414885 </v>
   <v>       0.00270094       0.71613010       0.50466437 </v>
   <v>       0.00239305       0.85928110       0.50436568 </v>
   <v>       0.14430564       0.00181607       0.49719650 </v>
   <v>       0.14348023       0.14414116       0.49255017 </v>
   <v>       0.14197687       0.28589270       0.48776290 </v>
   <v>       0.14233881       0.42922069       0.48985846 </v>
   <v>       0.14386609       0.57241230       0.49536896 </v>
   <v>       0.14456622       0.71564043       0.49912499 </v>
   <v>       0.14463106       0.85887771       0.50044342 </v>
   <v>       0.28675645       0.00144553       0.49505441 </v>
   <v>       0.28624339       0.14388793       0.48369059 </v>
   <v>       0.28408196       0.28572230       0.46360904 </v>
   <v>       0.27989787       0.42732730       0.45522915 </v>
   <v>       0.28538965       0.57102803       0.47297238 </v>
   <v>       0.28655632       0.71554299       0.48943231 </v>
   <v>       0.28680679       0.85871547       0.49658807 </v>
   <v>       0.42957793       0.00158296       0.49644240 </v>
   <v>       0.42929271       0.14412084       0.49092582 </v>
   <v>       0.42748978       0.28348411       0.47555509 </v>
   <v>       0.42749721       0.71711218       0.48383745 </v>
   <v>       0.42923415       0.85865115       0.49366107 </v>
   <v>       0.57213603       0.00194632       0.49955005 </v>
   <v>       0.57217583       0.14421986       0.49849886 </v>
   <v>       0.57288508       0.28757920       0.49464502 </v>
   <v>       0.57280775       0.85984922       0.49622331 </v>
   <v>       0.71502121       0.00142040       0.50382844 </v>
   <v>       0.71511814       0.14425750       0.50438779 </v>
   <v>       0.71503756       0.28694630       0.50306067 </v>
   <v>       0.71482282       0.42894590       0.50192636 </v>
   <v>       0.71959819       0.57455279       0.50248035 </v>
   <v>       0.72231484       0.71767764       0.50347966 </v>
   <v>       0.71408942       0.85861048       0.50211390 </v>
   <v>       0.85798281       0.00127132       0.50586296 </v>
   <v>       0.85769704       0.14395768       0.50656675 </v>
   <v>       0.85776876       0.28677563       0.50648146 </v>
   <v>       0.85832704       0.42973867       0.50562293 </v>
   <v>       0.85948487       0.57318535       0.50535235 </v>
   <v>       0.86144599       0.71686030       0.50557722 </v>
   <v>       0.85884284       0.85845776       0.50511608 </v>
   <v>       0.04854173       0.09656589       0.50053466 </v>
   <v>       0.04744916       0.23864402       0.49904830 </v>
   <v>       0.04761375       0.38171839       0.50003558 </v>
   <v>       0.04894302       0.52500909       0.50181197 </v>
   <v>       0.04955264       0.66815663       0.50301169 </v>
   <v>       0.04965232       0.81132214       0.50348106 </v>
   <v>       0.04923577       0.95414341       0.50205703 </v>
   <v>       0.19128802       0.09644497       0.49056024 </v>
   <v>       0.18989937       0.23878859       0.48305847 </v>
   <v>       0.18782035       0.38043546       0.47975243 </v>
   <v>       0.19057166       0.52438916       0.48706908 </v>
   <v>       0.19159104       0.66794764       0.49422481 </v>
   <v>       0.19196894       0.81111734       0.49871124 </v>
   <v>       0.19188871       0.95398182       0.49746871 </v>
   <v>       0.33417024       0.09677050       0.48989557 </v>
   <v>       0.33421690       0.23865150       0.47166266 </v>
   <v>       0.32019423       0.37493731       0.43931955 </v>
   <v>       0.32651144       0.52167729       0.45093394 </v>
   <v>       0.33449465       0.66836645       0.48111821 </v>
   <v>       0.33422625       0.81075842       0.49334798 </v>
   <v>       0.33424414       0.95383819       0.49636301 </v>
   <v>       0.47705078       0.09661917       0.49576946 </v>
   <v>       0.47607504       0.23913995       0.48733880 </v>
   <v>       0.47614798       0.81053965       0.49117598 </v>
   <v>       0.47703277       0.95405095       0.49691152 </v>
   <v>       0.61972044       0.09682068       0.50125073 </v>
   <v>       0.61990989       0.23946781       0.49889521 </v>
   <v>       0.62172744       0.38091381       0.49776200 </v>
   <v>       0.62117648       0.81523085       0.49728823 </v>
   <v>       0.61988851       0.95456633       0.50027863 </v>
   <v>       0.76269524       0.09671819       0.50562574 </v>
   <v>       0.76270107       0.23923594       0.50529082 </v>
   <v>       0.76301977       0.38202158       0.50382035 </v>
   <v>       0.76384019       0.52618475       0.50362404 </v>
   <v>       0.76657536       0.66835258       0.50414898 </v>
   <v>       0.76263780       0.81008703       0.50374584 </v>
   <v>       0.76276876       0.95395482       0.50452572 </v>
   <v>       0.90529664       0.09611223       0.50598396 </v>
   <v>       0.90521351       0.23908115       0.50619513 </v>
   <v>       0.90553838       0.38218155       0.50603258 </v>
   <v>       0.90649420       0.52526850       0.50551853 </v>
   <v>       0.90764508       0.66838416       0.50566133 </v>
   <v>       0.90726080       0.81167650       0.50558493 </v>
   <v>       0.90586360       0.95354284       0.50521718 </v>
   <v>       0.46368523       0.35568123       0.47191184 </v>
   <v>       0.39648228       0.55618036       0.43097940 </v>
   <v>       0.64715721       0.54041804       0.49976507 </v>
   <v>       0.58547743       0.41723683       0.49792112 </v>
   <v>       0.58415892       0.74349180       0.49415455 </v>
   <v>       0.46340426       0.68041143       0.48178553 </v>
   <v>       0.54048393       0.55032838       0.56291425 </v>
   <v>       0.47133411       0.49809803       0.48936932 </v>
   <v>       0.40237787       0.41875618       0.39800764 </v>
   <v>       0.63068485       0.66557942       0.50219279 </v>
   <v>       0.50780935       0.49193234       0.53488800 </v>
  </varray>
  <varray name="selective"  type="logical" >
   <v type="logical" >  T  T  T </v>
   <v type="logical" >  T  T  T </v>
   <v type="logical" >  T  T  T </v>
   <v type="logical" >  T  T  T </v>
   <v type="logical" >  T  T  T </v>
   <v type="logical" >  T  T  T </v>
   <v type="logical" >  T  T  T </v>
   <v type="logical" >  T  T  T </v>
   <v type="logical" >  T  T  T </v>
   <v type="logical" >  T  T  T </v>
   <v type="logical" >  T  T  T </v>
   <v type="logical" >  T  T  T </v>
   <v type="logical" >  T  T  T </v>
   <v type="logical" >  T  T  T </v>
   <v type="logical" >  T  T  T </v>
   <v type="logical" >  T  T  T </v>
   <v type="logical" >  T  T  T </v>
   <v type="logical" >  T  T  T </v>
   <v type="logical" >  T  T  T </v>
   <v type="logical" >  T  T  T </v>
   <v type="logical" >  T  T  T </v>
   <v type="logical" >  T  T  T </v>
   <v type="logical" >  T  T  T </v>
   <v type="logical" >  T  T  T </v>
   <v type="logical" >  T  T  T </v>
   <v type="logical" >  T  T  T </v>
   <v type="logical" >  T  T  T </v>
   <v type="logical" >  T  T  T </v>
   <v type="logical" >  T  T  T </v>
   <v type="logical" >  T  T  T </v>
   <v type="logical" >  T  T  T </v>
   <v type="logical" >  T  T  T </v>
   <v type="logical" >  T  T  T </v>
   <v type="logical" >  T  T  T </v>
   <v type="logical" >  T  T  T </v>
   <v type="logical" >  T  T  T </v>
   <v type="logical" >  T  T  T </v>
   <v type="logical" >  T  T  T </v>
   <v type="logical" >  T  T  T </v>
   <v type="logical" >  T  T  T </v>
   <v type="logical" >  T  T  T </v>
   <v type="logical" >  T  T  T </v>
   <v type="logical" >  T  T  T </v>
   <v type="logical" >  T  T  T </v>
   <v type="logical" >  T  T  T </v>
   <v type="logical" >  T  T  T </v>
   <v type="logical" >  T  T  T </v>
   <v type="logical" >  T  T  T </v>
   <v type="logical" >  T  T  T </v>
   <v type="logical" >  T  T  T </v>
   <v type="logical" >  T  T  T </v>
   <v type="logical" >  T  T  T </v>
   <v type="logical" >  T  T  T </v>
   <v type="logical" >  T  T  T </v>
   <v type="logical" >  T  T  T </v>
   <v type="logical" >  T  T  T </v>
   <v type="logical" >  T  T  T </v>
   <v type="logical" >  T  T  T </v>
   <v type="logical" >  T  T  T </v>
   <v type="logical" >  T  T  T </v>
   <v type="logical" >  T  T  T </v>
   <v type="logical" >  T  T  T </v>
   <v type="logical" >  T  T  T </v>
   <v type="logical" >  T  T  T </v>
   <v type="logical" >  T  T  T </v>
   <v type="logical" >  T  T  T </v>
   <v type="logical" >  T  T  T </v>
   <v type="logical" >  T  T  T </v>
   <v type="logical" >  T  T  T </v>
   <v type="logical" >  T  T  T </v>
   <v type="logical" >  T  T  T </v>
   <v type="logical" >  T  T  T </v>
   <v type="logical" >  T  T  T </v>
   <v type="logical" >  T  T  T </v>
   <v type="logical" >  T  T  T </v>
   <v type="logical" >  T  T  T </v>
   <v type="logical" >  T  T  T </v>
   <v type="logical" >  T  T  T </v>
   <v type="logical" >  T  T  T </v>
   <v type="logical" >  T  T  T </v>
   <v type="logical" >  T  T  T </v>
   <v type="logical" >  T  T  T </v>
   <v type="logical" >  T  T  T </v>
   <v type="logical" >  T  T  T </v>
   <v type="logical" >  T  T  T </v>
   <v type="logical" >  T  T  T </v>
   <v type="logical" >  T  T  T </v>
   <v type="logical" >  T  T  T </v>
   <v type="logical" >  T  T  T </v>
   <v type="logical" >  T  T  T </v>
   <v type="logical" >  T  T  T </v>
   <v type="logical" >  T  T  T </v>
   <v type="logical" >  T  T  T </v>
   <v type="logical" >  T  T  T </v>
   <v type="logical" >  T  T  T </v>
   <v type="logical" >  T  T  T </v>
   <v type="logical" >  T  T  T </v>
   <v type="logical" >  T  T  T </v>
   <v type="logical" >  T  T  F </v>
  </varray>
  <nose>
   <v>      -3.00000000       0.00000000       0.00010000       0.00010000 </v>
  </nose>
 </structure>
 <calculation>
  <scstep>
   <time name="dav">   64.35   64.76</time>
   <time name="total">   69.21   69.71</time>
   <energy>
    <i name="alphaZ">    186.33367753 </i>
    <i name="ewald">  37881.80826576 </i>
    <i name="hartreedc"> -49036.79423143 </i>
    <i name="XCdc">   1280.45979092 </i>
    <i name="pawpsdc">  10991.97733137 </i>
    <i name="pawaedc"> -11054.15789429 </i>
    <i name="eentropy">     -0.04365106 </i>
    <i name="bandstr">  -1486.54990338 </i>
    <i name="atom">  14800.58670786 </i>
    <i name="e_fr_energy">   3563.62009329 </i>
    <i name="e_wo_entrp">   3563.66374435 </i>
    <i name="e_0_energy">   3563.64191882 </i>
   </energy>
  </scstep>
  <scstep>
   <time name="dav">   80.88   81.42</time>
   <time name="total">   80.88   81.44</time>
   <energy>
    <i name="e_fr_energy">   -199.69199396 </i>
    <i name="e_wo_entrp">   -199.69093870 </i>
    <i name="e_0_energy">   -199.69146633 </i>
   </energy>
  </scstep>
  <scstep>
   <time name="dav">   69.49   69.95</time>
   <time name="total">   69.49   69.96</time>
   <energy>
    <i name="e_fr_energy">   -886.94941347 </i>
    <i name="e_wo_entrp">   -886.94941286 </i>
    <i name="e_0_energy">   -886.94941316 </i>
   </energy>
  </scstep>
  <scstep>
   <time name="dav">   69.09   69.56</time>
   <time name="total">   69.09   69.58</time>
   <energy>
    <i name="e_fr_energy">   -912.41952074 </i>
    <i name="e_wo_entrp">   -912.41952072 </i>
    <i name="e_0_energy">   -912.41952073 </i>
   </energy>
  </scstep>
  <scstep>
   <time name="dav">   77.31   77.85</time>
   <time name="total">   82.97   83.57</time>
   <energy>
    <i name="e_fr_energy">   -913.20324553 </i>
    <i name="e_wo_entrp">   -913.20324551 </i>
    <i name="e_0_energy">   -913.20324552 </i>
   </energy>
  </scstep>
  <scstep>
   <time name="dav">   66.53   66.93</time>
   <time name="total">   77.17   77.66</time>
   <energy>
    <i name="e_fr_energy">   -880.08667905 </i>
    <i name="e_wo_entrp">   -880.08667903 </i>
    <i name="e_0_energy">   -880.08667904 </i>
   </energy>
  </scstep>
  <scstep>
   <time name="dav">   65.02   65.42</time>
   <time name="total">   75.75   76.28</time>
   <energy>
    <i name="e_fr_energy">   -851.91883334 </i>
    <i name="e_wo_entrp">   -851.91883330 </i>
    <i name="e_0_energy">   -851.91883332 </i>
   </energy>
  </scstep>
  <scstep>
   <time name="dav">   68.24   68.69</time>
   <time name="total">   79.36   79.94</time>
   <energy>
    <i name="e_fr_energy">   -851.61556243 </i>
    <i name="e_wo_entrp">   -851.61556238 </i>
    <i name="e_0_energy">   -851.61556240 </i>
   </energy>
  </scstep>
  <scstep>
   <time name="dav">   66.77   67.20</time>
   <time name="total">   77.77   78.30</time>
   <energy>
    <i name="e_fr_energy">   -851.69152916 </i>
    <i name="e_wo_entrp">   -851.69152911 </i>
    <i name="e_0_energy">   -851.69152913 </i>
   </energy>
  </scstep>
  <scstep>
   <time name="dav">   68.10   68.52</time>
   <time name="total">   78.96   79.49</time>
   <energy>
    <i name="e_fr_energy">   -851.56456997 </i>
    <i name="e_wo_entrp">   -851.56456994 </i>
    <i name="e_0_energy">   -851.56456996 </i>
   </energy>
  </scstep>
  <scstep>
   <time name="dav">   67.30   67.75</time>
   <time name="total">   78.27   78.81</time>
   <energy>
    <i name="e_fr_energy">   -851.54732206 </i>
    <i name="e_wo_entrp">   -851.54732202 </i>
    <i name="e_0_energy">   -851.54732204 </i>
   </energy>
  </scstep>
  <scstep>
   <time name="dav">   66.49   66.92</time>
   <time name="total">   77.29   77.81</time>
   <energy>
    <i name="e_fr_energy">   -851.54582795 </i>
    <i name="e_wo_entrp">   -851.54582791 </i>
    <i name="e_0_energy">   -851.54582793 </i>
   </energy>
  </scstep>
  <scstep>
   <time name="dav">   68.48   68.89</time>
   <time name="total">   79.33   79.84</time>
   <energy>
    <i name="e_fr_energy">   -851.54589098 </i>
    <i name="e_wo_entrp">   -851.54589094 </i>
    <i name="e_0_energy">   -851.54589096 </i>
   </energy>
  </scstep>
  <scstep>
   <time name="dav">   65.95   66.35</time>
   <time name="total">   76.63   77.14</time>
   <energy>
    <i name="e_fr_energy">   -851.54587920 </i>
    <i name="e_wo_entrp">   -851.54587916 </i>
    <i name="e_0_energy">   -851.54587918 </i>
   </energy>
  </scstep>
  <scstep>
   <time name="dav">   69.76   70.18</time>
   <time name="total">   80.85   81.37</time>
   <energy>
    <i name="e_fr_energy">   -851.54588205 </i>
    <i name="e_wo_entrp">   -851.54588201 </i>
    <i name="e_0_energy">   -851.54588203 </i>
   </energy>
  </scstep>
  <scstep>
   <time name="dav">   67.05   67.46</time>
   <time name="total">   78.27   78.77</time>
   <energy>
    <i name="e_fr_energy">   -851.54591509 </i>
    <i name="e_wo_entrp">   -851.54591505 </i>
    <i name="e_0_energy">   -851.54591507 </i>
   </energy>
  </scstep>
  <scstep>
   <time name="dav">   74.23   74.69</time>
   <time name="total">   85.56   86.12</time>
   <energy>
    <i name="e_fr_energy">   -851.54590424 </i>
    <i name="e_wo_entrp">   -851.54590420 </i>
    <i name="e_0_energy">   -851.54590422 </i>
   </energy>
  </scstep>
  <scstep>
   <time name="dav">   67.15   67.55</time>
   <time name="total">   78.18   78.70</time>
   <energy>
    <i name="e_fr_energy">   -851.54590685 </i>
    <i name="e_wo_entrp">   -851.54590681 </i>
    <i name="e_0_energy">   -851.54590683 </i>
   </energy>
  </scstep>
  <scstep>
   <time name="dav">   58.16   58.50</time>
   <time name="total">   63.38   63.79</time>
   <energy>
    <i name="alphaZ">    186.33367753 </i>
    <i name="ewald">  37881.80826576 </i>
    <i name="hartreedc"> -50568.06908711 </i>
    <i name="XCdc">   1337.74520339 </i>
    <i name="pawpsdc">  38563.39129722 </i>
    <i name="pawaedc"> -38636.38799713 </i>
    <i name="eentropy">     -0.00000004 </i>
    <i name="bandstr">  -4416.95397392 </i>
    <i name="atom">  14800.58670786 </i>
    <i name="e_fr_energy">   -851.54590642 </i>
    <i name="e_wo_entrp">   -851.54590638 </i>
    <i name="e_0_energy">   -851.54590640 </i>
   </energy>
  </scstep>
  <structure>
   <crystal>
    <varray name="basis" >
     <v>      17.27103806       0.00000000       0.00000000 </v>
     <v>      -8.63551903      14.95715771       0.00000000 </v>
     <v>       0.00000000       0.00000000      15.00000000 </v>
    </varray>
    <i name="volume">   3874.88459904 </i>
    <varray name="rec_basis" >
     <v>       0.05790040       0.03342881       0.00000000 </v>
     <v>       0.00000000       0.06685762       0.00000000 </v>
     <v>       0.00000000       0.00000000       0.06666667 </v>
    </varray>
   </crystal>
   <varray name="positions" >
    <v>       0.00112518       0.00131471       0.50331740 </v>
    <v>       0.00050294       0.14378942       0.50278865 </v>
    <v>       0.00028982       0.28659384       0.50254313 </v>
    <v>       0.00076625       0.42969268       0.50360698 </v>
    <v>       0.00158458       0.57279197       0.50414885 </v>
    <v>       0.00270094       0.71613010       0.50466437 </v>
    <v>       0.00239305       0.85928110       0.50436568 </v>
    <v>       0.14430564       0.00181607       0.49719650 </v>
    <v>       0.14348023       0.14414116       0.49255017 </v>
    <v>       0.14197687       0.28589270       0.48776290 </v>
    <v>       0.14233881       0.42922069       0.48985846 </v>
    <v>       0.14386609       0.57241230       0.49536896 </v>
    <v>       0.14456622       0.71564043       0.49912499 </v>
    <v>       0.14463106       0.85887771       0.50044342 </v>
    <v>       0.28675645       0.00144553       0.49505441 </v>
    <v>       0.28624339       0.14388793       0.48369059 </v>
    <v>       0.28408196       0.28572230       0.46360904 </v>
    <v>       0.27989787       0.42732730       0.45522915 </v>
    <v>       0.28538965       0.57102803       0.47297238 </v>
    <v>       0.28655632       0.71554299       0.48943231 </v>
    <v>       0.28680679       0.85871547       0.49658807 </v>
    <v>       0.42957793       0.00158296       0.49644240 </v>
    <v>       0.42929271       0.14412084       0.49092582 </v>
    <v>       0.42748978       0.28348411       0.47555509 </v>
    <v>       0.42749721       0.71711218       0.48383745 </v>
    <v>       0.42923415       0.85865115       0.49366107 </v>
    <v>       0.57213603       0.00194632       0.49955005 </v>
    <v>       0.57217583       0.14421986       0.49849886 </v>
    <v>       0.57288508       0.28757920       0.49464502 </v>
    <v>       0.57280775       0.85984922       0.49622331 </v>
    <v>       0.71502121       0.00142040       0.50382844 </v>
    <v>       0.71511814       0.14425750       0.50438779 </v>
    <v>       0.71503756       0.28694630       0.50306067 </v>
    <v>       0.71482282       0.42894590       0.50192636 </v>
    <v>       0.71959819       0.57455279       0.50248035 </v>
    <v>       0.72231484       0.71767764       0.50347966 </v>
    <v>       0.71408942       0.85861048       0.50211390 </v>
    <v>       0.85798281       0.00127132       0.50586296 </v>
    <v>       0.85769704       0.14395768       0.50656675 </v>
    <v>       0.85776876       0.28677563       0.50648146 </v>
    <v>       0.85832704       0.42973867       0.50562293 </v>
    <v>       0.85948487       0.57318535       0.50535235 </v>
    <v>       0.86144599       0.71686030       0.50557722 </v>
    <v>       0.85884284       0.85845776       0.50511608 </v>
    <v>       0.04854173       0.09656589       0.50053466 </v>
    <v>       0.04744916       0.23864402       0.49904830 </v>
    <v>       0.04761375       0.38171839       0.50003558 </v>
    <v>       0.04894302       0.52500909       0.50181197 </v>
    <v>       0.04955264       0.66815663       0.50301169 </v>
    <v>       0.04965232       0.81132214       0.50348106 </v>
    <v>       0.04923577       0.95414341       0.50205703 </v>
    <v>       0.19128802       0.09644497       0.49056024 </v>
    <v>       0.18989937       0.23878859       0.48305847 </v>
    <v>       0.18782035       0.38043546       0.47975243 </v>
    <v>       0.19057166       0.52438916       0.48706908 </v>
    <v>       0.19159104       0.66794764       0.49422481 </v>
    <v>       0.19196894       0.81111734       0.49871124 </v>
    <v>       0.19188871       0.95398182       0.49746871 </v>
    <v>       0.33417024       0.09677050       0.48989557 </v>
    <v>       0.33421690       0.23865150       0.47166266 </v>
    <v>       0.32019423       0.37493731       0.43931955 </v>
    <v>       0.32651144       0.52167729       0.45093394 </v>
    <v>       0.33449465       0.66836645       0.48111821 </v>
    <v>       0.33422625       0.81075842       0.49334798 </v>
    <v>       0.33424414       0.95383819       0.49636301 </v>
    <v>       0.47705078       0.09661917       0.49576946 </v>
    <v>       0.47607504       0.23913995       0.48733880 </v>
    <v>       0.47614798       0.81053965       0.49117598 </v>
    <v>       0.47703277       0.95405095       0.49691152 </v>
    <v>       0.61972044       0.09682068       0.50125073 </v>
    <v>       0.61990989       0.23946781       0.49889521 </v>
    <v>       0.62172744       0.38091381       0.49776200 </v>
    <v>       0.62117648       0.81523085       0.49728823 </v>
    <v>       0.61988851       0.95456633       0.50027863 </v>
    <v>       0.76269524       0.09671819       0.50562574 </v>
    <v>       0.76270107       0.23923594       0.50529082 </v>
    <v>       0.76301977       0.38202158       0.50382035 </v>
    <v>       0.76384019       0.52618475       0.50362404 </v>
    <v>       0.76657536       0.66835258       0.50414898 </v>
    <v>       0.76263780       0.81008703       0.50374584 </v>
    <v>       0.76276876       0.95395482       0.50452572 </v>
    <v>       0.90529664       0.09611223       0.50598396 </v>
    <v>       0.90521351       0.23908115       0.50619513 </v>
    <v>       0.90553838       0.38218155       0.50603258 </v>
    <v>       0.90649420       0.52526850       0.50551853 </v>
    <v>       0.90764508       0.66838416       0.50566133 </v>
    <v>       0.90726080       0.81167650       0.50558493 </v>
    <v>       0.90586360       0.95354284       0.50521718 </v>
    <v>       0.46368523       0.35568123       0.47191184 </v>
    <v>       0.39648228       0.55618036       0.43097940 </v>
    <v>       0.64715721       0.54041804       0.49976507 </v>
    <v>       0.58547743       0.41723683       0.49792112 </v>
    <v>       0.58415892       0.74349180       0.49415455 </v>
    <v>       0.46340426       0.68041143       0.48178553 </v>
    <v>       0.54048393       0.55032838       0.56291425 </v>
    <v>       0.47133411       0.49809803       0.48936932 </v>
    <v>       0.40237787       0.41875618       0.39800764 </v>
    <v>       0.63068485       0.66557942       0.50219279 </v>
    <v>       0.50780935       0.49193234       0.53488800 </v>
   </varray>
  </structure>
  <varray name="forces" >
   <v>      -0.00679526       0.00140706      -0.00109137 </v>
   <v>      -0.00165055      -0.00646125      -0.00295009 </v>
   <v>       0.00668576      -0.00731123      -0.00394141 </v>
   <v>       0.00321839      -0.00717974      -0.00084001 </v>
   <v>       0.00045831       0.00390013       0.00290354 </v>
   <v>      -0.00594805       0.00970215       0.00430284 </v>
   <v>      -0.00757305       0.01083521       0.00250811 </v>
   <v>      -0.00486676       0.00334516      -0.00157632 </v>
   <v>      -0.00067305      -0.00011685      -0.00782168 </v>
   <v>       0.00360536       0.00025667      -0.01078842 </v>
   <v>       0.00576998      -0.00222069      -0.00859545 </v>
   <v>       0.00571860       0.00094443      -0.00328273 </v>
   <v>       0.00141557       0.00581453      -0.00033121 </v>
   <v>      -0.00519257       0.00924827       0.00059889 </v>
   <v>      -0.00380072       0.00305249      -0.00455770 </v>
   <v>      -0.00207627       0.00094358      -0.00634208 </v>
   <v>       0.00315435       0.00504859      -0.01363684 </v>
   <v>       0.00130855      -0.00111533      -0.01334527 </v>
   <v>       0.00415649      -0.00062478      -0.01198825 </v>
   <v>       0.00401931       0.00049226      -0.00694946 </v>
   <v>      -0.00110187       0.00300660      -0.00228836 </v>
   <v>      -0.00071084       0.00221157      -0.00451487 </v>
   <v>      -0.00212987       0.00245625      -0.00739239 </v>
   <v>      -0.00071070       0.00110656      -0.01158362 </v>
   <v>       0.00417434       0.00002092      -0.00872967 </v>
   <v>       0.00281623       0.00045095      -0.00638102 </v>
   <v>       0.00339968      -0.00280168      -0.00292322 </v>
   <v>      -0.00150536      -0.00001264      -0.00483373 </v>
   <v>      -0.00672729       0.00035920      -0.00564273 </v>
   <v>       0.00536197      -0.00385464      -0.00507814 </v>
   <v>       0.00520517      -0.00509076      -0.00109865 </v>
   <v>      -0.00009415      -0.00690562      -0.00081134 </v>
   <v>      -0.00656677      -0.00194977      -0.00227322 </v>
   <v>      -0.00965065      -0.00283076      -0.00168589 </v>
   <v>      -0.01245694       0.00492316      -0.00656481 </v>
   <v>      -0.00883972       0.00887866      -0.00583219 </v>
   <v>       0.00341938       0.00129978      -0.00204764 </v>
   <v>      -0.00057718      -0.00695395      -0.00056154 </v>
   <v>       0.00172574      -0.00948660       0.00015667 </v>
   <v>       0.00185052      -0.01061315      -0.00027444 </v>
   <v>      -0.00398573      -0.00327519       0.00170063 </v>
   <v>      -0.00791469       0.00262633       0.00224531 </v>
   <v>      -0.01824012       0.00959114      -0.00079345 </v>
   <v>      -0.00855434       0.00411760      -0.00095399 </v>
   <v>       0.00093803       0.00445750      -0.00383287 </v>
   <v>      -0.00615599       0.00650799      -0.00532227 </v>
   <v>      -0.00895148       0.00835470      -0.00393822 </v>
   <v>      -0.00284785       0.00073306       0.00060894 </v>
   <v>       0.00360305      -0.01100865       0.00296146 </v>
   <v>       0.00484834      -0.00900032       0.00324705 </v>
   <v>       0.00669314      -0.00680929       0.00118898 </v>
   <v>       0.00166000      -0.00064694      -0.00641383 </v>
   <v>      -0.00519558       0.00239244      -0.01032551 </v>
   <v>      -0.00671244      -0.00080736      -0.00903423 </v>
   <v>      -0.00634088       0.00127003      -0.00677192 </v>
   <v>      -0.00308000      -0.00143534      -0.00318716 </v>
   <v>       0.00609426      -0.00744833      -0.00093014 </v>
   <v>       0.00374343      -0.00495109      -0.00158148 </v>
   <v>       0.00163178      -0.00172073      -0.00649625 </v>
   <v>      -0.00046896      -0.00005346      -0.00948154 </v>
   <v>       0.00038513       0.00218947      -0.01432808 </v>
   <v>      -0.00494475       0.00061686      -0.01329232 </v>
   <v>      -0.00653082      -0.00000031      -0.00801178 </v>
   <v>      -0.00355345      -0.00097229      -0.00421140 </v>
   <v>       0.00503540      -0.00390387      -0.00326609 </v>
   <v>       0.00131940      -0.00138387      -0.00577482 </v>
   <v>       0.00212945      -0.00185876      -0.00874939 </v>
   <v>      -0.00468121       0.00312322      -0.00725379 </v>
   <v>      -0.00234301       0.00055104      -0.00361520 </v>
   <v>       0.00075205       0.00262812      -0.00225737 </v>
   <v>       0.00879571       0.00012200      -0.00292114 </v>
   <v>       0.00820442       0.00098010      -0.00313758 </v>
   <v>      -0.00723632      -0.00063450      -0.00324541 </v>
   <v>      -0.00637616       0.00530030      -0.00364016 </v>
   <v>      -0.00236724       0.00698560      -0.00046178 </v>
   <v>       0.00386553       0.00479407       0.00123298 </v>
   <v>       0.00671286       0.00240659       0.00030867 </v>
   <v>       0.01316282      -0.00039247      -0.00186969 </v>
   <v>       0.01772758      -0.00753929      -0.00424127 </v>
   <v>       0.00238431      -0.00699013      -0.00249580 </v>
   <v>      -0.00407692       0.00328466      -0.00059560 </v>
   <v>       0.00332432       0.01305355      -0.00198623 </v>
   <v>      -0.00556461       0.01176760      -0.00196876 </v>
   <v>       0.00276841       0.00897218       0.00043361 </v>
   <v>       0.00337599       0.00031193       0.00350969 </v>
   <v>       0.01292777      -0.00891811       0.00166886 </v>
   <v>       0.00986640      -0.01162650       0.00035421 </v>
   <v>       0.00438373       0.00180465       0.00022020 </v>
   <v>       0.00030107      -0.00136797      -0.01315956 </v>
   <v>      -0.00198900       0.00123280      -0.01394974 </v>
   <v>       0.00198126       0.00116488      -0.00591278 </v>
   <v>      -0.00181873       0.00028155      -0.00147230 </v>
   <v>      -0.00034299      -0.00006682      -0.00074537 </v>
   <v>      -0.00327713       0.00237815      -0.01308005 </v>
   <v>      -0.01837338      -0.03309177       0.03575465 </v>
   <v>       0.05279493       0.02361212      -0.05348624 </v>
   <v>      -0.00123334       0.00798883      -0.01850960 </v>
   <v>      -0.00420224      -0.00643816      -0.01310974 </v>
   <v>      -0.01186726      -0.01743430       0.41246233 </v>
  </varray>
  <varray name="stress" >
   <v>       4.66530020       0.77939207      -0.01427971 </v>
   <v>       0.77938857       2.80477128      -0.02392240 </v>
   <v>      -0.01427933      -0.02392258      -0.16205571 </v>
  </varray>
  <energy>
   <i name="e_fr_energy">   -859.45775139 </i>
   <i name="e_wo_entrp">   -859.45775135 </i>
   <i name="e_0_energy">   -859.45775137 </i>
  </energy>
  <time name="totalsc"> 1687.90 1699.29</time>
 </calculation>
 <calculation>
  <scstep>
   <time name="dav">   62.68   63.08</time>
   <time name="total">   73.67   74.15</time>
   <energy>
    <i name="alphaZ">    186.33367753 </i>
    <i name="ewald">  37881.61096510 </i>
    <i name="hartreedc"> -50567.86687621 </i>
    <i name="XCdc">   1337.74426164 </i>
    <i name="pawpsdc">  38563.73527229 </i>
    <i name="pawaedc"> -38636.73180210 </i>
    <i name="eentropy">     -0.00000004 </i>
    <i name="bandstr">  -4416.95826983 </i>
    <i name="atom">  14800.58670786 </i>
    <i name="e_fr_energy">   -851.54606376 </i>
    <i name="e_wo_entrp">   -851.54606372 </i>
    <i name="e_0_energy">   -851.54606374 </i>
   </energy>
  </scstep>
  <scstep>
   <time name="dav">   67.96   68.39</time>
   <time name="total">   79.05   79.59</time>
   <energy>
    <i name="e_fr_energy">   -851.54606889 </i>
    <i name="e_wo_entrp">   -851.54606885 </i>
    <i name="e_0_energy">   -851.54606887 </i>
   </energy>
  </scstep>
  <scstep>
   <time name="dav">   48.91   49.19</time>
   <time name="total">   54.24   54.60</time>
   <energy>
    <i name="alphaZ">    186.33367753 </i>
    <i name="ewald">  37881.61096510 </i>
    <i name="hartreedc"> -50567.86244026 </i>
    <i name="XCdc">   1337.74410989 </i>
    <i name="pawpsdc">  38563.46933833 </i>
    <i name="pawaedc"> -38636.46583892 </i>
    <i name="eentropy">     -0.00000004 </i>
    <i name="bandstr">  -4416.96258748 </i>
    <i name="atom">  14800.58670786 </i>
    <i name="e_fr_energy">   -851.54606799 </i>
    <i name="e_wo_entrp">   -851.54606795 </i>
    <i name="e_0_energy">   -851.54606797 </i>
   </energy>
  </scstep>
  <structure>
   <crystal>
    <varray name="basis" >
     <v>      17.27103806       0.00000000       0.00000000 </v>
     <v>      -8.63551903      14.95715771       0.00000000 </v>
     <v>       0.00000000       0.00000000      15.00000000 </v>
    </varray>
    <i name="volume">   3874.88459904 </i>
    <varray name="rec_basis" >
     <v>       0.05790040       0.03342881       0.00000000 </v>
     <v>       0.00000000       0.06685762       0.00000000 </v>
     <v>       0.00000000       0.00000000       0.06666667 </v>
    </varray>
   </crystal>
   <varray name="positions" >
    <v>       0.00112164       0.00131557       0.50331656 </v>
    <v>       0.00049974       0.14378502       0.50278677 </v>
    <v>       0.00029116       0.28658888       0.50254061 </v>
    <v>       0.00076563       0.42968781       0.50360640 </v>
    <v>       0.00158606       0.57279451       0.50415054 </v>
    <v>       0.00270063       0.71613651       0.50466691 </v>
    <v>       0.00239220       0.85928826       0.50436711 </v>
    <v>       0.14430386       0.00181821       0.49719509 </v>
    <v>       0.14347971       0.14414098       0.49254502 </v>
    <v>       0.14197896       0.28589280       0.48775596 </v>
    <v>       0.14234133       0.42921912       0.48985288 </v>
    <v>       0.14386963       0.57241285       0.49536663 </v>
    <v>       0.14456890       0.71564424       0.49912430 </v>
    <v>       0.14463107       0.85888381       0.50044326 </v>
    <v>       0.28675521       0.00144749       0.49505103 </v>
    <v>       0.28624243       0.14388849       0.48368636 </v>
    <v>       0.28408536       0.28572558       0.46360023 </v>
    <v>       0.27989819       0.42732646       0.45522045 </v>
    <v>       0.28539177       0.57102751       0.47296450 </v>
    <v>       0.28655875       0.71554323       0.48942752 </v>
    <v>       0.28680710       0.85871740       0.49658615 </v>
    <v>       0.42957821       0.00158437       0.49643920 </v>
    <v>       0.42929225       0.14412245       0.49092092 </v>
    <v>       0.42748966       0.28348485       0.47554788 </v>
    <v>       0.42749956       0.71711206       0.48383189 </v>
    <v>       0.42923590       0.85865135       0.49365674 </v>
    <v>       0.57213701       0.00194434       0.49954812 </v>
    <v>       0.57217489       0.14421980       0.49849571 </v>
    <v>       0.57288125       0.28757945       0.49464181 </v>
    <v>       0.57280954       0.85984646       0.49622038 </v>
    <v>       0.71502246       0.00141690       0.50382806 </v>
    <v>       0.71511571       0.14425282       0.50438727 </v>
    <v>       0.71503304       0.28694496       0.50305948 </v>
    <v>       0.71481623       0.42894399       0.50192653 </v>
    <v>       0.71959278       0.57455609       0.50248011 </v>
    <v>       0.72231298       0.71768383       0.50348036 </v>
    <v>       0.71409182       0.85861128       0.50211411 </v>
    <v>       0.85798010       0.00126661       0.50586304 </v>
    <v>       0.85769479       0.14395126       0.50656695 </v>
    <v>       0.85776620       0.28676847       0.50648135 </v>
    <v>       0.85832356       0.42973642       0.50562439 </v>
    <v>       0.85948110       0.57318707       0.50535457 </v>
    <v>       0.86143855       0.71686665       0.50557788 </v>
    <v>       0.85883925       0.85846047       0.50511628 </v>
    <v>       0.04854367       0.09656879       0.50053209 </v>
    <v>       0.04744769       0.23864830       0.49904490 </v>
    <v>       0.04761128       0.38172390       0.50003304 </v>
    <v>       0.04894153       0.52500950       0.50181221 </v>
    <v>       0.04955095       0.66814920       0.50301323 </v>
    <v>       0.04965203       0.81131604       0.50348276 </v>
    <v>       0.04923729       0.95413876       0.50205752 </v>
    <v>       0.19128868       0.09644445       0.49055585 </v>
    <v>       0.18989707       0.23879010       0.48305187 </v>
    <v>       0.18781613       0.38043484       0.47974667 </v>
    <v>       0.19056832       0.52438991       0.48706461 </v>
    <v>       0.19158870       0.66794660       0.49422240 </v>
    <v>       0.19196991       0.81111228       0.49871011 </v>
    <v>       0.19188916       0.95397843       0.49746720 </v>
    <v>       0.33417056       0.09676928       0.48989112 </v>
    <v>       0.33421653       0.23865140       0.47165661 </v>
    <v>       0.32019501       0.37493860       0.43931008 </v>
    <v>       0.32650872       0.52167759       0.45092525 </v>
    <v>       0.33449081       0.66836634       0.48111294 </v>
    <v>       0.33422382       0.81075768       0.49334494 </v>
    <v>       0.33424570       0.95383550       0.49636049 </v>
    <v>       0.47705103       0.09661819       0.49576556 </v>
    <v>       0.47607560       0.23913870       0.48733332 </v>
    <v>       0.47614628       0.81054161       0.49117132 </v>
    <v>       0.47703155       0.95405123       0.49690901 </v>
    <v>       0.61972169       0.09682235       0.50124924 </v>
    <v>       0.61991495       0.23946785       0.49889359 </v>
    <v>       0.62173247       0.38091449       0.49776088 </v>
    <v>       0.62117209       0.81523025       0.49728718 </v>
    <v>       0.61988653       0.95456973       0.50027648 </v>
    <v>       0.76269613       0.09672278       0.50562552 </v>
    <v>       0.76270483       0.23923908       0.50529173 </v>
    <v>       0.76302439       0.38202315       0.50382120 </v>
    <v>       0.76384767       0.52618447       0.50362482 </v>
    <v>       0.76658317       0.66834757       0.50414959 </v>
    <v>       0.76263692       0.81008239       0.50374651 </v>
    <v>       0.76276745       0.95395694       0.50452612 </v>
    <v>       0.90530286       0.09612089       0.50598280 </v>
    <v>       0.90521413       0.23908894       0.50619387 </v>
    <v>       0.90554290       0.38218748       0.50603295 </v>
    <v>       0.90649618       0.52526865       0.50552103 </v>
    <v>       0.90764950       0.66837815       0.50566285 </v>
    <v>       0.90726257       0.81166865       0.50558566 </v>
    <v>       0.90586668       0.95354398       0.50521760 </v>
    <v>       0.46368482       0.35568035       0.47190387 </v>
    <v>       0.39648149       0.55618109       0.43097042 </v>
    <v>       0.64715904       0.54041873       0.49976704 </v>
    <v>       0.58547652       0.41723715       0.49792095 </v>
    <v>       0.58415882       0.74349153       0.49415532 </v>
    <v>       0.46340307       0.68041286       0.48177730 </v>
    <v>       0.54046318       0.55030907       0.56293320 </v>
    <v>       0.47137419       0.49811449       0.48932916 </v>
    <v>       0.40237929       0.41876096       0.39799471 </v>
    <v>       0.63068110       0.66557613       0.50219237 </v>
    <v>       0.50779872       0.49192321       0.53488800 </v>
   </varray>
  </structure>
  <varray name="forces" >
   <v>       0.00101505      -0.00012871      -0.00005693 </v>
   <v>      -0.00020037       0.00184637      -0.00340907 </v>
   <v>       0.00004191       0.00136576      -0.00396741 </v>
   <v>      -0.00059358       0.00018979      -0.00075909 </v>
   <v>       0.00066156      -0.00026093       0.00313317 </v>
   <v>       0.00173021      -0.00239867       0.00345894 </v>
   <v>       0.00086177      -0.00233142       0.00140912 </v>
   <v>      -0.00007690       0.00025962      -0.00166760 </v>
   <v>      -0.00011306       0.00149478      -0.00820775 </v>
   <v>      -0.00051602       0.00071607      -0.00900889 </v>
   <v>      -0.00171922       0.00061470      -0.00794836 </v>
   <v>      -0.00050803       0.00026978      -0.00290441 </v>
   <v>       0.00049508      -0.00063711      -0.00020275 </v>
   <v>       0.00017869       0.00016264       0.00073318 </v>
   <v>       0.00069708      -0.00029842      -0.00453121 </v>
   <v>      -0.00028646       0.00028129      -0.00669107 </v>
   <v>      -0.00003880       0.00150481      -0.01387299 </v>
   <v>      -0.00147002      -0.00060068      -0.01323576 </v>
   <v>      -0.00171214       0.00027637      -0.01116669 </v>
   <v>      -0.00090334       0.00018376      -0.00667059 </v>
   <v>       0.00029522      -0.00040671      -0.00243113 </v>
   <v>       0.00024680       0.00049218      -0.00459476 </v>
   <v>       0.00023351       0.00007066      -0.00747042 </v>
   <v>      -0.00031856       0.00018843      -0.01037836 </v>
   <v>      -0.00173724       0.00117118      -0.00910735 </v>
   <v>      -0.00126078       0.00093991      -0.00636095 </v>
   <v>      -0.00052832       0.00040106      -0.00305527 </v>
   <v>       0.00077571       0.00014442      -0.00474393 </v>
   <v>      -0.00021752      -0.00056735      -0.00543663 </v>
   <v>      -0.00122624       0.00055480      -0.00521198 </v>
   <v>      -0.00078308       0.00063904      -0.00113150 </v>
   <v>      -0.00055224       0.00000194      -0.00063865 </v>
   <v>       0.00188749      -0.00010653      -0.00021845 </v>
   <v>       0.00165113       0.00040413      -0.00120664 </v>
   <v>       0.00132537       0.00015128      -0.00609005 </v>
   <v>      -0.00081633      -0.00236007      -0.00572537 </v>
   <v>      -0.00093674      -0.00019914      -0.00212998 </v>
   <v>       0.00003349       0.00098690      -0.00046616 </v>
   <v>      -0.00018311       0.00160113      -0.00000188 </v>
   <v>       0.00001062       0.00252921      -0.00034615 </v>
   <v>       0.00070594       0.00098779       0.00193342 </v>
   <v>       0.00139485      -0.00011175       0.00239769 </v>
   <v>       0.00246853      -0.00053865       0.00000658 </v>
   <v>       0.00046118      -0.00049091      -0.00070374 </v>
   <v>      -0.00020371       0.00085671      -0.00382467 </v>
   <v>      -0.00072730       0.00032432      -0.00571257 </v>
   <v>       0.00153332      -0.00160723      -0.00507037 </v>
   <v>       0.00098321       0.00009364       0.00044674 </v>
   <v>      -0.00131448       0.00378909       0.00246708 </v>
   <v>      -0.00068066       0.00182691       0.00336425 </v>
   <v>      -0.00039616       0.00039189       0.00113380 </v>
   <v>      -0.00117410       0.00065563      -0.00496935 </v>
   <v>       0.00167695       0.00178572      -0.01102576 </v>
   <v>      -0.00075698      -0.00080629      -0.01070267 </v>
   <v>       0.00039017      -0.00004225      -0.00792489 </v>
   <v>       0.00062665       0.00086105      -0.00355012 </v>
   <v>      -0.00248952       0.00308566      -0.00071451 </v>
   <v>      -0.00061593       0.00096894      -0.00175556 </v>
   <v>      -0.00060802       0.00040237      -0.00683617 </v>
   <v>      -0.00026766       0.00081865      -0.01007304 </v>
   <v>       0.00125299       0.00304733      -0.01514711 </v>
   <v>      -0.00156576      -0.00031790      -0.01473541 </v>
   <v>       0.00001235       0.00042452      -0.00881872 </v>
   <v>      -0.00035852       0.00036279      -0.00456142 </v>
   <v>      -0.00310557       0.00198978      -0.00400991 </v>
   <v>      -0.00049417       0.00087935      -0.00604105 </v>
   <v>      -0.00023477       0.00021932      -0.00920144 </v>
   <v>      -0.00028342       0.00083657      -0.00752870 </v>
   <v>      -0.00024563       0.00065115      -0.00384339 </v>
   <v>       0.00004579      -0.00027032      -0.00241238 </v>
   <v>       0.00059685      -0.00002800      -0.00353975 </v>
   <v>      -0.00091336      -0.00023170      -0.00346806 </v>
   <v>       0.00001799      -0.00037990      -0.00294043 </v>
   <v>       0.00007045       0.00066164      -0.00364100 </v>
   <v>       0.00055346      -0.00072794      -0.00038294 </v>
   <v>      -0.00079216      -0.00034537      -0.00061448 </v>
   <v>      -0.00080544      -0.00034261       0.00010820 </v>
   <v>      -0.00104803       0.00095303      -0.00195687 </v>
   <v>      -0.00029256       0.00041936      -0.00432087 </v>
   <v>      -0.00148727      -0.00027385      -0.00242399 </v>
   <v>      -0.00000564      -0.00039099      -0.00060565 </v>
   <v>      -0.00197263      -0.00269711       0.00066049 </v>
   <v>       0.00090124      -0.00245098      -0.00102161 </v>
   <v>       0.00086677       0.00064378       0.00059479 </v>
   <v>      -0.00049473       0.00033119       0.00369648 </v>
   <v>      -0.00009970       0.00087111       0.00199337 </v>
   <v>      -0.00146552       0.00017905       0.00046609 </v>
   <v>      -0.00047514       0.00035698       0.00022401 </v>
   <v>       0.00029581      -0.00043195      -0.01320444 </v>
   <v>      -0.00270082       0.00095616      -0.01369724 </v>
   <v>      -0.00148108       0.00041860      -0.00589567 </v>
   <v>       0.00051052      -0.00054502      -0.00141133 </v>
   <v>      -0.00067490      -0.00031897      -0.00072457 </v>
   <v>      -0.00120015       0.00145849      -0.01304873 </v>
   <v>      -0.01821378      -0.03155511       0.03628720 </v>
   <v>       0.05218343       0.02380357      -0.05350687 </v>
   <v>      -0.00307389       0.00309067      -0.01959805 </v>
   <v>       0.00164614      -0.00409403      -0.01051324 </v>
   <v>      -0.01191803      -0.01955027       0.41221039 </v>
  </varray>
  <varray name="stress" >
   <v>       4.65975244       0.78276519      -0.01463929 </v>
   <v>       0.78276169       2.80211745      -0.02327191 </v>
   <v>      -0.01463889      -0.02327208      -0.16165689 </v>
  </varray>
  <energy>
   <i name="e_fr_energy">   -859.45790238 </i>
   <i name="e_wo_entrp">   -859.45790234 </i>
   <i name="e_0_energy">   -859.45790236 </i>
  </energy>
  <time name="totalsc">  459.95  462.82</time>
 </calculation>
 <calculation>
  <scstep>
   <time name="dav">   62.28   62.67</time>
[...]
       <r>   -17.7494     4.4240    31.0478 </r>
       <r>   -17.6301     3.9555    31.5199 </r>
       <r>   -17.5107     7.5942    32.4262 </r>
       <r>   -17.3914    16.2293    34.3632 </r>
       <r>   -17.2720     9.7230    35.5236 </r>
       <r>   -17.1527    12.5023    37.0158 </r>
       <r>   -17.0333     2.7537    37.3444 </r>
       <r>   -16.9140     7.6852    38.2617 </r>
       <r>   -16.7946     9.8726    39.4400 </r>
       <r>   -16.6753     4.8870    40.0232 </r>
       <r>   -16.5559     7.2173    40.8846 </r>
       <r>   -16.4366     2.6129    41.1965 </r>
       <r>   -16.3172    16.7155    43.1915 </r>
       <r>   -16.1979    10.9460    44.4979 </r>
       <r>   -16.0785     3.9315    44.9671 </r>
       <r>   -15.9592     3.2382    45.3536 </r>
       <r>   -15.8398     3.3055    45.7481 </r>
       <r>   -15.7205     0.9382    45.8601 </r>
       <r>   -15.6011     3.1877    46.2405 </r>
       <r>   -15.4818     2.3567    46.5218 </r>
       <r>   -15.3624     7.7166    47.4428 </r>
       <r>   -15.2431    10.4944    48.6953 </r>
       <r>   -15.1237     5.7725    49.3842 </r>
       <r>   -15.0044     7.0008    50.2198 </r>
       <r>   -14.8850    14.6869    51.9727 </r>
       <r>   -14.7657     8.5194    52.9894 </r>
       <r>   -14.6463     2.6584    53.3067 </r>
       <r>   -14.5270    10.6219    54.5745 </r>
       <r>   -14.4076    12.0499    56.0126 </r>
       <r>   -14.2883     8.2796    57.0008 </r>
       <r>   -14.1689    10.0963    58.2058 </r>
       <r>   -14.0496    11.7785    59.6115 </r>
       <r>   -13.9302     3.9377    60.0815 </r>
       <r>   -13.8109     5.8606    60.7810 </r>
       <r>   -13.6915     5.5196    61.4397 </r>
       <r>   -13.5722     6.7170    62.2414 </r>
       <r>   -13.4528    10.0623    63.4424 </r>
       <r>   -13.3335     7.4358    64.3298 </r>
       <r>   -13.2141     7.7078    65.2497 </r>
       <r>   -13.0948     6.1624    65.9852 </r>
       <r>   -12.9754     4.2458    66.4920 </r>
       <r>   -12.8561     5.7506    67.1783 </r>
       <r>   -12.7367    10.0747    68.3807 </r>
       <r>   -12.6174     6.3478    69.1383 </r>
       <r>   -12.4980    12.8614    70.6733 </r>
       <r>   -12.3787    10.9039    71.9747 </r>
       <r>   -12.2593    12.1902    73.4296 </r>
       <r>   -12.1400     7.7898    74.3593 </r>
       <r>   -12.0206     7.3662    75.2385 </r>
       <r>   -11.9013     6.0377    75.9591 </r>
       <r>   -11.7819    11.6958    77.3550 </r>
       <r>   -11.6626     8.2812    78.3433 </r>
       <r>   -11.5432     8.7711    79.3902 </r>
       <r>   -11.4239    13.3302    80.9811 </r>
       <r>   -11.3045     9.1520    82.0734 </r>
       <r>   -11.1852    11.5806    83.4556 </r>
       <r>   -11.0658    11.6068    84.8409 </r>
       <r>   -10.9465    10.3895    86.0808 </r>
       <r>   -10.8271    14.5724    87.8201 </r>
       <r>   -10.7078     9.3210    88.9325 </r>
       <r>   -10.5884     3.2062    89.3152 </r>
       <r>   -10.4691     5.6783    89.9929 </r>
       <r>   -10.3497     8.4100    90.9966 </r>
       <r>   -10.2304    12.3338    92.4687 </r>
       <r>   -10.1110    18.9082    94.7254 </r>
       <r>    -9.9917    15.7136    96.6008 </r>
       <r>    -9.8723    20.1300    99.0033 </r>
       <r>    -9.7530    18.2971   101.1871 </r>
       <r>    -9.6336    17.6522   103.2939 </r>
       <r>    -9.5143    10.9692   104.6030 </r>
       <r>    -9.3949    18.1018   106.7635 </r>
       <r>    -9.2756    17.1844   108.8144 </r>
       <r>    -9.1562    16.2555   110.7545 </r>
       <r>    -9.0369    22.8763   113.4848 </r>
       <r>    -8.9175    22.6503   116.1881 </r>
       <r>    -8.7982    29.1638   119.6689 </r>
       <r>    -8.6788    24.8654   122.6365 </r>
       <r>    -8.5595    20.6190   125.0974 </r>
       <r>    -8.4401    17.3744   127.1711 </r>
       <r>    -8.3208    18.2376   129.3477 </r>
       <r>    -8.2014    18.3411   131.5367 </r>
       <r>    -8.0821    20.1265   133.9388 </r>
       <r>    -7.9627    23.4379   136.7361 </r>
       <r>    -7.8434    18.8835   138.9899 </r>
       <r>    -7.7240    16.7329   140.9870 </r>
       <r>    -7.6047    14.7940   142.7526 </r>
       <r>    -7.4853    15.1779   144.5641 </r>
       <r>    -7.3660    11.0222   145.8796 </r>
       <r>    -7.2466    12.1154   147.3256 </r>
       <r>    -7.1273    25.5716   150.3776 </r>
       <r>    -7.0079    18.7817   152.6192 </r>
       <r>    -6.8886    15.3266   154.4484 </r>
       <r>    -6.7692    12.2195   155.9068 </r>
       <r>    -6.6499     8.9247   156.9720 </r>
       <r>    -6.5305    14.1893   158.6655 </r>
       <r>    -6.4112    10.0313   159.8627 </r>
       <r>    -6.2918    12.5457   161.3600 </r>
       <r>    -6.1725    13.8179   163.0092 </r>
       <r>    -6.0531    20.1343   165.4122 </r>
       <r>    -5.9338    10.9985   166.7249 </r>
       <r>    -5.8144    14.4027   168.4439 </r>
       <r>    -5.6951    16.8532   170.4553 </r>
       <r>    -5.5757    16.3591   172.4077 </r>
       <r>    -5.4564    10.3936   173.6482 </r>
       <r>    -5.3370     6.0233   174.3671 </r>
       <r>    -5.2177     3.5622   174.7922 </r>
       <r>    -5.0983     2.1558   175.0495 </r>
       <r>    -4.9790    16.3134   176.9965 </r>
       <r>    -4.8596    20.4027   179.4316 </r>
       <r>    -4.7403    14.9516   181.2161 </r>
       <r>    -4.6209     4.2198   181.7197 </r>
       <r>    -4.5016     9.1994   182.8177 </r>
       <r>    -4.3822     3.6216   183.2499 </r>
       <r>    -4.2629     2.2549   183.5190 </r>
       <r>    -4.1435     8.1925   184.4968 </r>
       <r>    -4.0242     6.2033   185.2372 </r>
       <r>    -3.9048     7.9904   186.1908 </r>
       <r>    -3.7855     7.1549   187.0448 </r>
       <r>    -3.6661     6.8644   187.8640 </r>
       <r>    -3.5468     1.1390   188.0000 </r>
       <r>    -3.4274     0.0038   188.0004 </r>
       <r>    -3.3081     1.5121   188.1809 </r>
       <r>    -3.1887     5.7808   188.8708 </r>
       <r>    -3.0694     3.1629   189.2483 </r>
       <r>    -2.9500     1.3808   189.4131 </r>
       <r>    -2.8307     0.7276   189.5000 </r>
       <r>    -2.7113     0.0020   189.5002 </r>
       <r>    -2.5920     1.8365   189.7194 </r>
       <r>    -2.4726     2.3454   189.9993 </r>
       <r>    -2.3533     0.0057   190.0000 </r>
       <r>    -2.2339     0.6165   190.0736 </r>
       <r>    -2.1146     3.4133   190.4810 </r>
       <r>    -1.9952     0.1595   190.5000 </r>
       <r>    -1.8759     0.0015   190.5002 </r>
       <r>    -1.7565     1.2634   190.6510 </r>
       <r>    -1.6372     2.8344   190.9893 </r>
       <r>    -1.5178     6.2609   191.7365 </r>
       <r>    -1.3985     2.2070   191.9999 </r>
       <r>    -1.2791     0.1042   192.0123 </r>
       <r>    -1.1598     3.6536   192.4484 </r>
       <r>    -1.0404     7.3976   193.3313 </r>
       <r>    -0.9211     3.5694   193.7573 </r>
       <r>    -0.8017    12.1432   195.2066 </r>
       <r>    -0.6824    13.4513   196.8120 </r>
       <r>    -0.5630     4.2357   197.3175 </r>
       <r>    -0.4437    12.6018   198.8216 </r>
       <r>    -0.3243     7.9121   199.7659 </r>
       <r>    -0.2050     5.0178   200.3647 </r>
       <r>    -0.0856     6.2574   201.1116 </r>
       <r>     0.0337     9.2169   202.2116 </r>
       <r>     0.1531     9.0576   203.2926 </r>
       <r>     0.2724    13.0900   204.8549 </r>
       <r>     0.3918     7.6016   205.7622 </r>
       <r>     0.5111     1.9805   205.9985 </r>
       <r>     0.6305     1.9582   206.2323 </r>
       <r>     0.7498    11.8407   207.6454 </r>
       <r>     0.8692    12.8226   209.1758 </r>
       <r>     0.9885     5.5648   209.8400 </r>
       <r>     1.1079     9.6402   210.9905 </r>
       <r>     1.2272     7.4339   211.8778 </r>
       <r>     1.3466     7.4775   212.7702 </r>
       <r>     1.4659     9.6297   213.9195 </r>
       <r>     1.5853    19.2293   216.2145 </r>
       <r>     1.7046    16.9362   218.2359 </r>
       <r>     1.8240    12.9605   219.7827 </r>
       <r>     1.9433     6.9969   220.6178 </r>
       <r>     2.0627    18.2453   222.7954 </r>
       <r>     2.1820    19.6651   225.1424 </r>
       <r>     2.3014    18.3960   227.3380 </r>
       <r>     2.4207    19.9996   229.7249 </r>
       <r>     2.5401    18.9195   231.9830 </r>
       <r>     2.6594     9.7339   233.1447 </r>
       <r>     2.7788    15.9194   235.0447 </r>
       <r>     2.8981    25.1127   238.0419 </r>
       <r>     3.0175    16.3108   239.9886 </r>
       <r>     3.1368     0.0956   240.0000 </r>
       <r>     3.2562     0.0000   240.0000 </r>
       <r>     3.3755     0.0000   240.0000 </r>
       <r>     3.4949     0.0000   240.0000 </r>
       <r>     3.6142     0.0000   240.0000 </r>
       <r>     3.7336     0.0000   240.0000 </r>
       <r>     3.8529     0.0000   240.0000 </r>
       <r>     3.9723     0.0000   240.0000 </r>
       <r>     4.0916     0.0000   240.0000 </r>
       <r>     4.2110     0.0000   240.0000 </r>
       <r>     4.3303     0.0000   240.0000 </r>
       <r>     4.4497     0.0000   240.0000 </r>
       <r>     4.5690     0.0000   240.0000 </r>
      </set>
     </set>
    </array>
   </total>
  </dos>
 </calculation>
 <structure name="finalpos" >
  <crystal>
   <varray name="basis" >
    <v>      17.27103806       0.00000000       0.00000000 </v>
    <v>      -8.63551903      14.95715771       0.00000000 </v>
    <v>       0.00000000       0.00000000      15.00000000 </v>
   </varray>
   <i name="volume">   3874.88459904 </i>
   <varray name="rec_basis" >
    <v>       0.05790040       0.03342881       0.00000000 </v>
    <v>       0.00000000       0.06685762       0.00000000 </v>
    <v>       0.00000000       0.00000000       0.06666667 </v>
   </varray>
  </crystal>
  <varray name="positions" >
   <v>       0.00113453       0.00141645       0.50104612 </v>
   <v>       0.00053002       0.14385077       0.49999288 </v>
   <v>       0.00029625       0.28660171       0.50032433 </v>
   <v>       0.00080178       0.42972272       0.50232320 </v>
   <v>       0.00162285       0.57286199       0.50394202 </v>
   <v>       0.00273758       0.71624559       0.50463327 </v>
   <v>       0.00240976       0.85940798       0.50334443 </v>
   <v>       0.14433522       0.00192804       0.49457444 </v>
   <v>       0.14352236       0.14424506       0.48858383 </v>
   <v>       0.14194622       0.28589843       0.48362385 </v>
   <v>       0.14223887       0.42919021       0.48638023 </v>
   <v>       0.14381974       0.57242914       0.49344433 </v>
   <v>       0.14457186       0.71571430       0.49813609 </v>
   <v>       0.14465950       0.85900546       0.49903241 </v>
   <v>       0.28676817       0.00153068       0.49192066 </v>
   <v>       0.28628686       0.14397637       0.47957621 </v>
   <v>       0.28430467       0.28598789       0.45902660 </v>
   <v>       0.27977643       0.42742317       0.45063369 </v>
   <v>       0.28513132       0.57106865       0.46900833 </v>
   <v>       0.28649530       0.71557704       0.48701518 </v>
   <v>       0.28680619       0.85877547       0.49453029 </v>
   <v>       0.42957337       0.00161393       0.49376135 </v>
   <v>       0.42936008       0.14412734       0.48700583 </v>
   <v>       0.42762870       0.28335392       0.47039775 </v>
   <v>       0.42739353       0.71715844       0.48043876 </v>
   <v>       0.42919759       0.85868055       0.49122558 </v>
   <v>       0.57211992       0.00196576       0.49730236 </v>
   <v>       0.57221061       0.14428075       0.49589965 </v>
   <v>       0.57294715       0.28762506       0.49169361 </v>
   <v>       0.57274814       0.85981221       0.49410496 </v>
   <v>       0.71496582       0.00139887       0.50231635 </v>
   <v>       0.71510462       0.14426796       0.50297654 </v>
   <v>       0.71505387       0.28698831       0.50183858 </v>
   <v>       0.71481326       0.42898001       0.50150507 </v>
   <v>       0.71957959       0.57458090       0.50326214 </v>
   <v>       0.72207117       0.71748425       0.50298572 </v>
   <v>       0.71402559       0.85857023       0.50104431 </v>
   <v>       0.85796986       0.00130224       0.50435344 </v>
   <v>       0.85769536       0.14397476       0.50526795 </v>
   <v>       0.85778408       0.28679307       0.50566198 </v>
   <v>       0.85835421       0.42978010       0.50551481 </v>
   <v>       0.85950328       0.57326622       0.50576755 </v>
   <v>       0.86144951       0.71693861       0.50558133 </v>
   <v>       0.85876512       0.85844843       0.50430153 </v>
   <v>       0.04858417       0.09666413       0.49734241 </v>
   <v>       0.04747244       0.23869370       0.49589671 </v>
   <v>       0.04760505       0.38172798       0.49764481 </v>
   <v>       0.04895383       0.52504571       0.50075160 </v>
   <v>       0.04958436       0.66822319       0.50275996 </v>
   <v>       0.04969803       0.81144362       0.50276593 </v>
   <v>       0.04926733       0.95424775       0.50011768 </v>
   <v>       0.19133313       0.09653014       0.48687281 </v>
   <v>       0.19000693       0.23891314       0.47863657 </v>
   <v>       0.18771743       0.38044897       0.47541942 </v>
   <v>       0.19040576       0.52438288       0.48386345 </v>
   <v>       0.19155066       0.66797934       0.49249472 </v>
   <v>       0.19197792       0.81118938       0.49733528 </v>
   <v>       0.19189744       0.95408746       0.49511294 </v>
   <v>       0.33420614       0.09683779       0.48593007 </v>
   <v>       0.33431388       0.23871573       0.46704164 </v>
   <v>       0.32059793       0.37541651       0.43503543 </v>
   <v>       0.32612810       0.52176659       0.44637205 </v>
   <v>       0.33439002       0.66843668       0.47773850 </v>
   <v>       0.33417704       0.81077762       0.49110793 </v>
   <v>       0.33424459       0.95389708       0.49365065 </v>
   <v>       0.47709352       0.09665323       0.49268141 </v>
   <v>       0.47621696       0.23913947       0.48307650 </v>
   <v>       0.47610055       0.81055640       0.48849560 </v>
   <v>       0.47700869       0.95406103       0.49450587 </v>
   <v>       0.61972054       0.09685301       0.49921104 </v>
   <v>       0.61997802       0.23953298       0.49663389 </v>
   <v>       0.62178480       0.38093904       0.49600880 </v>
   <v>       0.62110600       0.81515553       0.49603457 </v>
   <v>       0.61983626       0.95454279       0.49827460 </v>
   <v>       0.76267971       0.09671600       0.50430434 </v>
   <v>       0.76271540       0.23926253       0.50423612 </v>
   <v>       0.76305313       0.38206400       0.50332944 </v>
   <v>       0.76383359       0.52620474       0.50403697 </v>
   <v>       0.76658103       0.66838072       0.50429375 </v>
   <v>       0.76247580       0.80994729       0.50306136 </v>
   <v>       0.76272337       0.95393536       0.50320492 </v>
   <v>       0.90532604       0.09617469       0.50416842 </v>
   <v>       0.90523842       0.23910508       0.50501688 </v>
   <v>       0.90558252       0.38221140       0.50541186 </v>
   <v>       0.90652472       0.52531806       0.50570276 </v>
   <v>       0.90767275       0.66846162       0.50595591 </v>
   <v>       0.90726795       0.81175241       0.50503520 </v>
   <v>       0.90583037       0.95356597       0.50371821 </v>
   <v>       0.46378173       0.35548322       0.46609533 </v>
   <v>       0.39611070       0.55629219       0.42656347 </v>
   <v>       0.64710125       0.54051363       0.50155126 </v>
   <v>       0.58544017       0.41718971       0.49612850 </v>
   <v>       0.58409798       0.74336805       0.49351686 </v>
   <v>       0.46334119       0.68052968       0.47743246 </v>
   <v>       0.53184998       0.54244450       0.57076742 </v>
   <v>       0.48529046       0.50546459       0.48025732 </v>
   <v>       0.40280283       0.41952477       0.39386797 </v>
   <v>       0.63043524       0.66495242       0.50120030 </v>
   <v>       0.50309378       0.48842675       0.53488800 </v>
  </varray>
  <varray name="selective"  type="logical" >
   <v type="logical" >  T  T  T </v>
   <v type="logical" >  T  T  T </v>
   <v type="logical" >  T  T  T </v>
   <v type="logical" >  T  T  T </v>
   <v type="logical" >  T  T  T </v>
   <v type="logical" >  T  T  T </v>
   <v type="logical" >  T  T  T </v>
   <v type="logical" >  T  T  T </v>
   <v type="logical" >  T  T  T </v>
   <v type="logical" >  T  T  T </v>
   <v type="logical" >  T  T  T </v>
   <v type="logical" >  T  T  T </v>
   <v type="logical" >  T  T  T </v>
   <v type="logical" >  T  T  T </v>
   <v type="logical" >  T  T  T </v>
   <v type="logical" >  T  T  T </v>
   <v type="logical" >  T  T  T </v>
   <v type="logical" >  T  T  T </v>
   <v type="logical" >  T  T  T </v>
   <v type="logical" >  T  T  T </v>
   <v type="logical" >  T  T  T </v>
   <v type="logical" >  T  T  T </v>
   <v type="logical" >  T  T  T </v>
   <v type="logical" >  T  T  T </v>
   <v type="logical" >  T  T  T </v>
   <v type="logical" >  T  T  T </v>
   <v type="logical" >  T  T  T </v>
   <v type="logical" >  T  T  T </v>
   <v type="logical" >  T  T  T </v>
   <v type="logical" >  T  T  T </v>
   <v type="logical" >  T  T  T </v>
   <v type="logical" >  T  T  T </v>
   <v type="logical" >  T  T  T </v>
   <v type="logical" >  T  T  T </v>
   <v type="logical" >  T  T  T </v>
   <v type="logical" >  T  T  T </v>
   <v type="logical" >  T  T  T </v>
   <v type="logical" >  T  T  T </v>
   <v type="logical" >  T  T  T </v>
   <v type="logical" >  T  T  T </v>
   <v type="logical" >  T  T  T </v>
   <v type="logical" >  T  T  T </v>
   <v type="logical" >  T  T  T </v>
   <v type="logical" >  T  T  T </v>
   <v type="logical" >  T  T  T </v>
   <v type="logical" >  T  T  T </v>
   <v type="logical" >  T  T  T </v>
   <v type="logical" >  T  T  T </v>
   <v type="logical" >  T  T  T </v>
   <v type="logical" >  T  T  T </v>
   <v type="logical" >  T  T  T </v>
   <v type="logical" >  T  T  T </v>
   <v type="logical" >  T  T  T </v>
   <v type="logical" >  T  T  T </v>
   <v type="logical" >  T  T  T </v>
   <v type="logical" >  T  T  T </v>
   <v type="logical" >  T  T  T </v>
   <v type="logical" >  T  T  T </v>
   <v type="logical" >  T  T  T </v>
   <v type="logical" >  T  T  T </v>
   <v type="logical" >  T  T  T </v>
   <v type="logical" >  T  T  T </v>
   <v type="logical" >  T  T  T </v>
   <v type="logical" >  T  T  T </v>
   <v type="logical" >  T  T  T </v>
   <v type="logical" >  T  T  T </v>
   <v type="logical" >  T  T  T </v>
   <v type="logical" >  T  T  T </v>
   <v type="logical" >  T  T  T </v>
   <v type="logical" >  T  T  T </v>
   <v type="logical" >  T  T  T </v>
   <v type="logical" >  T  T  T </v>
   <v type="logical" >  T  T  T </v>
   <v type="logical" >  T  T  T </v>
   <v type="logical" >  T  T  T </v>
   <v type="logical" >  T  T  T </v>
   <v type="logical" >  T  T  T </v>
   <v type="logical" >  T  T  T </v>
   <v type="logical" >  T  T  T </v>
   <v type="logical" >  T  T  T </v>
   <v type="logical" >  T  T  T </v>
   <v type="logical" >  T  T  T </v>
   <v type="logical" >  T  T  T </v>
   <v type="logical" >  T  T  T </v>
   <v type="logical" >  T  T  T </v>
   <v type="logical" >  T  T  T </v>
   <v type="logical" >  T  T  T </v>
   <v type="logical" >  T  T  T </v>
   <v type="logical" >  T  T  T </v>
   <v type="logical" >  T  T  T </v>
   <v type="logical" >  T  T  T </v>
   <v type="logical" >  T  T  T </v>
   <v type="logical" >  T  T  T </v>
   <v type="logical" >  T  T  T </v>
   <v type="logical" >  T  T  T </v>
   <v type="logical" >  T  T  T </v>
   <v type="logical" >  T  T  T </v>
   <v type="logical" >  T  T  T </v>
   <v type="logical" >  T  T  F </v>
  </varray>
  <nose>
   <v>      -3.00000000       0.00000000       0.00010000       0.00010000 </v>
  </nose>
 </structure>
</modeling>
