unknown system                          
           1
    17.271038    0.000000    0.000000
    -8.635519   14.957158    0.000000
     0.000000    0.000000   15.000000
   C    H    F    O 
    88     8     2     1
Direct configuration=     1
   0.00112164  0.00131557  0.50331656
   0.00049974  0.14378502  0.50278677
   0.00029116  0.28658888  0.50254061
   0.00076563  0.42968781  0.50360640
   0.00158606  0.57279451  0.50415054
   0.00270063  0.71613651  0.50466691
   0.00239220  0.85928826  0.50436711
   0.14430386  0.00181821  0.49719509
   0.14347971  0.14414098  0.49254502
   0.14197896  0.28589280  0.48775596
   0.14234133  0.42921912  0.48985288
   0.14386963  0.57241285  0.49536663
   0.14456890  0.71564424  0.49912430
   0.14463107  0.85888381  0.50044326
   0.28675521  0.00144749  0.49505103
   0.28624243  0.14388849  0.48368636
   0.28408536  0.28572558  0.46360023
   0.27989819  0.42732646  0.45522045
   0.28539177  0.57102751  0.47296450
   0.28655875  0.71554323  0.48942752
   0.28680710  0.85871740  0.49658615
   0.42957821  0.00158437  0.49643920
   0.42929225  0.14412245  0.49092092
   0.42748966  0.28348485  0.47554788
   0.42749956  0.71711206  0.48383189
   0.42923590  0.85865135  0.49365674
   0.57213701  0.00194434  0.49954812
   0.57217489  0.14421980  0.49849571
   0.57288125  0.28757945  0.49464181
   0.57280954  0.85984646  0.49622038
   0.71502246  0.00141690  0.50382806
   0.71511571  0.14425282  0.50438727
   0.71503304  0.28694496  0.50305948
   0.71481623  0.42894399  0.50192653
   0.71959278  0.57455609  0.50248011
   0.72231298  0.71768383  0.50348036
   0.71409182  0.85861128  0.50211411
   0.85798010  0.00126661  0.50586304
   0.85769479  0.14395126  0.50656695
   0.85776620  0.28676847  0.50648135
   0.85832356  0.42973642  0.50562439
   0.85948110  0.57318707  0.50535457
   0.86143855  0.71686665  0.50557788
   0.85883925  0.85846047  0.50511628
   0.04854367  0.09656879  0.50053209
   0.04744769  0.23864830  0.49904490
   0.04761128  0.38172390  0.50003304
   0.04894153  0.52500950  0.50181221
   0.04955095  0.66814920  0.50301323
   0.04965203  0.81131604  0.50348276
   0.04923729  0.95413876  0.50205752
   0.19128868  0.09644445  0.49055585
   0.18989707  0.23879010  0.48305187
   0.18781613  0.38043484  0.47974667
   0.19056832  0.52438991  0.48706461
   0.19158870  0.66794660  0.49422240
   0.19196991  0.81111228  0.49871011
   0.19188916  0.95397843  0.49746720
   0.33417056  0.09676928  0.48989112
   0.33421653  0.23865140  0.47165661
   0.32019501  0.37493860  0.43931008
   0.32650872  0.52167759  0.45092525
   0.33449081  0.66836634  0.48111294
   0.33422382  0.81075768  0.49334494
   0.33424570  0.95383550  0.49636049
   0.47705103  0.09661819  0.49576556
   0.47607560  0.23913870  0.48733332
   0.47614628  0.81054161  0.49117132
   0.47703155  0.95405123  0.49690901
   0.61972169  0.09682235  0.50124924
   0.61991495  0.23946785  0.49889359
   0.62173247  0.38091449  0.49776088
   0.62117209  0.81523025  0.49728718
   0.61988653  0.95456973  0.50027648
   0.76269613  0.09672278  0.50562552
   0.76270483  0.23923908  0.50529173
   0.76302439  0.38202315  0.50382120
   0.76384767  0.52618447  0.50362482
   0.76658317  0.66834757  0.50414959
   0.76263692  0.81008239  0.50374651
   0.76276745  0.95395694  0.50452612
   0.90530286  0.09612089  0.50598280
   0.90521413  0.23908894  0.50619387
   0.90554290  0.38218748  0.50603295
   0.90649618  0.52526865  0.50552103
   0.90764950  0.66837815  0.50566285
   0.90726257  0.81166865  0.50558566
   0.90586668  0.95354398  0.50521760
   0.46368482  0.35568035  0.47190387
   0.39648149  0.55618109  0.43097042
   0.64715904  0.54041873  0.49976704
   0.58547652  0.41723715  0.49792095
   0.58415882  0.74349153  0.49415532
   0.46340307  0.68041286  0.48177730
   0.54046318  0.55030907  0.56293320
   0.47137419  0.49811449  0.48932916
   0.40237929  0.41876096  0.39799471
   0.63068110  0.66557613  0.50219237
   0.50779872  0.49192321  0.53488800
Direct configuration=     2
   0.00111899  0.00131616  0.50331567
   0.00049735  0.14378237  0.50278263
   0.00029282  0.28658536  0.50253548
   0.00076467  0.42968350  0.50360531
   0.00158763  0.57279654  0.50415416
   0.00270047  0.71614041  0.50467146
   0.00239104  0.85929286  0.50436919
   0.14430222  0.00182023  0.49719224
   0.14347964  0.14414185  0.49253435
   0.14198070  0.28589333  0.48774325
   0.14234264  0.42921809  0.48984209
   0.14387250  0.57241347  0.49536221
   0.14457130  0.71564711  0.49912306
   0.14463117  0.85888933  0.50044309
   0.28675438  0.00144895  0.49504427
   0.28624142  0.14388911  0.48367756
   0.28408886  0.28572955  0.46358223
   0.27989723  0.42732514  0.45520294
   0.28539259  0.57102713  0.47294919
   0.28656035  0.71554349  0.48941807
   0.28680737  0.85871874  0.49658220
   0.42957876  0.00158593  0.49643269
   0.42929197  0.14412391  0.49091097
   0.42748933  0.28348566  0.47553417
   0.42750093  0.71711269  0.48382034
   0.42923698  0.85865214  0.49364801
   0.57213764  0.00194275  0.49954412
   0.57217454  0.14421979  0.49848943
   0.57287739  0.28757925  0.49463540
   0.57281053  0.85984420  0.49621432
   0.71502325  0.00141413  0.50382723
   0.71511309  0.14424852  0.50438636
   0.71503007  0.28694364  0.50305856
   0.71481145  0.42894257  0.50192709
   0.71958900  0.57455917  0.50247950
   0.72231019  0.71768788  0.50348134
   0.71409330  0.85861178  0.50211427
   0.85797801  0.00126305  0.50586320
   0.85769316  0.14394661  0.50656724
   0.85776476  0.28676385  0.50648105
   0.85832119  0.42973510  0.50562747
   0.85947851  0.57318849  0.50535907
   0.86143318  0.71687192  0.50557966
   0.85883612  0.85846249  0.50511677
   0.04854553  0.09657195  0.50052693
   0.04744593  0.23865231  0.49903772
   0.04760937  0.38172759  0.50002707
   0.04894076  0.52500987  0.50181260
   0.04954989  0.66814527  0.50301603
   0.04965194  0.81131184  0.50348632
   0.04923846  0.95413479  0.50205849
   0.19128868  0.09644439  0.49054807
   0.18989667  0.23879271  0.48303799
   0.18781148  0.38043359  0.47973376
   0.19056548  0.52439048  0.48705473
   0.19158724  0.66794623  0.49421730
   0.19197026  0.81110995  0.49870804
   0.19188946  0.95397602  0.49746407
   0.33417055  0.09676842  0.48988190
   0.33421627  0.23865188  0.47164391
   0.32019750  0.37494187  0.43929036
   0.32650506  0.52167752  0.45090662
   0.33448744  0.66836645  0.48110169
   0.33422150  0.81075720  0.49333857
   0.33424579  0.95383448  0.49635488
   0.47705120  0.09661790  0.49575750
   0.47607598  0.23913774  0.48732187
   0.47614486  0.81054388  0.49116168
   0.47703048  0.95405187  0.49690377
   0.61972267  0.09682356  0.50124611
   0.61991980  0.23946784  0.49888983
   0.62173626  0.38091495  0.49775826
   0.62116802  0.81522926  0.49728517
   0.61988498  0.95457315  0.50027210
   0.76269693  0.09672628  0.50562513
   0.76270749  0.23924159  0.50529216
   0.76302782  0.38202428  0.50382270
   0.76385406  0.52618492  0.50362610
   0.76659025  0.66834342  0.50415037
   0.76263515  0.81007803  0.50374765
   0.76276607  0.95395848  0.50452682
   0.90530610  0.09612660  0.50598243
   0.90521427  0.23909405  0.50619204
   0.90554769  0.38219324  0.50603382
   0.90649769  0.52526899  0.50552618
   0.90765365  0.66837334  0.50566613
   0.90726323  0.81166165  0.50558716
   0.90586924  0.95354522  0.50521841
   0.46368435  0.35567927  0.47188766
   0.39647936  0.55618237  0.43095245
   0.64716019  0.54041958  0.49977035
   0.58547588  0.41723716  0.49792054
   0.58415829  0.74349082  0.49415673
   0.46340167  0.68041507  0.48176067
   0.54042187  0.55027091  0.56297242
   0.47145459  0.49814777  0.48924859
   0.40237921  0.41876700  0.39796788
   0.63067811  0.66557113  0.50219251
   0.50777620  0.49190292  0.53488800
Direct configuration=     3
   0.00112131  0.00131685  0.50331456
   0.00049885  0.14378621  0.50277599
   0.00029203  0.28658897  0.50252986
   0.00076538  0.42968639  0.50360314
   0.00158789  0.57279556  0.50415964
   0.00270128  0.71613657  0.50467781
   0.00239065  0.85928853  0.50437201
   0.14430124  0.00181773  0.49718913
   0.14348059  0.14414311  0.49251941
   0.14197922  0.28589418  0.48772514
   0.14233971  0.42921894  0.48982659
   0.14387103  0.57241357  0.49535589
   0.14457066  0.71564575  0.49912129
   0.14463067  0.85888671  0.50044295
   0.28675490  0.00144808  0.49503421
   0.28624175  0.14388891  0.48366527
   0.28409349  0.28573241  0.46355756
   0.27989381  0.42732400  0.45517692
   0.28538936  0.57102726  0.47292718
   0.28655843  0.71554361  0.48940438
   0.28680684  0.85871795  0.49657611
   0.42957894  0.00158655  0.49642287
   0.42929205  0.14412350  0.49089600
   0.42748875  0.28348514  0.47551389
   0.42749831  0.71711497  0.48380385
   0.42923522  0.85865359  0.49363512
   0.57213661  0.00194364  0.49953791
   0.57217580  0.14421991  0.49848014
   0.57287737  0.28757803  0.49462593
   0.57280871  0.85984552  0.49620505
   0.71502209  0.00141573  0.50382578
   0.71511421  0.14425037  0.50438461
   0.71503325  0.28694439  0.50305804
   0.71481549  0.42894372  0.50192806
   0.71959203  0.57455748  0.50247966
   0.72230778  0.71768189  0.50348214
   0.71409070  0.85861072  0.50211411
   0.85797896  0.00126533  0.50586347
   0.85769414  0.14395010  0.50656741
   0.85776675  0.28676820  0.50648052
   0.85832356  0.42973713  0.50563209
   0.85948111  0.57318791  0.50536558
   0.86143690  0.71686851  0.50558244
   0.85883686  0.85846064  0.50511758
   0.04854557  0.09657291  0.50051916
   0.04744571  0.23865168  0.49902655
   0.04761031  0.38172504  0.50001742
   0.04894238  0.52500961  0.50181290
   0.04955142  0.66814980  0.50302002
   0.04965214  0.81131567  0.50349152
   0.04923732  0.95413741  0.50205866
   0.19128740  0.09644538  0.49053687
   0.18989994  0.23879577  0.48301642
   0.18781361  0.38043454  0.47971355
   0.19056620  0.52438995  0.48703890
   0.19158895  0.66794758  0.49420934
   0.19196983  0.81111417  0.49870511
   0.19188963  0.95397908  0.49746037
   0.33416975  0.09676926  0.48986786
   0.33421629  0.23865321  0.47162431
   0.32020156  0.37494704  0.43926051
   0.32650177  0.52167626  0.45087767
   0.33448823  0.66836687  0.48108402
   0.33422151  0.81075774  0.49332858
   0.33424438  0.95383709  0.49634611
   0.47705114  0.09661953  0.49574521
   0.47607529  0.23913834  0.48730445
   0.47614512  0.81054475  0.49114704
   0.47703138  0.95405307  0.49689671
   0.61972173  0.09682225  0.50124119
   0.61991798  0.23946808  0.49888341
   0.62173329  0.38091396  0.49775384
   0.62116868  0.81522820  0.49728226
   0.61988553  0.95457105  0.50026620
   0.76269650  0.09672379  0.50562455
   0.76270558  0.23923967  0.50529190
   0.76302547  0.38202329  0.50382457
   0.76385147  0.52618638  0.50362756
   0.76658462  0.66834557  0.50415084
   0.76263295  0.81007863  0.50374896
   0.76276567  0.95395689  0.50452753
   0.90530270  0.09612244  0.50598268
   0.90521372  0.23909019  0.50618960
   0.90554567  0.38219071  0.50603494
   0.90649692  0.52526930  0.50553381
   0.90765098  0.66837734  0.50567138
   0.90726152  0.81166588  0.50559036
   0.90586716  0.95354484  0.50521824
   0.46368405  0.35567852  0.47186344
   0.39647543  0.55618379  0.43092595
   0.64715872  0.54042002  0.49977439
   0.58547630  0.41723629  0.49791974
   0.58415705  0.74348930  0.49415852
   0.46340090  0.68041729  0.48173593
   0.54036101  0.55021455  0.56303081
   0.47157291  0.49819688  0.48912995
   0.40238166  0.41877919  0.39793053
   0.63067632  0.66556491  0.50219254
   0.50774361  0.49187210  0.53488800
Direct configuration=     4
   0.00112604  0.00131797  0.50331311
   0.00050219  0.14379314  0.50276682
   0.00029120  0.28659611  0.50252303
   0.00076659  0.42969181  0.50360032
   0.00158749  0.57279347  0.50416717
   0.00270247  0.71613049  0.50468619
   0.00239050  0.85928054  0.50437589
   0.14430116  0.00181388  0.49718543
   0.14348262  0.14414564  0.49249980
   0.14197542  0.28589592  0.48770137
   0.14233563  0.42922069  0.48980548
   0.14386782  0.57241360  0.49534708
   0.14456873  0.71564352  0.49911900
   0.14463002  0.85888061  0.50044304
   0.28675573  0.00144710  0.49502067
   0.28624495  0.14389169  0.48365011
   0.28409765  0.28573408  0.46352658
   0.27989017  0.42732406  0.45514080
   0.28538415  0.57102752  0.47289726
   0.28655507  0.71554412  0.48938624
   0.28680582  0.85871739  0.49656764
   0.42957850  0.00158715  0.49640957
   0.42929202  0.14412234  0.49087539
   0.42748834  0.28348379  0.47548599
   0.42749370  0.71711833  0.48378133
   0.42923365  0.85865655  0.49362069
   0.57213500  0.00194595  0.49952936
   0.57217755  0.14422050  0.49846770
   0.57288035  0.28757691  0.49461280
   0.57280571  0.85984868  0.49619234
   0.71502005  0.00141935  0.50382365
   0.71511616  0.14425470  0.50438238
   0.71503881  0.28694605  0.50305765
   0.71482299  0.42894603  0.50192898
   0.71959730  0.57455297  0.50247992
   0.72230491  0.71767066  0.50348205
   0.71408587  0.85860868  0.50211353
   0.85798101  0.00127037  0.50586392
   0.85769622  0.14395714  0.50656741
   0.85777000  0.28677670  0.50647978
   0.85832772  0.42974039  0.50563835
   0.85948599  0.57318708  0.50537396
   0.86144438  0.71686135  0.50558613
   0.85883880  0.85845698  0.50511876
   0.04854480  0.09657289  0.50050848
   0.04744715  0.23864884  0.49901116
   0.04761256  0.38171975  0.50000426
   0.04894506  0.52500951  0.50181315
   0.04955453  0.66815810  0.50302547
   0.04965217  0.81132241  0.50349835
   0.04923494  0.95414202  0.50205920
   0.19128573  0.09644640  0.49052213
   0.18990617  0.23879917  0.48298657
   0.18781707  0.38043752  0.47968659
   0.19056813  0.52438923  0.48701711
   0.19159149  0.66794952  0.49419852
   0.19196861  0.81112097  0.49870135
   0.19188940  0.95398454  0.49745609
   0.33416896  0.09677119  0.48984891
   0.33421684  0.23865444  0.47159731
   0.32020667  0.37495341  0.43922040
   0.32649442  0.52167276  0.45084202
   0.33449061  0.66836758  0.48105937
   0.33422285  0.81075914  0.49331444
   0.33424508  0.95383975  0.49633440
   0.47705137  0.09662219  0.49572841
   0.47607091  0.23913782  0.48728268
   0.47614639  0.81054555  0.49112846
   0.47703296  0.95405470  0.49688716
   0.61972000  0.09681995  0.50123428
   0.61991211  0.23946868  0.49887414
   0.62172755  0.38091208  0.49774763
   0.62117151  0.81522740  0.49727814
   0.61988681  0.95456566  0.50025857
   0.76269524  0.09671874  0.50562382
   0.76270195  0.23923600  0.50529096
   0.76302129  0.38202198  0.50382693
   0.76384450  0.52618762  0.50362932
   0.76657625  0.66835085  0.50415072
   0.76263067  0.81008146  0.50375013
   0.76276621  0.95395389  0.50452668
   0.90529602  0.09611367  0.50598326
   0.90521333  0.23908269  0.50618670
   0.90553948  0.38218371  0.50603635
   0.90649599  0.52527005  0.50554402
   0.90764619  0.66838445  0.50567766
   0.90725850  0.81167375  0.50559398
   0.90586393  0.95354404  0.50521844
   0.46368394  0.35567818  0.47183097
   0.39646998  0.55618543  0.43089054
   0.64715619  0.54042045  0.49977851
   0.58547704  0.41723514  0.49791835
   0.58415530  0.74348716  0.49416049
   0.46340042  0.68041998  0.48170303
   0.54027987  0.55013874  0.56310872
   0.47172984  0.49826194  0.48897400
   0.40238435  0.41879408  0.39788026
   0.63067213  0.66555770  0.50219265
   0.50769963  0.49183039  0.53488800
Direct configuration=     5
   0.00112635  0.00131915  0.50331106
   0.00050153  0.14379398  0.50275534
   0.00029032  0.28659555  0.50251313
   0.00076703  0.42969185  0.50359654
   0.00158869  0.57279469  0.50417640
   0.00270242  0.71613220  0.50469633
   0.00238953  0.85928192  0.50438057
   0.14430027  0.00181848  0.49718019
   0.14348420  0.14414909  0.49247688
   0.14197505  0.28589807  0.48767098
   0.14233585  0.42922134  0.48977807
   0.14386855  0.57241425  0.49533492
   0.14456975  0.71564636  0.49911596
   0.14462997  0.85888322  0.50044336
   0.28675529  0.00144889  0.49500375
   0.28624703  0.14389623  0.48363106
   0.28410496  0.28574129  0.46348905
   0.27988769  0.42732306  0.45509536
   0.28538107  0.57102659  0.47285999
   0.28655478  0.71554539  0.48936350
   0.28680536  0.85871963  0.49655656
   0.42957846  0.00158918  0.49639278
   0.42928904  0.14412183  0.49084986
   0.42748845  0.28348344  0.47545013
   0.42749201  0.71712125  0.48375215
   0.42923466  0.85865958  0.49360449
   0.57213518  0.00194580  0.49951848
   0.57217740  0.14422134  0.49845208
   0.57288018  0.28757678  0.49459546
   0.57280483  0.85984799  0.49617633
   0.71501951  0.00141849  0.50382053
   0.71511608  0.14425451  0.50437932
   0.71503805  0.28694530  0.50305659
   0.71482173  0.42894568  0.50192892
   0.71959623  0.57455301  0.50247772
   0.72229979  0.71766717  0.50348016
   0.71408376  0.85860741  0.50211223
   0.85797977  0.00126972  0.50586426
   0.85769555  0.14395650  0.50656701
   0.85776894  0.28677487  0.50647876
   0.85832734  0.42974042  0.50564588
   0.85948637  0.57318866  0.50538353
   0.86144197  0.71686154  0.50558961
   0.85883607  0.85845624  0.50512005
   0.04854573  0.09657525  0.50049469
   0.04744833  0.23865032  0.49899193
   0.04761219  0.38172330  0.49999008
   0.04894557  0.52501034  0.50181322
   0.04955575  0.66815562  0.50303288
   0.04965152  0.81132095  0.50350636
   0.04923353  0.95414099  0.50205989
   0.19128591  0.09644628  0.49050417
   0.18991005  0.23880435  0.48295208
   0.18781770  0.38044199  0.47965452
   0.19056598  0.52438999  0.48699026
   0.19158953  0.66794830  0.49418789
   0.19196870  0.81111965  0.49869656
   0.19188905  0.95398483  0.49745108
   0.33416909  0.09677205  0.48982558
   0.33421781  0.23865483  0.47156328
   0.32021208  0.37495817  0.43917227
   0.32648442  0.52167164  0.45080163
   0.33448831  0.66836795  0.48102794
   0.33422305  0.81076083  0.49329749
   0.33424719  0.95383945  0.49631963
   0.47705232  0.09662362  0.49570720
   0.47606669  0.23913583  0.48725694
   0.47614571  0.81054839  0.49110624
   0.47703313  0.95405678  0.49687462
   0.61972000  0.09682012  0.50122527
   0.61991190  0.23946899  0.49886231
   0.62172847  0.38091123  0.49773982
   0.62116894  0.81522644  0.49727217
   0.61988552  0.95456496  0.50024999
   0.76269438  0.09671894  0.50562285
   0.76270246  0.23923642  0.50528934
   0.76302301  0.38202300  0.50382977
   0.76384505  0.52618637  0.50363144
   0.76657641  0.66835011  0.50414961
   0.76262739  0.81007809  0.50375062
   0.76276527  0.95395356  0.50452543
   0.90529854  0.09611654  0.50598124
   0.90521417  0.23908331  0.50618333
   0.90553987  0.38218476  0.50603803
   0.90649815  0.52527130  0.50555634
   0.90764767  0.66838386  0.50568605
   0.90725783  0.81167290  0.50559767
   0.90586419  0.95354428  0.50521878
   0.46368359  0.35567752  0.47179055
   0.39646213  0.55618657  0.43084676
   0.64715558  0.54042156  0.49978190
   0.58547649  0.41723450  0.49791602
   0.58415340  0.74348485  0.49416224
   0.46339906  0.68042393  0.48166230
   0.54017782  0.55004216  0.56320518
   0.47192403  0.49834198  0.48878289
   0.40238785  0.41881200  0.39781878
   0.63066733  0.66554794  0.50219346
   0.50764463  0.49177944  0.53488800
Direct configuration=     6
   0.00112281  0.00132069  0.50330952
   0.00049904  0.14379015  0.50274099
   0.00029207  0.28659164  0.50250031
   0.00076642  0.42968827  0.50359175
   0.00159151  0.57279781  0.50418750
   0.00270227  0.71613871  0.50470837
   0.00238803  0.85929027  0.50438638
   0.14429926  0.00182305  0.49717352
   0.14348606  0.14415394  0.49244963
   0.14197943  0.28590141  0.48763300
   0.14233921  0.42922052  0.48974783
   0.14387017  0.57241570  0.49532076
   0.14457259  0.71565081  0.49911238
   0.14463043  0.85889167  0.50044408
   0.28675418  0.00145178  0.49498334
   0.28624662  0.14390000  0.48360638
   0.28411379  0.28575251  0.46344354
   0.27988620  0.42732164  0.45504014
   0.28537822  0.57102596  0.47281540
   0.28655722  0.71554745  0.48933744
   0.28680618  0.85872270  0.49654390
   0.42957994  0.00159234  0.49637202
   0.42928655  0.14412130  0.49081939
   0.42748935  0.28348429  0.47540519
   0.42749291  0.71712435  0.48371616
   0.42923706  0.85866263  0.49358720
   0.57213678  0.00194388  0.49950509
   0.57217503  0.14422284  0.49843440
   0.57287556  0.28757664  0.49457351
   0.57280541  0.85984418  0.49615701
   0.71501983  0.00141381  0.50381630
   0.71511373  0.14425030  0.50437515
   0.71503230  0.28694347  0.50305437
   0.71481427  0.42894290  0.50192783
   0.71959002  0.57455560  0.50247449
   0.72229285  0.71767000  0.50347635
   0.71408615  0.85860818  0.50210991
   0.85797690  0.00126517  0.50586430
   0.85769297  0.14394946  0.50656598
   0.85776528  0.28676562  0.50647744
   0.85832423  0.42973847  0.50565475
   0.85948302  0.57319087  0.50539428
   0.86143252  0.71686784  0.50559289
   0.85882982  0.85845785  0.50512148
   0.04854863  0.09657970  0.50047756
   0.04744589  0.23865218  0.49897126
   0.04761002  0.38173209  0.49997432
   0.04894447  0.52501185  0.50181278
   0.04955584  0.66814992  0.50304132
   0.04965077  0.81131441  0.50351535
   0.04923403  0.95413697  0.50206050
   0.19128862  0.09644820  0.49048284
   0.18991149  0.23881118  0.48291226
   0.18781547  0.38044498  0.47961524
   0.19056072  0.52439185  0.48695747
   0.19158487  0.66794460  0.49417790
   0.19196991  0.81111400  0.49869063
   0.19188854  0.95398241  0.49744478
   0.33416881  0.09677192  0.48979761
   0.33421804  0.23865679  0.47152427
   0.32021869  0.37496430  0.43911664
   0.32647591  0.52167282  0.45075322
   0.33448346  0.66836924  0.48099018
   0.33422176  0.81076237  0.49327865
   0.33424861  0.95383850  0.49630120
   0.47705281  0.09662412  0.49568100
   0.47606578  0.23913427  0.48722629
   0.47614325  0.81055243  0.49107995
   0.47703233  0.95405946  0.49685841
   0.61972167  0.09682280  0.50121382
   0.61991712  0.23946910  0.49884748
   0.62173398  0.38091128  0.49773002
   0.62116206  0.81522472  0.49726410
   0.61988268  0.95456875  0.50023975
   0.76269425  0.09672333  0.50562156
   0.76270663  0.23923925  0.50528864
   0.76302827  0.38202503  0.50383304
   0.76385156  0.52618403  0.50363396
   0.76658297  0.66834385  0.50414729
   0.76262284  0.81006963  0.50375022
   0.76276301  0.95395527  0.50452363
   0.90530519  0.09612641  0.50597796
   0.90521522  0.23909051  0.50617948
   0.90554574  0.38219176  0.50604006
   0.90650165  0.52527266  0.50557081
   0.90765237  0.66837806  0.50569567
   0.90725748  0.81166400  0.50560008
   0.90586667  0.95354524  0.50521926
   0.46368298  0.35567637  0.47174198
   0.39645054  0.55618653  0.43079506
   0.64715634  0.54042312  0.49978442
   0.58547506  0.41723396  0.49791258
   0.58415149  0.74348263  0.49416355
   0.46339701  0.68042905  0.48161370
   0.54005493  0.54992500  0.56332009
   0.47215570  0.49843700  0.48855694
   0.40239106  0.41883305  0.39775131
   0.63065874  0.66553515  0.50219224
   0.50757947  0.49172052  0.53488800
Direct configuration=     7
   0.00112252  0.00132364  0.50330740
   0.00050064  0.14379053  0.50272109
   0.00029569  0.28659453  0.50248233
   0.00076335  0.42968933  0.50358648
   0.00159379  0.57279899  0.50420238
   0.00270346  0.71613865  0.50472430
   0.00238642  0.85928997  0.50439488
   0.14430059  0.00182410  0.49716413
   0.14349030  0.14416184  0.49241307
   0.14198371  0.28590583  0.48758394
   0.14233934  0.42922280  0.48971091
   0.14386635  0.57241588  0.49530278
   0.14457272  0.71564881  0.49910864
   0.14463027  0.85889111  0.50044566
   0.28675426  0.00145028  0.49495794
   0.28624550  0.14390243  0.48357046
   0.28411965  0.28576320  0.46338410
   0.27988483  0.42732438  0.45496953
   0.28537061  0.57102792  0.47275766
   0.28655604  0.71554897  0.48930505
   0.28680747  0.85872304  0.49652738
   0.42958057  0.00159528  0.49634508
   0.42928785  0.14412068  0.49078263
   0.42749455  0.28349005  0.47534583
   0.42749331  0.71712838  0.48366773
   0.42923689  0.85866635  0.49356527
   0.57213741  0.00194540  0.49948710
   0.57217401  0.14422430  0.49841172
   0.57287199  0.28757527  0.49454396
   0.57280411  0.85984432  0.49613380
   0.71501801  0.00141266  0.50381035
   0.71511182  0.14424940  0.50436928
   0.71503179  0.28694472  0.50305059
   0.71481444  0.42894137  0.50192598
   0.71958914  0.57455294  0.50247134
   0.72228426  0.71766348  0.50346940
   0.71408295  0.85860604  0.50210562
   0.85797754  0.00126637  0.50586387
   0.85769279  0.14394882  0.50656403
   0.85776638  0.28676635  0.50647578
   0.85832595  0.42973984  0.50566654
   0.85948286  0.57318988  0.50540796
   0.86143154  0.71686790  0.50559703
   0.85882623  0.85845601  0.50512323
   0.04855172  0.09658294  0.50045491
   0.04744486  0.23865167  0.49894497
   0.04761167  0.38172808  0.49995541
   0.04894445  0.52501315  0.50181151
   0.04955617  0.66815350  0.50305291
   0.04965102  0.81131695  0.50352666
   0.04923506  0.95413947  0.50206119
   0.19129117  0.09645425  0.49045526
   0.18991457  0.23882017  0.48285993
   0.18781525  0.38044462  0.47955947
   0.19055698  0.52439288  0.48691282
   0.19158562  0.66794333  0.49416734
   0.19196989  0.81111835  0.49868312
   0.19188808  0.95398529  0.49743559
   0.33416560  0.09677268  0.48976239
   0.33422111  0.23866237  0.47147504
   0.32022494  0.37497473  0.43904952
   0.32646930  0.52167333  0.45068670
   0.33448246  0.66836971  0.48094149
   0.33422202  0.81076498  0.49325488
   0.33424824  0.95384192  0.49627599
   0.47705148  0.09662570  0.49564576
   0.47606660  0.23913630  0.48718524
   0.47614173  0.81055532  0.49104555
   0.47703298  0.95406285  0.49683576
   0.61972154  0.09682481  0.50119799
   0.61991891  0.23946940  0.49882671
   0.62173286  0.38091015  0.49771584
   0.62115912  0.81522209  0.49725453
   0.61988204  0.95457054  0.50022544
   0.76269355  0.09672264  0.50561966
   0.76270670  0.23923826  0.50528871
   0.76302729  0.38202419  0.50383694
   0.76385083  0.52618362  0.50363685
   0.76658176  0.66834105  0.50414262
   0.76261714  0.81006518  0.50374839
   0.76276179  0.95395471  0.50452083
   0.90530331  0.09612553  0.50597391
   0.90521524  0.23909185  0.50617449
   0.90554515  0.38219037  0.50604271
   0.90650215  0.52527378  0.50558966
   0.90765202  0.66837865  0.50570845
   0.90725423  0.81166332  0.50559821
   0.90586533  0.95354506  0.50522026
   0.46368251  0.35567536  0.47167858
   0.39643457  0.55618606  0.43072879
   0.64715430  0.54042421  0.49978544
   0.58547461  0.41723221  0.49790739
   0.58414898  0.74348005  0.49416420
   0.46339554  0.68043506  0.48155076
   0.53989636  0.54977444  0.56347016
   0.47245520  0.49855955  0.48826869
   0.40239646  0.41885915  0.39766981
   0.63064990  0.66551850  0.50218981
   0.50749134  0.49164091  0.53488800
Direct configuration=     8
   0.00112806  0.00132737  0.50330313
   0.00050520  0.14379683  0.50269420
   0.00029452  0.28659854  0.50245971
   0.00076556  0.42969324  0.50357899
   0.00159313  0.57279950  0.50422213
   0.00270265  0.71613275  0.50474300
   0.00238568  0.85928198  0.50440599
   0.14430489  0.00182582  0.49715054
   0.14349690  0.14417266  0.49236363
   0.14197370  0.28590010  0.48752330
   0.14233454  0.42922662  0.48966723
   0.14385937  0.57241397  0.49527894
   0.14457117  0.71564487  0.49910587
   0.14462925  0.85888467  0.50044798
   0.28675346  0.00144858  0.49492772
   0.28624670  0.14390678  0.48352071
   0.28412397  0.28577307  0.46330447
   0.27988149  0.42733174  0.45487896
   0.28536146  0.57102908  0.47268323
   0.28655288  0.71554953  0.48926491
   0.28680881  0.85872266  0.49650675
   0.42957911  0.00159745  0.49630861
   0.42928909  0.14412293  0.49073556
   0.42750004  0.28349742  0.47527365
   0.42749000  0.71713614  0.48360551
   0.42923400  0.85867065  0.49353484
   0.57213387  0.00195280  0.49946373
   0.57217498  0.14422438  0.49838323
   0.57287208  0.28756851  0.49450621
   0.57280071  0.85984991  0.49610549
   0.71501518  0.00141720  0.50380222
   0.71511285  0.14425411  0.50436129
   0.71503902  0.28694736  0.50304445
   0.71482215  0.42894194  0.50192314
   0.71959408  0.57454543  0.50246772
   0.72227504  0.71764455  0.50345860
   0.71407693  0.85860370  0.50209877
   0.85797960  0.00127241  0.50586268
   0.85769550  0.14395806  0.50656080
   0.85777117  0.28677678  0.50647426
   0.85833086  0.42974349  0.50568214
   0.85948644  0.57318729  0.50542574
   0.86143995  0.71685928  0.50560127
   0.85882551  0.85845023  0.50512445
   0.04855534  0.09658545  0.50042516
   0.04745135  0.23865116  0.49890894
   0.04761683  0.38172228  0.49993241
   0.04894399  0.52501280  0.50180933
   0.04955691  0.66815976  0.50306635
   0.04965159  0.81132767  0.50354124
   0.04923542  0.95414870  0.50206212
   0.19129221  0.09646439  0.49042058
   0.18992213  0.23882848  0.48279160
   0.18781987  0.38044383  0.47948220
   0.19055388  0.52439349  0.48685358
   0.19159134  0.66794695  0.49415323
   0.19197384  0.81112551  0.49867583
   0.19188836  0.95399115  0.49742216
   0.33416291  0.09677461  0.48971717
   0.33422778  0.23866970  0.47141180
   0.32023266  0.37499275  0.43896544
   0.32645844  0.52167520  0.45059924
   0.33448449  0.66837130  0.48088195
   0.33422356  0.81076717  0.49322384
   0.33424598  0.95384675  0.49624411
   0.47705073  0.09662850  0.49560203
   0.47606807  0.23914122  0.48712877
   0.47614245  0.81055708  0.49100075
   0.47703681  0.95406993  0.49680746
   0.61971785  0.09682471  0.50117643
   0.61991088  0.23947172  0.49879793
   0.62172498  0.38090708  0.49769553
   0.62116109  0.81521940  0.49724477
   0.61988230  0.95456557  0.50020906
   0.76269172  0.09671578  0.50561664
   0.76270032  0.23923515  0.50528666
   0.76302186  0.38202225  0.50384145
   0.76384202  0.52618332  0.50364056
   0.76656983  0.66834413  0.50413520
   0.76260977  0.81006517  0.50374451
   0.76276168  0.95395060  0.50451642
   0.90529521  0.09611375  0.50596810
   0.90521622  0.23908558  0.50616734
   0.90553775  0.38218209  0.50604630