  93  93   0   0
  0.4166543E+02  0.1727104E-08  0.1727104E-08  0.1500000E-08  0.1000000E-15
   1.0000000000000000E-004
  CAR 
 unknown system                          
      5.72495483    -30.77153841  301     -2.80219560      1.00000000
    -30.772  0.0000E+00  0.0000E+00  0.0000E+00  0.0000E+00
    -30.650  0.0000E+00  0.0000E+00  0.0000E+00  0.0000E+00
    -30.528  0.0000E+00  0.0000E+00  0.0000E+00  0.0000E+00
    -30.407  0.0000E+00  0.0000E+00  0.0000E+00  0.0000E+00
    -30.285  0.0000E+00  0.0000E+00  0.0000E+00  0.0000E+00
    -30.163  0.0000E+00  0.0000E+00  0.0000E+00  0.0000E+00
    -30.042  0.0000E+00  0.0000E+00  0.0000E+00  0.0000E+00
    -29.920  0.0000E+00  0.0000E+00  0.0000E+00  0.0000E+00
    -29.798  0.0000E+00  0.0000E+00  0.0000E+00  0.0000E+00
    -29.677  0.0000E+00  0.0000E+00  0.0000E+00  0.0000E+00
    -29.555  0.0000E+00  0.0000E+00  0.0000E+00  0.0000E+00
    -29.433  0.0000E+00  0.0000E+00  0.0000E+00  0.0000E+00
    -29.312  0.2451E-09  0.2451E-09  0.2981E-10  0.2981E-10
    -29.190  0.3907E-03  0.3907E-03  0.4753E-04  0.4753E-04
    -29.068  0.2950E-01  0.2950E-01  0.3637E-02  0.3637E-02
    -28.947  0.2477E-01  0.2477E-01  0.6651E-02  0.6651E-02
    -28.825  0.1327E-03  0.1327E-03  0.6667E-02  0.6667E-02
    -28.703  0.2278E-10  0.2278E-10  0.6667E-02  0.6667E-02
    -28.582  0.0000E+00  0.0000E+00  0.6667E-02  0.6667E-02
    -28.460  0.0000E+00  0.0000E+00  0.6667E-02  0.6667E-02
    -28.338  0.0000E+00  0.0000E+00  0.6667E-02  0.6667E-02
    -28.217  0.0000E+00  0.0000E+00  0.6667E-02  0.6667E-02
    -28.095  0.0000E+00  0.0000E+00  0.6667E-02  0.6667E-02
    -27.973  0.0000E+00  0.0000E+00  0.6667E-02  0.6667E-02
    -27.852  0.0000E+00  0.0000E+00  0.6667E-02  0.6667E-02
    -27.730  0.0000E+00  0.0000E+00  0.6667E-02  0.6667E-02
    -27.609  0.0000E+00  0.0000E+00  0.6667E-02  0.6667E-02
    -27.487  0.0000E+00  0.0000E+00  0.6667E-02  0.6667E-02
    -27.365  0.0000E+00  0.0000E+00  0.6667E-02  0.6667E-02
    -27.244  0.0000E+00  0.0000E+00  0.6667E-02  0.6667E-02
    -27.122  0.0000E+00  0.0000E+00  0.6667E-02  0.6667E-02
    -27.000  0.0000E+00  0.0000E+00  0.6667E-02  0.6667E-02
    -26.879  0.0000E+00  0.0000E+00  0.6667E-02  0.6667E-02
    -26.757  0.0000E+00  0.0000E+00  0.6667E-02  0.6667E-02
    -26.635  0.0000E+00  0.0000E+00  0.6667E-02  0.6667E-02
    -26.514  0.0000E+00  0.0000E+00  0.6667E-02  0.6667E-02
    -26.392  0.0000E+00  0.0000E+00  0.6667E-02  0.6667E-02
    -26.270  0.0000E+00  0.0000E+00  0.6667E-02  0.6667E-02
    -26.149  0.0000E+00  0.0000E+00  0.6667E-02  0.6667E-02
    -26.027  0.0000E+00  0.0000E+00  0.6667E-02  0.6667E-02
    -25.905  0.0000E+00  0.0000E+00  0.6667E-02  0.6667E-02
    -25.784  0.0000E+00  0.0000E+00  0.6667E-02  0.6667E-02
    -25.662  0.0000E+00  0.0000E+00  0.6667E-02  0.6667E-02
    -25.540  0.0000E+00  0.0000E+00  0.6667E-02  0.6667E-02
    -25.419  0.0000E+00  0.0000E+00  0.6667E-02  0.6667E-02
    -25.297  0.0000E+00  0.0000E+00  0.6667E-02  0.6667E-02
    -25.175  0.0000E+00  0.0000E+00  0.6667E-02  0.6667E-02
    -25.054  0.0000E+00  0.0000E+00  0.6667E-02  0.6667E-02
    -24.932  0.0000E+00  0.0000E+00  0.6667E-02  0.6667E-02
    -24.810  0.0000E+00  0.0000E+00  0.6667E-02  0.6667E-02
    -24.689  0.0000E+00  0.0000E+00  0.6667E-02  0.6667E-02
    -24.567  0.0000E+00  0.0000E+00  0.6667E-02  0.6667E-02
    -24.445  0.0000E+00  0.0000E+00  0.6667E-02  0.6667E-02
    -24.324  0.0000E+00  0.0000E+00  0.6667E-02  0.6667E-02
    -24.202  0.0000E+00  0.0000E+00  0.6667E-02  0.6667E-02
    -24.081  0.0000E+00  0.0000E+00  0.6667E-02  0.6667E-02
    -23.959  0.0000E+00  0.0000E+00  0.6667E-02  0.6667E-02
    -23.837  0.0000E+00  0.0000E+00  0.6667E-02  0.6667E-02
    -23.716  0.0000E+00  0.0000E+00  0.6667E-02  0.6667E-02
    -23.594  0.0000E+00  0.0000E+00  0.6667E-02  0.6667E-02
    -23.472  0.0000E+00  0.0000E+00  0.6667E-02  0.6667E-02
    -23.351  0.0000E+00  0.0000E+00  0.6667E-02  0.6667E-02
    -23.229  0.0000E+00  0.0000E+00  0.6667E-02  0.6667E-02
    -23.107  0.0000E+00  0.0000E+00  0.6667E-02  0.6667E-02
    -22.986  0.3802E-18  0.3802E-18  0.6667E-02  0.6667E-02
    -22.864  0.8403E-08  0.8403E-08  0.6667E-02  0.6667E-02
    -22.742  0.1563E-02  0.1563E-02  0.6857E-02  0.6857E-02
    -22.621  0.2504E-01  0.2504E-01  0.9903E-02  0.9903E-02
    -22.499  0.3555E-01  0.3555E-01  0.1423E-01  0.1423E-01
    -22.377  0.2004E-01  0.2004E-01  0.1667E-01  0.1667E-01
    -22.256  0.4620E-02  0.4620E-02  0.1723E-01  0.1723E-01
    -22.134  0.2705E-01  0.2705E-01  0.2052E-01  0.2052E-01
    -22.012  0.2337E-01  0.2337E-01  0.2336E-01  0.2336E-01
    -21.891  0.2013E-01  0.2013E-01  0.2581E-01  0.2581E-01
    -21.769  0.1853E-01  0.1853E-01  0.2806E-01  0.2806E-01
    -21.647  0.2843E-01  0.2843E-01  0.3152E-01  0.3152E-01
    -21.526  0.1211E-01  0.1211E-01  0.3300E-01  0.3300E-01
    -21.404  0.2634E-01  0.2634E-01  0.3620E-01  0.3620E-01
    -21.282  0.1519E-01  0.1519E-01  0.3805E-01  0.3805E-01
    -21.161  0.1596E-01  0.1596E-01  0.3999E-01  0.3999E-01
    -21.039  0.8932E-02  0.8932E-02  0.4108E-01  0.4108E-01
    -20.917  0.2389E-01  0.2389E-01  0.4398E-01  0.4398E-01
    -20.796  0.2965E-01  0.2965E-01  0.4759E-01  0.4759E-01
    -20.674  0.4189E-01  0.4189E-01  0.5269E-01  0.5269E-01
    -20.553  0.2424E-01  0.2424E-01  0.5564E-01  0.5564E-01
    -20.431  0.1405E-01  0.1405E-01  0.5734E-01  0.5734E-01
    -20.309  0.3051E-01  0.3051E-01  0.6106E-01  0.6106E-01
    -20.188  0.1298E-01  0.1298E-01  0.6263E-01  0.6263E-01
    -20.066  0.1616E-01  0.1616E-01  0.6460E-01  0.6460E-01
    -19.944  0.1812E-01  0.1812E-01  0.6681E-01  0.6681E-01
    -19.823  0.2000E-01  0.2000E-01  0.6924E-01  0.6924E-01
    -19.701  0.3808E-01  0.3808E-01  0.7387E-01  0.7387E-01
    -19.579  0.3642E-01  0.3642E-01  0.7830E-01  0.7830E-01
    -19.458  0.2048E-01  0.2048E-01  0.8079E-01  0.8079E-01
    -19.336  0.9690E-02  0.9690E-02  0.8197E-01  0.8197E-01
    -19.214  0.1114E-01  0.1114E-01  0.8333E-01  0.8333E-01
    -19.093  0.1265E-01  0.1265E-01  0.8487E-01  0.8487E-01
    -18.971  0.1723E-01  0.1723E-01  0.8696E-01  0.8696E-01
    -18.849  0.2986E-01  0.2986E-01  0.9060E-01  0.9060E-01
    -18.728  0.4695E-01  0.4695E-01  0.9631E-01  0.9631E-01
    -18.606  0.2077E-01  0.2077E-01  0.9883E-01  0.9883E-01
    -18.484  0.3033E-01  0.3033E-01  0.1025E+00  0.1025E+00
    -18.363  0.1573E-01  0.1573E-01  0.1044E+00  0.1044E+00
    -18.241  0.2020E-01  0.2020E-01  0.1069E+00  0.1069E+00
    -18.119  0.1945E-01  0.1945E-01  0.1093E+00  0.1093E+00
    -17.998  0.2564E-01  0.2564E-01  0.1124E+00  0.1124E+00
    -17.876  0.1094E-01  0.1094E-01  0.1137E+00  0.1137E+00
    -17.754  0.4433E-01  0.4433E-01  0.1191E+00  0.1191E+00
    -17.633  0.4368E-01  0.4368E-01  0.1244E+00  0.1244E+00
    -17.511  0.1045E-01  0.1045E-01  0.1257E+00  0.1257E+00
    -17.389  0.1891E-01  0.1891E-01  0.1280E+00  0.1280E+00
    -17.268  0.3718E-01  0.3718E-01  0.1325E+00  0.1325E+00
    -17.146  0.2771E-01  0.2771E-01  0.1359E+00  0.1359E+00
    -17.025  0.1731E-01  0.1731E-01  0.1380E+00  0.1380E+00
    -16.903  0.2074E-01  0.2074E-01  0.1405E+00  0.1405E+00
    -16.781  0.2261E-01  0.2261E-01  0.1433E+00  0.1433E+00
    -16.660  0.5345E-01  0.5345E-01  0.1498E+00  0.1498E+00
    -16.538  0.2021E-01  0.2021E-01  0.1522E+00  0.1522E+00
    -16.416  0.1427E-01  0.1427E-01  0.1540E+00  0.1540E+00
    -16.295  0.1698E-02  0.1698E-02  0.1542E+00  0.1542E+00
    -16.173  0.1310E-04  0.1310E-04  0.1542E+00  0.1542E+00
    -16.051  0.5245E-02  0.5245E-02  0.1548E+00  0.1548E+00
    -15.930  0.2244E-01  0.2244E-01  0.1575E+00  0.1575E+00
    -15.808  0.2904E-01  0.2904E-01  0.1611E+00  0.1611E+00
    -15.686  0.1643E-01  0.1643E-01  0.1631E+00  0.1631E+00
    -15.565  0.8589E-02  0.8589E-02  0.1641E+00  0.1641E+00
    -15.443  0.3178E-01  0.3178E-01  0.1680E+00  0.1680E+00
    -15.321  0.4509E-01  0.4509E-01  0.1735E+00  0.1735E+00
    -15.200  0.2457E-01  0.2457E-01  0.1765E+00  0.1765E+00
    -15.078  0.2376E-01  0.2376E-01  0.1793E+00  0.1793E+00
    -14.956  0.2753E-01  0.2753E-01  0.1827E+00  0.1827E+00
    -14.835  0.3136E-01  0.3136E-01  0.1865E+00  0.1865E+00
    -14.713  0.2615E-01  0.2615E-01  0.1897E+00  0.1897E+00
    -14.591  0.4355E-01  0.4355E-01  0.1950E+00  0.1950E+00
    -14.470  0.3266E-01  0.3266E-01  0.1990E+00  0.1990E+00
    -14.348  0.1174E-01  0.1174E-01  0.2004E+00  0.2004E+00
    -14.226  0.1749E-01  0.1749E-01  0.2025E+00  0.2025E+00
    -14.105  0.1169E-01  0.1169E-01  0.2039E+00  0.2039E+00
    -13.983  0.2442E-01  0.2442E-01  0.2069E+00  0.2069E+00
    -13.861  0.2911E-01  0.2911E-01  0.2104E+00  0.2104E+00
    -13.740  0.3975E-01  0.3975E-01  0.2153E+00  0.2153E+00
    -13.618  0.2394E-01  0.2394E-01  0.2182E+00  0.2182E+00
    -13.497  0.2167E-01  0.2167E-01  0.2208E+00  0.2208E+00
    -13.375  0.6735E-02  0.6735E-02  0.2217E+00  0.2217E+00
    -13.253  0.1127E-01  0.1127E-01  0.2230E+00  0.2230E+00
    -13.132  0.1971E-01  0.1971E-01  0.2254E+00  0.2254E+00
    -13.010  0.2257E-01  0.2257E-01  0.2282E+00  0.2282E+00
    -12.888  0.3093E-01  0.3093E-01  0.2319E+00  0.2319E+00
    -12.767  0.5843E-01  0.5843E-01  0.2390E+00  0.2390E+00
    -12.645  0.1938E-01  0.1938E-01  0.2414E+00  0.2414E+00
    -12.523  0.3289E-01  0.3289E-01  0.2454E+00  0.2454E+00
    -12.402  0.2750E-01  0.2750E-01  0.2487E+00  0.2487E+00
    -12.280  0.2160E-01  0.2160E-01  0.2514E+00  0.2514E+00
    -12.158  0.7884E-02  0.7884E-02  0.2523E+00  0.2523E+00
    -12.037  0.2851E-01  0.2851E-01  0.2558E+00  0.2558E+00
    -11.915  0.2561E-01  0.2561E-01  0.2589E+00  0.2589E+00
    -11.793  0.3778E-01  0.3778E-01  0.2635E+00  0.2635E+00
    -11.672  0.4518E-01  0.4518E-01  0.2690E+00  0.2690E+00
    -11.550  0.4178E-01  0.4178E-01  0.2741E+00  0.2741E+00
    -11.428  0.3354E-01  0.3354E-01  0.2782E+00  0.2782E+00
    -11.307  0.4268E-01  0.4268E-01  0.2834E+00  0.2834E+00
    -11.185  0.3336E-01  0.3336E-01  0.2874E+00  0.2874E+00
    -11.063  0.2472E-01  0.2472E-01  0.2904E+00  0.2904E+00
    -10.942  0.1610E-01  0.1610E-01  0.2924E+00  0.2924E+00
    -10.820  0.1236E-01  0.1236E-01  0.2939E+00  0.2939E+00
    -10.698  0.3171E-01  0.3171E-01  0.2978E+00  0.2978E+00
    -10.577  0.5099E-01  0.5099E-01  0.3040E+00  0.3040E+00
    -10.455  0.4209E-01  0.4209E-01  0.3091E+00  0.3091E+00
    -10.334  0.4447E-01  0.4447E-01  0.3145E+00  0.3145E+00
    -10.212  0.4944E-01  0.4944E-01  0.3205E+00  0.3205E+00
    -10.090  0.5496E-01  0.5496E-01  0.3272E+00  0.3272E+00
     -9.969  0.5777E-01  0.5777E-01  0.3342E+00  0.3342E+00
     -9.847  0.6209E-01  0.6209E-01  0.3418E+00  0.3418E+00
     -9.725  0.6624E-01  0.6624E-01  0.3498E+00  0.3498E+00
     -9.604  0.5944E-01  0.5944E-01  0.3571E+00  0.3571E+00
     -9.482  0.7667E-01  0.7667E-01  0.3664E+00  0.3664E+00
     -9.360  0.5939E-01  0.5939E-01  0.3736E+00  0.3736E+00
     -9.239  0.7461E-01  0.7461E-01  0.3827E+00  0.3827E+00
     -9.117  0.8614E-01  0.8614E-01  0.3932E+00  0.3932E+00
     -8.995  0.8272E-01  0.8272E-01  0.4032E+00  0.4032E+00
     -8.874  0.5855E-01  0.5855E-01  0.4104E+00  0.4104E+00
     -8.752  0.5033E-01  0.5033E-01  0.4165E+00  0.4165E+00
     -8.630  0.5704E-01  0.5704E-01  0.4234E+00  0.4234E+00
     -8.509  0.6241E-01  0.6241E-01  0.4310E+00  0.4310E+00
     -8.387  0.9447E-01  0.9447E-01  0.4425E+00  0.4425E+00
     -8.265  0.6155E-01  0.6155E-01  0.4500E+00  0.4500E+00
     -8.144  0.4655E-01  0.4655E-01  0.4557E+00  0.4557E+00
     -8.022  0.2829E-01  0.2829E-01  0.4591E+00  0.4591E+00
     -7.900  0.4484E-01  0.4484E-01  0.4645E+00  0.4645E+00
     -7.779  0.2548E-01  0.2548E-01  0.4676E+00  0.4676E+00
     -7.657  0.3181E-01  0.3181E-01  0.4715E+00  0.4715E+00
     -7.535  0.7358E-01  0.7358E-01  0.4805E+00  0.4805E+00
     -7.414  0.7513E-01  0.7513E-01  0.4896E+00  0.4896E+00
     -7.292  0.5575E-01  0.5575E-01  0.4964E+00  0.4964E+00
     -7.170  0.2506E-01  0.2506E-01  0.4994E+00  0.4994E+00
     -7.049  0.4068E-01  0.4068E-01  0.5044E+00  0.5044E+00
     -6.927  0.4976E-01  0.4976E-01  0.5104E+00  0.5104E+00
     -6.806  0.4084E-01  0.4084E-01  0.5154E+00  0.5154E+00
     -6.684  0.4335E-01  0.4335E-01  0.5207E+00  0.5207E+00
     -6.562  0.2933E-01  0.2933E-01  0.5243E+00  0.5243E+00
     -6.441  0.8153E-01  0.8153E-01  0.5342E+00  0.5342E+00
     -6.319  0.3516E-01  0.3516E-01  0.5384E+00  0.5384E+00
     -6.197  0.2863E-01  0.2863E-01  0.5419E+00  0.5419E+00
     -6.076  0.4819E-01  0.4819E-01  0.5478E+00  0.5478E+00
     -5.954  0.1735E-01  0.1735E-01  0.5499E+00  0.5499E+00
     -5.832  0.3312E-01  0.3312E-01  0.5539E+00  0.5539E+00
     -5.711  0.1283E-01  0.1283E-01  0.5555E+00  0.5555E+00
     -5.589  0.1896E-01  0.1896E-01  0.5578E+00  0.5578E+00
     -5.467  0.4310E-01  0.4310E-01  0.5630E+00  0.5630E+00
     -5.346  0.3395E-01  0.3395E-01  0.5672E+00  0.5672E+00
     -5.224  0.7550E-01  0.7550E-01  0.5764E+00  0.5764E+00
     -5.102  0.5086E-01  0.5086E-01  0.5825E+00  0.5825E+00
     -4.981  0.3161E-01  0.3161E-01  0.5864E+00  0.5864E+00
     -4.859  0.8986E-02  0.8986E-02  0.5875E+00  0.5875E+00
     -4.737  0.2407E-02  0.2407E-02  0.5878E+00  0.5878E+00
     -4.616  0.1895E-01  0.1895E-01  0.5901E+00  0.5901E+00
     -4.494  0.4904E-01  0.4904E-01  0.5960E+00  0.5960E+00
     -4.372  0.5939E-01  0.5939E-01  0.6033E+00  0.6033E+00
     -4.251  0.8270E-01  0.8270E-01  0.6133E+00  0.6133E+00
     -4.129  0.2362E-01  0.2362E-01  0.6162E+00  0.6162E+00
     -4.007  0.2662E-01  0.2662E-01  0.6194E+00  0.6194E+00
     -3.886  0.2963E-01  0.2963E-01  0.6231E+00  0.6231E+00
     -3.764  0.9657E-02  0.9657E-02  0.6242E+00  0.6242E+00
     -3.642  0.1968E-01  0.1968E-01  0.6266E+00  0.6266E+00
     -3.521  0.7189E-02  0.7189E-02  0.6275E+00  0.6275E+00
     -3.399  0.4050E-02  0.4050E-02  0.6280E+00  0.6280E+00
     -3.278  0.2847E-02  0.2847E-02  0.6283E+00  0.6283E+00
     -3.156  0.1343E-03  0.1343E-03  0.6283E+00  0.6283E+00
     -3.034  0.1487E-01  0.1487E-01  0.6302E+00  0.6302E+00
     -2.913  0.2416E-01  0.2416E-01  0.6331E+00  0.6331E+00
     -2.791  0.1942E-02  0.1942E-02  0.6333E+00  0.6333E+00
     -2.669  0.4426E-02  0.4426E-02  0.6339E+00  0.6339E+00
     -2.548  0.9253E-02  0.9253E-02  0.6350E+00  0.6350E+00
     -2.426  0.2012E-04  0.2012E-04  0.6350E+00  0.6350E+00
     -2.304  0.9094E-03  0.9094E-03  0.6351E+00  0.6351E+00
     -2.183  0.1021E-01  0.1021E-01  0.6364E+00  0.6364E+00
     -2.061  0.4528E-02  0.4528E-02  0.6369E+00  0.6369E+00
     -1.939  0.2335E-01  0.2335E-01  0.6397E+00  0.6397E+00
     -1.818  0.2262E-02  0.2262E-02  0.6400E+00  0.6400E+00
     -1.696  0.1126E-01  0.1126E-01  0.6414E+00  0.6414E+00
     -1.574  0.1707E-01  0.1707E-01  0.6435E+00  0.6435E+00
     -1.453  0.1250E-01  0.1250E-01  0.6450E+00  0.6450E+00
     -1.331  0.1002E-02  0.1002E-02  0.6451E+00  0.6451E+00
     -1.209  0.2935E-01  0.2935E-01  0.6487E+00  0.6487E+00
     -1.088  0.5398E-01  0.5398E-01  0.6552E+00  0.6552E+00
     -0.966  0.2597E-01  0.2597E-01  0.6584E+00  0.6584E+00
     -0.844  0.2595E-01  0.2595E-01  0.6616E+00  0.6616E+00
     -0.723  0.3296E-01  0.3296E-01  0.6656E+00  0.6656E+00
     -0.601  0.1408E-01  0.1408E-01  0.6673E+00  0.6673E+00
     -0.479  0.2559E-01  0.2559E-01  0.6704E+00  0.6704E+00
     -0.358  0.2586E-01  0.2586E-01  0.6735E+00  0.6735E+00
     -0.236  0.3728E-01  0.3728E-01  0.6781E+00  0.6781E+00
     -0.114  0.4078E-01  0.4078E-01  0.6830E+00  0.6830E+00
      0.007  0.2227E-01  0.2227E-01  0.6858E+00  0.6858E+00
      0.129  0.7767E-02  0.7767E-02  0.6867E+00  0.6867E+00
      0.250  0.1319E-01  0.1319E-01  0.6883E+00  0.6883E+00
      0.372  0.1846E-01  0.1846E-01  0.6905E+00  0.6905E+00
      0.494  0.2470E-01  0.2470E-01  0.6936E+00  0.6936E+00
      0.615  0.1967E-01  0.1967E-01  0.6959E+00  0.6959E+00
      0.737  0.1435E-01  0.1435E-01  0.6977E+00  0.6977E+00
      0.859  0.2819E-01  0.2819E-01  0.7011E+00  0.7011E+00
      0.980  0.3056E-01  0.3056E-01  0.7048E+00  0.7048E+00
      1.102  0.2552E-01  0.2552E-01  0.7079E+00  0.7079E+00
      1.224  0.3773E-01  0.3773E-01  0.7125E+00  0.7125E+00
      1.345  0.5938E-01  0.5938E-01  0.7198E+00  0.7198E+00
      1.467  0.4328E-01  0.4328E-01  0.7250E+00  0.7250E+00
      1.589  0.2137E-01  0.2137E-01  0.7276E+00  0.7276E+00
      1.710  0.2376E-01  0.2376E-01  0.7305E+00  0.7305E+00
      1.832  0.2474E-01  0.2474E-01  0.7335E+00  0.7335E+00
      1.954  0.9371E-01  0.9371E-01  0.7449E+00  0.7449E+00
      2.075  0.4814E-01  0.4814E-01  0.7508E+00  0.7508E+00
      2.197  0.2781E-01  0.2781E-01  0.7542E+00  0.7542E+00
      2.319  0.5860E-01  0.5860E-01  0.7613E+00  0.7613E+00
      2.440  0.7621E-01  0.7621E-01  0.7706E+00  0.7706E+00
      2.562  0.4787E-01  0.4787E-01  0.7764E+00  0.7764E+00
      2.684  0.2149E-01  0.2149E-01  0.7790E+00  0.7790E+00
      2.805  0.1077E+00  0.1077E+00  0.7921E+00  0.7921E+00
      2.927  0.1629E+00  0.1629E+00  0.8119E+00  0.8119E+00
      3.049  0.4733E-01  0.4733E-01  0.8177E+00  0.8177E+00
      3.170  0.3086E-01  0.3086E-01  0.8214E+00  0.8214E+00
      3.292  0.4744E-01  0.4744E-01  0.8272E+00  0.8272E+00
      3.414  0.9839E-01  0.9838E-01  0.8392E+00  0.8392E+00
      3.535  0.5290E-01  0.5290E-01  0.8456E+00  0.8456E+00
      3.657  0.2562E-01  0.2562E-01  0.8487E+00  0.8487E+00
      3.778  0.9908E-01  0.9908E-01  0.8608E+00  0.8608E+00
      3.900  0.9393E-01  0.9393E-01  0.8722E+00  0.8722E+00
      4.022  0.7100E-01  0.7100E-01  0.8808E+00  0.8808E+00
      4.143  0.2033E-01  0.2033E-01  0.8833E+00  0.8833E+00
      4.265  0.1026E-03  0.1026E-03  0.8833E+00  0.8833E+00
      4.387  0.6152E-10  0.6155E-10  0.8833E+00  0.8833E+00
      4.508  0.0000E+00  0.0000E+00  0.8833E+00  0.8833E+00
      4.630  0.0000E+00  0.0000E+00  0.8833E+00  0.8833E+00
      4.752  0.0000E+00  0.0000E+00  0.8833E+00  0.8833E+00
      4.873  0.0000E+00  0.0000E+00  0.8833E+00  0.8833E+00
      4.995  0.0000E+00  0.0000E+00  0.8833E+00  0.8833E+00
      5.117  0.0000E+00  0.0000E+00  0.8833E+00  0.8833E+00
      5.238  0.0000E+00  0.0000E+00  0.8833E+00  0.8833E+00
      5.360  0.0000E+00  0.0000E+00  0.8833E+00  0.8833E+00
      5.482  0.0000E+00  0.0000E+00  0.8833E+00  0.8833E+00
      5.603  0.0000E+00  0.0000E+00  0.8833E+00  0.8833E+00
      5.725  0.0000E+00  0.0000E+00  0.8833E+00  0.8833E+00
