 vasp.6.4.2 20Jul23 (build Jan 24 2024 13:44:02) complex                         
 POSCAR found type information on POSCAR C F N H O 
 03/POSCAR found :  5 types and      93 ions
 scaLAPACK will be used selectively (only on CPU)
 LDA part: xc-table for Pade appr. of Perdew
 POSCAR found type information on POSCAR C F N H O 
 00/POSCAR found :  5 types and      93 ions
 POSCAR found type information on POSCAR C F N H O 
 06/POSCAR found :  5 types and      93 ions
 POSCAR, INCAR and KPOINTS ok, starting setup
 FFT: planning ... GRIDC
 FFT: planning ... GRID_SOFT
 FFT: planning ... GRID
 WAVECAR not read
 entering main loop
       N       E                     dE             d eps       ncg     rms          rms(c)
DAV:   1     0.348809589807E+04    0.34881E+04   -0.14379E+05  4600   0.109E+03
DAV:   2    -0.184967577742E+03   -0.36731E+04   -0.34607E+04  6360   0.267E+02
DAV:   3    -0.840948965010E+03   -0.65598E+03   -0.65284E+03  5240   0.118E+02
DAV:   4    -0.863527679188E+03   -0.22579E+02   -0.22473E+02  5200   0.275E+01
DAV:   5    -0.864243346243E+03   -0.71567E+00   -0.71472E+00  6020   0.416E+00    0.513E+01
DAV:   6    -0.847752467016E+03    0.16491E+02   -0.20644E+01  5100   0.776E+00    0.333E+01
DAV:   7    -0.827725063156E+03    0.20027E+02   -0.30630E+01  4960   0.878E+00    0.202E+01
DAV:   8    -0.823021100076E+03    0.47040E+01   -0.20889E+01  4900   0.692E+00    0.799E+00
DAV:   9    -0.823080339666E+03   -0.59240E-01   -0.10691E+00  5030   0.190E+00    0.345E+00
DAV:  10    -0.822930815108E+03    0.14952E+00   -0.35740E-01  4890   0.120E+00    0.104E+00
DAV:  11    -0.822919997511E+03    0.10818E-01   -0.11020E-01  4810   0.608E-01    0.285E-01
DAV:  12    -0.822919144491E+03    0.85302E-03   -0.10974E-02  5570   0.289E-01    0.163E-01
DAV:  13    -0.822919244498E+03   -0.10001E-03   -0.30838E-03  4820   0.111E-01    0.112E-01
DAV:  14    -0.822919254561E+03   -0.10063E-04   -0.31996E-04  5010   0.345E-02    0.834E-02
DAV:  15    -0.822919296501E+03   -0.41940E-04   -0.29409E-04  4650   0.444E-02    0.380E-02
DAV:  16    -0.822919329889E+03   -0.33388E-04   -0.79543E-05  4620   0.195E-02    0.221E-02
DAV:  17    -0.822919325385E+03    0.45039E-05   -0.30948E-05  4990   0.138E-02    0.102E-02
DAV:  18    -0.822919323869E+03    0.15161E-05   -0.83498E-06  4660   0.646E-03    0.420E-03
DAV:  19    -0.822919323836E+03    0.33011E-07   -0.17016E-06  3770   0.348E-03
   1 F= -.83046640E+03 E0= -.83046640E+03  d E =-.830466E+03  mag=    -0.0000
quench:  g(F)=  0.356E-03 g(S)=  0.000E+00 dE (1.order)=-0.712E-03
 bond charge predicted
       N       E                     dE             d eps       ncg     rms          rms(c)
DAV:   1    -0.822919313584E+03    0.10285E-04   -0.18115E-03  4480   0.863E-02    0.814E-03
DAV:   2    -0.822919317767E+03   -0.41830E-05   -0.49829E-05  4570   0.129E-02    0.639E-03
DAV:   3    -0.822919317432E+03    0.33537E-06   -0.84353E-07  3170   0.215E-03
   2 F= -.83046639E+03 E0= -.83046639E+03  d E =0.315724E-05  mag=     0.0000
quench:  g(F)=  0.396E-03 g(S)=  0.000E+00 dE (1.order)=-0.104E-02
 bond charge predicted
       N       E                     dE             d eps       ncg     rms          rms(c)
DAV:   1    -0.822919303054E+03    0.14713E-04   -0.40033E-03  4440   0.130E-01    0.128E-02
DAV:   2    -0.822919311508E+03   -0.84536E-05   -0.10453E-04  4670   0.192E-02    0.103E-02
DAV:   3    -0.822919310746E+03    0.76191E-06   -0.23903E-06  4120   0.339E-03
   3 F= -.83046638E+03 E0= -.83046638E+03  d E =0.930880E-05  mag=    -0.0000
quench:  g(F)=  0.729E-03 g(S)=  0.000E+00 dE (1.order)=-0.140E-02
 bond charge predicted
       N       E                     dE             d eps       ncg     rms          rms(c)
DAV:   1    -0.822919292045E+03    0.19463E-04   -0.39358E-03  4360   0.132E-01    0.136E-02
DAV:   2    -0.822919300399E+03   -0.83539E-05   -0.10907E-04  5060   0.201E-02    0.115E-02
DAV:   3    -0.822919299140E+03    0.12592E-05   -0.39301E-06  4380   0.400E-03    0.882E-03
DAV:   4    -0.822919298210E+03    0.92969E-06   -0.39514E-06  4080   0.416E-03
   4 F= -.83046638E+03 E0= -.83046638E+03  d E =0.628435E-05  mag=    -0.0000
quench:  g(F)=  0.801E-03 g(S)=  0.000E+00 dE (1.order)=-0.107E-02
 bond charge predicted
       N       E                     dE             d eps       ncg     rms          rms(c)
DAV:   1    -0.822919307124E+03   -0.79845E-05   -0.20303E-03  4320   0.952E-02    0.966E-03
DAV:   2    -0.822919311395E+03   -0.42712E-05   -0.57702E-05  5160   0.147E-02    0.832E-03
DAV:   3    -0.822919310690E+03    0.70495E-06   -0.20139E-06  3340   0.298E-03
   5 F= -.83046639E+03 E0= -.83046639E+03  d E =-.104964E-04  mag=     0.0000
quench:  g(F)=  0.350E-03 g(S)=  0.000E+00 dE (1.order)=-0.685E-03
 bond charge predicted
       N       E                     dE             d eps       ncg     rms          rms(c)
DAV:   1    -0.822919304375E+03    0.70199E-05   -0.17196E-03  4320   0.858E-02    0.831E-03
DAV:   2    -0.822919308252E+03   -0.38767E-05   -0.47409E-05  4650   0.129E-02    0.688E-03
DAV:   3    -0.822919307901E+03    0.35133E-06   -0.10585E-06  3210   0.230E-03
   6 F= -.83046639E+03 E0= -.83046639E+03  d E =0.107610E-05  mag=     0.0000
quench:  g(F)=  0.376E-03 g(S)=  0.000E+00 dE (1.order)=-0.964E-03
 bond charge predicted
       N       E                     dE             d eps       ncg     rms          rms(c)
DAV:   1    -0.822919294098E+03    0.14154E-04   -0.34799E-03  4320   0.122E-01    0.119E-02
DAV:   2    -0.822919301474E+03   -0.73755E-05   -0.91242E-05  4680   0.177E-02    0.985E-03
DAV:   3    -0.822919300769E+03    0.70449E-06   -0.20878E-06  3980   0.313E-03
   7 F= -.83046638E+03 E0= -.83046638E+03  d E =0.634883E-05  mag=    -0.0000
quench:  g(F)=  0.680E-03 g(S)=  0.000E+00 dE (1.order)=-0.131E-02
 bond charge predicted
       N       E                     dE             d eps       ncg     rms          rms(c)
DAV:   1    -0.822919287234E+03    0.14240E-04   -0.38723E-03  4320   0.131E-01    0.132E-02
DAV:   2    -0.822919295667E+03   -0.84330E-05   -0.10757E-04  5080   0.198E-02    0.112E-02
DAV:   3    -0.822919294539E+03    0.11279E-05   -0.35094E-06  4180   0.381E-03    0.863E-03
DAV:   4    -0.822919293712E+03    0.82721E-06   -0.41282E-06  4000   0.422E-03
   8 F= -.83046638E+03 E0= -.83046637E+03  d E =0.535778E-05  mag=     0.0000
quench:  g(F)=  0.758E-03 g(S)=  0.000E+00 dE (1.order)=-0.102E-02
 bond charge predicted
       N       E                     dE             d eps       ncg     rms          rms(c)
DAV:   1    -0.822919298585E+03   -0.40455E-05   -0.22279E-03  4320   0.997E-02    0.997E-03
DAV:   2    -0.822919303259E+03   -0.46745E-05   -0.62255E-05  5190   0.152E-02    0.857E-03
DAV:   3    -0.822919302530E+03    0.72919E-06   -0.21298E-06  3310   0.305E-03
   9 F= -.83046639E+03 E0= -.83046638E+03  d E =-.938671E-05  mag=     0.0000
quench:  g(F)=  0.345E-03 g(S)=  0.000E+00 dE (1.order)=-0.662E-03
 bond charge predicted
       N       E                     dE             d eps       ncg     rms          rms(c)
DAV:   1    -0.822919298426E+03    0.48331E-05   -0.16842E-03  4320   0.855E-02    0.819E-03
DAV:   2    -0.822919302284E+03   -0.38577E-05   -0.47147E-05  4680   0.129E-02    0.680E-03
DAV:   3    -0.822919301918E+03    0.36590E-06   -0.10742E-06  3140   0.230E-03
  10 F= -.83046639E+03 E0= -.83046638E+03  d E =-.577554E-06  mag=    -0.0000
quench:  g(F)=  0.362E-03 g(S)=  0.000E+00 dE (1.order)=-0.913E-03
 bond charge predicted
       N       E                     dE             d eps       ncg     rms          rms(c)
DAV:   1    -0.822919289341E+03    0.12943E-04   -0.34021E-03  4320   0.120E-01    0.116E-02
DAV:   2    -0.822919296730E+03   -0.73897E-05   -0.89595E-05  4440   0.174E-02    0.941E-03
DAV:   3    -0.822919296109E+03    0.62139E-06   -0.18808E-06  3980   0.298E-03
  11 F= -.83046638E+03 E0= -.83046638E+03  d E =0.418375E-05  mag=     0.0000
quench:  g(F)=  0.649E-03 g(S)=  0.000E+00 dE (1.order)=-0.124E-02
 bond charge predicted
       N       E                     dE             d eps       ncg     rms          rms(c)
DAV:   1    -0.822919279776E+03    0.16954E-04   -0.41437E-03  4320   0.135E-01    0.134E-02
DAV:   2    -0.822919288532E+03   -0.87552E-05   -0.11095E-04  4920   0.200E-02    0.113E-02
DAV:   3    -0.822919287466E+03    0.10653E-05   -0.35238E-06  4340   0.380E-03    0.871E-03
DAV:   4    -0.822919286763E+03    0.70312E-06   -0.37773E-06  3980   0.409E-03
  12 F= -.83046637E+03 E0= -.83046637E+03  d E =0.890571E-05  mag=     0.0000
quench:  g(F)=  0.709E-03 g(S)=  0.000E+00 dE (1.order)=-0.970E-03
 bond charge predicted
       N       E                     dE             d eps       ncg     rms          rms(c)
DAV:   1    -0.822919291305E+03   -0.38384E-05   -0.25077E-03  4320   0.106E-01    0.106E-02
DAV:   2    -0.822919296275E+03   -0.49704E-05   -0.67175E-05  5320   0.158E-02    0.919E-03
DAV:   3    -0.822919295394E+03    0.88110E-06   -0.25846E-06  3560   0.325E-03
  13 F= -.83046638E+03 E0= -.83046638E+03  d E =-.976272E-05  mag=     0.0000
quench:  g(F)=  0.342E-03 g(S)=  0.000E+00 dE (1.order)=-0.644E-03
 bond charge predicted
       N       E                     dE             d eps       ncg     rms          rms(c)
DAV:   1    -0.822919295135E+03    0.11402E-05   -0.14969E-03  4300   0.810E-02    0.782E-03
DAV:   2    -0.822919298612E+03   -0.34773E-05   -0.42400E-05  4680   0.123E-02    0.648E-03
DAV:   3    -0.822919298298E+03    0.31442E-06   -0.10190E-06  3095   0.222E-03
  14 F= -.83046639E+03 E0= -.83046638E+03  d E =-.226667E-05  mag=     0.0000
quench:  g(F)=  0.357E-03 g(S)=  0.000E+00 dE (1.order)=-0.883E-03
 bond charge predicted
       N       E                     dE             d eps       ncg     rms          rms(c)
DAV:   1    -0.822919285672E+03    0.12940E-04   -0.31617E-03  4290   0.115E-01    0.113E-02
DAV:   2    -0.822919291989E+03   -0.63166E-05   -0.77741E-05  4360   0.166E-02    0.924E-03
DAV:   3    -0.822919291460E+03    0.52882E-06   -0.16305E-06  3760   0.285E-03
  15 F= -.83046638E+03 E0= -.83046638E+03  d E =0.289525E-05  mag=     0.0000
quench:  g(F)=  0.628E-03 g(S)=  0.000E+00 dE (1.order)=-0.118E-02
 bond charge predicted
       N       E                     dE             d eps       ncg     rms          rms(c)
DAV:   1    -0.822919271248E+03    0.20740E-04   -0.48178E-03  4280   0.145E-01    0.144E-02
DAV:   2    -0.822919281095E+03   -0.98463E-05   -0.12403E-04  4720   0.213E-02    0.121E-02
DAV:   3    -0.822919279997E+03    0.10979E-05   -0.38798E-06  4635   0.403E-03    0.932E-03
DAV:   4    -0.822919279275E+03    0.72199E-06   -0.35798E-06  4060   0.417E-03
  16 F= -.83046637E+03 E0= -.83046637E+03  d E =0.130223E-04  mag=     0.0000
quench:  g(F)=  0.657E-03 g(S)=  0.000E+00 dE (1.order)=-0.912E-03
 bond charge predicted
       N       E                     dE             d eps       ncg     rms          rms(c)
DAV:   1    -0.822919282996E+03   -0.29995E-05   -0.28833E-03  4280   0.113E-01    0.117E-02
DAV:   2    -0.822919288712E+03   -0.57158E-05   -0.77993E-05  5320   0.171E-02    0.101E-02
DAV:   3    -0.822919287623E+03    0.10886E-05   -0.31675E-06  3840   0.360E-03    0.770E-03
DAV:   4    -0.822919286723E+03    0.90033E-06   -0.32400E-06  3660   0.376E-03
  17 F= -.83046638E+03 E0= -.83046638E+03  d E =-.939529E-05  mag=     0.0000
quench:  g(F)=  0.338E-03 g(S)=  0.000E+00 dE (1.order)=-0.629E-03
 bond charge predicted
       N       E                     dE             d eps       ncg     rms          rms(c)
DAV:   1    -0.822919290399E+03   -0.27759E-05   -0.10206E-03  4280   0.673E-02    0.635E-03
DAV:   2    -0.822919292627E+03   -0.22272E-05   -0.28386E-05  4900   0.102E-02    0.545E-03
DAV:   3    -0.822919292358E+03    0.26829E-06   -0.79036E-07  2850   0.198E-03
  18 F= -.83046638E+03 E0= -.83046638E+03  d E =-.559349E-05  mag=     0.0000
quench:  g(F)=  0.340E-03 g(S)=  0.000E+00 dE (1.order)=-0.840E-03
 bond charge predicted
       N       E                     dE             d eps       ncg     rms          rms(c)
DAV:   1    -0.822919283028E+03    0.95983E-05   -0.27320E-03  4260   0.105E-01    0.994E-03
DAV:   2    -0.822919288712E+03   -0.56842E-05   -0.68088E-05  4315   0.150E-02    0.795E-03
DAV:   3    -0.822919288339E+03    0.37333E-06   -0.10976E-06  3590   0.244E-03
  19 F= -.83046638E+03 E0= -.83046638E+03  d E =0.265393E-05  mag=     0.0000
quench:  g(F)=  0.592E-03 g(S)=  0.000E+00 dE (1.order)=-0.111E-02
 bond charge predicted
       N       E                     dE             d eps       ncg     rms          rms(c)
DAV:   1    -0.822919262486E+03    0.26227E-04   -0.57092E-03  4250   0.155E-01    0.149E-02
DAV:   2    -0.822919274751E+03   -0.12265E-04   -0.14780E-04  4500   0.225E-02    0.122E-02
DAV:   3    -0.822919273777E+03    0.97386E-06   -0.35323E-06  4700   0.395E-03
  20 F= -.83046637E+03 E0= -.83046637E+03  d E =0.138154E-04  mag=     0.0000
quench:  g(F)=  0.599E-03 g(S)=  0.000E+00 dE (1.order)=-0.850E-03
 bond charge predicted
       N       E                     dE             d eps       ncg     rms          rms(c)
DAV:   1    -0.822919269207E+03    0.55435E-05   -0.37285E-03  4250   0.129E-01    0.133E-02
DAV:   2    -0.822919277319E+03   -0.81120E-05   -0.10514E-04  5240   0.199E-02    0.115E-02
DAV:   3    -0.822919276091E+03    0.12281E-05   -0.37864E-06  4200   0.395E-03    0.886E-03
DAV:   4    -0.822919275151E+03    0.93972E-06   -0.42907E-06  4000   0.435E-03
  21 F= -.83046637E+03 E0= -.83046637E+03  d E =-.180637E-05  mag=     0.0000
quench:  g(F)=  0.325E-03 g(S)=  0.000E+00 dE (1.order)=-0.614E-03
 bond charge predicted
       N       E                     dE             d eps       ncg     rms          rms(c)
DAV:   1    -0.822919284877E+03   -0.87853E-05   -0.12040E-03  4280   0.732E-02    0.718E-03
DAV:   2    -0.822919287482E+03   -0.26056E-05   -0.34326E-05  5140   0.113E-02    0.621E-03
DAV:   3    -0.822919287105E+03    0.37753E-06   -0.10403E-06  2780   0.226E-03
  22 F= -.83046638E+03 E0= -.83046638E+03  d E =-.108149E-04  mag=     0.0000
quench:  g(F)=  0.318E-03 g(S)=  0.000E+00 dE (1.order)=-0.800E-03
 bond charge predicted
       N       E                     dE             d eps       ncg     rms          rms(c)
DAV:   1    -0.822919280265E+03    0.72174E-05   -0.25352E-03  4250   0.997E-02    0.944E-03
DAV:   2    -0.822919285672E+03   -0.54074E-05   -0.63931E-05  4300   0.141E-02    0.748E-03
DAV:   3    -0.822919285345E+03    0.32676E-06   -0.90076E-07  3520   0.223E-03
  23 F= -.83046638E+03 E0= -.83046638E+03  d E =0.134924E-05  mag=     0.0000
quench:  g(F)=  0.555E-03 g(S)=  0.000E+00 dE (1.order)=-0.106E-02
 bond charge predicted
       N       E                     dE             d eps       ncg     rms          rms(c)
DAV:   1    -0.822919266561E+03    0.19111E-04   -0.58490E-03  4240   0.154E-01    0.145E-02
DAV:   2    -0.822919278980E+03   -0.12418E-04   -0.14792E-04  4410   0.218E-02    0.117E-02
DAV:   3    -0.822919278109E+03    0.87016E-06   -0.30434E-06  4640   0.369E-03
  24 F= -.83046637E+03 E0= -.83046637E+03  d E =0.103571E-04  mag=     0.0000
quench:  g(F)=  0.578E-03 g(S)=  0.000E+00 dE (1.order)=-0.828E-03
 bond charge predicted
       N       E                     dE             d eps       ncg     rms          rms(c)
DAV:   1    -0.822919265488E+03    0.13492E-04   -0.38574E-03  4270   0.130E-01    0.134E-02
DAV:   2    -0.822919272892E+03   -0.74048E-05   -0.10068E-04  5260   0.193E-02    0.116E-02
DAV:   3    -0.822919271512E+03    0.13802E-05   -0.38910E-06  4440   0.396E-03    0.882E-03
DAV:   4    -0.822919270574E+03    0.93833E-06   -0.45298E-06  4060   0.443E-03
  25 F= -.83046636E+03 E0= -.83046636E+03  d E =0.382530E-05  mag=     0.0000
quench:  g(F)=  0.319E-03 g(S)=  0.000E+00 dE (1.order)=-0.597E-03
 bond charge predicted
       N       E                     dE             d eps       ncg     rms          rms(c)
DAV:   1    -0.822919284338E+03   -0.12826E-04   -0.12954E-03  4260   0.755E-02    0.745E-03
DAV:   2    -0.822919286925E+03   -0.25866E-05   -0.35011E-05  5220   0.114E-02    0.651E-03
DAV:   3    -0.822919286467E+03    0.45783E-06   -0.12381E-06  3010   0.235E-03
  26 F= -.83046638E+03 E0= -.83046638E+03  d E =-.139541E-04  mag=     0.0000
quench:  g(F)=  0.311E-03 g(S)=  0.000E+00 dE (1.order)=-0.776E-03
 bond charge predicted
       N       E                     dE             d eps       ncg     rms          rms(c)
DAV:   1    -0.822919281840E+03    0.50850E-05   -0.24715E-03  4240   0.985E-02    0.938E-03
DAV:   2    -0.822919287216E+03   -0.53762E-05   -0.63321E-05  4300   0.139E-02    0.734E-03
DAV:   3    -0.822919286927E+03    0.28844E-06   -0.88386E-07  3480   0.221E-03
  27 F= -.83046638E+03 E0= -.83046638E+03  d E =0.140761E-05  mag=     0.0000
quench:  g(F)=  0.541E-03 g(S)=  0.000E+00 dE (1.order)=-0.103E-02
 bond charge predicted
       N       E                     dE             d eps       ncg     rms          rms(c)
DAV:   1    -0.822919267701E+03    0.19515E-04   -0.59278E-03  4240   0.154E-01    0.145E-02
DAV:   2    -0.822919280572E+03   -0.12871E-04   -0.15121E-04  4370   0.217E-02    0.115E-02
DAV:   3    -0.822919279764E+03    0.80789E-06   -0.26419E-06  4540   0.350E-03
  28 F= -.83046637E+03 E0= -.83046637E+03  d E =0.779479E-05  mag=     0.0000
quench:  g(F)=  0.569E-03 g(S)=  0.000E+00 dE (1.order)=-0.815E-03
 bond charge predicted
       N       E                     dE             d eps       ncg     rms          rms(c)
DAV:   1    -0.822919266359E+03    0.14213E-04   -0.44748E-03  4300   0.140E-01    0.141E-02
DAV:   2    -0.822919275589E+03   -0.92300E-05   -0.11905E-04  5200   0.207E-02    0.119E-02
DAV:   3    -0.822919274273E+03    0.13162E-05   -0.37827E-06  4540   0.395E-03    0.916E-03
DAV:   4    -0.822919273266E+03    0.10072E-05   -0.43745E-06  4040   0.446E-03    0.364E-03
DAV:   5    -0.822919273289E+03   -0.23858E-07   -0.86658E-07  2650   0.189E-03
  29 F= -.83046636E+03 E0= -.83046636E+03  d E =0.562964E-05  mag=     0.0000
quench:  g(F)=  0.314E-03 g(S)=  0.000E+00 dE (1.order)=-0.582E-03
 bond charge predicted
       N       E                     dE             d eps       ncg     rms          rms(c)
DAV:   1    -0.822919287142E+03   -0.13877E-04   -0.15023E-03  4260   0.812E-02    0.835E-03
DAV:   2    -0.822919290178E+03   -0.30359E-05   -0.40092E-05  5260   0.121E-02    0.732E-03
DAV:   3    -0.822919289559E+03    0.61904E-06   -0.12408E-06  2800   0.242E-03
  30 F= -.83046638E+03 E0= -.83046638E+03  d E =-.153584E-04  mag=     0.0000
quench:  g(F)=  0.310E-03 g(S)=  0.000E+00 dE (1.order)=-0.753E-03
 bond charge predicted
       N       E                     dE             d eps       ncg     rms          rms(c)
DAV:   1    -0.822919282275E+03    0.79032E-05   -0.20793E-03  4240   0.906E-02    0.838E-03
DAV:   2    -0.822919286855E+03   -0.45804E-05   -0.53726E-05  4325   0.130E-02    0.655E-03
DAV:   3    -0.822919286582E+03    0.27367E-06   -0.79461E-07  3310   0.208E-03
  31 F= -.83046638E+03 E0= -.83046638E+03  d E =0.137410E-05  mag=     0.0000
quench:  g(F)=  0.528E-03 g(S)=  0.000E+00 dE (1.order)=-0.993E-03
 bond charge predicted
       N       E                     dE             d eps       ncg     rms          rms(c)
DAV:   1    -0.822919273535E+03    0.13320E-04   -0.51076E-03  4260   0.144E-01    0.137E-02
DAV:   2    -0.822919284751E+03   -0.11216E-04   -0.13334E-04  4580   0.205E-02    0.109E-02
DAV:   3    -0.822919283969E+03    0.78203E-06   -0.24679E-06  4380   0.341E-03
  32 F= -.83046637E+03 E0= -.83046637E+03  d E =0.724027E-05  mag=     0.0000
quench:  g(F)=  0.546E-03 g(S)=  0.000E+00 dE (1.order)=-0.777E-03
 bond charge predicted
       N       E                     dE             d eps       ncg     rms          rms(c)
DAV:   1    -0.822919268378E+03    0.16373E-04   -0.41600E-03  4320   0.135E-01    0.137E-02
DAV:   2    -0.822919276884E+03   -0.85057E-05   -0.11127E-04  5100   0.201E-02    0.115E-02
DAV:   3    -0.822919275560E+03    0.13241E-05   -0.36746E-06  4600   0.392E-03    0.873E-03
DAV:   4    -0.822919274711E+03    0.84884E-06   -0.40164E-06  4000   0.423E-03
  33 F= -.83046637E+03 E0= -.83046636E+03  d E =0.378448E-05  mag=     0.0000
quench:  g(F)=  0.305E-03 g(S)=  0.000E+00 dE (1.order)=-0.567E-03
 bond charge predicted
       N       E                     dE             d eps       ncg     rms          rms(c)
DAV:   1    -0.822919289428E+03   -0.13868E-04   -0.16850E-03  4240   0.861E-02    0.860E-03
DAV:   2    -0.822919292845E+03   -0.34167E-05   -0.45909E-05  5220   0.129E-02    0.737E-03
DAV:   3    -0.822919292229E+03    0.61574E-06   -0.15501E-06  3070   0.265E-03
  34 F= -.83046638E+03 E0= -.83046638E+03  d E =-.139258E-04  mag=     0.0000
quench:  g(F)=  0.301E-03 g(S)=  0.000E+00 dE (1.order)=-0.720E-03
 bond charge predicted
       N       E                     dE             d eps       ncg     rms          rms(c)
DAV:   1    -0.822919285514E+03    0.73310E-05   -0.22656E-03  4240   0.946E-02    0.887E-03
DAV:   2    -0.822919290808E+03   -0.52942E-05   -0.61737E-05  4385   0.137E-02    0.695E-03
DAV:   3    -0.822919290507E+03    0.30153E-06   -0.91497E-07  3540   0.218E-03
  35 F= -.83046638E+03 E0= -.83046638E+03  d E =-.520274E-06  mag=     0.0000
quench:  g(F)=  0.504E-03 g(S)=  0.000E+00 dE (1.order)=-0.950E-03
 bond charge predicted
       N       E                     dE             d eps       ncg     rms          rms(c)
DAV:   1    -0.822919278254E+03    0.12554E-04   -0.51643E-03  4300   0.144E-01    0.137E-02
DAV:   2    -0.822919289906E+03   -0.11652E-04   -0.13718E-04  4555   0.205E-02    0.108E-02
DAV:   3    -0.822919289157E+03    0.74926E-06   -0.25192E-06  4440   0.336E-03
  36 F= -.83046637E+03 E0= -.83046637E+03  d E =0.694944E-05  mag=     0.0000
quench:  g(F)=  0.540E-03 g(S)=  0.000E+00 dE (1.order)=-0.769E-03
 bond charge predicted
       N       E                     dE             d eps       ncg     rms          rms(c)
DAV:   1    -0.822919275144E+03    0.14762E-04   -0.38529E-03  4260   0.130E-01    0.132E-02
DAV:   2    -0.822919283141E+03   -0.79967E-05   -0.10388E-04  5040   0.194E-02    0.112E-02
DAV:   3    -0.822919281950E+03    0.11912E-05   -0.35931E-06  4480   0.378E-03    0.844E-03
DAV:   4    -0.822919281194E+03    0.75523E-06   -0.35234E-06  3940   0.391E-03
  37 F= -.83046637E+03 E0= -.83046637E+03  d E =0.247463E-05  mag=     0.0000
quench:  g(F)=  0.304E-03 g(S)=  0.000E+00 dE (1.order)=-0.557E-03
 bond charge predicted
       N       E                     dE             d eps       ncg     rms          rms(c)
DAV:   1    -0.822919294475E+03   -0.12526E-04   -0.16447E-03  4240   0.853E-02    0.845E-03
DAV:   2    -0.822919297840E+03   -0.33642E-05   -0.45058E-05  5180   0.128E-02    0.720E-03
DAV:   3    -0.822919297267E+03    0.57270E-06   -0.15208E-06  3080   0.260E-03
  38 F= -.83046639E+03 E0= -.83046638E+03  d E =-.132477E-04  mag=     0.0000
quench:  g(F)=  0.297E-03 g(S)=  0.000E+00 dE (1.order)=-0.700E-03
 bond charge predicted
       N       E                     dE             d eps       ncg     rms          rms(c)
DAV:   1    -0.822919292652E+03    0.51872E-05   -0.22138E-03  4260   0.938E-02    0.881E-03
DAV:   2    -0.822919297869E+03   -0.52163E-05   -0.60800E-05  4385   0.135E-02    0.688E-03
DAV:   3    -0.822919297571E+03    0.29802E-06   -0.89820E-07  3460   0.216E-03
  39 F= -.83046639E+03 E0= -.83046638E+03  d E =-.120729E-05  mag=     0.0000
quench:  g(F)=  0.494E-03 g(S)=  0.000E+00 dE (1.order)=-0.919E-03
 bond charge predicted
       N       E                     dE             d eps       ncg     rms          rms(c)
DAV:   1    -0.822919287881E+03    0.99882E-05   -0.53246E-03  4280   0.146E-01    0.139E-02
DAV:   2    -0.822919300144E+03   -0.12263E-04   -0.14287E-04  4485   0.207E-02    0.108E-02
DAV:   3    -0.822919299399E+03    0.74451E-06   -0.24842E-06  4440   0.336E-03
  40 F= -.83046638E+03 E0= -.83046638E+03  d E =0.267775E-05  mag=     0.0000
quench:  g(F)=  0.503E-03 g(S)=  0.000E+00 dE (1.order)=-0.722E-03
 bond charge predicted
       N       E                     dE             d eps       ncg     rms          rms(c)
DAV:   1    -0.822919280958E+03    0.19186E-04   -0.47835E-03  4260   0.144E-01    0.143E-02
DAV:   2    -0.822919291511E+03   -0.10553E-04   -0.13182E-04  5060   0.214E-02    0.119E-02
DAV:   3    -0.822919290255E+03    0.12556E-05   -0.39962E-06  4680   0.399E-03    0.912E-03
DAV:   4    -0.822919289409E+03    0.84616E-06   -0.39287E-06  3950   0.420E-03
  41 F= -.83046638E+03 E0= -.83046638E+03  d E =0.430529E-05  mag=     0.0000
quench:  g(F)=  0.290E-03 g(S)=  0.000E+00 dE (1.order)=-0.542E-03
 bond charge predicted
       N       E                     dE             d eps       ncg     rms          rms(c)
DAV:   1    -0.822919306053E+03   -0.15797E-04   -0.19593E-03  4240   0.934E-02    0.938E-03
DAV:   2    -0.822919310122E+03   -0.40688E-05   -0.54241E-05  5240   0.141E-02    0.796E-03
DAV:   3    -0.822919309419E+03    0.70275E-06   -0.19220E-06  3280   0.289E-03
  42 F= -.83046640E+03 E0= -.83046639E+03  d E =-.162104E-04  mag=     0.0000
quench:  g(F)=  0.287E-03 g(S)=  0.000E+00 dE (1.order)=-0.684E-03
 bond charge predicted
       N       E                     dE             d eps       ncg     rms          rms(c)
DAV:   1    -0.822919306892E+03    0.32296E-05   -0.22268E-03  4280   0.938E-02    0.893E-03
DAV:   2    -0.822919312286E+03   -0.53938E-05   -0.62416E-05  4405   0.136E-02    0.687E-03
DAV:   3    -0.822919311997E+03    0.28837E-06   -0.89761E-07  3440   0.216E-03
  43 F= -.83046640E+03 E0= -.83046640E+03  d E =-.235570E-05  mag=     0.0000
quench:  g(F)=  0.478E-03 g(S)=  0.000E+00 dE (1.order)=-0.889E-03
 bond charge predicted
       N       E                     dE             d eps       ncg     rms          rms(c)
DAV:   1    -0.822919298297E+03    0.13989E-04   -0.55657E-03  4240   0.148E-01    0.140E-02
DAV:   2    -0.822919311581E+03   -0.13284E-04   -0.15265E-04  4395   0.211E-02    0.108E-02
DAV:   3    -0.822919310923E+03    0.65807E-06   -0.24336E-06  4440   0.332E-03
  44 F= -.83046640E+03 E0= -.83046639E+03  d E =0.274926E-05  mag=     0.0000
quench:  g(F)=  0.486E-03 g(S)=  0.000E+00 dE (1.order)=-0.693E-03
 bond charge predicted
       N       E                     dE             d eps       ncg     rms          rms(c)
DAV:   1    -0.822919297045E+03    0.14535E-04   -0.44575E-03  4240   0.140E-01    0.139E-02
DAV:   2    -0.822919306658E+03   -0.96128E-05   -0.12150E-04  5020   0.209E-02    0.118E-02
DAV:   3    -0.822919305458E+03    0.11998E-05   -0.37933E-06  4460   0.390E-03    0.904E-03
DAV:   4    -0.822919304544E+03    0.91446E-06   -0.39691E-06  3980   0.424E-03
  45 F= -.83046639E+03 E0= -.83046639E+03  d E =0.534469E-05  mag=     0.0000
quench:  g(F)=  0.282E-03 g(S)=  0.000E+00 dE (1.order)=-0.522E-03
 bond charge predicted
       N       E                     dE             d eps       ncg     rms          rms(c)
DAV:   1    -0.822919317901E+03   -0.12443E-04   -0.19479E-03  4240   0.934E-02    0.920E-03
DAV:   2    -0.822919321980E+03   -0.40783E-05   -0.53908E-05  5200   0.141E-02    0.789E-03
DAV:   3    -0.822919321325E+03    0.65465E-06   -0.17844E-06  3120   0.281E-03
  46 F= -.83046641E+03 E0= -.83046640E+03  d E =-.165465E-04  mag=     0.0000
quench:  g(F)=  0.280E-03 g(S)=  0.000E+00 dE (1.order)=-0.655E-03
 bond charge predicted
       N       E                     dE             d eps       ncg     rms          rms(c)
DAV:   1    -0.822919319438E+03    0.25420E-05   -0.19689E-03  4240   0.886E-02    0.829E-03
DAV:   2    -0.822919324316E+03   -0.48781E-05   -0.56084E-05  4400   0.131E-02    0.635E-03
DAV:   3    -0.822919324070E+03    0.24593E-06   -0.78260E-07  3280   0.202E-03
  47 F= -.83046641E+03 E0= -.83046641E+03  d E =-.259123E-05  mag=     0.0000
quench:  g(F)=  0.458E-03 g(S)=  0.000E+00 dE (1.order)=-0.844E-03
 bond charge predicted
       N       E                     dE             d eps       ncg     rms          rms(c)
DAV:   1    -0.822919313313E+03    0.11003E-04   -0.52612E-03  4240   0.143E-01    0.135E-02
DAV:   2    -0.822919325999E+03   -0.12686E-04   -0.14498E-04  4340   0.205E-02    0.102E-02
DAV:   3    -0.822919325438E+03    0.56153E-06   -0.21555E-06  4340   0.314E-03
  48 F= -.83046641E+03 E0= -.83046641E+03  d E =-.521703E-06  mag=     0.0000
quench:  g(F)=  0.457E-03 g(S)=  0.000E+00 dE (1.order)=-0.659E-03
 bond charge predicted
       N       E                     dE             d eps       ncg     rms          rms(c)
DAV:   1    -0.822919309282E+03    0.16718E-04   -0.54694E-03  4240   0.153E-01    0.148E-02
DAV:   2    -0.822919321841E+03   -0.12559E-04   -0.15174E-04  4900   0.225E-02    0.121E-02
DAV:   3    -0.822919320666E+03    0.11752E-05   -0.38055E-06  4600   0.395E-03    0.946E-03
DAV:   4    -0.822919319754E+03    0.91168E-06   -0.42763E-06  4080   0.444E-03
  49 F= -.83046640E+03 E0= -.83046640E+03  d E =0.465596E-05  mag=     0.0000
quench:  g(F)=  0.275E-03 g(S)=  0.000E+00 dE (1.order)=-0.515E-03
 bond charge predicted
       N       E                     dE             d eps       ncg     rms          rms(c)
DAV:   1    -0.822919335018E+03   -0.14352E-04   -0.26053E-03  4240   0.108E-01    0.106E-02
DAV:   2    -0.822919340497E+03   -0.54797E-05   -0.71677E-05  5240   0.161E-02    0.900E-03
DAV:   3    -0.822919339641E+03    0.85670E-06   -0.23232E-06  3340   0.316E-03
  50 F= -.83046642E+03 E0= -.83046642E+03  d E =-.187686E-04  mag=     0.0000
quench:  g(F)=  0.277E-03 g(S)=  0.000E+00 dE (1.order)=-0.638E-03
 bond charge predicted
       N       E                     dE             d eps       ncg     rms          rms(c)
DAV:   1    -0.822919341437E+03   -0.93988E-06   -0.19182E-03  4240   0.877E-02    0.807E-03
DAV:   2    -0.822919346438E+03   -0.50005E-05   -0.56921E-05  4600   0.131E-02    0.616E-03
DAV:   3    -0.822919346204E+03    0.23410E-06   -0.81278E-07  3220   0.202E-03
  51 F= -.83046643E+03 E0= -.83046643E+03  d E =-.634074E-05  mag=     0.0000
quench:  g(F)=  0.438E-03 g(S)=  0.000E+00 dE (1.order)=-0.800E-03
 bond charge predicted
       N       E                     dE             d eps       ncg     rms          rms(c)
DAV:   1    -0.822919338838E+03    0.75997E-05   -0.49255E-03  4240   0.136E-01    0.130E-02
DAV:   2    -0.822919350906E+03   -0.12068E-04   -0.13632E-04  4430   0.194E-02    0.973E-03
DAV:   3    -0.822919350419E+03    0.48694E-06   -0.18122E-06  4280   0.291E-03
  52 F= -.83046643E+03 E0= -.83046643E+03  d E =-.332917E-05  mag=     0.0000
quench:  g(F)=  0.419E-03 g(S)=  0.000E+00 dE (1.order)=-0.617E-03
 bond charge predicted
       N       E                     dE             d eps       ncg     rms          rms(c)
DAV:   1    -0.822919332457E+03    0.18449E-04   -0.56192E-03  4240   0.153E-01    0.149E-02
DAV:   2    -0.822919345161E+03   -0.12703E-04   -0.15233E-04  4780   0.222E-02    0.121E-02
DAV:   3    -0.822919344052E+03    0.11085E-05   -0.35764E-06  4660   0.386E-03    0.943E-03
DAV:   4    -0.822919343281E+03    0.77147E-06   -0.40091E-06  4000   0.437E-03
  53 F= -.83046643E+03 E0= -.83046642E+03  d E =0.646876E-05  mag=     0.0000
quench:  g(F)=  0.265E-03 g(S)=  0.000E+00 dE (1.order)=-0.508E-03
 bond charge predicted
       N       E                     dE             d eps       ncg     rms          rms(c)
DAV:   1    -0.822919353474E+03   -0.94222E-05   -0.29647E-03  4240   0.115E-01    0.116E-02
DAV:   2    -0.822919359517E+03   -0.60429E-05   -0.80667E-05  5200   0.171E-02    0.982E-03
DAV:   3    -0.822919358479E+03    0.10377E-05   -0.27938E-06  3640   0.344E-03    0.748E-03
DAV:   4    -0.822919357657E+03    0.82266E-06   -0.36997E-06  3960   0.394E-03
  54 F= -.83046644E+03 E0= -.83046644E+03  d E =-.156926E-04  mag=     0.0000
quench:  g(F)=  0.272E-03 g(S)=  0.000E+00 dE (1.order)=-0.613E-03
 bond charge predicted
       N       E                     dE             d eps       ncg     rms          rms(c)
DAV:   1    -0.822919364110E+03   -0.56310E-05   -0.12000E-03  4240   0.711E-02    0.649E-03
DAV:   2    -0.822919367012E+03   -0.29017E-05   -0.34428E-05  4800   0.106E-02    0.519E-03
DAV:   3    -0.822919366788E+03    0.22394E-06   -0.66329E-07  2760   0.184E-03
  55 F= -.83046645E+03 E0= -.83046645E+03  d E =-.846035E-05  mag=     0.0000
quench:  g(F)=  0.413E-03 g(S)=  0.000E+00 dE (1.order)=-0.760E-03
 bond charge predicted
       N       E                     dE             d eps       ncg     rms          rms(c)
DAV:   1    -0.822919362424E+03    0.45883E-05   -0.41244E-03  4260   0.122E-01    0.115E-02
DAV:   2    -0.822919372884E+03   -0.10461E-04   -0.11628E-04  4300   0.172E-02    0.822E-03
DAV:   3    -0.822919372559E+03    0.32535E-06   -0.12778E-06  4020   0.245E-03
  56 F= -.83046646E+03 E0= -.83046645E+03  d E =-.561849E-05  mag=     0.0000
quench:  g(F)=  0.402E-03 g(S)=  0.000E+00 dE (1.order)=-0.599E-03
 bond charge predicted
       N       E                     dE             d eps       ncg     rms          rms(c)
DAV:   1    -0.822919353478E+03    0.19406E-04   -0.79718E-03  4260   0.175E-01    0.166E-02
DAV:   2    -0.822919373017E+03   -0.19539E-04   -0.22228E-04  4600   0.250E-02    0.125E-02
DAV:   3    -0.822919372076E+03    0.94086E-06   -0.36226E-06  4780   0.391E-03
  57 F= -.83046646E+03 E0= -.83046645E+03  d E =0.156009E-05  mag=     0.0000
quench:  g(F)=  0.246E-03 g(S)=  0.000E+00 dE (1.order)=-0.486E-03
 bond charge predicted
       N       E                     dE             d eps       ncg     rms          rms(c)
DAV:   1    -0.822919371976E+03    0.10407E-05   -0.35071E-03  4260   0.125E-01    0.130E-02
DAV:   2    -0.822919379411E+03   -0.74352E-05   -0.96941E-05  5060   0.190E-02    0.110E-02
DAV:   3    -0.822919378197E+03    0.12148E-05   -0.34049E-06  4150   0.377E-03    0.828E-03
DAV:   4    -0.822919377430E+03    0.76651E-06   -0.42524E-06  3970   0.422E-03
  58 F= -.83046646E+03 E0= -.83046646E+03  d E =-.761191E-05  mag=     0.0000
quench:  g(F)=  0.271E-03 g(S)=  0.000E+00 dE (1.order)=-0.596E-03
 bond charge predicted
       N       E                     dE             d eps       ncg     rms          rms(c)
DAV:   1    -0.822919387044E+03   -0.88474E-05   -0.10688E-03  4280   0.687E-02    0.680E-03
DAV:   2    -0.822919389401E+03   -0.23569E-05   -0.30232E-05  4970   0.105E-02    0.563E-03
DAV:   3    -0.822919389090E+03    0.31124E-06   -0.83042E-07  2860   0.203E-03
  59 F= -.83046647E+03 E0= -.83046647E+03  d E =-.113166E-04  mag=     0.0000
quench:  g(F)=  0.387E-03 g(S)=  0.000E+00 dE (1.order)=-0.718E-03
 bond charge predicted
       N       E                     dE             d eps       ncg     rms          rms(c)
DAV:   1    -0.822919384742E+03    0.46590E-05   -0.28845E-03  4280   0.104E-01    0.100E-02
DAV:   2    -0.822919391615E+03   -0.68732E-05   -0.78201E-05  4480   0.150E-02    0.743E-03
DAV:   3    -0.822919391313E+03    0.30263E-06   -0.91918E-07  3560   0.223E-03
  60 F= -.83046648E+03 E0= -.83046647E+03  d E =-.142951E-05  mag=     0.0000
quench:  g(F)=  0.387E-03 g(S)=  0.000E+00 dE (1.order)=-0.581E-03
 bond charge predicted
       N       E                     dE             d eps       ncg     rms          rms(c)
DAV:   1    -0.822919369767E+03    0.21848E-04   -0.60314E-03  4270   0.155E-01    0.155E-02
DAV:   2    -0.822919384161E+03   -0.14394E-04   -0.16639E-04  4570   0.229E-02    0.116E-02
DAV:   3    -0.822919383337E+03    0.82395E-06   -0.29276E-06  4660   0.368E-03
  61 F= -.83046647E+03 E0= -.83046647E+03  d E =0.410813E-05  mag=     0.0000
quench:  g(F)=  0.239E-03 g(S)=  0.000E+00 dE (1.order)=-0.470E-03
 bond charge predicted
       N       E                     dE             d eps       ncg     rms          rms(c)
DAV:   1    -0.822919388990E+03   -0.48288E-05   -0.36257E-03  4360   0.126E-01    0.131E-02
DAV:   2    -0.822919397636E+03   -0.86464E-05   -0.10572E-04  4780   0.197E-02    0.104E-02
DAV:   3    -0.822919396660E+03    0.97664E-06   -0.28667E-06  4220   0.361E-03
  62 F= -.83046648E+03 E0= -.83046648E+03  d E =-.104715E-04  mag=     0.0000
quench:  g(F)=  0.262E-03 g(S)=  0.000E+00 dE (1.order)=-0.572E-03
 bond charge predicted
       N       E                     dE             d eps       ncg     rms          rms(c)
DAV:   1    -0.822919399740E+03   -0.21039E-05   -0.15726E-03  4270   0.824E-02    0.818E-03
DAV:   2    -0.822919403738E+03   -0.39979E-05   -0.47819E-05  4700   0.130E-02    0.646E-03
DAV:   3    -0.822919403441E+03    0.29677E-06   -0.97079E-07  3140   0.224E-03
  63 F= -.83046649E+03 E0= -.83046649E+03  d E =-.896776E-05  mag=     0.0000
quench:  g(F)=  0.369E-03 g(S)=  0.000E+00 dE (1.order)=-0.681E-03
 bond charge predicted
       N       E                     dE             d eps       ncg     rms          rms(c)
DAV:   1    -0.822919398652E+03    0.50864E-05   -0.28958E-03  4240   0.106E-01    0.103E-02
DAV:   2    -0.822919405215E+03   -0.65638E-05   -0.76978E-05  4320   0.154E-02    0.810E-03
DAV:   3    -0.822919404817E+03    0.39823E-06   -0.11632E-06  3680   0.243E-03
  64 F= -.83046649E+03 E0= -.83046649E+03  d E =-.283743E-06  mag=     0.0000
quench:  g(F)=  0.370E-03 g(S)=  0.000E+00 dE (1.order)=-0.559E-03
 bond charge predicted
       N       E                     dE             d eps       ncg     rms          rms(c)
DAV:   1    -0.822919389913E+03    0.15303E-04   -0.40934E-03  4240   0.129E-01    0.130E-02
DAV:   2    -0.822919398658E+03   -0.87458E-05   -0.10884E-04  4720   0.188E-02    0.107E-02
DAV:   3    -0.822919397744E+03    0.91465E-06   -0.26306E-06  4200   0.335E-03
  65 F= -.83046649E+03 E0= -.83046649E+03  d E =0.393035E-05  mag=     0.0000
quench:  g(F)=  0.238E-03 g(S)=  0.000E+00 dE (1.order)=-0.455E-03
 bond charge predicted
       N       E                     dE             d eps       ncg     rms          rms(c)
DAV:   1    -0.822919404432E+03   -0.57740E-05   -0.27154E-03  4240   0.103E-01    0.105E-02
DAV:   2    -0.822919410543E+03   -0.61103E-05   -0.75209E-05  4880   0.156E-02    0.888E-03
DAV:   3    -0.822919409834E+03    0.70861E-06   -0.19221E-06  3610   0.283E-03
  66 F= -.83046650E+03 E0= -.83046650E+03  d E =-.100644E-04  mag=     0.0000
quench:  g(F)=  0.252E-03 g(S)=  0.000E+00 dE (1.order)=-0.546E-03
 bond charge predicted
       N       E                     dE             d eps       ncg     rms          rms(c)
DAV:   1    -0.822919409617E+03    0.92585E-06   -0.15577E-03  4240   0.791E-02    0.787E-03
DAV:   2    -0.822919413474E+03   -0.38569E-05   -0.44924E-05  4680   0.121E-02    0.634E-03
DAV:   3    -0.822919413201E+03    0.27223E-06   -0.79112E-07  2970   0.197E-03
  67 F= -.83046650E+03 E0= -.83046650E+03  d E =-.558357E-05  mag=     0.0000
quench:  g(F)=  0.351E-03 g(S)=  0.000E+00 dE (1.order)=-0.645E-03
 bond charge predicted
       N       E                     dE             d eps       ncg     rms          rms(c)
DAV:   1    -0.822919408410E+03    0.50637E-05   -0.33668E-03  4240   0.114E-01    0.110E-02
DAV:   2    -0.822919416230E+03   -0.78199E-05   -0.90658E-05  4340   0.165E-02    0.853E-03
DAV:   3    -0.822919415791E+03    0.43908E-06   -0.13305E-06  3920   0.257E-03
  68 F= -.83046651E+03 E0= -.83046650E+03  d E =-.239133E-05  mag=     0.0000
quench:  g(F)=  0.344E-03 g(S)=  0.000E+00 dE (1.order)=-0.536E-03
 bond charge predicted
       N       E                     dE             d eps       ncg     rms          rms(c)
DAV:   1    -0.822919396030E+03    0.20199E-04   -0.48504E-03  4240   0.142E-01    0.142E-02
DAV:   2    -0.822919406979E+03   -0.10948E-04   -0.13214E-04  4820   0.211E-02    0.113E-02
DAV:   3    -0.822919406069E+03    0.90965E-06   -0.29411E-06  4400   0.361E-03
  69 F= -.83046650E+03 E0= -.83046650E+03  d E =0.599366E-05  mag=     0.0000
quench:  g(F)=  0.237E-03 g(S)=  0.000E+00 dE (1.order)=-0.453E-03
 bond charge predicted
       N       E                     dE             d eps       ncg     rms          rms(c)
DAV:   1    -0.822919417444E+03   -0.10466E-04   -0.27056E-03  4240   0.107E-01    0.108E-02
DAV:   2    -0.822919423500E+03   -0.60559E-05   -0.76568E-05  5040   0.165E-02    0.907E-03
DAV:   3    -0.822919422706E+03    0.79408E-06   -0.20913E-06  3560   0.304E-03
  70 F= -.83046651E+03 E0= -.83046651E+03  d E =-.122804E-04  mag=     0.0000
quench:  g(F)=  0.247E-03 g(S)=  0.000E+00 dE (1.order)=-0.527E-03
 bond charge predicted
       N       E                     dE             d eps       ncg     rms          rms(c)
DAV:   1    -0.822919423323E+03    0.17785E-06   -0.14672E-03  4240   0.783E-02    0.812E-03
DAV:   2    -0.822919427000E+03   -0.36776E-05   -0.43355E-05  4720   0.122E-02    0.650E-03
DAV:   3    -0.822919426673E+03    0.32673E-06   -0.87013E-07  3020   0.212E-03
  71 F= -.83046652E+03 E0= -.83046651E+03  d E =-.534190E-05  mag=     0.0000
quench:  g(F)=  0.331E-03 g(S)=  0.000E+00 dE (1.order)=-0.611E-03
 bond charge predicted
       N       E                     dE             d eps       ncg     rms          rms(c)
DAV:   1    -0.822919424081E+03    0.29188E-05   -0.30199E-03  4240   0.110E-01    0.109E-02
DAV:   2    -0.822919430834E+03   -0.67528E-05   -0.80278E-05  4440   0.159E-02    0.867E-03
DAV:   3    -0.822919430369E+03    0.46514E-06   -0.14392E-06  3880   0.269E-03
  72 F= -.83046652E+03 E0= -.83046652E+03  d E =-.174803E-05  mag=     0.0000
quench:  g(F)=  0.326E-03 g(S)=  0.000E+00 dE (1.order)=-0.511E-03
 bond charge predicted
       N       E                     dE             d eps       ncg     rms          rms(c)
DAV:   1    -0.822919418489E+03    0.12345E-04   -0.41807E-03  4240   0.132E-01    0.132E-02
DAV:   2    -0.822919427643E+03   -0.91540E-05   -0.11281E-04  4820   0.194E-02    0.109E-02
DAV:   3    -0.822919426723E+03    0.92074E-06   -0.27379E-06  4300   0.346E-03
  73 F= -.83046651E+03 E0= -.83046651E+03  d E =0.402630E-05  mag=     0.0000
quench:  g(F)=  0.229E-03 g(S)=  0.000E+00 dE (1.order)=-0.430E-03
 bond charge predicted
       N       E                     dE             d eps       ncg     rms          rms(c)
DAV:   1    -0.822919434570E+03   -0.69267E-05   -0.23017E-03  4240   0.971E-02    0.976E-03
DAV:   2    -0.822919439675E+03   -0.51045E-05   -0.63673E-05  5000   0.147E-02    0.841E-03
DAV:   3    -0.822919438997E+03    0.67800E-06   -0.17831E-06  3400   0.276E-03
  74 F= -.83046653E+03 E0= -.83046652E+03  d E =-.120987E-04  mag=     0.0000
quench:  g(F)=  0.233E-03 g(S)=  0.000E+00 dE (1.order)=-0.497E-03
 bond charge predicted
       N       E                     dE             d eps       ncg     rms          rms(c)
DAV:   1    -0.822919439574E+03    0.10095E-06   -0.14781E-03  4240   0.773E-02    0.770E-03
DAV:   2    -0.822919443018E+03   -0.34443E-05   -0.40574E-05  4390   0.115E-02    0.636E-03
DAV:   3    -0.822919442734E+03    0.28410E-06   -0.74058E-07  3020   0.192E-03
  75 F= -.83046653E+03 E0= -.83046653E+03  d E =-.386498E-05  mag=     0.0000
quench:  g(F)=  0.316E-03 g(S)=  0.000E+00 dE (1.order)=-0.581E-03
 bond charge predicted
       N       E                     dE             d eps       ncg     rms          rms(c)
DAV:   1    -0.822919433551E+03    0.94669E-05   -0.33416E-03  4240   0.115E-01    0.112E-02
DAV:   2    -0.822919440896E+03   -0.73447E-05   -0.87097E-05  4440   0.167E-02    0.904E-03
DAV:   3    -0.822919440375E+03    0.52079E-06   -0.15301E-06  3880   0.270E-03
  76 F= -.83046653E+03 E0= -.83046653E+03  d E =0.186373E-05  mag=     0.0000
quench:  g(F)=  0.312E-03 g(S)=  0.000E+00 dE (1.order)=-0.488E-03
 bond charge predicted
       N       E                     dE             d eps       ncg     rms          rms(c)
DAV:   1    -0.822919430813E+03    0.10083E-04   -0.37085E-03  4240   0.123E-01    0.126E-02
DAV:   2    -0.822919439175E+03   -0.83618E-05   -0.10224E-04  4720   0.186E-02    0.105E-02
DAV:   3    -0.822919438247E+03    0.92744E-06   -0.24477E-06  4060   0.324E-03
  77 F= -.83046653E+03 E0= -.83046653E+03  d E =0.154025E-05  mag=     0.0000
quench:  g(F)=  0.219E-03 g(S)=  0.000E+00 dE (1.order)=-0.410E-03
 bond charge predicted
       N       E                     dE             d eps       ncg     rms          rms(c)
DAV:   1    -0.822919444961E+03   -0.57860E-05   -0.21450E-03  4240   0.921E-02    0.924E-03
DAV:   2    -0.822919450069E+03   -0.51082E-05   -0.61581E-05  4800   0.143E-02    0.773E-03
DAV:   3    -0.822919449522E+03    0.54734E-06   -0.13747E-06  3400   0.249E-03
  78 F= -.83046654E+03 E0= -.83046654E+03  d E =-.110848E-04  mag=     0.0000
quench:  g(F)=  0.225E-03 g(S)=  0.000E+00 dE (1.order)=-0.480E-03
 bond charge predicted
       N       E                     dE             d eps       ncg     rms          rms(c)
DAV:   1    -0.822919448713E+03    0.13565E-05   -0.18766E-03  4240   0.864E-02    0.844E-03
DAV:   2    -0.822919453172E+03   -0.44595E-05   -0.52103E-05  4460   0.128E-02    0.684E-03
DAV:   3    -0.822919452863E+03    0.30888E-06   -0.86984E-07  3240   0.210E-03
  79 F= -.83046654E+03 E0= -.83046654E+03  d E =-.386519E-05  mag=     0.0000
quench:  g(F)=  0.301E-03 g(S)=  0.000E+00 dE (1.order)=-0.553E-03
 bond charge predicted
       N       E                     dE             d eps       ncg     rms          rms(c)
DAV:   1    -0.822919442124E+03    0.11048E-04   -0.38113E-03  4240   0.123E-01    0.120E-02
DAV:   2    -0.822919450959E+03   -0.88349E-05   -0.10418E-04  4560   0.182E-02    0.969E-03
DAV:   3    -0.822919450345E+03    0.61360E-06   -0.19483E-06  4280   0.295E-03
  80 F= -.83046654E+03 E0= -.83046654E+03  d E =0.284605E-05  mag=     0.0000
quench:  g(F)=  0.296E-03 g(S)=  0.000E+00 dE (1.order)=-0.467E-03
 bond charge predicted
       N       E                     dE             d eps       ncg     rms          rms(c)
DAV:   1    -0.822919446091E+03    0.48682E-05   -0.33829E-03  4240   0.117E-01    0.124E-02
DAV:   2    -0.822919454248E+03   -0.81575E-05   -0.98428E-05  4700   0.183E-02    0.102E-02
DAV:   3    -0.822919453448E+03    0.80059E-06   -0.24262E-06  3960   0.321E-03
  81 F= -.83046654E+03 E0= -.83046654E+03  d E =-.309471E-05  mag=     0.0000
quench:  g(F)=  0.210E-03 g(S)=  0.000E+00 dE (1.order)=-0.394E-03
 bond charge predicted
       N       E                     dE             d eps       ncg     rms          rms(c)
DAV:   1    -0.822919458058E+03   -0.38102E-05   -0.19196E-03  4290   0.872E-02    0.896E-03
DAV:   2    -0.822919463007E+03   -0.49485E-05   -0.58130E-05  4640   0.140E-02    0.725E-03
DAV:   3    -0.822919462609E+03    0.39842E-06   -0.12249E-06  3420   0.238E-03
  82 F= -.83046655E+03 E0= -.83046655E+03  d E =-.955144E-05  mag=     0.0000
quench:  g(F)=  0.217E-03 g(S)=  0.000E+00 dE (1.order)=-0.461E-03
 bond charge predicted
       N       E                     dE             d eps       ncg     rms          rms(c)
DAV:   1    -0.822919460787E+03    0.22198E-05   -0.22039E-03  4240   0.934E-02    0.928E-03
DAV:   2    -0.822919466011E+03   -0.52237E-05   -0.61341E-05  4460   0.139E-02    0.730E-03
DAV:   3    -0.822919465702E+03    0.30927E-06   -0.10185E-06  3500   0.228E-03
  83 F= -.83046656E+03 E0= -.83046655E+03  d E =-.387126E-05  mag=     0.0000
quench:  g(F)=  0.288E-03 g(S)=  0.000E+00 dE (1.order)=-0.525E-03
 bond charge predicted
       N       E                     dE             d eps       ncg     rms          rms(c)
DAV:   1    -0.822919456037E+03    0.99739E-05   -0.40219E-03  4240   0.127E-01    0.127E-02
DAV:   2    -0.822919465684E+03   -0.96474E-05   -0.11366E-04  4540   0.190E-02    0.101E-02
DAV:   3    -0.822919465028E+03    0.65660E-06   -0.22354E-06  4350   0.316E-03
  84 F= -.83046655E+03 E0= -.83046655E+03  d E =0.101416E-05  mag=     0.0000
quench:  g(F)=  0.277E-03 g(S)=  0.000E+00 dE (1.order)=-0.442E-03
 bond charge predicted
       N       E                     dE             d eps       ncg     rms          rms(c)
DAV:   1    -0.822919465820E+03   -0.13567E-06   -0.34523E-03  4290   0.118E-01    0.124E-02
DAV:   2    -0.822919474626E+03   -0.88064E-05   -0.10451E-04  4680   0.188E-02    0.999E-03
DAV:   3    -0.822919473931E+03    0.69504E-06   -0.24707E-06  4040   0.325E-03
  85 F= -.83046656E+03 E0= -.83046656E+03  d E =-.827430E-05  mag=     0.0000
quench:  g(F)=  0.200E-03 g(S)=  0.000E+00 dE (1.order)=-0.378E-03
 bond charge predicted
       N       E                     dE             d eps       ncg     rms          rms(c)
DAV:   1    -0.822919477614E+03   -0.29878E-05   -0.19968E-03  4290   0.899E-02    0.917E-03
DAV:   2    -0.822919482984E+03   -0.53694E-05   -0.62389E-05  4600   0.144E-02    0.717E-03
DAV:   3    -0.822919482673E+03    0.31113E-06   -0.11953E-06  3580   0.238E-03
  86 F= -.83046657E+03 E0= -.83046657E+03  d E =-.813098E-05  mag=     0.0000
quench:  g(F)=  0.212E-03 g(S)=  0.000E+00 dE (1.order)=-0.445E-03
 bond charge predicted
       N       E                     dE             d eps       ncg     rms          rms(c)
DAV:   1    -0.822919478989E+03    0.39944E-05   -0.23094E-03  4240   0.966E-02    0.983E-03
DAV:   2    -0.822919484715E+03   -0.57255E-05   -0.66930E-05  4560   0.148E-02    0.754E-03
DAV:   3    -0.822919484400E+03    0.31483E-06   -0.10593E-06  3510   0.237E-03
  87 F= -.83046658E+03 E0= -.83046657E+03  d E =-.425784E-05  mag=     0.0000
quench:  g(F)=  0.279E-03 g(S)=  0.000E+00 dE (1.order)=-0.504E-03
 bond charge predicted
       N       E                     dE             d eps       ncg     rms          rms(c)
DAV:   1    -0.822919476622E+03    0.80923E-05   -0.39000E-03  4290   0.126E-01    0.131E-02
DAV:   2    -0.822919486613E+03   -0.99905E-05   -0.11705E-04  4580   0.197E-02    0.997E-03
DAV:   3    -0.822919486029E+03    0.58422E-06   -0.21692E-06  4240   0.316E-03
  88 F= -.83046657E+03 E0= -.83046657E+03  d E =0.652944E-06  mag=     0.0000
quench:  g(F)=  0.265E-03 g(S)=  0.000E+00 dE (1.order)=-0.424E-03
 bond charge predicted
       N       E                     dE             d eps       ncg     rms          rms(c)
DAV:   1    -0.822919485281E+03    0.13323E-05   -0.31344E-03  4310   0.114E-01    0.119E-02
DAV:   2    -0.822919493750E+03   -0.84694E-05   -0.99103E-05  4640   0.185E-02    0.921E-03
DAV:   3    -0.822919493169E+03    0.58083E-06   -0.21590E-06  4020   0.313E-03
  89 F= -.83046658E+03 E0= -.83046658E+03  d E =-.900386E-05  mag=     0.0000
quench:  g(F)=  0.190E-03 g(S)=  0.000E+00 dE (1.order)=-0.368E-03
 bond charge predicted
       N       E                     dE             d eps       ncg     rms          rms(c)
DAV:   1    -0.822919496938E+03   -0.31883E-05   -0.21123E-03  4270   0.926E-02    0.920E-03
DAV:   2    -0.822919502504E+03   -0.55657E-05   -0.64856E-05  4660   0.147E-02    0.713E-03
DAV:   3    -0.822919502202E+03    0.30182E-06   -0.11085E-06  3410   0.235E-03
  90 F= -.83046659E+03 E0= -.83046659E+03  d E =-.781797E-05  mag=     0.0000
quench:  g(F)=  0.209E-03 g(S)=  0.000E+00 dE (1.order)=-0.443E-03
 bond charge predicted
       N       E                     dE             d eps       ncg     rms          rms(c)
DAV:   1    -0.822919498880E+03    0.36238E-05   -0.31687E-03  4240   0.111E-01    0.112E-02
DAV:   2    -0.822919506942E+03   -0.80620E-05   -0.93274E-05  4560   0.170E-02    0.842E-03
DAV:   3    -0.822919506553E+03    0.38875E-06   -0.14159E-06  3860   0.265E-03
  91 F= -.83046660E+03 E0= -.83046659E+03  d E =-.520958E-05  mag=     0.0000
quench:  g(F)=  0.277E-03 g(S)=  0.000E+00 dE (1.order)=-0.497E-03
 bond charge predicted
       N       E                     dE             d eps       ncg     rms          rms(c)
DAV:   1    -0.822919499383E+03    0.75593E-05   -0.44385E-03  4270   0.132E-01    0.134E-02
DAV:   2    -0.822919510795E+03   -0.11412E-04   -0.13369E-04  4620   0.207E-02    0.103E-02
DAV:   3    -0.822919510180E+03    0.61429E-06   -0.24148E-06  4380   0.326E-03
  92 F= -.83046660E+03 E0= -.83046660E+03  d E =-.298759E-05  mag=     0.0000
quench:  g(F)=  0.254E-03 g(S)=  0.000E+00 dE (1.order)=-0.408E-03
 bond charge predicted
       N       E                     dE             d eps       ncg     rms          rms(c)
DAV:   1    -0.822919513006E+03   -0.22117E-05   -0.29052E-03  4290   0.108E-01    0.112E-02
DAV:   2    -0.822919520642E+03   -0.76351E-05   -0.89865E-05  4660   0.174E-02    0.887E-03
DAV:   3    -0.822919520113E+03    0.52893E-06   -0.19210E-06  3880   0.292E-03
  93 F= -.83046661E+03 E0= -.83046661E+03  d E =-.104819E-04  mag=     0.0000
quench:  g(F)=  0.187E-03 g(S)=  0.000E+00 dE (1.order)=-0.364E-03
 bond charge predicted
       N       E                     dE             d eps       ncg     rms          rms(c)
DAV:   1    -0.822919523455E+03   -0.28135E-05   -0.21055E-03  4240   0.915E-02    0.914E-03
DAV:   2    -0.822919528961E+03   -0.55059E-05   -0.63928E-05  4620   0.143E-02    0.704E-03
DAV:   3    -0.822919528680E+03    0.28058E-06   -0.10015E-06  3400   0.223E-03
  94 F= -.83046662E+03 E0= -.83046662E+03  d E =-.787313E-05  mag=     0.0000
quench:  g(F)=  0.205E-03 g(S)=  0.000E+00 dE (1.order)=-0.433E-03
 bond charge predicted
       N       E                     dE             d eps       ncg     rms          rms(c)
DAV:   1    -0.822919526103E+03    0.28578E-05   -0.35452E-03  4240   0.116E-01    0.115E-02
DAV:   2    -0.822919535085E+03   -0.89820E-05   -0.10337E-04  4560   0.175E-02    0.862E-03
DAV:   3    -0.822919534691E+03    0.39442E-06   -0.14374E-06  3840   0.262E-03
  95 F= -.83046663E+03 E0= -.83046662E+03  d E =-.753745E-05  mag=     0.0000
quench:  g(F)=  0.268E-03 g(S)=  0.000E+00 dE (1.order)=-0.482E-03
 bond charge predicted
       N       E                     dE             d eps       ncg     rms          rms(c)
DAV:   1    -0.822919529318E+03    0.57673E-05   -0.49690E-03  4290   0.138E-01    0.143E-02
DAV:   2    -0.822919542008E+03   -0.12691E-04   -0.14878E-04  4600   0.215E-02    0.107E-02
DAV:   3    -0.822919541394E+03    0.61474E-06   -0.24734E-06  4460   0.330E-03
  96 F= -.83046663E+03 E0= -.83046663E+03  d E =-.344387E-05  mag=     0.0000
quench:  g(F)=  0.248E-03 g(S)=  0.000E+00 dE (1.order)=-0.399E-03
 bond charge predicted
       N       E                     dE             d eps       ncg     rms          rms(c)
DAV:   1    -0.822919544509E+03   -0.25004E-05   -0.29924E-03  4320   0.108E-01    0.113E-02
DAV:   2    -0.822919552347E+03   -0.78377E-05   -0.92447E-05  4680   0.174E-02    0.877E-03
DAV:   3    -0.822919551807E+03    0.53920E-06   -0.18130E-06  3710   0.290E-03
  97 F= -.83046664E+03 E0= -.83046664E+03  d E =-.139377E-04  mag=     0.0000
quench:  g(F)=  0.181E-03 g(S)=  0.000E+00 dE (1.order)=-0.354E-03
 bond charge predicted
       N       E                     dE             d eps       ncg     rms          rms(c)
DAV:   1    -0.822919558621E+03   -0.62740E-05   -0.20819E-03  4240   0.910E-02    0.891E-03
DAV:   2    -0.822919564004E+03   -0.53839E-05   -0.62700E-05  4620   0.139E-02    0.684E-03
DAV:   3    -0.822919563753E+03    0.25192E-06   -0.98431E-07  3530   0.220E-03
  98 F= -.83046665E+03 E0= -.83046665E+03  d E =-.905285E-05  mag=     0.0000
quench:  g(F)=  0.197E-03 g(S)=  0.000E+00 dE (1.order)=-0.415E-03
 bond charge predicted
       N       E                     dE             d eps       ncg     rms          rms(c)
DAV:   1    -0.822919558452E+03    0.55523E-05   -0.39351E-03  4240   0.124E-01    0.120E-02
DAV:   2    -0.822919568418E+03   -0.99662E-05   -0.11436E-04  4600   0.184E-02    0.907E-03
DAV:   3    -0.822919567963E+03    0.45525E-06   -0.17298E-06  4160   0.283E-03
  99 F= -.83046666E+03 E0= -.83046666E+03  d E =-.701068E-05  mag=     0.0000
quench:  g(F)=  0.250E-03 g(S)=  0.000E+00 dE (1.order)=-0.457E-03
 reached required accuracy - stopping structural energy minimisation
