<?xml version="1.0" encoding="ISO-8859-1"?>
<modeling>
 <generator>
  <i name="program" type="string">vasp </i>
  <i name="version" type="string">6.4.2  </i>
  <i name="subversion" type="string">20Jul23 (build Jan 24 2024 13:44:02) complex                          parallel </i>
  <i name="platform" type="string">LinuxNV </i>
  <i name="date" type="string">2025 11 16 </i>
  <i name="time" type="string">23:47:19 </i>
 </generator>
 <incar>
  <i type="int" name="ISTART">     0</i>
  <i type="string" name="ALGO">Normal</i>
  <i type="logical" name="ADDGRID"> T  </i>
  <i type="int" name="ISPIN">     2</i>
  <i type="int" name="IMIX">     4</i>
  <i name="AMIX">      0.20000000</i>
  <i name="BMIX">      0.00010000</i>
  <i name="AMIX_MAG">      0.80000000</i>
  <i name="BMIX_MAG">      0.00010000</i>
  <i type="int" name="ICHARG">     2</i>
  <i type="int" name="NELM">   200</i>
  <i type="int" name="IBRION">     3</i>
  <i name="EDIFF">      0.00000100</i>
  <i name="EDIFFG">     -0.03000000</i>
  <i type="int" name="NSW">   300</i>
  <i type="int" name="ISIF">     2</i>
  <i type="int" name="ISYM">     0</i>
  <i name="ENCUT">    520.00000000</i>
  <i name="POTIM">      0.10000000</i>
  <v name="MAGMOM">      0.60000000      0.60000000      0.60000000      0.60000000      0.60000000      0.60000000      0.60000000      0.60000000      0.60000000      0.60000000      0.60000000      0.60000000      0.60000000      0.60000000      0.60000000      0.60000000      0.60000000      0.60000000      0.60000000      0.60000000
      0.60000000      0.60000000      0.60000000      0.60000000      0.60000000      0.60000000      0.60000000      0.60000000      0.60000000      0.60000000      0.60000000      0.60000000      0.60000000      0.60000000      0.60000000      0.60000000      0.60000000      0.60000000      0.60000000      0.60000000
      0.60000000      0.60000000      0.60000000      0.60000000      0.60000000      0.60000000      0.60000000      0.60000000      0.60000000      0.60000000      0.60000000      0.60000000      0.60000000      0.60000000      0.60000000      0.60000000      0.60000000      0.60000000      0.60000000      0.60000000
      0.60000000      0.60000000      0.60000000      0.60000000      0.60000000      0.60000000      0.60000000      0.60000000      0.60000000      0.60000000      0.60000000      0.60000000      0.60000000      0.60000000      0.60000000      0.60000000      0.60000000      0.60000000      0.60000000      0.60000000
      0.60000000      0.60000000      0.60000000      0.60000000      0.60000000      0.60000000      0.60000000      0.60000000      0.60000000      0.60000000      0.60000000      0.60000000      0.60000000</v>
  <i type="string" name="LREAL">Auto</i>
  <i type="int" name="ISMEAR">     0</i>
  <i name="SIGMA">      0.05000000</i>
  <i type="logical" name="LWAVE"> F  </i>
  <i type="logical" name="LCHARG"> F  </i>
  <i type="logical" name="LASPH"> T  </i>
  <i type="int" name="IVDW">    12</i>
  <i name="SPRING">     -5.00000000</i>
 </incar>
 <primitive_cell>
  <structure name="primitive_cell" >
   <crystal>
    <varray name="basis" >
     <v>      17.27103806       0.00000000       0.00000000 </v>
     <v>      -8.63551903      14.95715771       0.00000000 </v>
     <v>       0.00000000       0.00000000      15.00000000 </v>
    </varray>
    <i name="volume">   3874.88459904 </i>
    <varray name="rec_basis" >
     <v>       0.05790040       0.03342881      -0.00000000 </v>
     <v>       0.00000000       0.06685762       0.00000000 </v>
     <v>       0.00000000      -0.00000000       0.06666667 </v>
    </varray>
   </crystal>
   <varray name="positions" >
    <v>       0.99877297       0.00155855       0.50027943 </v>
    <v>       0.99892861       0.14455461       0.50010942 </v>
    <v>       0.99977765       0.28823135       0.49997989 </v>
    <v>       0.00039639       0.43135781       0.50008148 </v>
    <v>       0.00098112       0.57423680       0.50039104 </v>
    <v>       0.00133302       0.71715711       0.50060456 </v>
    <v>       0.99976013       0.85963475       0.50048761 </v>
    <v>       0.14301862       0.00312490       0.50016949 </v>
    <v>       0.14248207       0.14532135       0.49990333 </v>
    <v>       0.14195822       0.28718503       0.49977539 </v>
    <v>       0.14371578       0.43141001       0.49994804 </v>
    <v>       0.14476531       0.57418055       0.50031462 </v>
    <v>       0.14428253       0.71711354       0.50063518 </v>
    <v>       0.14342912       0.86021303       0.50050238 </v>
    <v>       0.28615015       0.00351227       0.50002625 </v>
    <v>       0.28641933       0.14686546       0.49971329 </v>
    <v>       0.28699348       0.29197207       0.49950793 </v>
    <v>       0.28484646       0.42631699       0.49959025 </v>
    <v>       0.28996495       0.57435178       0.50004365 </v>
    <v>       0.28758053       0.71779440       0.50048246 </v>
    <v>       0.28645971       0.86068889       0.50042673 </v>
    <v>       0.42914830       0.00402487       0.50003802 </v>
    <v>       0.42914698       0.14787033       0.49971310 </v>
    <v>       0.42938356       0.86031504       0.50041181 </v>
    <v>       0.57131540       0.00344704       0.50014402 </v>
    <v>       0.57133460       0.14702311       0.49984264 </v>
    <v>       0.57358334       0.29396459       0.49975217 </v>
    <v>       0.57334740       0.85901187       0.50049216 </v>
    <v>       0.71347676       0.00250784       0.50034576 </v>
    <v>       0.71403639       0.14618488       0.50004274 </v>
    <v>       0.71383510       0.28939693       0.49987797 </v>
    <v>       0.71035134       0.42956636       0.49993618 </v>
    <v>       0.70853940       0.85796015       0.50044254 </v>
    <v>       0.85563998       0.00147752       0.50035795 </v>
    <v>       0.85645923       0.14529761       0.50016403 </v>
    <v>       0.85677162       0.28858035       0.49998502 </v>
    <v>       0.85708341       0.43160925       0.50003307 </v>
    <v>       0.85752118       0.57415545       0.50023822 </v>
    <v>       0.85826565       0.71651797       0.50041110 </v>
    <v>       0.85455433       0.85766441       0.50042330 </v>
    <v>       0.04687099       0.09713746       0.50010318 </v>
    <v>       0.04650618       0.23969755       0.49994858 </v>
    <v>       0.04793904       0.38373608       0.49998643 </v>
    <v>       0.04899193       0.52668561       0.50026471 </v>
    <v>       0.04887273       0.66957183       0.50060427 </v>
    <v>       0.04799210       0.81235021       0.50058201 </v>
    <v>       0.04733020       0.95477702       0.50030544 </v>
    <v>       0.19069797       0.09829370       0.49990551 </v>
    <v>       0.19044372       0.24056926       0.49969620 </v>
    <v>       0.18949661       0.38208429       0.49976866 </v>
    <v>       0.19311951       0.52692320       0.50010647 </v>
    <v>       0.19216164       0.66972438       0.50049535 </v>
    <v>       0.19137481       0.81269781       0.50057039 </v>
    <v>       0.19097164       0.95558281       0.50024643 </v>
    <v>       0.33391011       0.09930550       0.49976143 </v>
    <v>       0.33750598       0.24287544       0.49954980 </v>
    <v>       0.33920135       0.67329006       0.50033676 </v>
    <v>       0.33436849       0.81290378       0.50051457 </v>
    <v>       0.33373705       0.95595438       0.50014484 </v>
    <v>       0.47644605       0.09948147       0.49984246 </v>
    <v>       0.47405341       0.24408195       0.49963058 </v>
    <v>       0.47442401       0.80949886       0.50047719 </v>
    <v>       0.47646964       0.95596257       0.50017907 </v>
    <v>       0.61864225       0.09883920       0.49999430 </v>
    <v>       0.61861740       0.24277814       0.49980684 </v>
    <v>       0.61841380       0.95489163       0.50031516 </v>
    <v>       0.76135600       0.09821024       0.50019392 </v>
    <v>       0.76159861       0.24133955       0.49995139 </v>
    <v>       0.76128467       0.38445810       0.49992953 </v>
    <v>       0.76092258       0.52916810       0.50007941 </v>
    <v>       0.76289056       0.66514914       0.50020318 </v>
    <v>       0.75770666       0.80817268       0.50035255 </v>
    <v>       0.76017776       0.95409362       0.50041829 </v>
    <v>       0.90350727       0.09674531       0.50025811 </v>
    <v>       0.90431734       0.24074630       0.50004310 </v>
    <v>       0.90469590       0.38403754       0.50001402 </v>
    <v>       0.90539013       0.52681735       0.50021255 </v>
    <v>       0.90586353       0.66921537       0.50042229 </v>
    <v>       0.90402402       0.81157976       0.50046731 </v>
    <v>       0.90298318       0.95327048       0.50038792 </v>
    <v>       0.71535579       0.71402614       0.50005132 </v>
    <v>       0.33210531       0.52248316       0.49968799 </v>
    <v>       0.62708375       0.66573361       0.49946720 </v>
    <v>       0.42068438       0.56233500       0.49951193 </v>
    <v>       0.42747365       0.28782387       0.49952362 </v>
    <v>       0.42911138       0.71935683       0.50042620 </v>
    <v>       0.71700623       0.57444722       0.50005707 </v>
    <v>       0.33086693       0.38137152       0.49941534 </v>
    <v>       0.62019147       0.38445641       0.49983012 </v>
    <v>       0.61863146       0.81417180       0.50054885 </v>
    <v>       0.46191991       0.44072109       0.49944027 </v>
    <v>       0.55880764       0.45725635       0.49972325 </v>
    <v>       0.52451853       0.48831599       0.50000000 </v>
   </varray>
  </structure>
  <varray name="primitive_index" >
   <v type="int" >        1 </v>
   <v type="int" >        2 </v>
   <v type="int" >        3 </v>
   <v type="int" >        4 </v>
   <v type="int" >        5 </v>
   <v type="int" >        6 </v>
   <v type="int" >        7 </v>
   <v type="int" >        8 </v>
   <v type="int" >        9 </v>
   <v type="int" >       10 </v>
   <v type="int" >       11 </v>
   <v type="int" >       12 </v>
   <v type="int" >       13 </v>
   <v type="int" >       14 </v>
   <v type="int" >       15 </v>
   <v type="int" >       16 </v>
   <v type="int" >       17 </v>
   <v type="int" >       18 </v>
   <v type="int" >       19 </v>
   <v type="int" >       20 </v>
   <v type="int" >       21 </v>
   <v type="int" >       22 </v>
   <v type="int" >       23 </v>
   <v type="int" >       24 </v>
   <v type="int" >       25 </v>
   <v type="int" >       26 </v>
   <v type="int" >       27 </v>
   <v type="int" >       28 </v>
   <v type="int" >       29 </v>
   <v type="int" >       30 </v>
   <v type="int" >       31 </v>
   <v type="int" >       32 </v>
   <v type="int" >       33 </v>
   <v type="int" >       34 </v>
   <v type="int" >       35 </v>
   <v type="int" >       36 </v>
   <v type="int" >       37 </v>
   <v type="int" >       38 </v>
   <v type="int" >       39 </v>
   <v type="int" >       40 </v>
   <v type="int" >       41 </v>
   <v type="int" >       42 </v>
   <v type="int" >       43 </v>
   <v type="int" >       44 </v>
   <v type="int" >       45 </v>
   <v type="int" >       46 </v>
   <v type="int" >       47 </v>
   <v type="int" >       48 </v>
   <v type="int" >       49 </v>
   <v type="int" >       50 </v>
   <v type="int" >       51 </v>
   <v type="int" >       52 </v>
   <v type="int" >       53 </v>
   <v type="int" >       54 </v>
   <v type="int" >       55 </v>
   <v type="int" >       56 </v>
   <v type="int" >       57 </v>
   <v type="int" >       58 </v>
   <v type="int" >       59 </v>
   <v type="int" >       60 </v>
   <v type="int" >       61 </v>
   <v type="int" >       62 </v>
   <v type="int" >       63 </v>
   <v type="int" >       64 </v>
   <v type="int" >       65 </v>
   <v type="int" >       66 </v>
   <v type="int" >       67 </v>
   <v type="int" >       68 </v>
   <v type="int" >       69 </v>
   <v type="int" >       70 </v>
   <v type="int" >       71 </v>
   <v type="int" >       72 </v>
   <v type="int" >       73 </v>
   <v type="int" >       74 </v>
   <v type="int" >       75 </v>
   <v type="int" >       76 </v>
   <v type="int" >       77 </v>
   <v type="int" >       78 </v>
   <v type="int" >       79 </v>
   <v type="int" >       80 </v>
   <v type="int" >       81 </v>
   <v type="int" >       82 </v>
   <v type="int" >       83 </v>
   <v type="int" >       84 </v>
   <v type="int" >       85 </v>
   <v type="int" >       86 </v>
   <v type="int" >       87 </v>
   <v type="int" >       88 </v>
   <v type="int" >       89 </v>
   <v type="int" >       90 </v>
   <v type="int" >       91 </v>
   <v type="int" >       92 </v>
   <v type="int" >       93 </v>
  </varray>
 </primitive_cell>
 <kpoints>
  <generation param="Gamma">
   <v type="int" name="divisions">       2        2        1 </v>
   <v name="usershift">      0.00000000       0.00000000       0.00000000 </v>
   <v name="genvec1">      0.50000000       0.00000000       0.00000000 </v>
   <v name="genvec2">      0.00000000       0.50000000       0.00000000 </v>
   <v name="genvec3">      0.00000000       0.00000000       1.00000000 </v>
   <v name="shift">      0.00000000       0.00000000       0.00000000 </v>
  </generation>
  <varray name="kpointlist" >
   <v>       0.00000000       0.00000000       0.00000000 </v>
   <v>       0.50000000       0.00000000       0.00000000 </v>
   <v>       0.00000000       0.50000000       0.00000000 </v>
   <v>       0.50000000       0.50000000       0.00000000 </v>
  </varray>
  <varray name="weights" >
   <v>       0.25000000 </v>
   <v>       0.25000000 </v>
   <v>       0.25000000 </v>
   <v>       0.25000000 </v>
  </varray>
 </kpoints>
 <parameters>
  <separator name="general" >
   <i type="string" name="SYSTEM">unknown system</i>
   <i type="logical" name="LCOMPAT"> F  </i>
  </separator>
  <separator name="electronic" >
   <i type="string" name="PREC">normal</i>
   <i name="ENMAX">    520.00000000</i>
   <i name="ENAUG">    644.87300000</i>
   <i name="EDIFF">      0.00000100</i>
   <i type="int" name="IALGO">    38</i>
   <i type="int" name="IWAVPR">    11</i>
   <i type="int" name="NBANDS">   265</i>
   <i type="int" name="NBANDSLOW">    -1</i>
   <i type="int" name="NBANDSHIGH">    -1</i>
   <i name="NELECT">    380.00000000</i>
   <i type="int" name="TURBO">     0</i>
   <i type="int" name="IRESTART">     0</i>
   <i type="int" name="NREBOOT">     0</i>
   <i type="int" name="NMIN">     0</i>
   <i name="EREF">      0.00000000</i>
   <separator name="electronic smearing" >
    <i type="int" name="ISMEAR">     0</i>
    <i name="SIGMA">      0.05000000</i>
    <i name="KSPACING">      0.50000000</i>
    <i type="logical" name="KGAMMA"> T  </i>
    <i type="logical" name="KBLOWUP"> T  </i>
   </separator>
   <separator name="electronic projectors" >
    <i type="logical" name="LREAL"> T  </i>
    <v name="ROPT">     -0.00050000     -0.00050000     -0.00050000     -0.00050000     -0.00050000</v>
    <i type="int" name="LMAXPAW">  -100</i>
    <i type="int" name="LMAXMIX">     2</i>
    <i type="logical" name="NLSPLINE"> F  </i>
   </separator>
   <separator name="electronic startup" >
    <i type="int" name="ISTART">     0</i>
    <i type="int" name="ICHARG">     2</i>
    <i type="int" name="INIWAV">     1</i>
   </separator>
   <separator name="electronic spin" >
    <i type="int" name="ISPIN">     2</i>
    <i type="logical" name="LNONCOLLINEAR"> F  </i>
    <v name="MAGMOM">      0.60000000      0.60000000      0.60000000      0.60000000      0.60000000      0.60000000      0.60000000      0.60000000      0.60000000      0.60000000      0.60000000      0.60000000      0.60000000      0.60000000      0.60000000      0.60000000      0.60000000      0.60000000      0.60000000      0.60000000
      0.60000000      0.60000000      0.60000000      0.60000000      0.60000000      0.60000000      0.60000000      0.60000000      0.60000000      0.60000000      0.60000000      0.60000000      0.60000000      0.60000000      0.60000000      0.60000000      0.60000000      0.60000000      0.60000000      0.60000000
      0.60000000      0.60000000      0.60000000      0.60000000      0.60000000      0.60000000      0.60000000      0.60000000      0.60000000      0.60000000      0.60000000      0.60000000      0.60000000      0.60000000      0.60000000      0.60000000      0.60000000      0.60000000      0.60000000      0.60000000
      0.60000000      0.60000000      0.60000000      0.60000000      0.60000000      0.60000000      0.60000000      0.60000000      0.60000000      0.60000000      0.60000000      0.60000000      0.60000000      0.60000000      0.60000000      0.60000000      0.60000000      0.60000000      0.60000000      0.60000000
      0.60000000      0.60000000      0.60000000      0.60000000      0.60000000      0.60000000      0.60000000      0.60000000      0.60000000      0.60000000      0.60000000      0.60000000      0.60000000</v>
    <i name="NUPDOWN">     -1.00000000</i>
    <i type="logical" name="LSORBIT"> F  </i>
    <v name="SAXIS">      0.00000000      0.00000000      1.00000000</v>
    <i type="logical" name="LSPIRAL"> F  </i>
    <v name="QSPIRAL">      0.00000000      0.00000000      0.00000000</v>
    <i type="logical" name="LZEROZ"> F  </i>
   </separator>
   <separator name="electronic exchange-correlation" >
    <i type="logical" name="LASPH"> T  </i>
    <i type="logical" name="LMETAGGA"> F  </i>
   </separator>
   <separator name="electronic convergence" >
    <i type="int" name="NELM">   200</i>
    <i type="int" name="NELMDL">    -5</i>
    <i type="int" name="NELMIN">     2</i>
    <i name="ENINI">    520.00000000</i>
    <separator name="electronic convergence detail" >
     <i type="logical" name="LDIAG"> T  </i>
     <i type="logical" name="LSUBROT"> F  </i>
     <i name="WEIMIN">      0.00100000</i>
     <i name="EBREAK">      0.00000000</i>
     <i name="DEPER">      0.30000000</i>
     <i type="int" name="NRMM">     4</i>
     <i name="TIME">      0.40000000</i>
    </separator>
   </separator>
   <separator name="electronic mixer" >
    <i name="AMIX">      0.20000000</i>
    <i name="BMIX">      0.00010000</i>
    <i name="AMIN">      0.10000000</i>
    <i name="AMIX_MAG">      0.80000000</i>
    <i name="BMIX_MAG">      0.00010000</i>
    <separator name="electronic mixer details" >
     <i type="int" name="IMIX">     4</i>
     <i type="logical" name="MIXFIRST"> F  </i>
     <i type="int" name="MAXMIX">   -45</i>
     <i name="WC">    100.00000000</i>
     <i type="int" name="INIMIX">     1</i>
     <i type="int" name="MIXPRE">     1</i>
     <i type="int" name="MREMOVE">     5</i>
    </separator>
   </separator>
   <separator name="electronic dipolcorrection" >
    <i type="logical" name="LDIPOL"> F  </i>
    <i type="logical" name="LMONO"> F  </i>
    <i type="int" name="IDIPOL">     0</i>
    <i name="EPSILON">      1.00000000</i>
    <v name="DIPOL">   -100.00000000   -100.00000000   -100.00000000</v>
    <i name="EFIELD">      0.00000000</i>
   </separator>
  </separator>
  <separator name="grids" >
   <i type="int" name="NGX">    96</i>
   <i type="int" name="NGY">    96</i>
   <i type="int" name="NGZ">    84</i>
   <i type="int" name="NGXF">   192</i>
   <i type="int" name="NGYF">   192</i>
   <i type="int" name="NGZF">   168</i>
   <i type="logical" name="ADDGRID"> T  </i>
  </separator>
  <separator name="ionic" >
   <i type="int" name="NSW">   300</i>
   <i type="int" name="IBRION">     3</i>
   <i type="int" name="MDALGO">     0</i>
   <i type="int" name="ISIF">     2</i>
   <i name="PSTRESS">      0.00000000</i>
   <i name="EDIFFG">     -0.03000000</i>
   <i type="int" name="NFREE">     0</i>
   <i name="POTIM">      0.10000000</i>
   <i name="SMASS">     -3.00000000</i>
   <i name="SCALEE">      1.00000000</i>
  </separator>
  <separator name="ionic md" >
   <i name="TEBEG">      0.00010000</i>
   <i name="TEEND">      0.00010000</i>
   <i type="int" name="NBLOCK">     1</i>
   <i type="int" name="KBLOCK">   300</i>
   <i type="int" name="NPACO">   256</i>
   <i name="APACO">     10.00000000</i>
  </separator>
  <separator name="symmetry" >
   <i type="int" name="ISYM">     0</i>
   <i name="SYMPREC">      0.00001000</i>
  </separator>
  <separator name="dos" >
   <i type="int" name="LORBIT">     0</i>
   <v name="RWIGS">     -1.00000000     -1.00000000     -1.00000000     -1.00000000     -1.00000000</v>
   <i type="int" name="NEDOS">   301</i>
   <i name="EMIN">     10.00000000</i>
   <i name="EMAX">    -10.00000000</i>
   <i name="EFERMI">      0.00000000</i>
  </separator>
  <separator name="writing" >
   <i type="int" name="NWRITE">     2</i>
   <i type="logical" name="LWAVE"> F  </i>
   <i type="logical" name="LDOWNSAMPLE"> F  </i>
   <i type="logical" name="LCHARG"> F  </i>
   <i type="logical" name="LPARD"> F  </i>
   <i type="logical" name="LVTOT"> F  </i>
   <i type="logical" name="LVHAR"> F  </i>
   <i type="logical" name="LELF"> F  </i>
   <i type="logical" name="LOPTICS"> F  </i>
   <v name="STM">      0.00000000      0.00000000      0.00000000      0.00000000      0.00000000      0.00000000      0.00000000</v>
  </separator>
  <separator name="performance" >
   <i type="int" name="NPAR">     5</i>
   <i type="int" name="NSIM">     4</i>
   <i type="int" name="NBLK">    -1</i>
   <i type="logical" name="LPLANE"> T  </i>
   <i type="logical" name="LSCALAPACK"> T  </i>
   <i type="logical" name="LSCAAWARE"> F  </i>
   <i type="logical" name="LSCALU"> F  </i>
   <i type="logical" name="LASYNC"> F  </i>
   <i type="logical" name="LORBITALREAL"> F  </i>
  </separator>
  <separator name="miscellaneous" >
   <i type="int" name="IDIOT">     3</i>
   <i type="int" name="PHON_NSTRUCT">    -1</i>
   <i type="logical" name="LMUSIC"> F  </i>
   <v name="POMASS">     12.01100000     18.99800000     14.00100000      1.00000000     16.00000000</v>
   <v name="DARWINR">      0.00000000      0.00000000      0.00000000      0.00000000      0.00000000</v>
   <v name="DARWINV">      1.00000000      1.00000000      1.00000000      1.00000000      1.00000000</v>
   <i type="logical" name="LCORR"> T  </i>
  </separator>
  <i type="logical" name="GGA_COMPAT"> T  </i>
  <i type="logical" name="LBERRY"> F  </i>
  <i type="int" name="ICORELEVEL">     0</i>
  <i type="logical" name="LDAU"> F  </i>
  <i type="int" name="I_CONSTRAINED_M">     0</i>
  <separator name="electronic exchange-correlation" >
   <i type="string" name="GGA">--</i>
   <i type="int" name="VOSKOWN">     0</i>
   <i type="logical" name="LHFCALC"> F  </i>
   <i type="string" name="PRECFOCK"></i>
   <i type="logical" name="LSYMGRAD"> F  </i>
   <i type="logical" name="LHFONE"> F  </i>
   <i type="logical" name="LRHFCALC"> F  </i>
   <i type="logical" name="LTHOMAS"> F  </i>
   <i type="logical" name="LMODELHF"> F  </i>
   <i type="logical" name="LFOCKACE"> F  </i>
   <i name="ENCUT4O">     -1.00000000</i>
   <i type="int" name="EXXOEP">     0</i>
   <i type="int" name="FOURORBIT">     0</i>
   <i name="AEXX">      0.00000000</i>
   <i name="HFALPHA">      0.00000000</i>
   <i name="MCALPHA">      0.00000000</i>
   <i name="ALDAX">      1.00000000</i>
   <i name="AGGAX">      1.00000000</i>
   <i name="ALDAC">      1.00000000</i>
   <i name="AGGAC">      1.00000000</i>
   <i type="int" name="NKREDX">     1</i>
   <i type="int" name="NKREDY">     1</i>
   <i type="int" name="NKREDZ">     1</i>
   <i type="logical" name="SHIFTRED"> F  </i>
   <i type="logical" name="ODDONLY"> F  </i>
   <i type="logical" name="EVENONLY"> F  </i>
   <i type="int" name="LMAXFOCK">     0</i>
   <i type="int" name="NMAXFOCKAE">     0</i>
   <i type="logical" name="LFOCKAEDFT"> F  </i>
   <i name="HFSCREEN">      0.00000000</i>
   <i name="HFSCREENC">      0.00000000</i>
   <i type="int" name="NBANDSGWLOW">     0</i>
  </separator>
  <separator name="vdW DFT" >
   <i type="logical" name="LUSE_VDW"> F  </i>
   <i type="int" name="IVDW_NL">     1</i>
   <i type="logical" name="LSPIN_VDW"> F  </i>
   <i name="Zab_VDW">     -0.84910000</i>
   <i name="PARAM1">      0.12340000</i>
   <i name="PARAM2">      1.00000000</i>
   <i name="PARAM3">      0.00000000</i>
  </separator>
  <separator name="model GW" >
   <i type="int" name="MODEL_GW">     0</i>
   <i name="MODEL_EPS0">     24.99925548</i>
   <i name="MODEL_ALPHA">      1.00000000</i>
  </separator>
  <separator name="linear response parameters" >
   <i type="logical" name="LEPSILON"> F  </i>
   <i type="logical" name="LRPA"> F  </i>
   <i type="logical" name="LNABLA"> F  </i>
   <i type="logical" name="LVEL"> F  </i>
   <i name="CSHIFT">      0.10000000</i>
   <i name="OMEGAMAX">     -1.00000000</i>
   <i name="DEG_THRESHOLD">      0.00200000</i>
   <i name="RTIME">     -0.10000000</i>
   <i name="WPLASMAI">      0.00000000</i>
   <v name="DFIELD">      0.00000000      0.00000000      0.00000000</v>
   <v name="WPLASMA">      0.00000000      0.00000000      0.00000000      0.00000000      0.00000000      0.00000000      0.00000000      0.00000000      0.00000000</v>
  </separator>
  <separator name="orbital magnetization" >
   <i type="logical" name="NUCIND"> F  </i>
   <v name="MAGPOS">      0.00000000      0.00000000      0.00000000</v>
   <i type="logical" name="LNICSALL"> T  </i>
   <i type="logical" name="ORBITALMAG"> F  </i>
   <i type="logical" name="LMAGBLOCH"> F  </i>
   <i type="logical" name="LCHIMAG"> F  </i>
   <i type="logical" name="LGAUGE"> T  </i>
   <i type="int" name="MAGATOM">     0</i>
   <v name="MAGDIPOL">      0.00000000      0.00000000      0.00000000</v>
   <v name="AVECCONST">      0.00000000      0.00000000      0.00000000</v>
  </separator>
  <separator name="response functions" >
   <i type="logical" name="LALL_IN_ONE"> F  </i>
   <i type="int" name="IALL_IN_ONE">    -1</i>
   <i type="int" name="NBANDS_WAVE">    -1</i>
   <i type="logical" name="LFINITE_TEMPERATURE"> F  </i>
   <i type="logical" name="LADDER"> F  </i>
   <i type="logical" name="LRPAFORCE"> F  </i>
   <i type="logical" name="LFXC"> F  </i>
   <i type="logical" name="LHARTREE"> T  </i>
   <i type="int" name="IBSE">     0</i>
   <v type="int" name="KPOINT">    -1     0     0     0</v>
   <i type="logical" name="LTCTC"> F  </i>
   <i type="logical" name="LTCTE"> F  </i>
   <i type="logical" name="LTETE"> F  </i>
   <i type="logical" name="LTRIPLET"> F  </i>
   <i type="logical" name="LFXCEPS"> F  </i>
   <i type="logical" name="LFXHEG"> F  </i>
   <i type="int" name="NATURALO">     2</i>
   <i type="logical" name="LHOLEGF"> F  </i>
   <i type="logical" name="L2ORDER"> F  </i>
   <i type="logical" name="LDMP1"> F  </i>
   <i type="logical" name="LMP2LT"> F  </i>
   <i type="logical" name="LSMP2LT"> F  </i>
   <i type="logical" name="LGWLF"> F  </i>
   <i name="ENCUTGW">     -1.60000002</i>
   <i name="ENCUTGWSOFT">     -1.60000002</i>
   <i name="ENCUTLF">     -1.00000000</i>
   <i type="logical" name="LESF_SPLINES"> F  </i>
   <i type="int" name="LMAXMP2">    -1</i>
   <i name="SCISSOR">      0.00000000</i>
   <i type="int" name="NOMEGA">     0</i>
   <i type="int" name="NOMEGAR">     0</i>
   <i type="int" name="NBANDSGW">    -1</i>
   <i type="int" name="NBANDSO">    -1</i>
   <i type="int" name="NBANDSV">    -1</i>
   <i type="int" name="NELMGW">     1</i>
   <i type="int" name="NELMHF">     1</i>
   <i type="int" name="DIM">     3</i>
   <i type="int" name="IESPILON">     4</i>
   <i type="int" name="ANTIRES">     0</i>
   <i name="OMEGAMAX">    -30.00000000</i>
   <i name="OMEGAMIN">    -30.00000000</i>
   <i name="OMEGATL">   -200.00000000</i>
   <i type="int" name="OMEGAGRID">     0</i>
   <i name="CSHIFT">     -0.10000000</i>
   <i type="logical" name="LSELFENERGY"> F  </i>
   <i type="logical" name="LSPECTRAL"> F  </i>
   <i type="logical" name="LSPECTRALGW"> F  </i>
   <i type="logical" name="LSINGLES"> F  </i>
   <i type="logical" name="LFERMIGW"> F  </i>
   <i type="logical" name="ODDONLYGW"> F  </i>
   <i type="logical" name="EVENONLYGW"> F  </i>
   <i type="int" name="NKREDLFX">     1</i>
   <i type="int" name="NKREDLFY">     1</i>
   <i type="int" name="NKREDLFZ">     1</i>
   <i type="int" name="MAXMEM">  2800</i>
   <i type="int" name="TELESCOPE">     0</i>
   <i type="int" name="NTAUPAR">    -1</i>
   <i type="int" name="NOMEGAPAR">    -1</i>
   <i name="DAMP_NEWTON">      0.80000001</i>
   <i name="LAMBDA">      1.00000000</i>
  </separator>
  <separator name="External order field" >
   <i name="OFIELD_KAPPA">      0.00000000</i>
   <v name="OFIELD_K">      0.00000000      0.00000000      0.00000000</v>
   <i name="OFIELD_Q6_NEAR">      0.00000000</i>
   <i name="OFIELD_Q6_FAR">      0.00000000</i>
   <i name="OFIELD_A">      0.00000000</i>
  </separator>
  <separator name="optional k-points parameters" >
   <i type="int" name="KPOINTS_OPT_MODE">     1</i>
   <i type="logical" name="LKPOINTS_OPT"> F  </i>
  </separator>
 </parameters>
 <atominfo>
  <atoms>      93 </atoms>
  <types>       5 </types>
  <array name="atoms" >
   <dimension dim="1">ion</dimension>
   <field type="string">element</field>
   <field type="int">atomtype</field>
   <set>
    <rc><c>C </c><c>   1</c></rc>
    <rc><c>C </c><c>   1</c></rc>
    <rc><c>C </c><c>   1</c></rc>
    <rc><c>C </c><c>   1</c></rc>
    <rc><c>C </c><c>   1</c></rc>
    <rc><c>C </c><c>   1</c></rc>
    <rc><c>C </c><c>   1</c></rc>
    <rc><c>C </c><c>   1</c></rc>
    <rc><c>C </c><c>   1</c></rc>
    <rc><c>C </c><c>   1</c></rc>
    <rc><c>C </c><c>   1</c></rc>
    <rc><c>C </c><c>   1</c></rc>
    <rc><c>C </c><c>   1</c></rc>
    <rc><c>C </c><c>   1</c></rc>
    <rc><c>C </c><c>   1</c></rc>
    <rc><c>C </c><c>   1</c></rc>
    <rc><c>C </c><c>   1</c></rc>
    <rc><c>C </c><c>   1</c></rc>
    <rc><c>C </c><c>   1</c></rc>
    <rc><c>C </c><c>   1</c></rc>
    <rc><c>C </c><c>   1</c></rc>
    <rc><c>C </c><c>   1</c></rc>
    <rc><c>C </c><c>   1</c></rc>
    <rc><c>C </c><c>   1</c></rc>
    <rc><c>C </c><c>   1</c></rc>
    <rc><c>C </c><c>   1</c></rc>
    <rc><c>C </c><c>   1</c></rc>
    <rc><c>C </c><c>   1</c></rc>
    <rc><c>C </c><c>   1</c></rc>
    <rc><c>C </c><c>   1</c></rc>
    <rc><c>C </c><c>   1</c></rc>
    <rc><c>C </c><c>   1</c></rc>
    <rc><c>C </c><c>   1</c></rc>
    <rc><c>C </c><c>   1</c></rc>
    <rc><c>C </c><c>   1</c></rc>
    <rc><c>C </c><c>   1</c></rc>
    <rc><c>C </c><c>   1</c></rc>
    <rc><c>C </c><c>   1</c></rc>
    <rc><c>C </c><c>   1</c></rc>
    <rc><c>C </c><c>   1</c></rc>
    <rc><c>C </c><c>   1</c></rc>
    <rc><c>C </c><c>   1</c></rc>
    <rc><c>C </c><c>   1</c></rc>
    <rc><c>C </c><c>   1</c></rc>
    <rc><c>C </c><c>   1</c></rc>
    <rc><c>C </c><c>   1</c></rc>
    <rc><c>C </c><c>   1</c></rc>
    <rc><c>C </c><c>   1</c></rc>
    <rc><c>C </c><c>   1</c></rc>
    <rc><c>C </c><c>   1</c></rc>
    <rc><c>C </c><c>   1</c></rc>
    <rc><c>C </c><c>   1</c></rc>
    <rc><c>C </c><c>   1</c></rc>
    <rc><c>C </c><c>   1</c></rc>
    <rc><c>C </c><c>   1</c></rc>
    <rc><c>C </c><c>   1</c></rc>
    <rc><c>C </c><c>   1</c></rc>
    <rc><c>C </c><c>   1</c></rc>
    <rc><c>C </c><c>   1</c></rc>
    <rc><c>C </c><c>   1</c></rc>
    <rc><c>C </c><c>   1</c></rc>
    <rc><c>C </c><c>   1</c></rc>
    <rc><c>C </c><c>   1</c></rc>
    <rc><c>C </c><c>   1</c></rc>
    <rc><c>C </c><c>   1</c></rc>
    <rc><c>C </c><c>   1</c></rc>
    <rc><c>C </c><c>   1</c></rc>
    <rc><c>C </c><c>   1</c></rc>
    <rc><c>C </c><c>   1</c></rc>
    <rc><c>C </c><c>   1</c></rc>
    <rc><c>C </c><c>   1</c></rc>
    <rc><c>C </c><c>   1</c></rc>
    <rc><c>C </c><c>   1</c></rc>
    <rc><c>C </c><c>   1</c></rc>
    <rc><c>C </c><c>   1</c></rc>
    <rc><c>C </c><c>   1</c></rc>
    <rc><c>C </c><c>   1</c></rc>
    <rc><c>C </c><c>   1</c></rc>
    <rc><c>C </c><c>   1</c></rc>
    <rc><c>C </c><c>   1</c></rc>
    <rc><c>C </c><c>   1</c></rc>
    <rc><c>C </c><c>   1</c></rc>
    <rc><c>F </c><c>   2</c></rc>
    <rc><c>F </c><c>   2</c></rc>
    <rc><c>N </c><c>   3</c></rc>
    <rc><c>N </c><c>   3</c></rc>
    <rc><c>N </c><c>   3</c></rc>
    <rc><c>N </c><c>   3</c></rc>
    <rc><c>N </c><c>   3</c></rc>
    <rc><c>N </c><c>   3</c></rc>
    <rc><c>H </c><c>   4</c></rc>
    <rc><c>H </c><c>   4</c></rc>
    <rc><c>O </c><c>   5</c></rc>
   </set>
  </array>
  <array name="atomtypes" >
   <dimension dim="1">type</dimension>
   <field type="int">atomspertype</field>
   <field type="string">element</field>
   <field>mass</field>
   <field>valence</field>
   <field type="string">pseudopotential</field>
   <set>
    <rc><c>  82</c><c>C </c><c>     12.01100000</c><c>      4.00000000</c><c>  PAW_PBE C 08Apr2002                   </c></rc>
    <rc><c>   2</c><c>F </c><c>     18.99800000</c><c>      7.00000000</c><c>  PAW_PBE F 08Apr2002                   </c></rc>
    <rc><c>   6</c><c>N </c><c>     14.00100000</c><c>      5.00000000</c><c>  PAW_PBE N 08Apr2002                   </c></rc>
    <rc><c>   2</c><c>H </c><c>      1.00000000</c><c>      1.00000000</c><c>  PAW_PBE H 15Jun2001                   </c></rc>
    <rc><c>   1</c><c>O </c><c>     16.00000000</c><c>      6.00000000</c><c>  PAW_PBE O 08Apr2002                   </c></rc>
   </set>
  </array>
 </atominfo>
 <structure name="initialpos" >
  <crystal>
   <varray name="basis" >
    <v>      17.27103806       0.00000000       0.00000000 </v>
    <v>      -8.63551903      14.95715771       0.00000000 </v>
    <v>       0.00000000       0.00000000      15.00000000 </v>
   </varray>
   <i name="volume">   3874.88459904 </i>
   <varray name="rec_basis" >
    <v>       0.05790040       0.03342881      -0.00000000 </v>
    <v>       0.00000000       0.06685762       0.00000000 </v>
    <v>       0.00000000      -0.00000000       0.06666667 </v>
   </varray>
  </crystal>
  <varray name="positions" >
   <v>       0.99877297       0.00155855       0.50027943 </v>
   <v>       0.99892861       0.14455461       0.50010942 </v>
   <v>       0.99977765       0.28823135       0.49997989 </v>
   <v>       0.00039639       0.43135781       0.50008148 </v>
   <v>       0.00098112       0.57423680       0.50039104 </v>
   <v>       0.00133302       0.71715711       0.50060456 </v>
   <v>       0.99976013       0.85963475       0.50048761 </v>
   <v>       0.14301862       0.00312490       0.50016949 </v>
   <v>       0.14248207       0.14532135       0.49990333 </v>
   <v>       0.14195822       0.28718503       0.49977539 </v>
   <v>       0.14371578       0.43141001       0.49994804 </v>
   <v>       0.14476531       0.57418055       0.50031462 </v>
   <v>       0.14428253       0.71711354       0.50063518 </v>
   <v>       0.14342912       0.86021303       0.50050238 </v>
   <v>       0.28615015       0.00351227       0.50002625 </v>
   <v>       0.28641933       0.14686546       0.49971329 </v>
   <v>       0.28699348       0.29197207       0.49950793 </v>
   <v>       0.28484646       0.42631699       0.49959025 </v>
   <v>       0.28996495       0.57435178       0.50004365 </v>
   <v>       0.28758053       0.71779440       0.50048246 </v>
   <v>       0.28645971       0.86068889       0.50042673 </v>
   <v>       0.42914830       0.00402487       0.50003802 </v>
   <v>       0.42914698       0.14787033       0.49971310 </v>
   <v>       0.42938356       0.86031504       0.50041181 </v>
   <v>       0.57131540       0.00344704       0.50014402 </v>
   <v>       0.57133460       0.14702311       0.49984264 </v>
   <v>       0.57358334       0.29396459       0.49975217 </v>
   <v>       0.57334740       0.85901187       0.50049216 </v>
   <v>       0.71347676       0.00250784       0.50034576 </v>
   <v>       0.71403639       0.14618488       0.50004274 </v>
   <v>       0.71383510       0.28939693       0.49987797 </v>
   <v>       0.71035134       0.42956636       0.49993618 </v>
   <v>       0.70853940       0.85796015       0.50044254 </v>
   <v>       0.85563998       0.00147752       0.50035795 </v>
   <v>       0.85645923       0.14529761       0.50016403 </v>
   <v>       0.85677162       0.28858035       0.49998502 </v>
   <v>       0.85708341       0.43160925       0.50003307 </v>
   <v>       0.85752118       0.57415545       0.50023822 </v>
   <v>       0.85826565       0.71651797       0.50041110 </v>
   <v>       0.85455433       0.85766441       0.50042330 </v>
   <v>       0.04687099       0.09713746       0.50010318 </v>
   <v>       0.04650618       0.23969755       0.49994858 </v>
   <v>       0.04793904       0.38373608       0.49998643 </v>
   <v>       0.04899193       0.52668561       0.50026471 </v>
   <v>       0.04887273       0.66957183       0.50060427 </v>
   <v>       0.04799210       0.81235021       0.50058201 </v>
   <v>       0.04733020       0.95477702       0.50030544 </v>
   <v>       0.19069797       0.09829370       0.49990551 </v>
   <v>       0.19044372       0.24056926       0.49969620 </v>
   <v>       0.18949661       0.38208429       0.49976866 </v>
   <v>       0.19311951       0.52692320       0.50010647 </v>
   <v>       0.19216164       0.66972438       0.50049535 </v>
   <v>       0.19137481       0.81269781       0.50057039 </v>
   <v>       0.19097164       0.95558281       0.50024643 </v>
   <v>       0.33391011       0.09930550       0.49976143 </v>
   <v>       0.33750598       0.24287544       0.49954980 </v>
   <v>       0.33920135       0.67329006       0.50033676 </v>
   <v>       0.33436849       0.81290378       0.50051457 </v>
   <v>       0.33373705       0.95595438       0.50014484 </v>
   <v>       0.47644605       0.09948147       0.49984246 </v>
   <v>       0.47405341       0.24408195       0.49963058 </v>
   <v>       0.47442401       0.80949886       0.50047719 </v>
   <v>       0.47646964       0.95596257       0.50017907 </v>
   <v>       0.61864225       0.09883920       0.49999430 </v>
   <v>       0.61861740       0.24277814       0.49980684 </v>
   <v>       0.61841380       0.95489163       0.50031516 </v>
   <v>       0.76135600       0.09821024       0.50019392 </v>
   <v>       0.76159861       0.24133955       0.49995139 </v>
   <v>       0.76128467       0.38445810       0.49992953 </v>
   <v>       0.76092258       0.52916810       0.50007941 </v>
   <v>       0.76289056       0.66514914       0.50020318 </v>
   <v>       0.75770666       0.80817268       0.50035255 </v>
   <v>       0.76017776       0.95409362       0.50041829 </v>
   <v>       0.90350727       0.09674531       0.50025811 </v>
   <v>       0.90431734       0.24074630       0.50004310 </v>
   <v>       0.90469590       0.38403754       0.50001402 </v>
   <v>       0.90539013       0.52681735       0.50021255 </v>
   <v>       0.90586353       0.66921537       0.50042229 </v>
   <v>       0.90402402       0.81157976       0.50046731 </v>
   <v>       0.90298318       0.95327048       0.50038792 </v>
   <v>       0.71535579       0.71402614       0.50005132 </v>
   <v>       0.33210531       0.52248316       0.49968799 </v>
   <v>       0.62708375       0.66573361       0.49946720 </v>
   <v>       0.42068438       0.56233500       0.49951193 </v>
   <v>       0.42747365       0.28782387       0.49952362 </v>
   <v>       0.42911138       0.71935683       0.50042620 </v>
   <v>       0.71700623       0.57444722       0.50005707 </v>
   <v>       0.33086693       0.38137152       0.49941534 </v>
   <v>       0.62019147       0.38445641       0.49983012 </v>
   <v>       0.61863146       0.81417180       0.50054885 </v>
   <v>       0.46191991       0.44072109       0.49944027 </v>
   <v>       0.55880764       0.45725635       0.49972325 </v>
   <v>       0.52451853       0.48831599       0.50000000 </v>
  </varray>
  <varray name="selective"  type="logical" >
   <v type="logical" >  T  T  T </v>
   <v type="logical" >  T  T  T </v>
   <v type="logical" >  T  T  T </v>
   <v type="logical" >  T  T  T </v>
   <v type="logical" >  T  T  T </v>
   <v type="logical" >  T  T  T </v>
   <v type="logical" >  T  T  T </v>
   <v type="logical" >  T  T  T </v>
   <v type="logical" >  T  T  T </v>
   <v type="logical" >  T  T  T </v>
   <v type="logical" >  T  T  T </v>
   <v type="logical" >  T  T  T </v>
   <v type="logical" >  T  T  T </v>
   <v type="logical" >  T  T  T </v>
   <v type="logical" >  T  T  T </v>
   <v type="logical" >  T  T  T </v>
   <v type="logical" >  T  T  T </v>
   <v type="logical" >  T  T  T </v>
   <v type="logical" >  T  T  T </v>
   <v type="logical" >  T  T  T </v>
   <v type="logical" >  T  T  T </v>
   <v type="logical" >  T  T  T </v>
   <v type="logical" >  T  T  T </v>
   <v type="logical" >  T  T  T </v>
   <v type="logical" >  T  T  T </v>
   <v type="logical" >  T  T  T </v>
   <v type="logical" >  T  T  T </v>
   <v type="logical" >  T  T  T </v>
   <v type="logical" >  T  T  T </v>
   <v type="logical" >  T  T  T </v>
   <v type="logical" >  T  T  T </v>
   <v type="logical" >  T  T  T </v>
   <v type="logical" >  T  T  T </v>
   <v type="logical" >  T  T  T </v>
   <v type="logical" >  T  T  T </v>
   <v type="logical" >  T  T  T </v>
   <v type="logical" >  T  T  T </v>
   <v type="logical" >  T  T  T </v>
   <v type="logical" >  T  T  T </v>
   <v type="logical" >  T  T  T </v>
   <v type="logical" >  T  T  T </v>
   <v type="logical" >  T  T  T </v>
   <v type="logical" >  T  T  T </v>
   <v type="logical" >  T  T  T </v>
   <v type="logical" >  T  T  T </v>
   <v type="logical" >  T  T  T </v>
   <v type="logical" >  T  T  T </v>
   <v type="logical" >  T  T  T </v>
   <v type="logical" >  T  T  T </v>
   <v type="logical" >  T  T  T </v>
   <v type="logical" >  T  T  T </v>
   <v type="logical" >  T  T  T </v>
   <v type="logical" >  T  T  T </v>
   <v type="logical" >  T  T  T </v>
   <v type="logical" >  T  T  T </v>
   <v type="logical" >  T  T  T </v>
   <v type="logical" >  T  T  T </v>
   <v type="logical" >  T  T  T </v>
   <v type="logical" >  T  T  T </v>
   <v type="logical" >  T  T  T </v>
   <v type="logical" >  T  T  T </v>
   <v type="logical" >  T  T  T </v>
   <v type="logical" >  T  T  T </v>
   <v type="logical" >  T  T  T </v>
   <v type="logical" >  T  T  T </v>
   <v type="logical" >  T  T  T </v>
   <v type="logical" >  T  T  T </v>
   <v type="logical" >  T  T  T </v>
   <v type="logical" >  T  T  T </v>
   <v type="logical" >  T  T  T </v>
   <v type="logical" >  T  T  T </v>
   <v type="logical" >  T  T  T </v>
   <v type="logical" >  T  T  T </v>
   <v type="logical" >  T  T  T </v>
   <v type="logical" >  T  T  T </v>
   <v type="logical" >  T  T  T </v>
   <v type="logical" >  T  T  T </v>
   <v type="logical" >  T  T  T </v>
   <v type="logical" >  T  T  T </v>
   <v type="logical" >  T  T  T </v>
   <v type="logical" >  T  T  T </v>
   <v type="logical" >  T  T  T </v>
   <v type="logical" >  T  T  T </v>
   <v type="logical" >  T  T  T </v>
   <v type="logical" >  T  T  T </v>
   <v type="logical" >  T  T  T </v>
   <v type="logical" >  T  T  T </v>
   <v type="logical" >  T  T  T </v>
   <v type="logical" >  T  T  T </v>
   <v type="logical" >  T  T  T </v>
   <v type="logical" >  T  T  T </v>
   <v type="logical" >  T  T  T </v>
   <v type="logical" >  T  T  F </v>
  </varray>
  <nose>
   <v>      -3.00000000       0.00000000       0.00010000       0.00010000 </v>
  </nose>
 </structure>
 <calculation>
  <scstep>
   <time name="dav">   79.45   79.97</time>
   <time name="total">   86.69   87.27</time>
   <energy>
    <i name="alphaZ">    185.49599500 </i>
    <i name="ewald">  38181.49779228 </i>
    <i name="hartreedc"> -49956.46566055 </i>
    <i name="XCdc">   1309.10116912 </i>
    <i name="pawpsdc">  11553.19479004 </i>
    <i name="pawaedc"> -11618.78033184 </i>
    <i name="eentropy">     -0.04267902 </i>
    <i name="bandstr">  -1595.89312192 </i>
    <i name="atom">  15429.98794498 </i>
    <i name="e_fr_energy">   3488.09589807 </i>
    <i name="e_wo_entrp">   3488.13857710 </i>
    <i name="e_0_energy">   3488.11723759 </i>
   </energy>
  </scstep>
  <scstep>
   <time name="dav">  102.84  103.52</time>
   <time name="total">  102.84  103.52</time>
   <energy>
    <i name="e_fr_energy">   -184.96757774 </i>
    <i name="e_wo_entrp">   -184.96019377 </i>
    <i name="e_0_energy">   -184.96388576 </i>
   </energy>
  </scstep>
  <scstep>
   <time name="dav">   89.03   89.64</time>
   <time name="total">   89.03   89.64</time>
   <energy>
    <i name="e_fr_energy">   -840.94896501 </i>
    <i name="e_wo_entrp">   -840.94568343 </i>
    <i name="e_0_energy">   -840.94732422 </i>
   </energy>
  </scstep>
  <scstep>
   <time name="dav">   87.39   88.08</time>
   <time name="total">   87.39   88.08</time>
   <energy>
    <i name="e_fr_energy">   -863.52767919 </i>
    <i name="e_wo_entrp">   -863.52467198 </i>
    <i name="e_0_energy">   -863.52617558 </i>
   </energy>
  </scstep>
  <scstep>
   <time name="dav">   97.58   98.29</time>
   <time name="total">  103.44  104.18</time>
   <energy>
    <i name="e_fr_energy">   -864.24334624 </i>
    <i name="e_wo_entrp">   -864.24030281 </i>
    <i name="e_0_energy">   -864.24182453 </i>
   </energy>
  </scstep>
  <scstep>
   <time name="dav">   86.69   87.27</time>
   <time name="total">  100.16  100.81</time>
   <energy>
    <i name="e_fr_energy">   -847.75246702 </i>
    <i name="e_wo_entrp">   -847.74887041 </i>
    <i name="e_0_energy">   -847.75066871 </i>
   </energy>
  </scstep>
  <scstep>
   <time name="dav">   84.95   85.53</time>
   <time name="total">   98.63   99.29</time>
   <energy>
    <i name="e_fr_energy">   -827.72506316 </i>
    <i name="e_wo_entrp">   -827.72500874 </i>
    <i name="e_0_energy">   -827.72503595 </i>
   </energy>
  </scstep>
  <scstep>
   <time name="dav">   83.41   84.01</time>
   <time name="total">   97.39   98.07</time>
   <energy>
    <i name="e_fr_energy">   -823.02110008 </i>
    <i name="e_wo_entrp">   -823.02053311 </i>
    <i name="e_0_energy">   -823.02081659 </i>
   </energy>
  </scstep>
  <scstep>
   <time name="dav">   85.70   86.27</time>
   <time name="total">   99.50  100.15</time>
   <energy>
    <i name="e_fr_energy">   -823.08033967 </i>
    <i name="e_wo_entrp">   -823.08033948 </i>
    <i name="e_0_energy">   -823.08033957 </i>
   </energy>
  </scstep>
  <scstep>
   <time name="dav">   82.21   82.76</time>
   <time name="total">   96.04   96.68</time>
   <energy>
    <i name="e_fr_energy">   -822.93081511 </i>
    <i name="e_wo_entrp">   -822.93081417 </i>
    <i name="e_0_energy">   -822.93081464 </i>
   </energy>
  </scstep>
  <scstep>
   <time name="dav">   82.74   83.28</time>
   <time name="total">   96.62   97.24</time>
   <energy>
    <i name="e_fr_energy">   -822.91999751 </i>
    <i name="e_wo_entrp">   -822.91988234 </i>
    <i name="e_0_energy">   -822.91993992 </i>
   </energy>
  </scstep>
  <scstep>
   <time name="dav">   91.53   92.14</time>
   <time name="total">  105.26  105.96</time>
   <energy>
    <i name="e_fr_energy">   -822.91914449 </i>
    <i name="e_wo_entrp">   -822.91914212 </i>
    <i name="e_0_energy">   -822.91914331 </i>
   </energy>
  </scstep>
  <scstep>
   <time name="dav">   82.07   82.57</time>
   <time name="total">   96.04   96.64</time>
   <energy>
    <i name="e_fr_energy">   -822.91924450 </i>
    <i name="e_wo_entrp">   -822.91924064 </i>
    <i name="e_0_energy">   -822.91924257 </i>
   </energy>
  </scstep>
  <scstep>
   <time name="dav">   85.09   85.78</time>
   <time name="total">   99.08   99.86</time>
   <energy>
    <i name="e_fr_energy">   -822.91925456 </i>
    <i name="e_wo_entrp">   -822.91925068 </i>
    <i name="e_0_energy">   -822.91925262 </i>
   </energy>
  </scstep>
  <scstep>
   <time name="dav">   80.67   81.20</time>
   <time name="total">   94.53   95.15</time>
   <energy>
    <i name="e_fr_energy">   -822.91929650 </i>
    <i name="e_wo_entrp">   -822.91929274 </i>
    <i name="e_0_energy">   -822.91929462 </i>
   </energy>
  </scstep>
  <scstep>
   <time name="dav">   79.75   80.27</time>
   <time name="total">   93.77   94.38</time>
   <energy>
    <i name="e_fr_energy">   -822.91932989 </i>
    <i name="e_wo_entrp">   -822.91932621 </i>
    <i name="e_0_energy">   -822.91932805 </i>
   </energy>
  </scstep>
  <scstep>
   <time name="dav">   80.98   81.52</time>
   <time name="total">   95.06   95.70</time>
   <energy>
    <i name="e_fr_energy">   -822.91932539 </i>
    <i name="e_wo_entrp">   -822.91932162 </i>
    <i name="e_0_energy">   -822.91932350 </i>
   </energy>
  </scstep>
  <scstep>
   <time name="dav">   62.77   63.17</time>
   <time name="total">   73.55   74.01</time>
   <energy>
    <i name="e_fr_energy">   -822.91932387 </i>
    <i name="e_wo_entrp">   -822.91932000 </i>
    <i name="e_0_energy">   -822.91932194 </i>
   </energy>
  </scstep>
  <scstep>
   <time name="dav">   38.34   38.55</time>
   <time name="total">   44.12   44.36</time>
   <energy>
    <i name="alphaZ">    185.49599500 </i>
    <i name="ewald">  38181.49779228 </i>
    <i name="hartreedc"> -51395.16382248 </i>
    <i name="XCdc">   1357.03870704 </i>
    <i name="pawpsdc">  38458.21632294 </i>
    <i name="pawaedc"> -38534.76569820 </i>
    <i name="eentropy">     -0.00000389 </i>
    <i name="bandstr">  -4505.22656151 </i>
    <i name="atom">  15429.98794498 </i>
    <i name="e_fr_energy">   -822.91932384 </i>
    <i name="e_wo_entrp">   -822.91931995 </i>
    <i name="e_0_energy">   -822.91932189 </i>
   </energy>
  </scstep>
  <structure>
   <crystal>
    <varray name="basis" >
     <v>      17.27103806       0.00000000       0.00000000 </v>
     <v>      -8.63551903      14.95715771       0.00000000 </v>
     <v>       0.00000000       0.00000000      15.00000000 </v>
    </varray>
    <i name="volume">   3874.88459904 </i>
    <varray name="rec_basis" >
     <v>       0.05790040       0.03342881      -0.00000000 </v>
     <v>       0.00000000       0.06685762       0.00000000 </v>
     <v>       0.00000000      -0.00000000       0.06666667 </v>
    </varray>
   </crystal>
   <varray name="positions" >
    <v>       0.99877297       0.00155855       0.50027943 </v>
    <v>       0.99892861       0.14455461       0.50010942 </v>
    <v>       0.99977765       0.28823135       0.49997989 </v>
    <v>       0.00039639       0.43135781       0.50008148 </v>
    <v>       0.00098112       0.57423680       0.50039104 </v>
    <v>       0.00133302       0.71715711       0.50060456 </v>
    <v>       0.99976013       0.85963475       0.50048761 </v>
    <v>       0.14301862       0.00312490       0.50016949 </v>
    <v>       0.14248207       0.14532135       0.49990333 </v>
    <v>       0.14195822       0.28718503       0.49977539 </v>
    <v>       0.14371578       0.43141001       0.49994804 </v>
    <v>       0.14476531       0.57418055       0.50031462 </v>
    <v>       0.14428253       0.71711354       0.50063518 </v>
    <v>       0.14342912       0.86021303       0.50050238 </v>
    <v>       0.28615015       0.00351227       0.50002625 </v>
    <v>       0.28641933       0.14686546       0.49971329 </v>
    <v>       0.28699348       0.29197207       0.49950793 </v>
    <v>       0.28484646       0.42631699       0.49959025 </v>
    <v>       0.28996495       0.57435178       0.50004365 </v>
    <v>       0.28758053       0.71779440       0.50048246 </v>
    <v>       0.28645971       0.86068889       0.50042673 </v>
    <v>       0.42914830       0.00402487       0.50003802 </v>
    <v>       0.42914698       0.14787033       0.49971310 </v>
    <v>       0.42938356       0.86031504       0.50041181 </v>
    <v>       0.57131540       0.00344704       0.50014402 </v>
    <v>       0.57133460       0.14702311       0.49984264 </v>
    <v>       0.57358334       0.29396459       0.49975217 </v>
    <v>       0.57334740       0.85901187       0.50049216 </v>
    <v>       0.71347676       0.00250784       0.50034576 </v>
    <v>       0.71403639       0.14618488       0.50004274 </v>
    <v>       0.71383510       0.28939693       0.49987797 </v>
    <v>       0.71035134       0.42956636       0.49993618 </v>
    <v>       0.70853940       0.85796015       0.50044254 </v>
    <v>       0.85563998       0.00147752       0.50035795 </v>
    <v>       0.85645923       0.14529761       0.50016403 </v>
    <v>       0.85677162       0.28858035       0.49998502 </v>
    <v>       0.85708341       0.43160925       0.50003307 </v>
    <v>       0.85752118       0.57415545       0.50023822 </v>
    <v>       0.85826565       0.71651797       0.50041110 </v>
    <v>       0.85455433       0.85766441       0.50042330 </v>
    <v>       0.04687099       0.09713746       0.50010318 </v>
    <v>       0.04650618       0.23969755       0.49994858 </v>
    <v>       0.04793904       0.38373608       0.49998643 </v>
    <v>       0.04899193       0.52668561       0.50026471 </v>
    <v>       0.04887273       0.66957183       0.50060427 </v>
    <v>       0.04799210       0.81235021       0.50058201 </v>
    <v>       0.04733020       0.95477702       0.50030544 </v>
    <v>       0.19069797       0.09829370       0.49990551 </v>
    <v>       0.19044372       0.24056926       0.49969620 </v>
    <v>       0.18949661       0.38208429       0.49976866 </v>
    <v>       0.19311951       0.52692320       0.50010647 </v>
    <v>       0.19216164       0.66972438       0.50049535 </v>
    <v>       0.19137481       0.81269781       0.50057039 </v>
    <v>       0.19097164       0.95558281       0.50024643 </v>
    <v>       0.33391011       0.09930550       0.49976143 </v>
    <v>       0.33750598       0.24287544       0.49954980 </v>
    <v>       0.33920135       0.67329006       0.50033676 </v>
    <v>       0.33436849       0.81290378       0.50051457 </v>
    <v>       0.33373705       0.95595438       0.50014484 </v>
    <v>       0.47644605       0.09948147       0.49984246 </v>
    <v>       0.47405341       0.24408195       0.49963058 </v>
    <v>       0.47442401       0.80949886       0.50047719 </v>
    <v>       0.47646964       0.95596257       0.50017907 </v>
    <v>       0.61864225       0.09883920       0.49999430 </v>
    <v>       0.61861740       0.24277814       0.49980684 </v>
    <v>       0.61841380       0.95489163       0.50031516 </v>
    <v>       0.76135600       0.09821024       0.50019392 </v>
    <v>       0.76159861       0.24133955       0.49995139 </v>
    <v>       0.76128467       0.38445810       0.49992953 </v>
    <v>       0.76092258       0.52916810       0.50007941 </v>
    <v>       0.76289056       0.66514914       0.50020318 </v>
    <v>       0.75770666       0.80817268       0.50035255 </v>
    <v>       0.76017776       0.95409362       0.50041829 </v>
    <v>       0.90350727       0.09674531       0.50025811 </v>
    <v>       0.90431734       0.24074630       0.50004310 </v>
    <v>       0.90469590       0.38403754       0.50001402 </v>
    <v>       0.90539013       0.52681735       0.50021255 </v>
    <v>       0.90586353       0.66921537       0.50042229 </v>
    <v>       0.90402402       0.81157976       0.50046731 </v>
    <v>       0.90298318       0.95327048       0.50038792 </v>
    <v>       0.71535579       0.71402614       0.50005132 </v>
    <v>       0.33210531       0.52248316       0.49968799 </v>
    <v>       0.62708375       0.66573361       0.49946720 </v>
    <v>       0.42068438       0.56233500       0.49951193 </v>
    <v>       0.42747365       0.28782387       0.49952362 </v>
    <v>       0.42911138       0.71935683       0.50042620 </v>
    <v>       0.71700623       0.57444722       0.50005707 </v>
    <v>       0.33086693       0.38137152       0.49941534 </v>
    <v>       0.62019147       0.38445641       0.49983012 </v>
    <v>       0.61863146       0.81417180       0.50054885 </v>
    <v>       0.46191991       0.44072109       0.49944027 </v>
    <v>       0.55880764       0.45725635       0.49972325 </v>
    <v>       0.52451853       0.48831599       0.50000000 </v>
   </varray>
  </structure>
  <varray name="forces" >
   <v>       0.00105238       0.00044077       0.00080413 </v>
   <v>       0.00082409      -0.00086448       0.00016372 </v>
   <v>      -0.00012525      -0.00040967       0.00040992 </v>
   <v>       0.00150744      -0.00281433      -0.00009428 </v>
   <v>       0.00014676      -0.00043314       0.00138857 </v>
   <v>      -0.00183598      -0.00123253       0.00104699 </v>
   <v>      -0.00055332       0.00025349       0.00043865 </v>
   <v>      -0.00020888       0.00070675       0.00112572 </v>
   <v>       0.00140213      -0.00195252       0.00051491 </v>
   <v>       0.00310436      -0.00167698      -0.00122958 </v>
   <v>      -0.00026462       0.00019741       0.00136586 </v>
   <v>       0.00057607      -0.00044172       0.00082923 </v>
   <v>       0.00057096      -0.00090072       0.00003569 </v>
   <v>      -0.00049150       0.00074115       0.00038165 </v>
   <v>      -0.00001475       0.00114928      -0.00008326 </v>
   <v>       0.00016201      -0.00016836       0.00111896 </v>
   <v>       0.00132434      -0.00144183      -0.00033529 </v>
   <v>       0.00051876       0.00100667       0.00104535 </v>
   <v>       0.00020740       0.00033820      -0.00068806 </v>
   <v>       0.00124520       0.00017690      -0.00106939 </v>
   <v>       0.00414491       0.00120421       0.00003304 </v>
   <v>       0.00134597      -0.00047915      -0.00004591 </v>
   <v>      -0.00010491       0.00021716       0.00047179 </v>
   <v>       0.00137901       0.00020682      -0.00207643 </v>
   <v>       0.00059184      -0.00027249      -0.00014958 </v>
   <v>       0.00030463      -0.00057024      -0.00060409 </v>
   <v>      -0.00006911      -0.00100486      -0.00087295 </v>
   <v>      -0.00074084       0.00082720      -0.00098090 </v>
   <v>      -0.00162557       0.00205456      -0.00228194 </v>
   <v>      -0.00000588      -0.00092647       0.00021639 </v>
   <v>      -0.00162622      -0.00423584       0.00021660 </v>
   <v>      -0.00108917      -0.00012928      -0.00074889 </v>
   <v>      -0.00054171      -0.00098605      -0.00031407 </v>
   <v>       0.00035893       0.00096961       0.00004726 </v>
   <v>       0.00018099      -0.00027472      -0.00066536 </v>
   <v>       0.00063394      -0.00106631       0.00082052 </v>
   <v>       0.00010351      -0.00051772       0.00197711 </v>
   <v>      -0.00222300      -0.00038777      -0.00018256 </v>
   <v>      -0.00209896      -0.00234954      -0.00018191 </v>
   <v>       0.00050720      -0.00083308      -0.00004999 </v>
   <v>      -0.00063749       0.00023674      -0.00097723 </v>
   <v>       0.00078675       0.00175267       0.00008019 </v>
   <v>       0.00030462       0.00119896       0.00112584 </v>
   <v>      -0.00002428       0.00161757       0.00130886 </v>
   <v>      -0.00025229       0.00089228       0.00110236 </v>
   <v>       0.00003864       0.00006841       0.00056316 </v>
   <v>      -0.00070661      -0.00069454       0.00075161 </v>
   <v>      -0.00030750       0.00064137       0.00129496 </v>
   <v>      -0.00318271       0.00550694       0.00070623 </v>
   <v>       0.00100082       0.00094564       0.00099424 </v>
   <v>       0.00037626       0.00026087       0.00074577 </v>
   <v>      -0.00089299       0.00072982      -0.00022372 </v>
   <v>      -0.00156812      -0.00052619      -0.00026956 </v>
   <v>       0.00014804      -0.00114610       0.00053374 </v>
   <v>      -0.00012723      -0.00008722       0.00073692 </v>
   <v>      -0.00056379       0.00099981      -0.00068639 </v>
   <v>      -0.00049918       0.00016010      -0.00101974 </v>
   <v>      -0.00444806      -0.00077488      -0.00205878 </v>
   <v>      -0.00134153      -0.00100745      -0.00045123 </v>
   <v>      -0.00047918      -0.00042202       0.00022345 </v>
   <v>       0.00007337       0.00034684      -0.00069639 </v>
   <v>      -0.00028558      -0.00004706      -0.00215584 </v>
   <v>      -0.00091330       0.00024915      -0.00126177 </v>
   <v>      -0.00046197       0.00050067       0.00061135 </v>
   <v>       0.00103726       0.00155050       0.00001912 </v>
   <v>       0.00011019      -0.00048842      -0.00116511 </v>
   <v>       0.00023268      -0.00035957      -0.00088132 </v>
   <v>       0.00046023       0.00156605       0.00009084 </v>
   <v>       0.00071278       0.00190730       0.00069773 </v>
   <v>       0.00220296      -0.00123341      -0.00123050 </v>
   <v>      -0.00047756       0.00218974      -0.00070406 </v>
   <v>      -0.00068303       0.00300240      -0.00052928 </v>
   <v>       0.00048527      -0.00084424      -0.00062212 </v>
   <v>       0.00026323      -0.00017236      -0.00021852 </v>
   <v>       0.00109988       0.00031662      -0.00137975 </v>
   <v>       0.00018929       0.00123678       0.00185095 </v>
   <v>       0.00104074      -0.00204276      -0.00030605 </v>
   <v>       0.00359941       0.00043353       0.00112166 </v>
   <v>      -0.00121515       0.00151915      -0.00056713 </v>
   <v>      -0.00097428      -0.00054831       0.00064320 </v>
   <v>      -0.00200270      -0.00482329      -0.00190241 </v>
   <v>       0.00075012       0.00054985       0.00201973 </v>
   <v>       0.00398740       0.00302816      -0.00433314 </v>
   <v>      -0.00016135       0.00042382       0.00617671 </v>
   <v>       0.00044122      -0.00015176      -0.00232787 </v>
   <v>       0.00054681       0.00099511      -0.00094199 </v>
   <v>      -0.00253228       0.00015955      -0.00189778 </v>
   <v>       0.00001816       0.00141056      -0.00054693 </v>
   <v>       0.00048714       0.00056742      -0.00233319 </v>
   <v>       0.00088911      -0.00002723      -0.00064315 </v>
   <v>      -0.00286602      -0.00012030       0.00588067 </v>
   <v>      -0.00139489      -0.00377761       0.00441205 </v>
   <v>      -0.00085649      -0.00179003      -0.00315805 </v>
  </varray>
  <varray name="stress" >
   <v>      -8.78071346       0.30262384       0.00199799 </v>
   <v>       0.30262373      -8.89464999      -0.00118620 </v>
   <v>       0.00199799      -0.00118623      -0.28158150 </v>
  </varray>
  <energy>
   <i name="e_fr_energy">   -830.46639728 </i>
   <i name="e_wo_entrp">   -830.46639339 </i>
   <i name="e_0_energy">   -830.46639534 </i>
  </energy>
  <time name="totalsc"> 1901.60 1914.53</time>
 </calculation>
 <calculation>
  <scstep>
   <time name="dav">   78.03   78.61</time>
   <time name="total">   91.61   92.26</time>
   <energy>
    <i name="alphaZ">    185.49599500 </i>
    <i name="ewald">  38181.51599395 </i>
    <i name="hartreedc"> -51395.16959946 </i>
    <i name="XCdc">   1357.03856122 </i>
    <i name="pawpsdc">  38458.06283701 </i>
    <i name="pawaedc"> -38534.61213024 </i>
    <i name="eentropy">     -0.00000386 </i>
    <i name="bandstr">  -4505.23891219 </i>
    <i name="atom">  15429.98794498 </i>
    <i name="e_fr_energy">   -822.91931358 </i>
    <i name="e_wo_entrp">   -822.91930973 </i>
    <i name="e_0_energy">   -822.91931166 </i>
   </energy>
  </scstep>
  <scstep>
   <time name="dav">   80.20   80.70</time>
   <time name="total">   94.18   94.77</time>
   <energy>
    <i name="e_fr_energy">   -822.91931777 </i>
    <i name="e_wo_entrp">   -822.91931393 </i>
    <i name="e_0_energy">   -822.91931585 </i>
   </energy>
  </scstep>
  <scstep>
   <time name="dav">   60.69   61.10</time>
   <time name="total">   68.20   68.67</time>
   <energy>
    <i name="alphaZ">    185.49599500 </i>
    <i name="ewald">  38181.51599395 </i>
    <i name="hartreedc"> -51395.16478005 </i>
    <i name="XCdc">   1357.03842325 </i>
    <i name="pawpsdc">  38458.02304473 </i>
    <i name="pawaedc"> -38534.57227092 </i>
    <i name="eentropy">     -0.00000384 </i>
    <i name="bandstr">  -4505.24366453 </i>
    <i name="atom">  15429.98794498 </i>
    <i name="e_fr_energy">   -822.91931743 </i>
    <i name="e_wo_entrp">   -822.91931359 </i>
    <i name="e_0_energy">   -822.91931551 </i>
   </energy>
  </scstep>
  <structure>
   <crystal>
    <varray name="basis" >
     <v>      17.27103806       0.00000000       0.00000000 </v>
     <v>      -8.63551903      14.95715771       0.00000000 </v>
     <v>       0.00000000       0.00000000      15.00000000 </v>
    </varray>
    <i name="volume">   3874.88459904 </i>
    <varray name="rec_basis" >
     <v>       0.05790040       0.03342881      -0.00000000 </v>
     <v>       0.00000000       0.06685762       0.00000000 </v>
     <v>       0.00000000      -0.00000000       0.06666667 </v>
    </varray>
   </crystal>
   <varray name="positions" >
    <v>       0.99877447       0.00155911       0.50028294 </v>
    <v>       0.99892900       0.14455347       0.50011211 </v>
    <v>       0.99977726       0.28823078       0.49998287 </v>
    <v>       0.00039625       0.43135414       0.50008413 </v>
    <v>       0.00098101       0.57423620       0.50039583 </v>
    <v>       0.00133020       0.71715548       0.50060874 </v>
    <v>       0.99975970       0.85963505       0.50049078 </v>
    <v>       0.14301887       0.00312578       0.50017300 </v>
    <v>       0.14248241       0.14531882       0.49990641 </v>
    <v>       0.14196062       0.28718284       0.49977631 </v>
    <v>       0.14371561       0.43141023       0.49995253 </v>
    <v>       0.14476566       0.57417994       0.50031859 </v>
    <v>       0.14428259       0.71711233       0.50063794 </v>
    <v>       0.14342907       0.86021394       0.50050509 </v>
    <v>       0.28615090       0.00351373       0.50002856 </v>
    <v>       0.28641943       0.14686523       0.49971721 </v>
    <v>       0.28699410       0.29197024       0.49951062 </v>
    <v>       0.28484768       0.42631827       0.49959509 </v>
    <v>       0.28996538       0.57435217       0.50004676 </v>
    <v>       0.28758204       0.71779458       0.50048446 </v>
    <v>       0.28646514       0.86069040       0.50042956 </v>
    <v>       0.42914951       0.00402420       0.50004101 </v>
    <v>       0.42914702       0.14787056       0.49971686 </v>
    <v>       0.42938524       0.86031525       0.50041264 </v>
    <v>       0.57131590       0.00344663       0.50014708 </v>
    <v>       0.57133459       0.14702232       0.49984527 </v>
    <v>       0.57358263       0.29396324       0.49975537 </v>
    <v>       0.57334712       0.85901288       0.50049511 </v>
    <v>       0.71347628       0.00251044       0.50034623 </v>
    <v>       0.71403579       0.14618365       0.50004602 </v>
    <v>       0.71383056       0.28939143       0.49988200 </v>
    <v>       0.71035002       0.42956617       0.49994049 </v>
    <v>       0.70853819       0.85795884       0.50044764 </v>
    <v>       0.85564103       0.00147875       0.50036133 </v>
    <v>       0.85645927       0.14529722       0.50016590 </v>
    <v>       0.85677163       0.28857895       0.49998904 </v>
    <v>       0.85708318       0.43160855       0.50003931 </v>
    <v>       0.85751846       0.57415492       0.50024237 </v>
    <v>       0.85826182       0.71651493       0.50041573 </v>
    <v>       0.85455440       0.85766333       0.50042741 </v>
    <v>       0.04687047       0.09713774       0.50010432 </v>
    <v>       0.04650821       0.23969979       0.49995103 </v>
    <v>       0.04794015       0.38373759       0.49999044 </v>
    <v>       0.04899294       0.52668765       0.50026921 </v>
    <v>       0.04887304       0.66957294       0.50060845 </v>
    <v>       0.04799221       0.81235026       0.50058516 </v>
    <v>       0.04732899       0.95477609       0.50030867 </v>
    <v>       0.19069808       0.09829451       0.49990940 </v>
    <v>       0.19044377       0.24057636       0.49969980 </v>
    <v>       0.18949833       0.38208548       0.49977271 </v>
    <v>       0.19312008       0.52692350       0.50011049 </v>
    <v>       0.19216111       0.66972527       0.50049804 </v>
    <v>       0.19137274       0.81269707       0.50057256 </v>
    <v>       0.19097109       0.95558129       0.50024924 </v>
    <v>       0.33390994       0.09930536       0.49976500 </v>
    <v>       0.33750606       0.24287675       0.49955216 </v>
    <v>       0.33920089       0.67329021       0.50033942 </v>
    <v>       0.33436304       0.81290272       0.50051522 </v>
    <v>       0.33373492       0.95595303       0.50014701 </v>
    <v>       0.47644525       0.09948087       0.49984594 </v>
    <v>       0.47405374       0.24408235       0.49963356 </v>
    <v>       0.47442368       0.80949874       0.50047837 </v>
    <v>       0.47646878       0.95596283       0.50018074 </v>
    <v>       0.61864207       0.09883979       0.49999824 </v>
    <v>       0.61861957       0.24278009       0.49981069 </v>
    <v>       0.61841362       0.95489094       0.50031723 </v>
    <v>       0.76135604       0.09820974       0.50019569 </v>
    <v>       0.76160014       0.24134154       0.49995472 </v>
    <v>       0.76128669       0.38446053       0.49993468 </v>
    <v>       0.76092425       0.52916650       0.50008420 </v>
    <v>       0.76289150       0.66515197       0.50021060 </v>
    <v>       0.75770789       0.80817655       0.50035856 </v>
    <v>       0.76017778       0.95409249       0.50042149 </v>
    <v>       0.90350748       0.09674506       0.50026057 </v>
    <v>       0.90431877       0.24074668       0.50004396 </v>
    <v>       0.90469690       0.38403910       0.50001953 </v>
    <v>       0.90538998       0.52681468       0.50021572 </v>
    <v>       0.90586786       0.66921591       0.50042763 </v>
    <v>       0.90402367       0.81158170       0.50047036 </v>
    <v>       0.90298178       0.95326976       0.50039186 </v>
    <v>       0.71535055       0.71401996       0.50005964 </v>
    <v>       0.33210646       0.52248383       0.49969541 </v>
    <v>       0.62709038       0.66573769       0.49947928 </v>
    <v>       0.42068442       0.56233550       0.49952714 </v>
    <v>       0.42747411       0.28782367       0.49952497 </v>
    <v>       0.42911263       0.71935805       0.50042924 </v>
    <v>       0.71700357       0.57444744       0.50006415 </v>
    <v>       0.33086791       0.38137338       0.49941802 </v>
    <v>       0.62019235       0.38445708       0.49983214 </v>
    <v>       0.61863247       0.81417172       0.50055335 </v>
    <v>       0.46191705       0.44072322       0.49943088 </v>
    <v>       0.55880237       0.45724999       0.49971530 </v>
    <v>       0.52451762       0.48831502       0.50000000 </v>
   </varray>
  </structure>
  <varray name="forces" >
   <v>      -0.00119717      -0.00063877       0.00075284 </v>
   <v>      -0.00034838       0.00133506       0.00006742 </v>
   <v>       0.00115745       0.00085707       0.00041571 </v>
   <v>      -0.00132538       0.00349352       0.00141080 </v>
   <v>      -0.00017192       0.00029762       0.00144944 </v>
   <v>       0.00130791       0.00090932       0.00129035 </v>
   <v>      -0.00044759      -0.00057036       0.00055027 </v>
   <v>      -0.00017078      -0.00085443       0.00126846 </v>
   <v>      -0.00130251       0.00256071       0.00059565 </v>
   <v>      -0.00275097       0.00289982       0.00069097 </v>
   <v>       0.00085453       0.00034412       0.00158037 </v>
   <v>      -0.00029597       0.00072999       0.00098923 </v>
   <v>      -0.00106215       0.00063231       0.00019825 </v>
   <v>      -0.00022377      -0.00101441       0.00049119 </v>
   <v>      -0.00056690      -0.00094040       0.00014110 </v>
   <v>      -0.00012963       0.00061762       0.00125235 </v>
   <v>      -0.00084294       0.00267330      -0.00020839 </v>
   <v>       0.00024290       0.00059066       0.00119837 </v>
   <v>       0.00023827       0.00031140      -0.00023018 </v>
   <v>      -0.00171695      -0.00035048      -0.00108775 </v>
   <v>      -0.00540382      -0.00150793      -0.00156254 </v>
   <v>      -0.00143833      -0.00031545      -0.00004680 </v>
   <v>      -0.00021534      -0.00015035       0.00063407 </v>
   <v>      -0.00223846      -0.00071669      -0.00214495 </v>
   <v>       0.00030043       0.00015406      -0.00157325 </v>
   <v>      -0.00065204       0.00030645      -0.00019330 </v>
   <v>       0.00014026       0.00103722      -0.00083302 </v>
   <v>       0.00074241      -0.00067666      -0.00099469 </v>
   <v>       0.00318874      -0.00260139      -0.00292302 </v>
   <v>       0.00019139       0.00089439       0.00028921 </v>
   <v>       0.00024933       0.00840042      -0.00251865 </v>
   <v>       0.00105833       0.00017673      -0.00066378 </v>
   <v>       0.00029734       0.00059686      -0.00022348 </v>
   <v>      -0.00035286      -0.00089880       0.00018996 </v>
   <v>       0.00060767      -0.00005757      -0.00072615 </v>
   <v>       0.00025908       0.00129609       0.00083171 </v>
   <v>       0.00037396      -0.00018807       0.00200759 </v>
   <v>       0.00208532      -0.00092845       0.00004787 </v>
   <v>       0.00214782       0.00033808      -0.00125860 </v>
   <v>      -0.00132670       0.00082401       0.00016913 </v>
   <v>       0.00138750      -0.00052788      -0.00050441 </v>
   <v>       0.00069039      -0.00106643       0.00007440 </v>
   <v>       0.00048012      -0.00107598       0.00115047 </v>
   <v>       0.00073855      -0.00136122       0.00139350 </v>
   <v>      -0.00064480      -0.00083892       0.00127685 </v>
   <v>      -0.00135394      -0.00019799       0.00075753 </v>
   <v>       0.00030055       0.00066347       0.00095203 </v>
   <v>       0.00030291      -0.00008091       0.00146100 </v>
   <v>       0.00577162      -0.00569074      -0.00128061 </v>
   <v>       0.00037364       0.00001991       0.00100053 </v>
   <v>       0.00022170      -0.00012930       0.00082486 </v>
   <v>       0.00116784      -0.00073166      -0.00004471 </v>
   <v>       0.00139387       0.00061746      -0.00005031 </v>
   <v>      -0.00046542       0.00137402       0.00064180 </v>
   <v>      -0.00013420       0.00052771       0.00086822 </v>
   <v>       0.00041241      -0.00057226      -0.00054620 </v>
   <v>       0.00106082       0.00073209      -0.00094042 </v>
   <v>       0.00449134       0.00104500      -0.00107794 </v>
   <v>       0.00133793       0.00108901      -0.00023974 </v>
   <v>       0.00039040      -0.00021954       0.00032347 </v>
   <v>      -0.00001374      -0.00025658      -0.00064738 </v>
   <v>       0.00007944       0.00066632      -0.00190169 </v>
   <v>       0.00104765      -0.00042921      -0.00105040 </v>
   <v>       0.00012573      -0.00065594       0.00059561 </v>
   <v>      -0.00106717      -0.00197669       0.00010546 </v>
   <v>      -0.00066488       0.00054160      -0.00111438 </v>
   <v>      -0.00049946       0.00043382      -0.00085193 </v>
   <v>      -0.00008687      -0.00201370       0.00038699 </v>
   <v>      -0.00089126      -0.00238589       0.00100126 </v>
   <v>      -0.00313092       0.00095352      -0.00100469 </v>
   <v>      -0.00105842      -0.00211984      -0.00057382 </v>
   <v>      -0.00018809      -0.00270848      -0.00022210 </v>
   <v>      -0.00117465       0.00096423      -0.00059975 </v>
   <v>       0.00017751       0.00043994      -0.00007626 </v>
   <v>       0.00019313      -0.00092560      -0.00088455 </v>
   <v>       0.00081681      -0.00175487       0.00190200 </v>
   <v>      -0.00098228      -0.00010730       0.00030987 </v>
   <v>      -0.00536978      -0.00083300       0.00015153 </v>
   <v>       0.00408322      -0.00106027      -0.00178765 </v>
   <v>       0.00219678       0.00105848      -0.00016295 </v>
   <v>       0.00226354       0.00467065      -0.00153651 </v>
   <v>      -0.00020959       0.00061346       0.00220238 </v>
   <v>      -0.00158098      -0.00125701      -0.00376345 </v>
   <v>       0.00369336       0.00347284       0.00324745 </v>
   <v>      -0.00019356       0.00011156      -0.00233614 </v>
   <v>      -0.00066329      -0.00049597      -0.00104184 </v>
   <v>       0.00063820      -0.00085848      -0.00168798 </v>
   <v>       0.00083474      -0.00065960      -0.00043208 </v>
   <v>      -0.00072238      -0.00111182      -0.00226178 </v>
   <v>      -0.00143968      -0.00002610      -0.00057498 </v>
   <v>      -0.00256974       0.00030245       0.00607635 </v>
   <v>      -0.00219823      -0.00331210       0.00457393 </v>
   <v>      -0.00063094      -0.00272282      -0.00340457 </v>
  </varray>
  <varray name="stress" >
   <v>      -8.77563264       0.30310155       0.00097926 </v>
   <v>       0.30310145      -8.89217942      -0.00155942 </v>
   <v>       0.00097927      -0.00155946      -0.27852602 </v>
  </varray>
  <energy>
   <i name="e_fr_energy">   -830.46639413 </i>
   <i name="e_wo_entrp">   -830.46639029 </i>
   <i name="e_0_energy">   -830.46639221 </i>
  </energy>
  <time name="totalsc">  513.52  516.90</time>
 </calculation>
 <calculation>
  <scstep>
   <time name="dav">   77.35   77.86</time>
   <time name="total">   91.43   92.03</time>
   <energy>
    <i name="alphaZ">    185.49599500 </i>
    <i name="ewald">  38181.45852981 </i>
    <i name="hartreedc"> -51395.11350891 </i>
    <i name="XCdc">   1357.03795670 </i>
    <i name="pawpsdc">  38457.88078286 </i>
    <i name="pawaedc"> -38534.43013983 </i>
    <i name="eentropy">     -0.00000382 </i>
    <i name="bandstr">  -4505.23685984 </i>
    <i name="atom">  15429.98794498 </i>
    <i name="e_fr_energy">   -822.91930305 </i>
    <i name="e_wo_entrp">   -822.91929923 </i>
    <i name="e_0_energy">   -822.91930114 </i>
   </energy>
  </scstep>
  <scstep>
   <time name="dav">   80.54   81.05</time>
   <time name="total">   94.25   94.84</time>
   <energy>
    <i name="e_fr_energy">   -822.91931151 </i>
    <i name="e_wo_entrp">   -822.91930765 </i>
    <i name="e_0_energy">   -822.91930958 </i>
   </energy>
  </scstep>
  <scstep>
   <time name="dav">   72.30   72.76</time>
   <time name="total">   79.90   80.40</time>
   <energy>
    <i name="alphaZ">    185.49599500 </i>
    <i name="ewald">  38181.45852981 </i>
    <i name="hartreedc"> -51395.11116437 </i>
    <i name="XCdc">   1357.03790678 </i>
    <i name="pawpsdc">  38457.77226005 </i>
    <i name="pawaedc"> -38534.32169062 </i>
    <i name="eentropy">     -0.00000386 </i>
    <i name="bandstr">  -4505.23908853 </i>
    <i name="atom">  15429.98794498 </i>
    <i name="e_fr_energy">   -822.91931075 </i>
    <i name="e_wo_entrp">   -822.91930688 </i>
    <i name="e_0_energy">   -822.91930881 </i>
   </energy>
  </scstep>
  <structure>
   <crystal>
    <varray name="basis" >
     <v>      17.27103806       0.00000000       0.00000000 </v>
     <v>      -8.63551903      14.95715771       0.00000000 </v>
     <v>       0.00000000       0.00000000      15.00000000 </v>
    </varray>
    <i name="volume">   3874.88459904 </i>
    <varray name="rec_basis" >
     <v>       0.05790040       0.03342881      -0.00000000 </v>
     <v>       0.00000000       0.06685762       0.00000000 </v>
     <v>       0.00000000      -0.00000000       0.06666667 </v>
    </varray>
   </crystal>
   <varray name="positions" >
    <v>       0.99877195       0.00155787       0.50028803 </v>
    <v>       0.99892973       0.14455595       0.50011591 </v>
    <v>       0.99977997       0.28823235       0.49998729 </v>
    <v>       0.00039737       0.43136068       0.50009091 </v>
    <v>       0.00098102       0.57423671       0.50040301 </v>
    <v>       0.00133324       0.71715713       0.50061538 </v>
    <v>       0.99975847       0.85963392       0.50049569 </v>
    <v>       0.14301783       0.00312412       0.50017844 </v>
    <v>       0.14248277       0.14532365       0.49991112 </v>
    <v>       0.14195889       0.28718829       0.49978130 </v>
    <v>       0.14371732       0.43141084       0.49995955 </v>
    <v>       0.14476584       0.57418127       0.50032475 </v>
[...]
       <r>   -18.4844     9.0992    30.7571 </r>
       <r>   -18.3627     4.7182    31.3311 </r>
       <r>   -18.2411     6.0586    32.0681 </r>
       <r>   -18.1194     5.8346    32.7779 </r>
       <r>   -17.9978     7.6907    33.7135 </r>
       <r>   -17.8761     3.2819    34.1128 </r>
       <r>   -17.7545    13.2986    35.7306 </r>
       <r>   -17.6328    13.1041    37.3248 </r>
       <r>   -17.5111     3.1356    37.7063 </r>
       <r>   -17.3895     5.6727    38.3964 </r>
       <r>   -17.2678    11.1551    39.7535 </r>
       <r>   -17.1462     8.3144    40.7650 </r>
       <r>   -17.0245     5.1938    41.3968 </r>
       <r>   -16.9029     6.2219    42.1537 </r>
       <r>   -16.7812     6.7829    42.9789 </r>
       <r>   -16.6596    16.0350    44.9297 </r>
       <r>   -16.5379     6.0632    45.6673 </r>
       <r>   -16.4163     4.2804    46.1880 </r>
       <r>   -16.2946     0.5095    46.2500 </r>
       <r>   -16.1729     0.0039    46.2505 </r>
       <r>   -16.0513     1.5736    46.4419 </r>
       <r>   -15.9296     6.7316    47.2608 </r>
       <r>   -15.8080     8.7109    48.3206 </r>
       <r>   -15.6863     4.9283    48.9201 </r>
       <r>   -15.5647     2.5768    49.2336 </r>
       <r>   -15.4430     9.5338    50.3934 </r>
       <r>   -15.3214    13.5268    52.0390 </r>
       <r>   -15.1997     7.3715    52.9358 </r>
       <r>   -15.0780     7.1274    53.8029 </r>
       <r>   -14.9564     8.2584    54.8076 </r>
       <r>   -14.8347     9.4093    55.9522 </r>
       <r>   -14.7131     7.8460    56.9068 </r>
       <r>   -14.5914    13.0641    58.4961 </r>
       <r>   -14.4698     9.7981    59.6880 </r>
       <r>   -14.3481     3.5212    60.1164 </r>
       <r>   -14.2265     5.2465    60.7547 </r>
       <r>   -14.1048     3.5081    61.1815 </r>
       <r>   -13.9832     7.3254    62.0726 </r>
       <r>   -13.8615     8.7326    63.1350 </r>
       <r>   -13.7398    11.9255    64.5858 </r>
       <r>   -13.6182     7.1832    65.4596 </r>
       <r>   -13.4965     6.5018    66.2506 </r>
       <r>   -13.3749     2.0205    66.4964 </r>
       <r>   -13.2532     3.3798    66.9076 </r>
       <r>   -13.1316     5.9140    67.6271 </r>
       <r>   -13.0099     6.7724    68.4510 </r>
       <r>   -12.8883     9.2799    69.5799 </r>
       <r>   -12.7666    17.5298    71.7125 </r>
       <r>   -12.6449     5.8149    72.4199 </r>
       <r>   -12.5233     9.8684    73.6205 </r>
       <r>   -12.4016     8.2506    74.6242 </r>
       <r>   -12.2800     6.4802    75.4125 </r>
       <r>   -12.1583     2.3653    75.7003 </r>
       <r>   -12.0367     8.5517    76.7406 </r>
       <r>   -11.9150     7.6834    77.6754 </r>
       <r>   -11.7934    11.3347    79.0543 </r>
       <r>   -11.6717    13.5538    80.7032 </r>
       <r>   -11.5501    12.5349    82.2281 </r>
       <r>   -11.4284    10.0623    83.4522 </r>
       <r>   -11.3067    12.8046    85.0100 </r>
       <r>   -11.1851    10.0091    86.2276 </r>
       <r>   -11.0634     7.4157    87.1298 </r>
       <r>   -10.9418     4.8296    87.7174 </r>
       <r>   -10.8201     3.7092    88.1686 </r>
       <r>   -10.6985     9.5116    89.3257 </r>
       <r>   -10.5768    15.2971    91.1867 </r>
       <r>   -10.4552    12.6278    92.7229 </r>
       <r>   -10.3335    13.3396    94.3458 </r>
       <r>   -10.2118    14.8310    96.1500 </r>
       <r>   -10.0902    16.4874    98.1558 </r>
       <r>    -9.9685    17.3301   100.2641 </r>
       <r>    -9.8469    18.6259   102.5300 </r>
       <r>    -9.7252    19.8728   104.9477 </r>
       <r>    -9.6036    17.8305   107.1168 </r>
       <r>    -9.4819    23.0008   109.9150 </r>
       <r>    -9.3603    17.8183   112.0827 </r>
       <r>    -9.2386    22.3844   114.8059 </r>
       <r>    -9.1170    25.8421   117.9497 </r>
       <r>    -8.9953    24.8160   120.9687 </r>
       <r>    -8.8736    17.5656   123.1056 </r>
       <r>    -8.7520    15.0995   124.9425 </r>
       <r>    -8.6303    17.1117   127.0243 </r>
       <r>    -8.5087    18.7217   129.3019 </r>
       <r>    -8.3870    28.3421   132.7498 </r>
       <r>    -8.2654    18.4647   134.9961 </r>
       <r>    -8.1437    13.9651   136.6951 </r>
       <r>    -8.0221     8.4879   137.7277 </r>
       <r>    -7.9004    13.4530   139.3643 </r>
       <r>    -7.7787     7.6430   140.2941 </r>
       <r>    -7.6571     9.5429   141.4550 </r>
       <r>    -7.5354    22.0740   144.1405 </r>
       <r>    -7.4138    22.5386   146.8824 </r>
       <r>    -7.2921    16.7261   148.9172 </r>
       <r>    -7.1705     7.5190   149.8319 </r>
       <r>    -7.0488    12.2046   151.3167 </r>
       <r>    -6.9272    14.9288   153.1328 </r>
       <r>    -6.8055    12.2524   154.6234 </r>
       <r>    -6.6839    13.0035   156.2053 </r>
       <r>    -6.5622     8.8002   157.2759 </r>
       <r>    -6.4405    24.4578   160.2514 </r>
       <r>    -6.3189    10.5482   161.5346 </r>
       <r>    -6.1972     8.5900   162.5796 </r>
       <r>    -6.0756    14.4585   164.3386 </r>
       <r>    -5.9539     5.2039   164.9716 </r>
       <r>    -5.8323     9.9352   166.1803 </r>
       <r>    -5.7106     3.8504   166.6487 </r>
       <r>    -5.5890     5.6871   167.3406 </r>
       <r>    -5.4673    12.9309   168.9137 </r>
       <r>    -5.3456    10.1857   170.1528 </r>
       <r>    -5.2240    22.6492   172.9082 </r>
       <r>    -5.1023    15.2577   174.7644 </r>
       <r>    -4.9807     9.4816   175.9179 </r>
       <r>    -4.8590     2.6958   176.2459 </r>
       <r>    -4.7374     0.7221   176.3337 </r>
       <r>    -4.6157     5.6836   177.0251 </r>
       <r>    -4.4941    14.7115   178.8149 </r>
       <r>    -4.3724    17.8169   180.9824 </r>
       <r>    -4.2508    24.8111   184.0008 </r>
       <r>    -4.1291     7.0845   184.8626 </r>
       <r>    -4.0074     7.9849   185.8340 </r>
       <r>    -3.8858     8.8885   186.9154 </r>
       <r>    -3.7641     2.8970   187.2678 </r>
       <r>    -3.6425     5.9025   187.9859 </r>
       <r>    -3.5208     2.1568   188.2483 </r>
       <r>    -3.3992     1.2149   188.3961 </r>
       <r>    -3.2775     0.8540   188.5000 </r>
       <r>    -3.1559     0.0403   188.5049 </r>
       <r>    -3.0342     4.4611   189.0476 </r>
       <r>    -2.9125     7.2465   189.9292 </r>
       <r>    -2.7909     0.5825   190.0000 </r>
       <r>    -2.6692     1.3278   190.1616 </r>
       <r>    -2.5476     2.7759   190.4993 </r>
       <r>    -2.4259     0.0060   190.5000 </r>
       <r>    -2.3043     0.2728   190.5332 </r>
       <r>    -2.1826     3.0642   190.9060 </r>
       <r>    -2.0610     1.3583   191.0712 </r>
       <r>    -1.9393     7.0060   191.9235 </r>
       <r>    -1.8177     0.6786   192.0061 </r>
       <r>    -1.6960     3.3794   192.4172 </r>
       <r>    -1.5743     5.1222   193.0403 </r>
       <r>    -1.4527     3.7513   193.4967 </r>
       <r>    -1.3310     0.3007   193.5333 </r>
       <r>    -1.2094     8.8036   194.6043 </r>
       <r>    -1.0877    16.1936   196.5743 </r>
       <r>    -0.9661     7.7917   197.5222 </r>
       <r>    -0.8444     7.7860   198.4694 </r>
       <r>    -0.7228     9.8869   199.6722 </r>
       <r>    -0.6011     4.2234   200.1860 </r>
       <r>    -0.4794     7.6775   201.1200 </r>
       <r>    -0.3578     7.7586   202.0639 </r>
       <r>    -0.2361    11.1842   203.4245 </r>
       <r>    -0.1145    12.2338   204.9128 </r>
       <r>     0.0072     6.6807   205.7255 </r>
       <r>     0.1288     2.3302   206.0090 </r>
       <r>     0.2505     3.9566   206.4903 </r>
       <r>     0.3721     5.5374   207.1640 </r>
       <r>     0.4938     7.4103   208.0655 </r>
       <r>     0.6154     5.9020   208.7835 </r>
       <r>     0.7371     4.3042   209.3071 </r>
       <r>     0.8588     8.4566   210.3359 </r>
       <r>     0.9804     9.1683   211.4513 </r>
       <r>     1.1021     7.6551   212.3826 </r>
       <r>     1.2237    11.3186   213.7595 </r>
       <r>     1.3454    17.8151   215.9268 </r>
       <r>     1.4670    12.9837   217.5064 </r>
       <r>     1.5887     6.4095   218.2861 </r>
       <r>     1.7103     7.1273   219.1532 </r>
       <r>     1.8320     7.4205   220.0559 </r>
       <r>     1.9537    28.1142   223.4762 </r>
       <r>     2.0753    14.4414   225.2330 </r>
       <r>     2.1970     8.3424   226.2479 </r>
       <r>     2.3186    17.5798   228.3866 </r>
       <r>     2.4403    22.8617   231.1678 </r>
       <r>     2.5619    14.3604   232.9148 </r>
       <r>     2.6836     6.4459   233.6990 </r>
       <r>     2.8052    32.3173   237.6306 </r>
       <r>     2.9269    48.8816   243.5773 </r>
       <r>     3.0485    14.1991   245.3047 </r>
       <r>     3.1702     9.2589   246.4310 </r>
       <r>     3.2919    14.2309   248.1623 </r>
       <r>     3.4135    29.5150   251.7530 </r>
       <r>     3.5352    15.8708   253.6837 </r>
       <r>     3.6568     7.6846   254.6186 </r>
       <r>     3.7785    29.7246   258.2347 </r>
       <r>     3.9001    28.1796   261.6629 </r>
       <r>     4.0218    21.3007   264.2543 </r>
       <r>     4.1434     6.0991   264.9963 </r>
       <r>     4.2651     0.0308   265.0000 </r>
       <r>     4.3868     0.0000   265.0000 </r>
       <r>     4.5084     0.0000   265.0000 </r>
       <r>     4.6301     0.0000   265.0000 </r>
       <r>     4.7517     0.0000   265.0000 </r>
       <r>     4.8734     0.0000   265.0000 </r>
       <r>     4.9950     0.0000   265.0000 </r>
       <r>     5.1167     0.0000   265.0000 </r>
       <r>     5.2383     0.0000   265.0000 </r>
       <r>     5.3600     0.0000   265.0000 </r>
       <r>     5.4816     0.0000   265.0000 </r>
       <r>     5.6033     0.0000   265.0000 </r>
       <r>     5.7250     0.0000   265.0000 </r>
      </set>
     </set>
    </array>
   </total>
  </dos>
 </calculation>
 <structure name="finalpos" >
  <crystal>
   <varray name="basis" >
    <v>      17.27103806       0.00000000       0.00000000 </v>
    <v>      -8.63551903      14.95715771       0.00000000 </v>
    <v>       0.00000000       0.00000000      15.00000000 </v>
   </varray>
   <i name="volume">   3874.88459904 </i>
   <varray name="rec_basis" >
    <v>       0.05790040       0.03342881      -0.00000000 </v>
    <v>       0.00000000       0.06685762       0.00000000 </v>
    <v>       0.00000000      -0.00000000       0.06666667 </v>
   </varray>
  </crystal>
  <varray name="positions" >
   <v>       0.99879150       0.00158783       0.50054592 </v>
   <v>       0.99894919       0.14457852       0.50035775 </v>
   <v>       0.99979207       0.28823908       0.50032755 </v>
   <v>       0.00039559       0.43136154       0.50055432 </v>
   <v>       0.00098715       0.57424373       0.50079423 </v>
   <v>       0.00135347       0.71716783       0.50078809 </v>
   <v>       0.99977807       0.85964679       0.50074502 </v>
   <v>       0.14302044       0.00312474       0.50050255 </v>
   <v>       0.14249916       0.14532918       0.50013284 </v>
   <v>       0.14198436       0.28719455       0.50009853 </v>
   <v>       0.14371958       0.43139433       0.50032919 </v>
   <v>       0.14476807       0.57416213       0.50069832 </v>
   <v>       0.14430213       0.71711001       0.50086071 </v>
   <v>       0.14344670       0.86021816       0.50072957 </v>
   <v>       0.28615313       0.00350556       0.50030342 </v>
   <v>       0.28642048       0.14686087       0.50002536 </v>
   <v>       0.28702461       0.29198079       0.49978757 </v>
   <v>       0.28487543       0.42633796       0.49998754 </v>
   <v>       0.28997180       0.57434477       0.50051789 </v>
   <v>       0.28758064       0.71777345       0.50074370 </v>
   <v>       0.28646469       0.86067797       0.50061236 </v>
   <v>       0.42914943       0.00400698       0.50024465 </v>
   <v>       0.42914745       0.14785020       0.50002000 </v>
   <v>       0.42938371       0.86030450       0.50054476 </v>
   <v>       0.57132128       0.00344835       0.50034841 </v>
   <v>       0.57134119       0.14701481       0.50020452 </v>
   <v>       0.57358914       0.29395169       0.50002589 </v>
   <v>       0.57335581       0.85902396       0.50070733 </v>
   <v>       0.71348912       0.00252746       0.50053659 </v>
   <v>       0.71405104       0.14620411       0.50040942 </v>
   <v>       0.71383208       0.28940127       0.50035353 </v>
   <v>       0.71033030       0.42957315       0.50031756 </v>
   <v>       0.70856441       0.85799858       0.50081768 </v>
   <v>       0.85565977       0.00149997       0.50062013 </v>
   <v>       0.85646973       0.14530528       0.50041809 </v>
   <v>       0.85679543       0.28859449       0.50047632 </v>
   <v>       0.85707438       0.43161693       0.50056218 </v>
   <v>       0.85752379       0.57417544       0.50063895 </v>
   <v>       0.85828759       0.71653111       0.50068036 </v>
   <v>       0.85458769       0.85769414       0.50068846 </v>
   <v>       0.04689266       0.09716446       0.50034207 </v>
   <v>       0.04652118       0.23971524       0.50025693 </v>
   <v>       0.04793833       0.38373910       0.50039846 </v>
   <v>       0.04899681       0.52668973       0.50069142 </v>
   <v>       0.04888875       0.66957652       0.50084799 </v>
   <v>       0.04801038       0.81235766       0.50079336 </v>
   <v>       0.04733727       0.95479070       0.50061845 </v>
   <v>       0.19070326       0.09829492       0.50021376 </v>
   <v>       0.19047403       0.24058262       0.49998381 </v>
   <v>       0.18952060       0.38209292       0.50012146 </v>
   <v>       0.19311622       0.52690077       0.50053148 </v>
   <v>       0.19216151       0.66970121       0.50079698 </v>
   <v>       0.19138557       0.81269349       0.50076139 </v>
   <v>       0.19097792       0.95558521       0.50053358 </v>
   <v>       0.33391452       0.09930184       0.50009648 </v>
   <v>       0.33751805       0.24287228       0.49978580 </v>
   <v>       0.33920800       0.67327945       0.50067207 </v>
   <v>       0.33436097       0.81288695       0.50068731 </v>
   <v>       0.33374369       0.95594547       0.50034327 </v>
   <v>       0.47644878       0.09946811       0.50013605 </v>
   <v>       0.47405564       0.24405775       0.49987175 </v>
   <v>       0.47442794       0.80949681       0.50068032 </v>
   <v>       0.47647697       0.95595924       0.50033529 </v>
   <v>       0.61866214       0.09884911       0.50030526 </v>
   <v>       0.61862287       0.24277182       0.50019413 </v>
   <v>       0.61843000       0.95490650       0.50049755 </v>
   <v>       0.76136981       0.09822824       0.50044841 </v>
   <v>       0.76161614       0.24136324       0.50044181 </v>
   <v>       0.76127137       0.38446709       0.50042691 </v>
   <v>       0.76092123       0.52918642       0.50052780 </v>
   <v>       0.76292070       0.66518381       0.50080621 </v>
   <v>       0.75774352       0.80822498       0.50085121 </v>
   <v>       0.76019984       0.95412777       0.50066754 </v>
   <v>       0.90352472       0.09676609       0.50049597 </v>
   <v>       0.90433379       0.24075635       0.50041170 </v>
   <v>       0.90469157       0.38404883       0.50054913 </v>
   <v>       0.90538743       0.52682301       0.50065899 </v>
   <v>       0.90588379       0.66923172       0.50067758 </v>
   <v>       0.90404834       0.81159595       0.50070559 </v>
   <v>       0.90300380       0.95329684       0.50063022 </v>
   <v>       0.71540709       0.71407264       0.50108114 </v>
   <v>       0.33213663       0.52250159       0.50018122 </v>
   <v>       0.62714449       0.66577512       0.50167009 </v>
   <v>       0.42071532       0.56240221       0.50001410 </v>
   <v>       0.42748476       0.28780487       0.49969306 </v>
   <v>       0.42911861       0.71935388       0.50072666 </v>
   <v>       0.71700689       0.57447750       0.50070579 </v>
   <v>       0.33089181       0.38138550       0.49974057 </v>
   <v>       0.62017521       0.38444400       0.50007155 </v>
   <v>       0.61865387       0.81419630       0.50086578 </v>
   <v>       0.46170242       0.44082811       0.49927341 </v>
   <v>       0.55839458       0.45680173       0.49960194 </v>
   <v>       0.52441843       0.48817651       0.50000000 </v>
  </varray>
  <varray name="selective"  type="logical" >
   <v type="logical" >  T  T  T </v>
   <v type="logical" >  T  T  T </v>
   <v type="logical" >  T  T  T </v>
   <v type="logical" >  T  T  T </v>
   <v type="logical" >  T  T  T </v>
   <v type="logical" >  T  T  T </v>
   <v type="logical" >  T  T  T </v>
   <v type="logical" >  T  T  T </v>
   <v type="logical" >  T  T  T </v>
   <v type="logical" >  T  T  T </v>
   <v type="logical" >  T  T  T </v>
   <v type="logical" >  T  T  T </v>
   <v type="logical" >  T  T  T </v>
   <v type="logical" >  T  T  T </v>
   <v type="logical" >  T  T  T </v>
   <v type="logical" >  T  T  T </v>
   <v type="logical" >  T  T  T </v>
   <v type="logical" >  T  T  T </v>
   <v type="logical" >  T  T  T </v>
   <v type="logical" >  T  T  T </v>
   <v type="logical" >  T  T  T </v>
   <v type="logical" >  T  T  T </v>
   <v type="logical" >  T  T  T </v>
   <v type="logical" >  T  T  T </v>
   <v type="logical" >  T  T  T </v>
   <v type="logical" >  T  T  T </v>
   <v type="logical" >  T  T  T </v>
   <v type="logical" >  T  T  T </v>
   <v type="logical" >  T  T  T </v>
   <v type="logical" >  T  T  T </v>
   <v type="logical" >  T  T  T </v>
   <v type="logical" >  T  T  T </v>
   <v type="logical" >  T  T  T </v>
   <v type="logical" >  T  T  T </v>
   <v type="logical" >  T  T  T </v>
   <v type="logical" >  T  T  T </v>
   <v type="logical" >  T  T  T </v>
   <v type="logical" >  T  T  T </v>
   <v type="logical" >  T  T  T </v>
   <v type="logical" >  T  T  T </v>
   <v type="logical" >  T  T  T </v>
   <v type="logical" >  T  T  T </v>
   <v type="logical" >  T  T  T </v>
   <v type="logical" >  T  T  T </v>
   <v type="logical" >  T  T  T </v>
   <v type="logical" >  T  T  T </v>
   <v type="logical" >  T  T  T </v>
   <v type="logical" >  T  T  T </v>
   <v type="logical" >  T  T  T </v>
   <v type="logical" >  T  T  T </v>
   <v type="logical" >  T  T  T </v>
   <v type="logical" >  T  T  T </v>
   <v type="logical" >  T  T  T </v>
   <v type="logical" >  T  T  T </v>
   <v type="logical" >  T  T  T </v>
   <v type="logical" >  T  T  T </v>
   <v type="logical" >  T  T  T </v>
   <v type="logical" >  T  T  T </v>
   <v type="logical" >  T  T  T </v>
   <v type="logical" >  T  T  T </v>
   <v type="logical" >  T  T  T </v>
   <v type="logical" >  T  T  T </v>
   <v type="logical" >  T  T  T </v>
   <v type="logical" >  T  T  T </v>
   <v type="logical" >  T  T  T </v>
   <v type="logical" >  T  T  T </v>
   <v type="logical" >  T  T  T </v>
   <v type="logical" >  T  T  T </v>
   <v type="logical" >  T  T  T </v>
   <v type="logical" >  T  T  T </v>
   <v type="logical" >  T  T  T </v>
   <v type="logical" >  T  T  T </v>
   <v type="logical" >  T  T  T </v>
   <v type="logical" >  T  T  T </v>
   <v type="logical" >  T  T  T </v>
   <v type="logical" >  T  T  T </v>
   <v type="logical" >  T  T  T </v>
   <v type="logical" >  T  T  T </v>
   <v type="logical" >  T  T  T </v>
   <v type="logical" >  T  T  T </v>
   <v type="logical" >  T  T  T </v>
   <v type="logical" >  T  T  T </v>
   <v type="logical" >  T  T  T </v>
   <v type="logical" >  T  T  T </v>
   <v type="logical" >  T  T  T </v>
   <v type="logical" >  T  T  T </v>
   <v type="logical" >  T  T  T </v>
   <v type="logical" >  T  T  T </v>
   <v type="logical" >  T  T  T </v>
   <v type="logical" >  T  T  T </v>
   <v type="logical" >  T  T  T </v>
   <v type="logical" >  T  T  T </v>
   <v type="logical" >  T  T  F </v>
  </varray>
  <nose>
   <v>      -3.00000000       0.00000000       0.00010000       0.00010000 </v>
  </nose>
 </structure>
</modeling>
