unknown system                          
            1
    17.271038    0.000000    0.000000
    -8.635519   14.957158    0.000000
     0.000000    0.000000   15.000000
   C    F    N    H    O 
    82     2     6     2     1
Direct configuration=     1
   0.99877297  0.00155855  0.50027943
   0.99892861  0.14455461  0.50010942
   0.99977765  0.28823135  0.49997989
   0.00039639  0.43135781  0.50008148
   0.00098112  0.57423680  0.50039104
   0.00133302  0.71715711  0.50060456
   0.99976013  0.85963475  0.50048761
   0.14301862  0.00312490  0.50016949
   0.14248207  0.14532135  0.49990333
   0.14195822  0.28718503  0.49977539
   0.14371578  0.43141001  0.49994804
   0.14476531  0.57418055  0.50031462
   0.14428253  0.71711354  0.50063518
   0.14342912  0.86021303  0.50050238
   0.28615015  0.00351227  0.50002625
   0.28641933  0.14686546  0.49971329
   0.28699348  0.29197207  0.49950793
   0.28484646  0.42631699  0.49959025
   0.28996495  0.57435178  0.50004365
   0.28758053  0.71779440  0.50048246
   0.28645971  0.86068889  0.50042673
   0.42914830  0.00402487  0.50003802
   0.42914698  0.14787033  0.49971310
   0.42938356  0.86031504  0.50041181
   0.57131540  0.00344704  0.50014402
   0.57133460  0.14702311  0.49984264
   0.57358334  0.29396459  0.49975217
   0.57334740  0.85901187  0.50049216
   0.71347676  0.00250784  0.50034576
   0.71403639  0.14618488  0.50004274
   0.71383510  0.28939693  0.49987797
   0.71035134  0.42956636  0.49993618
   0.70853940  0.85796015  0.50044254
   0.85563998  0.00147752  0.50035795
   0.85645923  0.14529761  0.50016403
   0.85677162  0.28858035  0.49998502
   0.85708341  0.43160925  0.50003307
   0.85752118  0.57415545  0.50023822
   0.85826565  0.71651797  0.50041110
   0.85455433  0.85766441  0.50042330
   0.04687099  0.09713746  0.50010318
   0.04650618  0.23969755  0.49994858
   0.04793904  0.38373608  0.49998643
   0.04899193  0.52668561  0.50026471
   0.04887273  0.66957183  0.50060427
   0.04799210  0.81235021  0.50058201
   0.04733020  0.95477702  0.50030544
   0.19069797  0.09829370  0.49990551
   0.19044372  0.24056926  0.49969620
   0.18949661  0.38208429  0.49976866
   0.19311951  0.52692320  0.50010647
   0.19216164  0.66972438  0.50049535
   0.19137481  0.81269781  0.50057039
   0.19097164  0.95558281  0.50024643
   0.33391011  0.09930550  0.49976143
   0.33750598  0.24287544  0.49954980
   0.33920135  0.67329006  0.50033676
   0.33436849  0.81290378  0.50051457
   0.33373705  0.95595438  0.50014484
   0.47644605  0.09948147  0.49984246
   0.47405341  0.24408195  0.49963058
   0.47442401  0.80949886  0.50047719
   0.47646964  0.95596257  0.50017907
   0.61864225  0.09883920  0.49999430
   0.61861740  0.24277814  0.49980684
   0.61841380  0.95489163  0.50031516
   0.76135600  0.09821024  0.50019392
   0.76159861  0.24133955  0.49995139
   0.76128467  0.38445810  0.49992953
   0.76092258  0.52916810  0.50007941
   0.76289056  0.66514914  0.50020318
   0.75770666  0.80817268  0.50035255
   0.76017776  0.95409362  0.50041829
   0.90350727  0.09674531  0.50025811
   0.90431734  0.24074630  0.50004310
   0.90469590  0.38403754  0.50001402
   0.90539013  0.52681735  0.50021255
   0.90586353  0.66921537  0.50042229
   0.90402402  0.81157976  0.50046731
   0.90298318  0.95327048  0.50038792
   0.71535579  0.71402614  0.50005132
   0.33210531  0.52248316  0.49968799
   0.62708375  0.66573361  0.49946720
   0.42068438  0.56233500  0.49951193
   0.42747365  0.28782387  0.49952362
   0.42911138  0.71935683  0.50042620
   0.71700623  0.57444722  0.50005707
   0.33086693  0.38137152  0.49941534
   0.62019147  0.38445641  0.49983012
   0.61863146  0.81417180  0.50054885
   0.46191991  0.44072109  0.49944027
   0.55880764  0.45725635  0.49972325
   0.52451853  0.48831599  0.50000000
Direct configuration=     2
   0.99877447  0.00155911  0.50028294
   0.99892900  0.14455347  0.50011211
   0.99977726  0.28823078  0.49998287
   0.00039625  0.43135414  0.50008413
   0.00098101  0.57423620  0.50039583
   0.00133020  0.71715548  0.50060874
   0.99975970  0.85963505  0.50049078
   0.14301887  0.00312578  0.50017300
   0.14248241  0.14531882  0.49990641
   0.14196062  0.28718284  0.49977631
   0.14371561  0.43141023  0.49995253
   0.14476566  0.57417994  0.50031859
   0.14428259  0.71711233  0.50063794
   0.14342907  0.86021394  0.50050509
   0.28615090  0.00351373  0.50002856
   0.28641943  0.14686523  0.49971721
   0.28699410  0.29197024  0.49951062
   0.28484768  0.42631827  0.49959509
   0.28996538  0.57435217  0.50004676
   0.28758204  0.71779458  0.50048446
   0.28646514  0.86069040  0.50042956
   0.42914951  0.00402420  0.50004101
   0.42914702  0.14787056  0.49971686
   0.42938524  0.86031525  0.50041264
   0.57131590  0.00344663  0.50014708
   0.57133459  0.14702232  0.49984527
   0.57358263  0.29396324  0.49975537
   0.57334712  0.85901288  0.50049511
   0.71347628  0.00251044  0.50034623
   0.71403579  0.14618365  0.50004602
   0.71383056  0.28939143  0.49988200
   0.71035002  0.42956617  0.49994049
   0.70853819  0.85795884  0.50044764
   0.85564103  0.00147875  0.50036133
   0.85645927  0.14529722  0.50016590
   0.85677163  0.28857895  0.49998904
   0.85708318  0.43160855  0.50003931
   0.85751846  0.57415492  0.50024237
   0.85826182  0.71651493  0.50041573
   0.85455440  0.85766333  0.50042741
   0.04687047  0.09713774  0.50010432
   0.04650821  0.23969979  0.49995103
   0.04794015  0.38373759  0.49999044
   0.04899294  0.52668765  0.50026921
   0.04887304  0.66957294  0.50060845
   0.04799221  0.81235026  0.50058516
   0.04732899  0.95477609  0.50030867
   0.19069808  0.09829451  0.49990940
   0.19044377  0.24057636  0.49969980
   0.18949833  0.38208548  0.49977271
   0.19312008  0.52692350  0.50011049
   0.19216111  0.66972527  0.50049804
   0.19137274  0.81269707  0.50057256
   0.19097109  0.95558129  0.50024924
   0.33390994  0.09930536  0.49976500
   0.33750606  0.24287675  0.49955216
   0.33920089  0.67329021  0.50033942
   0.33436304  0.81290272  0.50051522
   0.33373492  0.95595303  0.50014701
   0.47644525  0.09948087  0.49984594
   0.47405374  0.24408235  0.49963356
   0.47442368  0.80949874  0.50047837
   0.47646878  0.95596283  0.50018074
   0.61864207  0.09883979  0.49999824
   0.61861957  0.24278009  0.49981069
   0.61841362  0.95489094  0.50031723
   0.76135604  0.09820974  0.50019569
   0.76160014  0.24134154  0.49995472
   0.76128669  0.38446053  0.49993468
   0.76092425  0.52916650  0.50008420
   0.76289150  0.66515197  0.50021060
   0.75770789  0.80817655  0.50035856
   0.76017778  0.95409249  0.50042149
   0.90350748  0.09674506  0.50026057
   0.90431877  0.24074668  0.50004396
   0.90469690  0.38403910  0.50001953
   0.90538998  0.52681468  0.50021572
   0.90586786  0.66921591  0.50042763
   0.90402367  0.81158170  0.50047036
   0.90298178  0.95326976  0.50039186
   0.71535055  0.71401996  0.50005964
   0.33210646  0.52248383  0.49969541
   0.62709038  0.66573769  0.49947928
   0.42068442  0.56233550  0.49952714
   0.42747411  0.28782367  0.49952497
   0.42911263  0.71935805  0.50042924
   0.71700357  0.57444744  0.50006415
   0.33086791  0.38137338  0.49941802
   0.62019235  0.38445708  0.49983214
   0.61863247  0.81417172  0.50055335
   0.46191705  0.44072322  0.49943088
   0.55880237  0.45724999  0.49971530
   0.52451762  0.48831502  0.50000000
Direct configuration=     3
   0.99877195  0.00155787  0.50028803
   0.99892973  0.14455595  0.50011591
   0.99977997  0.28823235  0.49998729
   0.00039737  0.43136068  0.50009091
   0.00098102  0.57423671  0.50040301
   0.00133324  0.71715713  0.50061538
   0.99975847  0.85963392  0.50049569
   0.14301783  0.00312412  0.50017844
   0.14248277  0.14532365  0.49991112
   0.14195889  0.28718829  0.49978130
   0.14371732  0.43141084  0.49995955
   0.14476584  0.57418127  0.50032475
   0.14428146  0.71711345  0.50064234
   0.14342779  0.86021195  0.50050929
   0.28614912  0.00351190  0.50003241
   0.28641986  0.14686639  0.49972322
   0.28699534  0.29197535  0.49951483
   0.28484862  0.42631936  0.49960250
   0.28996604  0.57435271  0.50005224
   0.28757889  0.71779384  0.50048741
   0.28645490  0.86068747  0.50043075
   0.42914687  0.00402352  0.50004543
   0.42914655  0.14787021  0.49972272
   0.42938092  0.86031381  0.50041379
   0.57131654  0.00344684  0.50014893
   0.57133382  0.14702282  0.49984994
   0.57358386  0.29396511  0.49976020
   0.57334772  0.85901152  0.50049947
   0.71347905  0.00250546  0.50034575
   0.71403696  0.14618529  0.50005101
   0.71383891  0.28940727  0.49988279
   0.71035189  0.42956647  0.49994704
   0.70853928  0.85795992  0.50045538
   0.85563964  0.00147702  0.50036661
   0.85646023  0.14529707  0.50016857
   0.85677327  0.28858135  0.49999500
   0.85708362  0.43160817  0.50004856
   0.85752102  0.57415313  0.50024895
   0.85826571  0.71651555  0.50042056
   0.85455307  0.85766487  0.50043392
   0.04687229  0.09713671  0.50010692
   0.04650836  0.23969772  0.49995465
   0.04793991  0.38373550  0.49999641
   0.04899285  0.52668501  0.50027600
   0.04887122  0.66957129  0.50061493
   0.04798985  0.81234983  0.50059018
   0.04733015  0.95477731  0.50031382
   0.19069855  0.09829433  0.49991543
   0.19044792  0.24056560  0.49970137
   0.18949896  0.38208548  0.49977868
   0.19312030  0.52692321  0.50011657
   0.19216235  0.66972383  0.50050238
   0.19137564  0.81269817  0.50057619
   0.19097167  0.95558384  0.50025360
   0.33391025  0.09930633  0.49977051
   0.33750629  0.24287569  0.49955592
   0.33920331  0.67329153  0.50034351
   0.33437140  0.81290462  0.50051807
   0.33373816  0.95595502  0.50015062
   0.47644570  0.09948038  0.49985128
   0.47405351  0.24408179  0.49963807
   0.47442445  0.80949991  0.50048062
   0.47647010  0.95596193  0.50018362
   0.61864167  0.09883847  0.50000403
   0.61861597  0.24277628  0.49981654
   0.61841306  0.95489188  0.50032042
   0.76135565  0.09821050  0.50019839
   0.76159810  0.24133768  0.49996020
   0.76128295  0.38445598  0.49994285
   0.76092004  0.52916828  0.50009172
   0.76288786  0.66514796  0.50022183
   0.75770512  0.80817144  0.50036805
   0.76017680  0.95409426  0.50042627
   0.90350822  0.09674584  0.50026449
   0.90431822  0.24074489  0.50004620
   0.90469656  0.38403573  0.50002774
   0.90538828  0.52681443  0.50022157
   0.90585832  0.66921430  0.50043367
   0.90402940  0.81157968  0.50047258
   0.90298643  0.95327175  0.50039616
   0.71535882  0.71402883  0.50007267
   0.33210663  0.52248493  0.49970669
   0.62708694  0.66573556  0.49949830
   0.42069367  0.56234200  0.49954400
   0.42747401  0.28782388  0.49952699
   0.42911107  0.71935703  0.50043356
   0.71700390  0.57444584  0.50007506
   0.33086873  0.38137220  0.49942222
   0.62019007  0.38445489  0.49983531
   0.61863013  0.81417160  0.50056014
   0.46191375  0.44072716  0.49941734
   0.55879375  0.45724155  0.49970384
   0.52451579  0.48831185  0.50000000
Direct configuration=     4
   0.99877687  0.00155985  0.50029147
   0.99893070  0.14455278  0.50011847
   0.99977790  0.28822999  0.49999048
   0.00039706  0.43135262  0.50009497
   0.00098003  0.57423468  0.50040832
   0.00132650  0.71715475  0.50062022
   0.99976112  0.85963604  0.50049900
   0.14301887  0.00312700  0.50018265
   0.14248393  0.14531712  0.49991417
   0.14196536  0.28718117  0.49978052
   0.14371671  0.43141047  0.49996483
   0.14476635  0.57418167  0.50032818
   0.14428245  0.71711145  0.50064581
   0.14342810  0.86021440  0.50051253
   0.28615159  0.00351483  0.50003549
   0.28641928  0.14686554  0.49972775
   0.28699627  0.29196924  0.49951742
   0.28485128  0.42632052  0.49960808
   0.28996720  0.57435361  0.50005688
   0.28758427  0.71779534  0.50048970
   0.28646778  0.86069136  0.50043407
   0.42915046  0.00402354  0.50004868
   0.42914894  0.14787118  0.49972536
   0.42938693  0.86031604  0.50041479
   0.57131665  0.00344664  0.50015080
   0.57133440  0.14702096  0.49985391
   0.57358254  0.29396304  0.49976164
   0.57334609  0.85901349  0.50050258
   0.71347195  0.00251032  0.50034836
   0.71403462  0.14618294  0.50005474
   0.71382791  0.28938654  0.49988936
   0.71034743  0.42956558  0.49995202
   0.70853596  0.85795777  0.50046119
   0.85564245  0.00147963  0.50037037
   0.85645888  0.14529687  0.50017046
   0.85677128  0.28857573  0.49999942
   0.85708255  0.43160566  0.50005546
   0.85751533  0.57415361  0.50025387
   0.85825895  0.71651122  0.50042222
   0.85455704  0.85766265  0.50043834
   0.04687017  0.09713891  0.50010943
   0.04651045  0.23970192  0.49995758
   0.04794165  0.38373927  0.50000109
   0.04899332  0.52668936  0.50028136
   0.04887253  0.66957275  0.50061991
   0.04799396  0.81234955  0.50059231
   0.04732797  0.95477529  0.50031781
   0.19069787  0.09829430  0.49992001
   0.19044438  0.24058061  0.49970605
   0.18950007  0.38208745  0.49978349
   0.19312069  0.52692428  0.50012120
   0.19215969  0.66972552  0.50050566
   0.19136599  0.81269432  0.50057660
   0.19096985  0.95557962  0.50025690
   0.33390951  0.09930521  0.49977471
   0.33750729  0.24287856  0.49955879
   0.33920018  0.67329048  0.50034655
   0.33435845  0.81290126  0.50051862
   0.33373169  0.95595141  0.50015307
   0.47644383  0.09948006  0.49985534
   0.47405379  0.24408243  0.49964141
   0.47442300  0.80949804  0.50048243
   0.47646794  0.95596216  0.50018545
   0.61864203  0.09883980  0.50000775
   0.61862136  0.24278318  0.49982019
   0.61841548  0.95489008  0.50032211
   0.76135741  0.09820865  0.50020010
   0.76160186  0.24134609  0.49996378
   0.76129018  0.38446824  0.49994735
   0.76092358  0.52916513  0.50009757
   0.76289171  0.66515171  0.50022993
   0.75770905  0.80817888  0.50037539
   0.76017901  0.95409065  0.50042953
   0.90350799  0.09674435  0.50026734
   0.90431991  0.24074769  0.50004639
   0.90469795  0.38404062  0.50003398
   0.90539019  0.52681336  0.50022677
   0.90586857  0.66921321  0.50043967
   0.90402215  0.81158083  0.50047498
   0.90297963  0.95326871  0.50040128
   0.71535074  0.71401925  0.50008265
   0.33211314  0.52248771  0.49971484
   0.62709196  0.66573899  0.49951338
   0.42069427  0.56234380  0.49955760
   0.42747425  0.28782321  0.49952834
   0.42911390  0.71935983  0.50043649
   0.71700096  0.57444727  0.50008328
   0.33086949  0.38137619  0.49942552
   0.62019350  0.38445766  0.49983757
   0.61863310  0.81417156  0.50056512
   0.46191038  0.44072918  0.49940779
   0.55878812  0.45723442  0.49969572
   0.52451476  0.48831105  0.50000000
Direct configuration=     5
   0.99877258  0.00155838  0.50029380
   0.99893025  0.14455589  0.50012024
   0.99978030  0.28823226  0.49999248
   0.00039773  0.43135632  0.50009783
   0.00098026  0.57423616  0.50041172
   0.00133127  0.71715552  0.50062321
   0.99975905  0.85963333  0.50050106
   0.14301806  0.00312429  0.50018536
   0.14248346  0.14532243  0.49991637
   0.14196182  0.28718759  0.49978354
   0.14371779  0.43141121  0.49996816
   0.14476561  0.57418296  0.50033060
   0.14428020  0.71711222  0.50064792
   0.14342730  0.86021217  0.50051436
   0.28614891  0.00351249  0.50003759
   0.28642007  0.14686633  0.49973062
   0.28699670  0.29197443  0.49951945
   0.28485162  0.42632339  0.49961098
   0.28996762  0.57435332  0.50005994
   0.28757958  0.71779372  0.50049123
   0.28645639  0.86068750  0.50043463
   0.42914671  0.00402283  0.50005077
   0.42914803  0.14787113  0.49972742
   0.42938150  0.86031367  0.50041563
   0.57131636  0.00344608  0.50015222
   0.57133374  0.14702281  0.49985649
   0.57358428  0.29396628  0.49976303
   0.57334732  0.85901153  0.50050463
   0.71347818  0.00250684  0.50034887
   0.71403740  0.14618546  0.50005700
   0.71383614  0.28940251  0.49989049
   0.71035099  0.42956732  0.49995504
   0.70853887  0.85795936  0.50046487
   0.85564018  0.00147734  0.50037287
   0.85646066  0.14529685  0.50017165
   0.85677371  0.28858091  0.50000202
   0.85708381  0.43160830  0.50005953
   0.85751856  0.57415173  0.50025720
   0.85826298  0.71651268  0.50042396
   0.85455409  0.85766393  0.50044127
   0.04687300  0.09713746  0.50011118
   0.04651030  0.23969897  0.49995921
   0.04794103  0.38373631  0.50000394
   0.04899308  0.52668608  0.50028453
   0.04887059  0.66957141  0.50062304
   0.04799122  0.81234996  0.50059403
   0.04732986  0.95477684  0.50032035
   0.19069881  0.09829454  0.49992287
   0.19044820  0.24057035  0.49970690
   0.18950096  0.38208657  0.49978619
   0.19312141  0.52692430  0.50012408
   0.19216265  0.66972516  0.50050779
   0.19137320  0.81269736  0.50057883
   0.19097114  0.95558333  0.50025911
   0.33391064  0.09930668  0.49977728
   0.33750667  0.24287650  0.49956076
   0.33920288  0.67329164  0.50034868
   0.33436767  0.81290393  0.50052010
   0.33373649  0.95595403  0.50015490
   0.47644563  0.09947992  0.49985783
   0.47405407  0.24408196  0.49964332
   0.47442404  0.80949995  0.50048384
   0.47647004  0.95596205  0.50018682
   0.61864175  0.09883858  0.50001015
   0.61861708  0.24277742  0.49982270
   0.61841314  0.95489286  0.50032220
   0.76135520  0.09820997  0.50020151
   0.76159888  0.24133906  0.49996647
   0.76128386  0.38445780  0.49995119
   0.76091977  0.52916705  0.50010133
   0.76288899  0.66514880  0.50023468
   0.75770688  0.80817363  0.50037988
   0.76017651  0.95409346  0.50043182
   0.90350886  0.09674594  0.50026925
   0.90431834  0.24074512  0.50004719
   0.90469708  0.38403557  0.50003774
   0.90538813  0.52681338  0.50023017
   0.90586107  0.66921311  0.50044211
   0.90402655  0.81157854  0.50047663
   0.90298526  0.95327078  0.50040352
   0.71535846  0.71402833  0.50008713
   0.33211330  0.52248886  0.49972006
   0.62708794  0.66573556  0.49952025
   0.42069699  0.56234597  0.49956632
   0.42747474  0.28782388  0.49952946
   0.42911164  0.71935760  0.50043834
   0.71700222  0.57444548  0.50008821
   0.33086987  0.38137306  0.49942756
   0.62018982  0.38445493  0.49983909
   0.61862948  0.81417115  0.50056819
   0.46190861  0.44073077  0.49940212
   0.55878422  0.45723048  0.49969096
   0.52451405  0.48830978  0.50000000
Direct configuration=     6
   0.99877544  0.00155928  0.50029694
   0.99893162  0.14455463  0.50012253
   0.99977949  0.28823070  0.49999507
   0.00039782  0.43135455  0.50010193
   0.00097980  0.57423489  0.50041646
   0.00132884  0.71715521  0.50062720
   0.99975972  0.85963436  0.50050374
   0.14301856  0.00312605  0.50018909
   0.14248469  0.14532052  0.49991924
   0.14196556  0.28718513  0.49978388
   0.14371848  0.43141144  0.49997274
   0.14476657  0.57418253  0.50033399
   0.14428140  0.71711206  0.50065090
   0.14342803  0.86021384  0.50051687
   0.28615064  0.00351412  0.50004048
   0.28642006  0.14686624  0.49973455
   0.28699715  0.29197240  0.49952196
   0.28485373  0.42632272  0.49961595
   0.28996877  0.57435414  0.50006428
   0.28758239  0.71779507  0.50049330
   0.28646249  0.86068965  0.50043723
   0.42914884  0.00402298  0.50005356
   0.42914889  0.14787105  0.49973031
   0.42938399  0.86031505  0.50041669
   0.57131653  0.00344696  0.50015396
   0.57133440  0.14702156  0.49986007
   0.57358338  0.29396414  0.49976495
   0.57334644  0.85901333  0.50050714
   0.71347659  0.00251008  0.50034905
   0.71403559  0.14618394  0.50006003
   0.71382903  0.28939240  0.49989461
   0.71034855  0.42956596  0.49995924
   0.70853673  0.85795835  0.50046989
   0.85564147  0.00147850  0.50037624
   0.85645943  0.14529674  0.50017313
   0.85677206  0.28857742  0.50000557
   0.85708307  0.43160582  0.50006531
   0.85751655  0.57415207  0.50026181
   0.85826095  0.71651021  0.50042470
   0.85455613  0.85766316  0.50044529
   0.04687157  0.09713844  0.50011362
   0.04651119  0.23970119  0.49996153
   0.04794221  0.38373735  0.50000790
   0.04899279  0.52668706  0.50028890
   0.04887110  0.66957146  0.50062737
   0.04799221  0.81234882  0.50059648
   0.04732851  0.95477543  0.50032381
   0.19069863  0.09829432  0.49992683
   0.19044665  0.24057660  0.49971060
   0.18950217  0.38208886  0.49979006
   0.19312156  0.52692492  0.50012805
   0.19216055  0.66972574  0.50051062
   0.19136791  0.81269490  0.50057987
   0.19097017  0.95558102  0.50026213
   0.33391051  0.09930617  0.49978078
   0.33750777  0.24287775  0.49956336
   0.33920157  0.67329108  0.50035152
   0.33436178  0.81290189  0.50052091
   0.33373310  0.95595225  0.50015722
   0.47644197  0.09948141  0.49985972
   0.47405450  0.24408266  0.49964569
   0.47442327  0.80949870  0.50048564
   0.47646822  0.95596148  0.50018856
   0.61864218  0.09883955  0.50001335
   0.61861927  0.24278085  0.49982590
   0.61841442  0.95489030  0.50032414
   0.76135741  0.09820954  0.50020327
   0.76160113  0.24134334  0.49996998
   0.76128731  0.38446415  0.49995547
   0.76092113  0.52916581  0.50010661
   0.76288982  0.66514968  0.50024107
   0.75770839  0.80817699  0.50038609
   0.76017807  0.95409184  0.50043492
   0.90350876  0.09674502  0.50027173
   0.90432013  0.24074667  0.50004839
   0.90469815  0.38403843  0.50004293
   0.90538879  0.52681307  0.50023508
   0.90586223  0.66921217  0.50044556
   0.90402323  0.81157845  0.50047894
   0.90298366  0.95327019  0.50040674
   0.71535464  0.71402315  0.50009465
   0.33211527  0.52249022  0.49972716
   0.62708975  0.66573578  0.49953062
   0.42069952  0.56234834  0.49957938
   0.42747473  0.28782350  0.49953082
   0.42911299  0.71935912  0.50044083
   0.71700088  0.57444641  0.50009530
   0.33087060  0.38137576  0.49943037
   0.62019190  0.38445721  0.49984102
   0.61863169  0.81417117  0.50057257
   0.46190634  0.44073289  0.49939430
   0.55877920  0.45722488  0.49968434
   0.52451304  0.48830832  0.50000000
Direct configuration=     7
   0.99877330  0.00155868  0.50030140
   0.99893100  0.14455624  0.50012582
   0.99978140  0.28823259  0.49999874
   0.00039855  0.43135583  0.50010811
   0.00097950  0.57423512  0.50042338
   0.00132936  0.71715393  0.50063278
   0.99975784  0.85963232  0.50050757
   0.14301747  0.00312389  0.50019451
   0.14248360  0.14532299  0.49992362
   0.14196233  0.28718996  0.49979011
   0.14371919  0.43141249  0.49997930
   0.14476552  0.57418339  0.50033903
   0.14427852  0.71711155  0.50065505
   0.14342612  0.86021142  0.50052028
   0.28615121  0.00351333  0.50004297
   0.28642053  0.14686641  0.49974020
   0.28699803  0.29197628  0.49952579
   0.28485555  0.42632821  0.49962176
   0.28996911  0.57435449  0.50007069
   0.28757836  0.71779349  0.50049618
   0.28645259  0.86068590  0.50043806
   0.42914513  0.00402300  0.50005724
   0.42914717  0.14787228  0.49973442
   0.42938013  0.86031295  0.50041822
   0.57131607  0.00344547  0.50015665
   0.57133204  0.14702289  0.49986495
   0.57358458  0.29396745  0.49976788
   0.57334731  0.85901116  0.50051085
   0.71347977  0.00250563  0.50035070
   0.71403827  0.14618609  0.50006434
   0.71383930  0.28940793  0.49989760
   0.71035121  0.42956840  0.49996522
   0.70853875  0.85795923  0.50047711
   0.85564088  0.00147688  0.50038103
   0.85646174  0.14529703  0.50017526
   0.85677449  0.28858134  0.50001062
   0.85708398  0.43160822  0.50007357
   0.85751700  0.57415028  0.50026854
   0.85826041  0.71651036  0.50042675
   0.85455428  0.85766375  0.50045113
   0.04687433  0.09713781  0.50011720
   0.04651256  0.23969927  0.49996445
   0.04794208  0.38373616  0.50001356
   0.04899322  0.52668570  0.50029519
   0.04886964  0.66957054  0.50063363
   0.04799095  0.81234967  0.50060020
   0.04732997  0.95477665  0.50032876
   0.19069931  0.09829497  0.49993252
   0.19045116  0.24056905  0.49971213
   0.18950447  0.38208827  0.49979535
   0.19312052  0.52692364  0.50013159
   0.19216270  0.66972575  0.50051471
   0.19137474  0.81269810  0.50058433
   0.19097122  0.95558374  0.50026649
   0.33391080  0.09930682  0.49978581
   0.33750716  0.24287680  0.49956710
   0.33920349  0.67329250  0.50035566
   0.33436909  0.81290499  0.50052361
   0.33373681  0.95595371  0.50016075
   0.47644711  0.09947884  0.49986496
   0.47405471  0.24408228  0.49964893
   0.47442385  0.80950064  0.50048822
   0.47647011  0.95596248  0.50019110
   0.61864133  0.09883855  0.50001789
   0.61861562  0.24277551  0.49983064
   0.61841481  0.95489632  0.50032413
   0.76135504  0.09821039  0.50020556
   0.76159688  0.24133778  0.49997521
   0.76128202  0.38445504  0.49996313
   0.76091828  0.52916645  0.50011429
   0.76288807  0.66514765  0.50024988
   0.75770694  0.80817371  0.50039508
   0.76017688  0.95409369  0.50043924
   0.90350937  0.09674576  0.50027523
   0.90431829  0.24074454  0.50005055
   0.90469712  0.38403452  0.50005032
   0.90538751  0.52681202  0.50024245
   0.90586006  0.66921153  0.50045033
   0.90402844  0.81157761  0.50048210
   0.90298646  0.95327092  0.50041161
   0.71536080  0.71403014  0.50010432
   0.33211804  0.52249181  0.49973755
   0.62708785  0.66573301  0.49954644
   0.42070240  0.56235147  0.49959894
   0.42747550  0.28782387  0.49953273
   0.42911170  0.71935793  0.50044434
   0.71700054  0.57444485  0.50010555
   0.33087167  0.38137422  0.49943435
   0.62018899  0.38445467  0.49984373
   0.61862912  0.81417115  0.50057884
   0.46190272  0.44073572  0.49938317
   0.55877192  0.45721695  0.49967490
   0.52451147  0.48830622  0.50000000
Direct configuration=     8
   0.99877741  0.00155989  0.50030508
   0.99893312  0.14455415  0.50012837
   0.99978003  0.28822988  0.50000168
   0.00039830  0.43135342  0.50011342
   0.00097932  0.57423359  0.50042918
   0.00132727  0.71715431  0.50063723
   0.99976087  0.85963459  0.50051060
   0.14301916  0.00312681  0.50019900
   0.14248643  0.14531977  0.49992689
   0.14197035  0.28718473  0.49979038
   0.14371987  0.43141144  0.49998434
   0.14476675  0.57418255  0.50034296
   0.14428151  0.71711206  0.50065878
   0.14342855  0.86021465  0.50052334
   0.28615319  0.00351487  0.50004551
   0.28641787  0.14686765  0.49974277
   0.28699896  0.29197247  0.49952847
   0.28485798  0.42632477  0.49962769
   0.28997006  0.57435482  0.50007581
   0.28758386  0.71779649  0.50049865
   0.28646571  0.86069072  0.50044134
   0.42915034  0.00402253  0.50006034
   0.42915028  0.14787088  0.49973804
   0.42938548  0.86031671  0.50041955
   0.57131688  0.00344862  0.50015853
   0.57133525  0.14702045  0.49986911
   0.57358311  0.29396268  0.49977037
   0.57334688  0.85901565  0.50051341
   0.71347372  0.00251116  0.50035186
   0.71403365  0.14618291  0.50006774
   0.71382475  0.28938645  0.49990338
   0.71034669  0.42956476  0.49997031
   0.70853625  0.85795817  0.50048297
   0.85564258  0.00147873  0.50038490
   0.85645890  0.14529629  0.50017694
   0.85677031  0.28857493  0.50001482
   0.85708229  0.43160363  0.50008058
   0.85751506  0.57415075  0.50027415
   0.85826035  0.71650880  0.50042911
   0.85455804  0.85766281  0.50045592
   0.04687142  0.09713890  0.50012029
   0.04651226  0.23970266  0.49996729
   0.04794360  0.38373782  0.50001829
   0.04899276  0.52668712  0.50030048
   0.04886982  0.66957043  0.50063877
   0.04799125  0.81234729  0.50060338
   0.04732768  0.95477453  0.50033280
   0.19069847  0.09829407  0.49993723
   0.19044670  0.24058036  0.49971693
   0.18950492  0.38209236  0.49980011
   0.19312105  0.52692488  0.50013506
   0.19215891  0.66972574  0.50051801
   0.19136375  0.81269281  0.50058539
   0.19097053  0.95558041  0.50026984
   0.33391108  0.09930662  0.49978969
   0.33750917  0.24287878  0.49957015
   0.33920077  0.67329122  0.50035910
   0.33435790  0.81290061  0.50052429
   0.33373102  0.95595112  0.50016304
   0.47643913  0.09948190  0.49986735
   0.47405476  0.24408318  0.49965142
   0.47442301  0.80949842  0.50049026
   0.47646674  0.95596091  0.50019309
   0.61864203  0.09883991  0.50002151
   0.61862092  0.24278404  0.49983419
   0.61841562  0.95488899  0.50032663
   0.76135927  0.09820928  0.50020742
   0.76160326  0.24134683  0.49997916
   0.76129010  0.38446936  0.49996806
   0.76092057  0.52916517  0.50012070
   0.76288933  0.66514945  0.50025669
   0.75770937  0.80817858  0.50040233
   0.76017945  0.95409029  0.50044281
   0.90350966  0.09674468  0.50027792
   0.90432178  0.24074758  0.50005258
   0.90469913  0.38403940  0.50005635
   0.90538805  0.52681197  0.50024881
   0.90586099  0.66921016  0.50045419
   0.90402058  0.81157689  0.50048471
   0.90298352  0.95326960  0.50041578
   0.71535286  0.71402095  0.50011411
   0.33211999  0.52249467  0.49974613
   0.62709215  0.66573474  0.49956020
   0.42070511  0.56235397  0.49961606
   0.42747497  0.28782360  0.49953410
   0.42911392  0.71936060  0.50044711
   0.71699882  0.57444578  0.50011389
   0.33087271  0.38137884  0.49943763
   0.62019302  0.38445890  0.49984573
   0.61863222  0.81417118  0.50058401
   0.46189998  0.44073800  0.49937430
   0.55876616  0.45721044  0.49966733
   0.52451041  0.48830462  0.50000000
Direct configuration=     9
   0.99877411  0.00155878  0.50030758
   0.99893208  0.14455663  0.50013023
   0.99978195  0.28823223  0.50000378
   0.00039888  0.43135505  0.50011695
   0.00097871  0.57423421  0.50043300
   0.00132791  0.71715303  0.50064011
   0.99975758  0.85963168  0.50051271
   0.14301803  0.00312394  0.50020200
   0.14248457  0.14532303  0.49992935
   0.14196704  0.28719066  0.49979139
   0.14372136  0.43141323  0.49998620
   0.14476570  0.57418312  0.50034561
   0.14427817  0.71711118  0.50066118
   0.14342619  0.86021195  0.50052534
   0.28615121  0.00351409  0.50004743
   0.28642054  0.14686687  0.49974618
   0.28699952  0.29197654  0.49953065
   0.28485792  0.42632914  0.49963087
   0.28996972  0.57435515  0.50007916
   0.28757878  0.71779357  0.50050034
   0.28645423  0.86068644  0.50044195
   0.42914555  0.00402286  0.50006231
   0.42914589  0.14787262  0.49973932
   0.42938034  0.86031311  0.50042061
   0.57131604  0.00344560  0.50016008
   0.57133182  0.14702264  0.49987171
   0.57358405  0.29396703  0.49977217
   0.57334725  0.85901184  0.50051540
   0.71347939  0.00250688  0.50035312
   0.71403834  0.14618606  0.50007001
   0.71383622  0.28940402  0.49990538
   0.71035023  0.42956786  0.49997358