  99  99   0   0
  0.3914025E+02  0.1727104E-08  0.1727104E-08  0.1500000E-08  0.0000000E+00
  1.000000000000000E-004
  CAR 
 unknown system                          
      6.14336517    -31.39791779  301     -2.35212206      1.00000000
    -31.398  0.0000E+00  0.0000E+00  0.0000E+00  0.0000E+00
    -31.273  0.0000E+00  0.0000E+00  0.0000E+00  0.0000E+00
    -31.148  0.0000E+00  0.0000E+00  0.0000E+00  0.0000E+00
    -31.023  0.0000E+00  0.0000E+00  0.0000E+00  0.0000E+00
    -30.897  0.0000E+00  0.0000E+00  0.0000E+00  0.0000E+00
    -30.772  0.0000E+00  0.0000E+00  0.0000E+00  0.0000E+00
    -30.647  0.0000E+00  0.0000E+00  0.0000E+00  0.0000E+00
    -30.522  0.0000E+00  0.0000E+00  0.0000E+00  0.0000E+00
    -30.397  0.0000E+00  0.0000E+00  0.0000E+00  0.0000E+00
    -30.272  0.0000E+00  0.0000E+00  0.0000E+00  0.0000E+00
    -30.147  0.0000E+00  0.0000E+00  0.0000E+00  0.0000E+00
    -30.021  0.0000E+00  0.0000E+00  0.0000E+00  0.0000E+00
    -29.896  0.2770E-10  0.2770E-10  0.3466E-11  0.3466E-11
    -29.771  0.9690E-04  0.9690E-04  0.1213E-04  0.1213E-04
    -29.646  0.7102E-02  0.7102E-02  0.9008E-03  0.9008E-03
    -29.521  0.8903E-03  0.8903E-03  0.1012E-02  0.1012E-02
    -29.396  0.7280E-02  0.7280E-02  0.1923E-02  0.1923E-02
    -29.271  0.8104E-02  0.8104E-02  0.2937E-02  0.2937E-02
    -29.145  0.6205E-02  0.6205E-02  0.3714E-02  0.3714E-02
    -29.020  0.2286E-02  0.2286E-02  0.4000E-02  0.4000E-02
    -28.895  0.1620E-06  0.1620E-06  0.4000E-02  0.4000E-02
    -28.770  0.8406E-16  0.8406E-16  0.4000E-02  0.4000E-02
    -28.645  0.0000E+00  0.0000E+00  0.4000E-02  0.4000E-02
    -28.520  0.0000E+00  0.0000E+00  0.4000E-02  0.4000E-02
    -28.395  0.0000E+00  0.0000E+00  0.4000E-02  0.4000E-02
    -28.269  0.0000E+00  0.0000E+00  0.4000E-02  0.4000E-02
    -28.144  0.0000E+00  0.0000E+00  0.4000E-02  0.4000E-02
    -28.019  0.0000E+00  0.0000E+00  0.4000E-02  0.4000E-02
    -27.894  0.0000E+00  0.0000E+00  0.4000E-02  0.4000E-02
    -27.769  0.0000E+00  0.0000E+00  0.4000E-02  0.4000E-02
    -27.644  0.0000E+00  0.0000E+00  0.4000E-02  0.4000E-02
    -27.519  0.0000E+00  0.0000E+00  0.4000E-02  0.4000E-02
    -27.394  0.0000E+00  0.0000E+00  0.4000E-02  0.4000E-02
    -27.268  0.0000E+00  0.0000E+00  0.4000E-02  0.4000E-02
    -27.143  0.0000E+00  0.0000E+00  0.4000E-02  0.4000E-02
    -27.018  0.0000E+00  0.0000E+00  0.4000E-02  0.4000E-02
    -26.893  0.0000E+00  0.0000E+00  0.4000E-02  0.4000E-02
    -26.768  0.0000E+00  0.0000E+00  0.4000E-02  0.4000E-02
    -26.643  0.0000E+00  0.0000E+00  0.4000E-02  0.4000E-02
    -26.518  0.0000E+00  0.0000E+00  0.4000E-02  0.4000E-02
    -26.392  0.0000E+00  0.0000E+00  0.4000E-02  0.4000E-02
    -26.267  0.0000E+00  0.0000E+00  0.4000E-02  0.4000E-02
    -26.142  0.0000E+00  0.0000E+00  0.4000E-02  0.4000E-02
    -26.017  0.0000E+00  0.0000E+00  0.4000E-02  0.4000E-02
    -25.892  0.0000E+00  0.0000E+00  0.4000E-02  0.4000E-02
    -25.767  0.0000E+00  0.0000E+00  0.4000E-02  0.4000E-02
    -25.642  0.0000E+00  0.0000E+00  0.4000E-02  0.4000E-02
    -25.516  0.0000E+00  0.0000E+00  0.4000E-02  0.4000E-02
    -25.391  0.0000E+00  0.0000E+00  0.4000E-02  0.4000E-02
    -25.266  0.0000E+00  0.0000E+00  0.4000E-02  0.4000E-02
    -25.141  0.0000E+00  0.0000E+00  0.4000E-02  0.4000E-02
    -25.016  0.0000E+00  0.0000E+00  0.4000E-02  0.4000E-02
    -24.891  0.0000E+00  0.0000E+00  0.4000E-02  0.4000E-02
    -24.766  0.0000E+00  0.0000E+00  0.4000E-02  0.4000E-02
    -24.640  0.0000E+00  0.0000E+00  0.4000E-02  0.4000E-02
    -24.515  0.0000E+00  0.0000E+00  0.4000E-02  0.4000E-02
    -24.390  0.0000E+00  0.0000E+00  0.4000E-02  0.4000E-02
    -24.265  0.0000E+00  0.0000E+00  0.4000E-02  0.4000E-02
    -24.140  0.0000E+00  0.0000E+00  0.4000E-02  0.4000E-02
    -24.015  0.0000E+00  0.0000E+00  0.4000E-02  0.4000E-02
    -23.890  0.0000E+00  0.0000E+00  0.4000E-02  0.4000E-02
    -23.765  0.0000E+00  0.0000E+00  0.4000E-02  0.4000E-02
    -23.639  0.1972E-13  0.1972E-13  0.4000E-02  0.4000E-02
    -23.514  0.3025E-05  0.3025E-05  0.4000E-02  0.4000E-02
    -23.389  0.4536E-02  0.4536E-02  0.4568E-02  0.4568E-02
    -23.264  0.3451E-02  0.3451E-02  0.5000E-02  0.5000E-02
    -23.139  0.8254E-06  0.8254E-06  0.5000E-02  0.5000E-02
    -23.014  0.1662E-14  0.1662E-14  0.5000E-02  0.5000E-02
    -22.889  0.0000E+00  0.0000E+00  0.5000E-02  0.5000E-02
    -22.763  0.0000E+00  0.0000E+00  0.5000E-02  0.5000E-02
    -22.638  0.0000E+00  0.0000E+00  0.5000E-02  0.5000E-02
    -22.513  0.0000E+00  0.0000E+00  0.5000E-02  0.5000E-02
    -22.388  0.0000E+00  0.0000E+00  0.5000E-02  0.5000E-02
    -22.263  0.0000E+00  0.0000E+00  0.5000E-02  0.5000E-02
    -22.138  0.0000E+00  0.0000E+00  0.5000E-02  0.5000E-02
    -22.013  0.1191E-11  0.1191E-11  0.5000E-02  0.5000E-02
    -21.887  0.1122E-04  0.1122E-04  0.5001E-02  0.5001E-02
    -21.762  0.2954E-02  0.2954E-02  0.5371E-02  0.5371E-02
    -21.637  0.8456E-02  0.8456E-02  0.6429E-02  0.6429E-02
    -21.512  0.2763E-02  0.2763E-02  0.6775E-02  0.6775E-02
    -21.387  0.9679E-02  0.9679E-02  0.7986E-02  0.7986E-02
    -21.262  0.7951E-02  0.7951E-02  0.8981E-02  0.8981E-02
    -21.137  0.2916E-02  0.2916E-02  0.9346E-02  0.9346E-02
    -21.011  0.5382E-02  0.5382E-02  0.1002E-01  0.1002E-01
    -20.886  0.1094E-01  0.1094E-01  0.1139E-01  0.1139E-01
    -20.761  0.9283E-02  0.9283E-02  0.1255E-01  0.1255E-01
    -20.636  0.1650E-02  0.1650E-02  0.1276E-01  0.1276E-01
    -20.511  0.5053E-02  0.5053E-02  0.1339E-01  0.1339E-01
    -20.386  0.8231E-02  0.8231E-02  0.1442E-01  0.1442E-01
    -20.261  0.9464E-02  0.9464E-02  0.1560E-01  0.1560E-01
    -20.136  0.1067E-01  0.1067E-01  0.1694E-01  0.1694E-01
    -20.010  0.2680E-02  0.2680E-02  0.1727E-01  0.1727E-01
    -19.885  0.4946E-02  0.4946E-02  0.1789E-01  0.1789E-01
    -19.760  0.7102E-02  0.7102E-02  0.1878E-01  0.1878E-01
    -19.635  0.3156E-02  0.3156E-02  0.1918E-01  0.1918E-01
    -19.510  0.1033E-01  0.1033E-01  0.2047E-01  0.2047E-01
    -19.385  0.1431E-01  0.1431E-01  0.2226E-01  0.2226E-01
    -19.260  0.4095E-02  0.4095E-02  0.2277E-01  0.2277E-01
    -19.134  0.6865E-02  0.6865E-02  0.2363E-01  0.2363E-01
    -19.009  0.5417E-02  0.5417E-02  0.2431E-01  0.2431E-01
    -18.884  0.4187E-02  0.4187E-02  0.2483E-01  0.2483E-01
    -18.759  0.4328E-02  0.4328E-02  0.2538E-01  0.2538E-01
    -18.634  0.8462E-02  0.8462E-02  0.2643E-01  0.2643E-01
    -18.509  0.1435E-01  0.1435E-01  0.2823E-01  0.2823E-01
    -18.384  0.7215E-02  0.7215E-02  0.2913E-01  0.2913E-01
    -18.258  0.7862E-02  0.7862E-02  0.3012E-01  0.3012E-01
    -18.133  0.6907E-02  0.6907E-02  0.3098E-01  0.3098E-01
    -18.008  0.5784E-02  0.5784E-02  0.3170E-01  0.3170E-01
    -17.883  0.6383E-02  0.6383E-02  0.3250E-01  0.3250E-01
    -17.758  0.4876E-02  0.4876E-02  0.3311E-01  0.3311E-01
    -17.633  0.3397E-02  0.3397E-02  0.3354E-01  0.3354E-01
    -17.508  0.1088E-01  0.1088E-01  0.3490E-01  0.3490E-01
    -17.383  0.1367E-01  0.1367E-01  0.3661E-01  0.3661E-01
    -17.257  0.1135E-01  0.1135E-01  0.3803E-01  0.3803E-01
    -17.132  0.9514E-02  0.9514E-02  0.3922E-01  0.3922E-01
    -17.007  0.2816E-02  0.2816E-02  0.3957E-01  0.3957E-01
    -16.882  0.8805E-02  0.8805E-02  0.4068E-01  0.4068E-01
    -16.757  0.7896E-02  0.7896E-02  0.4166E-01  0.4166E-01
    -16.632  0.7924E-02  0.7924E-02  0.4266E-01  0.4266E-01
    -16.507  0.3004E-02  0.3004E-02  0.4303E-01  0.4303E-01
    -16.381  0.9724E-02  0.9724E-02  0.4425E-01  0.4425E-01
    -16.256  0.1446E-01  0.1446E-01  0.4606E-01  0.4606E-01
    -16.131  0.6745E-02  0.6745E-02  0.4690E-01  0.4690E-01
    -16.006  0.3983E-02  0.3983E-02  0.4740E-01  0.4740E-01
    -15.881  0.2598E-02  0.2598E-02  0.4773E-01  0.4773E-01
    -15.756  0.4329E-03  0.4329E-03  0.4778E-01  0.4778E-01
    -15.631  0.3663E-02  0.3663E-02  0.4824E-01  0.4824E-01
    -15.505  0.2508E-02  0.2508E-02  0.4855E-01  0.4855E-01
    -15.380  0.7070E-02  0.7070E-02  0.4944E-01  0.4944E-01
    -15.255  0.9950E-02  0.9950E-02  0.5068E-01  0.5068E-01
    -15.130  0.5797E-02  0.5797E-02  0.5141E-01  0.5141E-01
    -15.005  0.1188E-01  0.1188E-01  0.5289E-01  0.5289E-01
    -14.880  0.9962E-02  0.9962E-02  0.5414E-01  0.5414E-01
    -14.755  0.6980E-02  0.6980E-02  0.5501E-01  0.5501E-01
    -14.629  0.5394E-02  0.5394E-02  0.5569E-01  0.5569E-01
    -14.504  0.1138E-01  0.1138E-01  0.5711E-01  0.5711E-01
    -14.379  0.8987E-02  0.8987E-02  0.5824E-01  0.5824E-01
    -14.254  0.1356E-01  0.1356E-01  0.5993E-01  0.5993E-01
    -14.129  0.1014E-01  0.1014E-01  0.6120E-01  0.6120E-01
    -14.004  0.4631E-02  0.4631E-02  0.6178E-01  0.6178E-01
    -13.879  0.7226E-02  0.7226E-02  0.6269E-01  0.6269E-01
    -13.754  0.4983E-02  0.4983E-02  0.6331E-01  0.6331E-01
    -13.628  0.8540E-02  0.8540E-02  0.6438E-01  0.6438E-01
    -13.503  0.7697E-02  0.7697E-02  0.6534E-01  0.6534E-01
    -13.378  0.6667E-02  0.6667E-02  0.6618E-01  0.6618E-01
    -13.253  0.1014E-01  0.1014E-01  0.6745E-01  0.6745E-01
    -13.128  0.4523E-02  0.4523E-02  0.6801E-01  0.6801E-01
    -13.003  0.6065E-02  0.6065E-02  0.6877E-01  0.6877E-01
    -12.878  0.9186E-02  0.9186E-02  0.6992E-01  0.6992E-01
    -12.752  0.6363E-02  0.6363E-02  0.7072E-01  0.7072E-01
    -12.627  0.8564E-02  0.8564E-02  0.7179E-01  0.7179E-01
    -12.502  0.1074E-01  0.1074E-01  0.7313E-01  0.7313E-01
    -12.377  0.1203E-01  0.1203E-01  0.7464E-01  0.7464E-01
    -12.252  0.1105E-01  0.1105E-01  0.7602E-01  0.7602E-01
    -12.127  0.8606E-02  0.8606E-02  0.7710E-01  0.7710E-01
    -12.002  0.9652E-02  0.9652E-02  0.7830E-01  0.7830E-01
    -11.876  0.4233E-02  0.4233E-02  0.7883E-01  0.7883E-01
    -11.751  0.1075E-01  0.1075E-01  0.8018E-01  0.8018E-01
    -11.626  0.6421E-02  0.6421E-02  0.8098E-01  0.8098E-01
    -11.501  0.1171E-01  0.1171E-01  0.8245E-01  0.8245E-01
    -11.376  0.1281E-01  0.1281E-01  0.8405E-01  0.8405E-01
    -11.251  0.1048E-01  0.1048E-01  0.8536E-01  0.8536E-01
    -11.126  0.1870E-01  0.1870E-01  0.8770E-01  0.8770E-01
    -11.000  0.1166E-01  0.1166E-01  0.8916E-01  0.8916E-01
    -10.875  0.1207E-01  0.1207E-01  0.9067E-01  0.9067E-01
    -10.750  0.6770E-02  0.6770E-02  0.9152E-01  0.9152E-01
    -10.625  0.1086E-01  0.1086E-01  0.9288E-01  0.9288E-01
    -10.500  0.6223E-02  0.6223E-02  0.9366E-01  0.9366E-01
    -10.375  0.1849E-01  0.1849E-01  0.9597E-01  0.9597E-01
    -10.250  0.9528E-02  0.9528E-02  0.9716E-01  0.9716E-01
    -10.125  0.1168E-01  0.1168E-01  0.9862E-01  0.9862E-01
     -9.999  0.1773E-01  0.1773E-01  0.1008E+00  0.1008E+00
     -9.874  0.1852E-01  0.1852E-01  0.1032E+00  0.1032E+00
     -9.749  0.1624E-01  0.1624E-01  0.1052E+00  0.1052E+00
     -9.624  0.2304E-01  0.2304E-01  0.1081E+00  0.1081E+00
     -9.499  0.1757E-01  0.1757E-01  0.1103E+00  0.1103E+00
     -9.374  0.1900E-01  0.1900E-01  0.1127E+00  0.1127E+00
     -9.249  0.1840E-01  0.1840E-01  0.1150E+00  0.1150E+00
     -9.123  0.1778E-01  0.1778E-01  0.1172E+00  0.1172E+00
     -8.998  0.2131E-01  0.2131E-01  0.1198E+00  0.1198E+00
     -8.873  0.2031E-01  0.2031E-01  0.1224E+00  0.1224E+00
     -8.748  0.2948E-01  0.2948E-01  0.1261E+00  0.1261E+00
     -8.623  0.2498E-01  0.2498E-01  0.1292E+00  0.1292E+00
     -8.498  0.1687E-01  0.1687E-01  0.1313E+00  0.1313E+00
     -8.373  0.2192E-01  0.2192E-01  0.1341E+00  0.1341E+00
     -8.247  0.1265E-01  0.1265E-01  0.1356E+00  0.1356E+00
     -8.122  0.2094E-01  0.2094E-01  0.1383E+00  0.1383E+00
     -7.997  0.2313E-01  0.2313E-01  0.1412E+00  0.1412E+00
     -7.872  0.1919E-01  0.1919E-01  0.1436E+00  0.1436E+00
     -7.747  0.1323E-01  0.1323E-01  0.1452E+00  0.1452E+00
     -7.622  0.1870E-01  0.1870E-01  0.1476E+00  0.1476E+00
     -7.497  0.1563E-01  0.1563E-01  0.1495E+00  0.1495E+00
     -7.371  0.1554E-01  0.1554E-01  0.1515E+00  0.1515E+00
     -7.246  0.1225E-01  0.1225E-01  0.1530E+00  0.1530E+00
     -7.121  0.1916E-01  0.1916E-01  0.1554E+00  0.1554E+00
     -6.996  0.1919E-01  0.1919E-01  0.1578E+00  0.1578E+00
     -6.871  0.1962E-01  0.1962E-01  0.1602E+00  0.1602E+00
     -6.746  0.1153E-01  0.1153E-01  0.1617E+00  0.1617E+00
     -6.621  0.1653E-01  0.1653E-01  0.1638E+00  0.1638E+00
     -6.496  0.7664E-02  0.7664E-02  0.1647E+00  0.1647E+00
     -6.370  0.7028E-02  0.7028E-02  0.1656E+00  0.1656E+00
     -6.245  0.1489E-01  0.1489E-01  0.1675E+00  0.1675E+00
     -6.120  0.1715E-01  0.1715E-01  0.1696E+00  0.1696E+00
     -5.995  0.2050E-01  0.2050E-01  0.1722E+00  0.1722E+00
     -5.870  0.7986E-02  0.7986E-02  0.1732E+00  0.1732E+00
     -5.745  0.1532E-01  0.1532E-01  0.1751E+00  0.1751E+00
     -5.620  0.1249E-01  0.1249E-01  0.1766E+00  0.1766E+00
     -5.494  0.1215E-01  0.1215E-01  0.1782E+00  0.1782E+00
     -5.369  0.1121E-01  0.1121E-01  0.1796E+00  0.1796E+00
     -5.244  0.9181E-02  0.9181E-02  0.1807E+00  0.1807E+00
     -5.119  0.2328E-02  0.2328E-02  0.1810E+00  0.1810E+00
     -4.994  0.1168E-01  0.1168E-01  0.1825E+00  0.1825E+00
     -4.869  0.1946E-01  0.1946E-01  0.1849E+00  0.1849E+00
     -4.744  0.1753E-01  0.1753E-01  0.1871E+00  0.1871E+00
     -4.618  0.3623E-02  0.3623E-02  0.1876E+00  0.1876E+00
     -4.493  0.8587E-02  0.8587E-02  0.1886E+00  0.1886E+00
     -4.368  0.5002E-02  0.5002E-02  0.1893E+00  0.1893E+00
     -4.243  0.2982E-02  0.2982E-02  0.1896E+00  0.1896E+00
     -4.118  0.7592E-02  0.7592E-02  0.1906E+00  0.1906E+00
     -3.993  0.7839E-02  0.7839E-02  0.1916E+00  0.1916E+00
     -3.868  0.5496E-02  0.5496E-02  0.1922E+00  0.1922E+00
     -3.743  0.7685E-02  0.7685E-02  0.1932E+00  0.1932E+00
     -3.617  0.6012E-02  0.6012E-02  0.1940E+00  0.1940E+00
     -3.492  0.3221E-03  0.3221E-03  0.1940E+00  0.1940E+00
     -3.367  0.1863E-04  0.1863E-04  0.1940E+00  0.1940E+00
     -3.242  0.2150E-02  0.2150E-02  0.1943E+00  0.1943E+00
     -3.117  0.6215E-02  0.6215E-02  0.1950E+00  0.1950E+00
     -2.992  0.1930E-02  0.1930E-02  0.1953E+00  0.1953E+00
     -2.867  0.1663E-02  0.1663E-02  0.1955E+00  0.1955E+00
     -2.741  0.1042E-04  0.1042E-04  0.1955E+00  0.1955E+00
     -2.616  0.2155E-03  0.2155E-03  0.1955E+00  0.1955E+00
     -2.491  0.3672E-02  0.3672E-02  0.1960E+00  0.1960E+00
     -2.366  0.1079E-03  0.1079E-03  0.1960E+00  0.1960E+00
     -2.241  0.1361E-04  0.1361E-04  0.1960E+00  0.1960E+00
     -2.116  0.3174E-02  0.3174E-02  0.1964E+00  0.1964E+00
     -1.991  0.8081E-03  0.8081E-03  0.1965E+00  0.1965E+00
     -1.865  0.2082E-05  0.2082E-05  0.1965E+00  0.1965E+00
     -1.740  0.1350E-02  0.1350E-02  0.1967E+00  0.1967E+00
     -1.615  0.1698E-02  0.1698E-02  0.1969E+00  0.1969E+00
     -1.490  0.6282E-02  0.6282E-02  0.1977E+00  0.1977E+00
     -1.365  0.2641E-02  0.2641E-02  0.1980E+00  0.1980E+00
     -1.240  0.1047E-03  0.1047E-03  0.1980E+00  0.1980E+00
     -1.115  0.4529E-02  0.4529E-02  0.1986E+00  0.1986E+00
     -0.989  0.5550E-02  0.5550E-02  0.1993E+00  0.1993E+00
     -0.864  0.8839E-02  0.8839E-02  0.2004E+00  0.2004E+00
     -0.739  0.1611E-01  0.1611E-01  0.2024E+00  0.2024E+00
     -0.614  0.4592E-02  0.4592E-02  0.2030E+00  0.2030E+00
     -0.489  0.7906E-02  0.7906E-02  0.2040E+00  0.2040E+00
     -0.364  0.1244E-01  0.1244E-01  0.2055E+00  0.2055E+00
     -0.239  0.5986E-02  0.5986E-02  0.2063E+00  0.2063E+00
     -0.114  0.5636E-02  0.5636E-02  0.2070E+00  0.2070E+00
      0.012  0.8223E-02  0.8223E-02  0.2080E+00  0.2080E+00
      0.137  0.7488E-02  0.7488E-02  0.2089E+00  0.2089E+00
      0.262  0.1353E-01  0.1353E-01  0.2106E+00  0.2106E+00
      0.387  0.8861E-02  0.8861E-02  0.2117E+00  0.2117E+00
      0.512  0.2094E-02  0.2094E-02  0.2120E+00  0.2120E+00
      0.637  0.2639E-02  0.2639E-02  0.2123E+00  0.2123E+00
      0.762  0.9446E-02  0.9446E-02  0.2135E+00  0.2135E+00
      0.888  0.1270E-01  0.1270E-01  0.2151E+00  0.2151E+00
      1.013  0.6294E-02  0.6294E-02  0.2159E+00  0.2159E+00
      1.138  0.9313E-02  0.9313E-02  0.2171E+00  0.2171E+00
      1.263  0.6689E-02  0.6689E-02  0.2179E+00  0.2179E+00
      1.388  0.8401E-02  0.8401E-02  0.2189E+00  0.2189E+00
      1.513  0.1180E-01  0.1180E-01  0.2204E+00  0.2204E+00
      1.638  0.2007E-01  0.2007E-01  0.2229E+00  0.2229E+00
      1.764  0.1314E-01  0.1314E-01  0.2246E+00  0.2246E+00
      1.889  0.1050E-01  0.1050E-01  0.2259E+00  0.2259E+00
      2.014  0.1516E-01  0.1516E-01  0.2278E+00  0.2278E+00
      2.139  0.1947E-01  0.1947E-01  0.2302E+00  0.2302E+00
      2.264  0.1631E-01  0.1631E-01  0.2323E+00  0.2323E+00
      2.389  0.1979E-01  0.1979E-01  0.2347E+00  0.2347E+00
      2.514  0.2337E-01  0.2337E-01  0.2377E+00  0.2377E+00
      2.640  0.8689E-02  0.8689E-02  0.2388E+00  0.2388E+00
      2.765  0.1792E-01  0.1792E-01  0.2410E+00  0.2410E+00
      2.890  0.2411E-01  0.2411E-01  0.2440E+00  0.2440E+00
      3.015  0.3838E-01  0.3838E-01  0.2488E+00  0.2488E+00
      3.140  0.2333E-01  0.2333E-01  0.2517E+00  0.2517E+00
      3.265  0.2366E-01  0.2366E-01  0.2547E+00  0.2547E+00
      3.390  0.1814E-01  0.1814E-01  0.2570E+00  0.2570E+00
      3.515  0.1956E-01  0.1956E-01  0.2594E+00  0.2594E+00
      3.641  0.2225E-01  0.2225E-01  0.2622E+00  0.2622E+00
      3.766  0.1423E-01  0.1423E-01  0.2640E+00  0.2640E+00
      3.891  0.2918E-01  0.2918E-01  0.2676E+00  0.2676E+00
      4.016  0.2208E-01  0.2208E-01  0.2704E+00  0.2704E+00
      4.141  0.1943E-01  0.1943E-01  0.2728E+00  0.2728E+00
      4.266  0.1678E-01  0.1678E-01  0.2749E+00  0.2749E+00
      4.391  0.3090E-01  0.3090E-01  0.2788E+00  0.2788E+00
      4.517  0.9631E-02  0.9630E-02  0.2800E+00  0.2800E+00
      4.642  0.4010E-04  0.4009E-04  0.2800E+00  0.2800E+00
      4.767  0.8338E-11  0.8335E-11  0.2800E+00  0.2800E+00
      4.892  0.0000E+00  0.0000E+00  0.2800E+00  0.2800E+00
      5.017  0.0000E+00  0.0000E+00  0.2800E+00  0.2800E+00
      5.142  0.0000E+00  0.0000E+00  0.2800E+00  0.2800E+00
      5.267  0.0000E+00  0.0000E+00  0.2800E+00  0.2800E+00
      5.393  0.0000E+00  0.0000E+00  0.2800E+00  0.2800E+00
      5.518  0.0000E+00  0.0000E+00  0.2800E+00  0.2800E+00
      5.643  0.0000E+00  0.0000E+00  0.2800E+00  0.2800E+00
      5.768  0.0000E+00  0.0000E+00  0.2800E+00  0.2800E+00
      5.893  0.0000E+00  0.0000E+00  0.2800E+00  0.2800E+00
      6.018  0.0000E+00  0.0000E+00  0.2800E+00  0.2800E+00
      6.143  0.0000E+00  0.0000E+00  0.2800E+00  0.2800E+00
