<?xml version="1.0" encoding="ISO-8859-1"?>
<modeling>
 <generator>
  <i name="program" type="string">vasp </i>
  <i name="version" type="string">6.4.2  </i>
  <i name="subversion" type="string">20Jul23 (build Aug 26 2025 15:10:52) complex                          parallel </i>
  <i name="platform" type="string">LinuxIFC </i>
  <i name="date" type="string">2025 12 07 </i>
  <i name="time" type="string">12:31:28 </i>
 </generator>
 <incar>
  <i type="int" name="ISTART">     0</i>
  <i type="string" name="ALGO">Normal</i>
  <i type="logical" name="ADDGRID"> T  </i>
  <i type="int" name="ISPIN">     2</i>
  <i type="int" name="IMIX">     4</i>
  <i name="AMIX">      0.20000000</i>
  <i name="BMIX">      0.00010000</i>
  <i name="AMIX_MAG">      0.80000000</i>
  <i name="BMIX_MAG">      0.00010000</i>
  <i type="int" name="ICHARG">     2</i>
  <i type="int" name="NELM">   200</i>
  <i type="int" name="IBRION">     3</i>
  <i name="EDIFF">      0.00000100</i>
  <i name="EDIFFG">     -0.03000000</i>
  <i type="int" name="NSW">  1000</i>
  <i type="int" name="ISIF">     2</i>
  <i type="int" name="ISYM">     0</i>
  <i name="ENCUT">    520.00000000</i>
  <i name="POTIM">      0.00000000</i>
  <v name="MAGMOM">      0.60000000      0.60000000      0.60000000      0.60000000      0.60000000      0.60000000      0.60000000      0.60000000      0.60000000      0.60000000      0.60000000      0.60000000      0.60000000      0.60000000      0.60000000      0.60000000      0.60000000      0.60000000      0.60000000      0.60000000
      0.60000000      0.60000000      0.60000000      0.60000000      0.60000000      0.60000000      0.60000000      0.60000000      0.60000000      0.60000000      0.60000000      0.60000000      0.60000000      0.60000000      0.60000000      0.60000000      0.60000000      0.60000000      0.60000000      0.60000000
      0.60000000      0.60000000      0.60000000      0.60000000      0.60000000      0.60000000      0.60000000      0.60000000      0.60000000      0.60000000      0.60000000      0.60000000      0.60000000      0.60000000      0.60000000      0.60000000      0.60000000      0.60000000      0.60000000      0.60000000
      0.60000000      0.60000000      0.60000000      0.60000000      0.60000000      0.60000000      0.60000000      0.60000000      0.60000000      0.60000000      0.60000000      0.60000000      0.60000000      0.60000000      0.60000000      0.60000000      0.60000000      0.60000000      0.60000000      0.60000000
      0.60000000      0.60000000      0.60000000      0.60000000      0.60000000      0.60000000      0.60000000      0.60000000      0.60000000      0.60000000      0.60000000      0.60000000      0.60000000      0.60000000      0.60000000      0.60000000      0.60000000      0.60000000      0.60000000</v>
  <i type="string" name="LREAL">Auto</i>
  <i type="int" name="ISMEAR">     0</i>
  <i name="SIGMA">      0.05000000</i>
  <i type="logical" name="LWAVE"> F  </i>
  <i type="logical" name="LCHARG"> F  </i>
  <i type="logical" name="LASPH"> T  </i>
  <i type="int" name="IVDW">    12</i>
  <i name="SPRING">     -5.00000000</i>
 </incar>
 <primitive_cell>
  <structure name="primitive_cell" >
   <crystal>
    <varray name="basis" >
     <v>      17.27103806       0.00000000       0.00000000 </v>
     <v>      -8.63551903      14.95715771       0.00000000 </v>
     <v>       0.00000000       0.00000000      15.00000000 </v>
    </varray>
    <i name="volume">   3874.88459904 </i>
    <varray name="rec_basis" >
     <v>       0.05790040       0.03342881       0.00000000 </v>
     <v>       0.00000000       0.06685762       0.00000000 </v>
     <v>       0.00000000       0.00000000       0.06666667 </v>
    </varray>
   </crystal>
   <varray name="positions" >
    <v>       0.00182166       0.00144334       0.49960712 </v>
    <v>       0.00130215       0.14393902       0.49681522 </v>
    <v>       0.00099357       0.28654595       0.49567120 </v>
    <v>       0.00119235       0.42944150       0.49733703 </v>
    <v>       0.00157717       0.57245815       0.49965331 </v>
    <v>       0.00242828       0.71569653       0.50106034 </v>
    <v>       0.00261586       0.85904827       0.50097581 </v>
    <v>       0.14469586       0.00151297       0.49354467 </v>
    <v>       0.14411663       0.14404466       0.48636868 </v>
    <v>       0.14286636       0.28593044       0.47935085 </v>
    <v>       0.14291550       0.42905515       0.48102954 </v>
    <v>       0.14411482       0.57210165       0.48955611 </v>
    <v>       0.14458906       0.71517959       0.49549761 </v>
    <v>       0.14471304       0.85839317       0.49744791 </v>
    <v>       0.28690893       0.00075749       0.49179170 </v>
    <v>       0.28677521       0.14342502       0.47960549 </v>
    <v>       0.28528554       0.28570589       0.45865638 </v>
    <v>       0.28115779       0.42686883       0.44615769 </v>
    <v>       0.28583765       0.57182496       0.46496915 </v>
    <v>       0.28691232       0.71526260       0.48564373 </v>
    <v>       0.28691134       0.85810085       0.49417972 </v>
    <v>       0.42977119       0.00083241       0.49476276 </v>
    <v>       0.42944217       0.14297818       0.48771592 </v>
    <v>       0.42830120       0.28242018       0.47127829 </v>
    <v>       0.42841378       0.71727817       0.48364690 </v>
    <v>       0.42950600       0.85826520       0.49426829 </v>
    <v>       0.57251193       0.00124532       0.49915440 </v>
    <v>       0.57249151       0.14306122       0.49623338 </v>
    <v>       0.57302511       0.28539564       0.49121487 </v>
    <v>       0.57307449       0.85923149       0.50100142 </v>
    <v>       0.71557550       0.00129992       0.50300151 </v>
    <v>       0.71563474       0.14386241       0.50251517 </v>
    <v>       0.71550777       0.28636448       0.49970056 </v>
    <v>       0.71438328       0.42798426       0.49536824 </v>
    <v>       0.72216411       0.57609318       0.48356651 </v>
    <v>       0.72250248       0.71948150       0.48152384 </v>
    <v>       0.71469429       0.85881576       0.50074674 </v>
    <v>       0.85872077       0.00144370       0.50220178 </v>
    <v>       0.85841141       0.14395918       0.50279528 </v>
    <v>       0.85836475       0.28656135       0.50231053 </v>
    <v>       0.85851908       0.42939009       0.50066966 </v>
    <v>       0.85910271       0.57285097       0.49896654 </v>
    <v>       0.86111100       0.71680595       0.49763969 </v>
    <v>       0.85945531       0.85873694       0.50141862 </v>
    <v>       0.04926429       0.09664995       0.49500886 </v>
    <v>       0.04830578       0.23875832       0.49164343 </v>
    <v>       0.04825173       0.38162957       0.49237162 </v>
    <v>       0.04911110       0.52469132       0.49621280 </v>
    <v>       0.04945538       0.66775870       0.49929761 </v>
    <v>       0.04967918       0.81090954       0.50017349 </v>
    <v>       0.04966039       0.95398265       0.49870379 </v>
    <v>       0.19178582       0.09616093       0.48591436 </v>
    <v>       0.19077997       0.23869684       0.47579129 </v>
    <v>       0.18874400       0.38048004       0.47035127 </v>
    <v>       0.19092274       0.52417773       0.47952452 </v>
    <v>       0.19180340       0.66762181       0.48962999 </v>
    <v>       0.19202796       0.81058170       0.49573311 </v>
    <v>       0.19206499       0.95348763       0.49426930 </v>
    <v>       0.33439639       0.09598626       0.48623721 </v>
    <v>       0.33504403       0.23828151       0.46771990 </v>
    <v>       0.32367958       0.37563577       0.43511114 </v>
    <v>       0.32465267       0.52108705       0.43984968 </v>
    <v>       0.33540441       0.66862939       0.47647161 </v>
    <v>       0.33447259       0.81030139       0.49155675 </v>
    <v>       0.33441092       0.95317651       0.49397342 </v>
    <v>       0.47731472       0.09569405       0.49336832 </v>
    <v>       0.47641338       0.23773799       0.48381346 </v>
    <v>       0.47642155       0.81028035       0.49430748 </v>
    <v>       0.47734205       0.95350674       0.49672055 </v>
    <v>       0.62017756       0.09602637       0.49975786 </v>
    <v>       0.62033973       0.23806842       0.49584982 </v>
    <v>       0.62121083       0.37830774       0.49340241 </v>
    <v>       0.62154936       0.81469242       0.50463516 </v>
    <v>       0.62035967       0.95406426       0.50108025 </v>
    <v>       0.76335154       0.09658133       0.50363559 </v>
    <v>       0.76331068       0.23888130       0.50239992 </v>
    <v>       0.76324571       0.38151761       0.49890844 </v>
    <v>       0.76318996       0.52500015       0.49333645 </v>
    <v>       0.76649505       0.66975158       0.48697584 </v>
    <v>       0.76366319       0.81097471       0.49592812 </v>
    <v>       0.76343293       0.95407027       0.50204730 </v>
    <v>       0.90611292       0.09629525       0.50148950 </v>
    <v>       0.90594302       0.23902553       0.50137718 </v>
    <v>       0.90596310       0.38191556       0.50098663 </v>
    <v>       0.90631204       0.52493969       0.50068434 </v>
    <v>       0.90721660       0.66804720       0.50007342 </v>
    <v>       0.90747480       0.81160496       0.50075828 </v>
    <v>       0.90662324       0.95380354       0.50240847 </v>
    <v>       0.46467780       0.35439760       0.46488245 </v>
    <v>       0.58360627       0.41248614       0.49334023 </v>
    <v>       0.58466667       0.74287642       0.51000937 </v>
    <v>       0.46469498       0.68134233       0.48097238 </v>
    <v>       0.50735878       0.53975540       0.51763965 </v>
    <v>       0.49997387       0.50425340       0.61298397 </v>
    <v>       0.40788253       0.41809691       0.40076473 </v>
    <v>       0.41016709       0.56407573       0.40882034 </v>
    <v>       0.63409130       0.67350544       0.45911255 </v>
    <v>       0.63174161       0.53455159       0.47110320 </v>
    <v>       0.46866005       0.52049115       0.56977595 </v>
   </varray>
  </structure>
  <varray name="primitive_index" >
   <v type="int" >        1 </v>
   <v type="int" >        2 </v>
   <v type="int" >        3 </v>
   <v type="int" >        4 </v>
   <v type="int" >        5 </v>
   <v type="int" >        6 </v>
   <v type="int" >        7 </v>
   <v type="int" >        8 </v>
   <v type="int" >        9 </v>
   <v type="int" >       10 </v>
   <v type="int" >       11 </v>
   <v type="int" >       12 </v>
   <v type="int" >       13 </v>
   <v type="int" >       14 </v>
   <v type="int" >       15 </v>
   <v type="int" >       16 </v>
   <v type="int" >       17 </v>
   <v type="int" >       18 </v>
   <v type="int" >       19 </v>
   <v type="int" >       20 </v>
   <v type="int" >       21 </v>
   <v type="int" >       22 </v>
   <v type="int" >       23 </v>
   <v type="int" >       24 </v>
   <v type="int" >       25 </v>
   <v type="int" >       26 </v>
   <v type="int" >       27 </v>
   <v type="int" >       28 </v>
   <v type="int" >       29 </v>
   <v type="int" >       30 </v>
   <v type="int" >       31 </v>
   <v type="int" >       32 </v>
   <v type="int" >       33 </v>
   <v type="int" >       34 </v>
   <v type="int" >       35 </v>
   <v type="int" >       36 </v>
   <v type="int" >       37 </v>
   <v type="int" >       38 </v>
   <v type="int" >       39 </v>
   <v type="int" >       40 </v>
   <v type="int" >       41 </v>
   <v type="int" >       42 </v>
   <v type="int" >       43 </v>
   <v type="int" >       44 </v>
   <v type="int" >       45 </v>
   <v type="int" >       46 </v>
   <v type="int" >       47 </v>
   <v type="int" >       48 </v>
   <v type="int" >       49 </v>
   <v type="int" >       50 </v>
   <v type="int" >       51 </v>
   <v type="int" >       52 </v>
   <v type="int" >       53 </v>
   <v type="int" >       54 </v>
   <v type="int" >       55 </v>
   <v type="int" >       56 </v>
   <v type="int" >       57 </v>
   <v type="int" >       58 </v>
   <v type="int" >       59 </v>
   <v type="int" >       60 </v>
   <v type="int" >       61 </v>
   <v type="int" >       62 </v>
   <v type="int" >       63 </v>
   <v type="int" >       64 </v>
   <v type="int" >       65 </v>
   <v type="int" >       66 </v>
   <v type="int" >       67 </v>
   <v type="int" >       68 </v>
   <v type="int" >       69 </v>
   <v type="int" >       70 </v>
   <v type="int" >       71 </v>
   <v type="int" >       72 </v>
   <v type="int" >       73 </v>
   <v type="int" >       74 </v>
   <v type="int" >       75 </v>
   <v type="int" >       76 </v>
   <v type="int" >       77 </v>
   <v type="int" >       78 </v>
   <v type="int" >       79 </v>
   <v type="int" >       80 </v>
   <v type="int" >       81 </v>
   <v type="int" >       82 </v>
   <v type="int" >       83 </v>
   <v type="int" >       84 </v>
   <v type="int" >       85 </v>
   <v type="int" >       86 </v>
   <v type="int" >       87 </v>
   <v type="int" >       88 </v>
   <v type="int" >       89 </v>
   <v type="int" >       90 </v>
   <v type="int" >       91 </v>
   <v type="int" >       92 </v>
   <v type="int" >       93 </v>
   <v type="int" >       94 </v>
   <v type="int" >       95 </v>
   <v type="int" >       96 </v>
   <v type="int" >       97 </v>
   <v type="int" >       98 </v>
   <v type="int" >       99 </v>
  </varray>
 </primitive_cell>
 <kpoints>
  <generation param="Gamma">
   <v type="int" name="divisions">       2        2        1 </v>
   <v name="usershift">      0.00000000       0.00000000       0.00000000 </v>
   <v name="genvec1">      0.50000000       0.00000000       0.00000000 </v>
   <v name="genvec2">      0.00000000       0.50000000       0.00000000 </v>
   <v name="genvec3">      0.00000000       0.00000000       1.00000000 </v>
   <v name="shift">      0.00000000       0.00000000       0.00000000 </v>
  </generation>
  <varray name="kpointlist" >
   <v>       0.00000000       0.00000000       0.00000000 </v>
   <v>       0.50000000       0.00000000       0.00000000 </v>
   <v>       0.00000000       0.50000000       0.00000000 </v>
   <v>       0.50000000       0.50000000       0.00000000 </v>
  </varray>
  <varray name="weights" >
   <v>       0.25000000 </v>
   <v>       0.25000000 </v>
   <v>       0.25000000 </v>
   <v>       0.25000000 </v>
  </varray>
 </kpoints>
 <parameters>
  <separator name="general" >
   <i type="string" name="SYSTEM">unknown system</i>
   <i type="logical" name="LCOMPAT"> F  </i>
  </separator>
  <separator name="electronic" >
   <i type="string" name="PREC">normal</i>
   <i name="ENMAX">    520.00000000</i>
   <i name="ENAUG">    644.87300000</i>
   <i name="EDIFF">      0.00000100</i>
   <i type="int" name="IALGO">    38</i>
   <i type="int" name="IWAVPR">    11</i>
   <i type="int" name="NBANDS">   280</i>
   <i type="int" name="NBANDSLOW">    -1</i>
   <i type="int" name="NBANDSHIGH">    -1</i>
   <i name="NELECT">    392.00000000</i>
   <i type="int" name="TURBO">     0</i>
   <i type="int" name="IRESTART">     0</i>
   <i type="int" name="NREBOOT">     0</i>
   <i type="int" name="NMIN">     0</i>
   <i name="EREF">      0.00000000</i>
   <separator name="electronic smearing" >
    <i type="int" name="ISMEAR">     0</i>
    <i name="SIGMA">      0.05000000</i>
    <i name="KSPACING">      0.50000000</i>
    <i type="logical" name="KGAMMA"> T  </i>
    <i type="logical" name="KBLOWUP"> T  </i>
   </separator>
   <separator name="electronic projectors" >
    <i type="logical" name="LREAL"> T  </i>
    <v name="ROPT">     -0.00050000     -0.00050000     -0.00050000     -0.00050000</v>
    <i type="int" name="LMAXPAW">  -100</i>
    <i type="int" name="LMAXMIX">     2</i>
    <i type="logical" name="NLSPLINE"> F  </i>
   </separator>
   <separator name="electronic startup" >
    <i type="int" name="ISTART">     0</i>
    <i type="int" name="ICHARG">     2</i>
    <i type="int" name="INIWAV">     1</i>
   </separator>
   <separator name="electronic spin" >
    <i type="int" name="ISPIN">     2</i>
    <i type="logical" name="LNONCOLLINEAR"> F  </i>
    <v name="MAGMOM">      0.60000000      0.60000000      0.60000000      0.60000000      0.60000000      0.60000000      0.60000000      0.60000000      0.60000000      0.60000000      0.60000000      0.60000000      0.60000000      0.60000000      0.60000000      0.60000000      0.60000000      0.60000000      0.60000000      0.60000000
      0.60000000      0.60000000      0.60000000      0.60000000      0.60000000      0.60000000      0.60000000      0.60000000      0.60000000      0.60000000      0.60000000      0.60000000      0.60000000      0.60000000      0.60000000      0.60000000      0.60000000      0.60000000      0.60000000      0.60000000
      0.60000000      0.60000000      0.60000000      0.60000000      0.60000000      0.60000000      0.60000000      0.60000000      0.60000000      0.60000000      0.60000000      0.60000000      0.60000000      0.60000000      0.60000000      0.60000000      0.60000000      0.60000000      0.60000000      0.60000000
      0.60000000      0.60000000      0.60000000      0.60000000      0.60000000      0.60000000      0.60000000      0.60000000      0.60000000      0.60000000      0.60000000      0.60000000      0.60000000      0.60000000      0.60000000      0.60000000      0.60000000      0.60000000      0.60000000      0.60000000
      0.60000000      0.60000000      0.60000000      0.60000000      0.60000000      0.60000000      0.60000000      0.60000000      0.60000000      0.60000000      0.60000000      0.60000000      0.60000000      0.60000000      0.60000000      0.60000000      0.60000000      0.60000000      0.60000000</v>
    <i name="NUPDOWN">     -1.00000000</i>
    <i type="logical" name="LSORBIT"> F  </i>
    <v name="SAXIS">      0.00000000      0.00000000      1.00000000</v>
    <i type="logical" name="LSPIRAL"> F  </i>
    <v name="QSPIRAL">      0.00000000      0.00000000      0.00000000</v>
    <i type="logical" name="LZEROZ"> F  </i>
   </separator>
   <separator name="electronic exchange-correlation" >
    <i type="logical" name="LASPH"> T  </i>
    <i type="logical" name="LMETAGGA"> F  </i>
   </separator>
   <separator name="electronic convergence" >
    <i type="int" name="NELM">   200</i>
    <i type="int" name="NELMDL">    -5</i>
    <i type="int" name="NELMIN">     2</i>
    <i name="ENINI">    520.00000000</i>
    <separator name="electronic convergence detail" >
     <i type="logical" name="LDIAG"> T  </i>
     <i type="logical" name="LSUBROT"> F  </i>
     <i name="WEIMIN">      0.00100000</i>
     <i name="EBREAK">      0.00000000</i>
     <i name="DEPER">      0.30000000</i>
     <i type="int" name="NRMM">     4</i>
     <i name="TIME">      0.40000000</i>
    </separator>
   </separator>
   <separator name="electronic mixer" >
    <i name="AMIX">      0.20000000</i>
    <i name="BMIX">      0.00010000</i>
    <i name="AMIN">      0.10000000</i>
    <i name="AMIX_MAG">      0.80000000</i>
    <i name="BMIX_MAG">      0.00010000</i>
    <separator name="electronic mixer details" >
     <i type="int" name="IMIX">     4</i>
     <i type="logical" name="MIXFIRST"> F  </i>
     <i type="int" name="MAXMIX">   -45</i>
     <i name="WC">    100.00000000</i>
     <i type="int" name="INIMIX">     1</i>
     <i type="int" name="MIXPRE">     1</i>
     <i type="int" name="MREMOVE">     5</i>
    </separator>
   </separator>
   <separator name="electronic dipolcorrection" >
    <i type="logical" name="LDIPOL"> F  </i>
    <i type="logical" name="LMONO"> F  </i>
    <i type="int" name="IDIPOL">     0</i>
    <i name="EPSILON">      1.00000000</i>
    <v name="DIPOL">   -100.00000000   -100.00000000   -100.00000000</v>
    <i name="EFIELD">      0.00000000</i>
   </separator>
  </separator>
  <separator name="grids" >
   <i type="int" name="NGX">    96</i>
   <i type="int" name="NGY">    96</i>
   <i type="int" name="NGZ">    84</i>
   <i type="int" name="NGXF">   192</i>
   <i type="int" name="NGYF">   192</i>
   <i type="int" name="NGZF">   168</i>
   <i type="logical" name="ADDGRID"> T  </i>
  </separator>
  <separator name="ionic" >
   <i type="int" name="NSW">  1000</i>
   <i type="int" name="IBRION">     3</i>
   <i type="int" name="MDALGO">     0</i>
   <i type="int" name="ISIF">     2</i>
   <i name="PSTRESS">      0.00000000</i>
   <i name="EDIFFG">     -0.03000000</i>
   <i type="int" name="NFREE">     0</i>
   <i name="POTIM">      0.00000000</i>
   <i name="SMASS">     -3.00000000</i>
   <i name="SCALEE">      1.00000000</i>
  </separator>
  <separator name="ionic md" >
   <i name="TEBEG">      0.00010000</i>
   <i name="TEEND">      0.00010000</i>
   <i type="int" name="NBLOCK">     1</i>
   <i type="int" name="KBLOCK">  1000</i>
   <i type="int" name="NPACO">   256</i>
   <i name="APACO">     10.00000000</i>
  </separator>
  <separator name="symmetry" >
   <i type="int" name="ISYM">     0</i>
   <i name="SYMPREC">      0.00001000</i>
  </separator>
  <separator name="dos" >
   <i type="int" name="LORBIT">     0</i>
   <v name="RWIGS">     -1.00000000     -1.00000000     -1.00000000     -1.00000000</v>
   <i type="int" name="NEDOS">   301</i>
   <i name="EMIN">     10.00000000</i>
   <i name="EMAX">    -10.00000000</i>
   <i name="EFERMI">      0.00000000</i>
  </separator>
  <separator name="writing" >
   <i type="int" name="NWRITE">     2</i>
   <i type="logical" name="LWAVE"> F  </i>
   <i type="logical" name="LDOWNSAMPLE"> F  </i>
   <i type="logical" name="LCHARG"> F  </i>
   <i type="logical" name="LPARD"> F  </i>
   <i type="logical" name="LVTOT"> F  </i>
   <i type="logical" name="LVHAR"> F  </i>
   <i type="logical" name="LELF"> F  </i>
   <i type="logical" name="LOPTICS"> F  </i>
   <v name="STM">      0.00000000      0.00000000      0.00000000      0.00000000      0.00000000      0.00000000      0.00000000</v>
  </separator>
  <separator name="performance" >
   <i type="int" name="NPAR">     5</i>
   <i type="int" name="NSIM">     4</i>
   <i type="int" name="NBLK">    -1</i>
   <i type="logical" name="LPLANE"> T  </i>
   <i type="logical" name="LSCALAPACK"> T  </i>
   <i type="logical" name="LSCAAWARE"> F  </i>
   <i type="logical" name="LSCALU"> F  </i>
   <i type="logical" name="LASYNC"> F  </i>
   <i type="logical" name="LORBITALREAL"> F  </i>
  </separator>
  <separator name="miscellaneous" >
   <i type="int" name="IDIOT">     3</i>
   <i type="int" name="PHON_NSTRUCT">    -1</i>
   <i type="logical" name="LMUSIC"> F  </i>
   <v name="POMASS">     12.01100000      1.00000000     18.99800000     16.00000000</v>
   <v name="DARWINR">      0.00000000      0.00000000      0.00000000      0.00000000</v>
   <v name="DARWINV">      1.00000000      1.00000000      1.00000000      1.00000000</v>
   <i type="logical" name="LCORR"> T  </i>
  </separator>
  <i type="logical" name="GGA_COMPAT"> T  </i>
  <i type="logical" name="LBERRY"> F  </i>
  <i type="int" name="ICORELEVEL">     0</i>
  <i type="logical" name="LDAU"> F  </i>
  <i type="int" name="I_CONSTRAINED_M">     0</i>
  <separator name="electronic exchange-correlation" >
   <i type="string" name="GGA">--</i>
   <i type="int" name="VOSKOWN">     0</i>
   <i type="logical" name="LHFCALC"> F  </i>
   <i type="string" name="PRECFOCK"></i>
   <i type="logical" name="LSYMGRAD"> F  </i>
   <i type="logical" name="LHFONE"> F  </i>
   <i type="logical" name="LRHFCALC"> F  </i>
   <i type="logical" name="LTHOMAS"> F  </i>
   <i type="logical" name="LMODELHF"> F  </i>
   <i type="logical" name="LFOCKACE"> F  </i>
   <i name="ENCUT4O">     -1.00000000</i>
   <i type="int" name="EXXOEP">     0</i>
   <i type="int" name="FOURORBIT">     0</i>
   <i name="AEXX">      0.00000000</i>
   <i name="HFALPHA">      0.00000000</i>
   <i name="MCALPHA">      0.00000000</i>
   <i name="ALDAX">      1.00000000</i>
   <i name="AGGAX">      1.00000000</i>
   <i name="ALDAC">      1.00000000</i>
   <i name="AGGAC">      1.00000000</i>
   <i type="int" name="NKREDX">     1</i>
   <i type="int" name="NKREDY">     1</i>
   <i type="int" name="NKREDZ">     1</i>
   <i type="logical" name="SHIFTRED"> F  </i>
   <i type="logical" name="ODDONLY"> F  </i>
   <i type="logical" name="EVENONLY"> F  </i>
   <i type="int" name="LMAXFOCK">     0</i>
   <i type="int" name="NMAXFOCKAE">     0</i>
   <i type="logical" name="LFOCKAEDFT"> F  </i>
   <i name="HFSCREEN">      0.00000000</i>
   <i name="HFSCREENC">      0.00000000</i>
   <i type="int" name="NBANDSGWLOW">     0</i>
  </separator>
  <separator name="vdW DFT" >
   <i type="logical" name="LUSE_VDW"> F  </i>
   <i type="int" name="IVDW_NL">     1</i>
   <i type="logical" name="LSPIN_VDW"> F  </i>
   <i name="Zab_VDW">     -0.84910000</i>
   <i name="PARAM1">      0.12340000</i>
   <i name="PARAM2">      1.00000000</i>
   <i name="PARAM3">      0.00000000</i>
  </separator>
  <separator name="model GW" >
   <i type="int" name="MODEL_GW">     0</i>
   <i name="MODEL_EPS0">     23.48414909</i>
   <i name="MODEL_ALPHA">      1.00000000</i>
  </separator>
  <separator name="linear response parameters" >
   <i type="logical" name="LEPSILON"> F  </i>
   <i type="logical" name="LRPA"> F  </i>
   <i type="logical" name="LNABLA"> F  </i>
   <i type="logical" name="LVEL"> F  </i>
   <i name="CSHIFT">      0.10000000</i>
   <i name="OMEGAMAX">     -1.00000000</i>
   <i name="DEG_THRESHOLD">      0.00200000</i>
   <i name="RTIME">     -0.10000000</i>
   <i name="WPLASMAI">      0.00000000</i>
   <v name="DFIELD">      0.00000000      0.00000000      0.00000000</v>
   <v name="WPLASMA">      0.00000000      0.00000000      0.00000000      0.00000000      0.00000000      0.00000000      0.00000000      0.00000000      0.00000000</v>
  </separator>
  <separator name="orbital magnetization" >
   <i type="logical" name="NUCIND"> F  </i>
   <v name="MAGPOS">      0.00000000      0.00000000      0.00000000</v>
   <i type="logical" name="LNICSALL"> T  </i>
   <i type="logical" name="ORBITALMAG"> F  </i>
   <i type="logical" name="LMAGBLOCH"> F  </i>
   <i type="logical" name="LCHIMAG"> F  </i>
   <i type="logical" name="LGAUGE"> T  </i>
   <i type="int" name="MAGATOM">     0</i>
   <v name="MAGDIPOL">      0.00000000      0.00000000      0.00000000</v>
   <v name="AVECCONST">      0.00000000      0.00000000      0.00000000</v>
  </separator>
  <separator name="response functions" >
   <i type="logical" name="LALL_IN_ONE"> F  </i>
   <i type="int" name="IALL_IN_ONE">    -1</i>
   <i type="int" name="NBANDS_WAVE">    -1</i>
   <i type="logical" name="LFINITE_TEMPERATURE"> F  </i>
   <i type="logical" name="LADDER"> F  </i>
   <i type="logical" name="LRPAFORCE"> F  </i>
   <i type="logical" name="LFXC"> F  </i>
   <i type="logical" name="LHARTREE"> T  </i>
   <i type="int" name="IBSE">     0</i>
   <v type="int" name="KPOINT">    -1     0     0     0</v>
   <i type="logical" name="LTCTC"> F  </i>
   <i type="logical" name="LTCTE"> F  </i>
   <i type="logical" name="LTETE"> F  </i>
   <i type="logical" name="LTRIPLET"> F  </i>
   <i type="logical" name="LFXCEPS"> F  </i>
   <i type="logical" name="LFXHEG"> F  </i>
   <i type="int" name="NATURALO">     2</i>
   <i type="logical" name="LHOLEGF"> F  </i>
   <i type="logical" name="L2ORDER"> F  </i>
   <i type="logical" name="LDMP1"> F  </i>
   <i type="logical" name="LMP2LT"> F  </i>
   <i type="logical" name="LSMP2LT"> F  </i>
   <i type="logical" name="LGWLF"> F  </i>
   <i name="ENCUTGW">     -1.60000002</i>
   <i name="ENCUTGWSOFT">     -1.60000002</i>
   <i name="ENCUTLF">     -1.00000000</i>
   <i type="logical" name="LESF_SPLINES"> F  </i>
   <i type="int" name="LMAXMP2">    -1</i>
   <i name="SCISSOR">      0.00000000</i>
   <i type="int" name="NOMEGA">     0</i>
   <i type="int" name="NOMEGAR">     0</i>
   <i type="int" name="NBANDSGW">    -1</i>
   <i type="int" name="NBANDSO">    -1</i>
   <i type="int" name="NBANDSV">    -1</i>
   <i type="int" name="NELMGW">     1</i>
   <i type="int" name="NELMHF">     1</i>
   <i type="int" name="DIM">     3</i>
   <i type="int" name="IESPILON">     4</i>
   <i type="int" name="ANTIRES">     0</i>
   <i name="OMEGAMAX">    -30.00000000</i>
   <i name="OMEGAMIN">    -30.00000000</i>
   <i name="OMEGATL">   -200.00000000</i>
   <i type="int" name="OMEGAGRID">     0</i>
   <i name="CSHIFT">     -0.10000000</i>
   <i type="logical" name="LSELFENERGY"> F  </i>
   <i type="logical" name="LSPECTRAL"> F  </i>
   <i type="logical" name="LSPECTRALGW"> F  </i>
   <i type="logical" name="LSINGLES"> F  </i>
   <i type="logical" name="LFERMIGW"> F  </i>
   <i type="logical" name="ODDONLYGW"> F  </i>
   <i type="logical" name="EVENONLYGW"> F  </i>
   <i type="int" name="NKREDLFX">     1</i>
   <i type="int" name="NKREDLFY">     1</i>
   <i type="int" name="NKREDLFZ">     1</i>
   <i type="int" name="MAXMEM">  2800</i>
   <i type="int" name="TELESCOPE">     0</i>
   <i type="int" name="NTAUPAR">    -1</i>
   <i type="int" name="NOMEGAPAR">    -1</i>
   <i name="DAMP_NEWTON">      0.80000001</i>
   <i name="LAMBDA">      1.00000000</i>
  </separator>
  <separator name="External order field" >
   <i name="OFIELD_KAPPA">      0.00000000</i>
   <v name="OFIELD_K">      0.00000000      0.00000000      0.00000000</v>
   <i name="OFIELD_Q6_NEAR">      0.00000000</i>
   <i name="OFIELD_Q6_FAR">      0.00000000</i>
   <i name="OFIELD_A">      0.00000000</i>
  </separator>
  <separator name="optional k-points parameters" >
   <i type="int" name="KPOINTS_OPT_MODE">     1</i>
   <i type="logical" name="LKPOINTS_OPT"> F  </i>
  </separator>
 </parameters>
 <atominfo>
  <atoms>      99 </atoms>
  <types>       4 </types>
  <array name="atoms" >
   <dimension dim="1">ion</dimension>
   <field type="string">element</field>
   <field type="int">atomtype</field>
   <set>
    <rc><c>C </c><c>   1</c></rc>
    <rc><c>C </c><c>   1</c></rc>
    <rc><c>C </c><c>   1</c></rc>
    <rc><c>C </c><c>   1</c></rc>
    <rc><c>C </c><c>   1</c></rc>
    <rc><c>C </c><c>   1</c></rc>
    <rc><c>C </c><c>   1</c></rc>
    <rc><c>C </c><c>   1</c></rc>
    <rc><c>C </c><c>   1</c></rc>
    <rc><c>C </c><c>   1</c></rc>
    <rc><c>C </c><c>   1</c></rc>
    <rc><c>C </c><c>   1</c></rc>
    <rc><c>C </c><c>   1</c></rc>
    <rc><c>C </c><c>   1</c></rc>
    <rc><c>C </c><c>   1</c></rc>
    <rc><c>C </c><c>   1</c></rc>
    <rc><c>C </c><c>   1</c></rc>
    <rc><c>C </c><c>   1</c></rc>
    <rc><c>C </c><c>   1</c></rc>
    <rc><c>C </c><c>   1</c></rc>
    <rc><c>C </c><c>   1</c></rc>
    <rc><c>C </c><c>   1</c></rc>
    <rc><c>C </c><c>   1</c></rc>
    <rc><c>C </c><c>   1</c></rc>
    <rc><c>C </c><c>   1</c></rc>
    <rc><c>C </c><c>   1</c></rc>
    <rc><c>C </c><c>   1</c></rc>
    <rc><c>C </c><c>   1</c></rc>
    <rc><c>C </c><c>   1</c></rc>
    <rc><c>C </c><c>   1</c></rc>
    <rc><c>C </c><c>   1</c></rc>
    <rc><c>C </c><c>   1</c></rc>
    <rc><c>C </c><c>   1</c></rc>
    <rc><c>C </c><c>   1</c></rc>
    <rc><c>C </c><c>   1</c></rc>
    <rc><c>C </c><c>   1</c></rc>
    <rc><c>C </c><c>   1</c></rc>
    <rc><c>C </c><c>   1</c></rc>
    <rc><c>C </c><c>   1</c></rc>
    <rc><c>C </c><c>   1</c></rc>
    <rc><c>C </c><c>   1</c></rc>
    <rc><c>C </c><c>   1</c></rc>
    <rc><c>C </c><c>   1</c></rc>
    <rc><c>C </c><c>   1</c></rc>
    <rc><c>C </c><c>   1</c></rc>
    <rc><c>C </c><c>   1</c></rc>
    <rc><c>C </c><c>   1</c></rc>
    <rc><c>C </c><c>   1</c></rc>
    <rc><c>C </c><c>   1</c></rc>
    <rc><c>C </c><c>   1</c></rc>
    <rc><c>C </c><c>   1</c></rc>
    <rc><c>C </c><c>   1</c></rc>
    <rc><c>C </c><c>   1</c></rc>
    <rc><c>C </c><c>   1</c></rc>
    <rc><c>C </c><c>   1</c></rc>
    <rc><c>C </c><c>   1</c></rc>
    <rc><c>C </c><c>   1</c></rc>
    <rc><c>C </c><c>   1</c></rc>
    <rc><c>C </c><c>   1</c></rc>
    <rc><c>C </c><c>   1</c></rc>
    <rc><c>C </c><c>   1</c></rc>
    <rc><c>C </c><c>   1</c></rc>
    <rc><c>C </c><c>   1</c></rc>
    <rc><c>C </c><c>   1</c></rc>
    <rc><c>C </c><c>   1</c></rc>
    <rc><c>C </c><c>   1</c></rc>
    <rc><c>C </c><c>   1</c></rc>
    <rc><c>C </c><c>   1</c></rc>
    <rc><c>C </c><c>   1</c></rc>
    <rc><c>C </c><c>   1</c></rc>
    <rc><c>C </c><c>   1</c></rc>
    <rc><c>C </c><c>   1</c></rc>
    <rc><c>C </c><c>   1</c></rc>
    <rc><c>C </c><c>   1</c></rc>
    <rc><c>C </c><c>   1</c></rc>
    <rc><c>C </c><c>   1</c></rc>
    <rc><c>C </c><c>   1</c></rc>
    <rc><c>C </c><c>   1</c></rc>
    <rc><c>C </c><c>   1</c></rc>
    <rc><c>C </c><c>   1</c></rc>
    <rc><c>C </c><c>   1</c></rc>
    <rc><c>C </c><c>   1</c></rc>
    <rc><c>C </c><c>   1</c></rc>
    <rc><c>C </c><c>   1</c></rc>
    <rc><c>C </c><c>   1</c></rc>
    <rc><c>C </c><c>   1</c></rc>
    <rc><c>C </c><c>   1</c></rc>
    <rc><c>C </c><c>   1</c></rc>
    <rc><c>H </c><c>   2</c></rc>
    <rc><c>H </c><c>   2</c></rc>
    <rc><c>H </c><c>   2</c></rc>
    <rc><c>H </c><c>   2</c></rc>
    <rc><c>H </c><c>   2</c></rc>
    <rc><c>H </c><c>   2</c></rc>
    <rc><c>F </c><c>   3</c></rc>
    <rc><c>F </c><c>   3</c></rc>
    <rc><c>F </c><c>   3</c></rc>
    <rc><c>F </c><c>   3</c></rc>
    <rc><c>O </c><c>   4</c></rc>
   </set>
  </array>
  <array name="atomtypes" >
   <dimension dim="1">type</dimension>
   <field type="int">atomspertype</field>
   <field type="string">element</field>
   <field>mass</field>
   <field>valence</field>
   <field type="string">pseudopotential</field>
   <set>
    <rc><c>  88</c><c>C </c><c>     12.01100000</c><c>      4.00000000</c><c>  PAW_PBE C 08Apr2002                   </c></rc>
    <rc><c>   6</c><c>H </c><c>      1.00000000</c><c>      1.00000000</c><c>  PAW_PBE H 15Jun2001                   </c></rc>
    <rc><c>   4</c><c>F </c><c>     18.99800000</c><c>      7.00000000</c><c>  PAW_PBE F 08Apr2002                   </c></rc>
    <rc><c>   1</c><c>O </c><c>     16.00000000</c><c>      6.00000000</c><c>  PAW_PBE O 08Apr2002                   </c></rc>
   </set>
  </array>
 </atominfo>
 <structure name="initialpos" >
  <crystal>
   <varray name="basis" >
    <v>      17.27103806       0.00000000       0.00000000 </v>
    <v>      -8.63551903      14.95715771       0.00000000 </v>
    <v>       0.00000000       0.00000000      15.00000000 </v>
   </varray>
   <i name="volume">   3874.88459904 </i>
   <varray name="rec_basis" >
    <v>       0.05790040       0.03342881       0.00000000 </v>
    <v>       0.00000000       0.06685762       0.00000000 </v>
    <v>       0.00000000       0.00000000       0.06666667 </v>
   </varray>
  </crystal>
  <varray name="positions" >
   <v>       0.00182166       0.00144334       0.49960712 </v>
   <v>       0.00130215       0.14393902       0.49681522 </v>
   <v>       0.00099357       0.28654595       0.49567120 </v>
   <v>       0.00119235       0.42944150       0.49733703 </v>
   <v>       0.00157717       0.57245815       0.49965331 </v>
   <v>       0.00242828       0.71569653       0.50106034 </v>
   <v>       0.00261586       0.85904827       0.50097581 </v>
   <v>       0.14469586       0.00151297       0.49354467 </v>
   <v>       0.14411663       0.14404466       0.48636868 </v>
   <v>       0.14286636       0.28593044       0.47935085 </v>
   <v>       0.14291550       0.42905515       0.48102954 </v>
   <v>       0.14411482       0.57210165       0.48955611 </v>
   <v>       0.14458906       0.71517959       0.49549761 </v>
   <v>       0.14471304       0.85839317       0.49744791 </v>
   <v>       0.28690893       0.00075749       0.49179170 </v>
   <v>       0.28677521       0.14342502       0.47960549 </v>
   <v>       0.28528554       0.28570589       0.45865638 </v>
   <v>       0.28115779       0.42686883       0.44615769 </v>
   <v>       0.28583765       0.57182496       0.46496915 </v>
   <v>       0.28691232       0.71526260       0.48564373 </v>
   <v>       0.28691134       0.85810085       0.49417972 </v>
   <v>       0.42977119       0.00083241       0.49476276 </v>
   <v>       0.42944217       0.14297818       0.48771592 </v>
   <v>       0.42830120       0.28242018       0.47127829 </v>
   <v>       0.42841378       0.71727817       0.48364690 </v>
   <v>       0.42950600       0.85826520       0.49426829 </v>
   <v>       0.57251193       0.00124532       0.49915440 </v>
   <v>       0.57249151       0.14306122       0.49623338 </v>
   <v>       0.57302511       0.28539564       0.49121487 </v>
   <v>       0.57307449       0.85923149       0.50100142 </v>
   <v>       0.71557550       0.00129992       0.50300151 </v>
   <v>       0.71563474       0.14386241       0.50251517 </v>
   <v>       0.71550777       0.28636448       0.49970056 </v>
   <v>       0.71438328       0.42798426       0.49536824 </v>
   <v>       0.72216411       0.57609318       0.48356651 </v>
   <v>       0.72250248       0.71948150       0.48152384 </v>
   <v>       0.71469429       0.85881576       0.50074674 </v>
   <v>       0.85872077       0.00144370       0.50220178 </v>
   <v>       0.85841141       0.14395918       0.50279528 </v>
   <v>       0.85836475       0.28656135       0.50231053 </v>
   <v>       0.85851908       0.42939009       0.50066966 </v>
   <v>       0.85910271       0.57285097       0.49896654 </v>
   <v>       0.86111100       0.71680595       0.49763969 </v>
   <v>       0.85945531       0.85873694       0.50141862 </v>
   <v>       0.04926429       0.09664995       0.49500886 </v>
   <v>       0.04830578       0.23875832       0.49164343 </v>
   <v>       0.04825173       0.38162957       0.49237162 </v>
   <v>       0.04911110       0.52469132       0.49621280 </v>
   <v>       0.04945538       0.66775870       0.49929761 </v>
   <v>       0.04967918       0.81090954       0.50017349 </v>
   <v>       0.04966039       0.95398265       0.49870379 </v>
   <v>       0.19178582       0.09616093       0.48591436 </v>
   <v>       0.19077997       0.23869684       0.47579129 </v>
   <v>       0.18874400       0.38048004       0.47035127 </v>
   <v>       0.19092274       0.52417773       0.47952452 </v>
   <v>       0.19180340       0.66762181       0.48962999 </v>
   <v>       0.19202796       0.81058170       0.49573311 </v>
   <v>       0.19206499       0.95348763       0.49426930 </v>
   <v>       0.33439639       0.09598626       0.48623721 </v>
   <v>       0.33504403       0.23828151       0.46771990 </v>
   <v>       0.32367958       0.37563577       0.43511114 </v>
   <v>       0.32465267       0.52108705       0.43984968 </v>
   <v>       0.33540441       0.66862939       0.47647161 </v>
   <v>       0.33447259       0.81030139       0.49155675 </v>
   <v>       0.33441092       0.95317651       0.49397342 </v>
   <v>       0.47731472       0.09569405       0.49336832 </v>
   <v>       0.47641338       0.23773799       0.48381346 </v>
   <v>       0.47642155       0.81028035       0.49430748 </v>
   <v>       0.47734205       0.95350674       0.49672055 </v>
   <v>       0.62017756       0.09602637       0.49975786 </v>
   <v>       0.62033973       0.23806842       0.49584982 </v>
   <v>       0.62121083       0.37830774       0.49340241 </v>
   <v>       0.62154936       0.81469242       0.50463516 </v>
   <v>       0.62035967       0.95406426       0.50108025 </v>
   <v>       0.76335154       0.09658133       0.50363559 </v>
   <v>       0.76331068       0.23888130       0.50239992 </v>
   <v>       0.76324571       0.38151761       0.49890844 </v>
   <v>       0.76318996       0.52500015       0.49333645 </v>
   <v>       0.76649505       0.66975158       0.48697584 </v>
   <v>       0.76366319       0.81097471       0.49592812 </v>
   <v>       0.76343293       0.95407027       0.50204730 </v>
   <v>       0.90611292       0.09629525       0.50148950 </v>
   <v>       0.90594302       0.23902553       0.50137718 </v>
   <v>       0.90596310       0.38191556       0.50098663 </v>
   <v>       0.90631204       0.52493969       0.50068434 </v>
   <v>       0.90721660       0.66804720       0.50007342 </v>
   <v>       0.90747480       0.81160496       0.50075828 </v>
   <v>       0.90662324       0.95380354       0.50240847 </v>
   <v>       0.46467780       0.35439760       0.46488245 </v>
   <v>       0.58360627       0.41248614       0.49334023 </v>
   <v>       0.58466667       0.74287642       0.51000937 </v>
   <v>       0.46469498       0.68134233       0.48097238 </v>
   <v>       0.50735878       0.53975540       0.51763965 </v>
   <v>       0.49997387       0.50425340       0.61298397 </v>
   <v>       0.40788253       0.41809691       0.40076473 </v>
   <v>       0.41016709       0.56407573       0.40882034 </v>
   <v>       0.63409130       0.67350544       0.45911255 </v>
   <v>       0.63174161       0.53455159       0.47110320 </v>
   <v>       0.46866005       0.52049115       0.56977595 </v>
  </varray>
  <varray name="selective"  type="logical" >
   <v type="logical" >  T  T  T </v>
   <v type="logical" >  T  T  T </v>
   <v type="logical" >  T  T  T </v>
   <v type="logical" >  T  T  T </v>
   <v type="logical" >  T  T  T </v>
   <v type="logical" >  T  T  T </v>
   <v type="logical" >  T  T  T </v>
   <v type="logical" >  T  T  T </v>
   <v type="logical" >  T  T  T </v>
   <v type="logical" >  T  T  T </v>
   <v type="logical" >  T  T  T </v>
   <v type="logical" >  T  T  T </v>
   <v type="logical" >  T  T  T </v>
   <v type="logical" >  T  T  T </v>
   <v type="logical" >  T  T  T </v>
   <v type="logical" >  T  T  T </v>
   <v type="logical" >  T  T  T </v>
   <v type="logical" >  T  T  T </v>
   <v type="logical" >  T  T  T </v>
   <v type="logical" >  T  T  T </v>
   <v type="logical" >  T  T  T </v>
   <v type="logical" >  T  T  T </v>
   <v type="logical" >  T  T  T </v>
   <v type="logical" >  T  T  T </v>
   <v type="logical" >  T  T  T </v>
   <v type="logical" >  T  T  T </v>
   <v type="logical" >  T  T  T </v>
   <v type="logical" >  T  T  T </v>
   <v type="logical" >  T  T  T </v>
   <v type="logical" >  T  T  T </v>
   <v type="logical" >  T  T  T </v>
   <v type="logical" >  T  T  T </v>
   <v type="logical" >  T  T  T </v>
   <v type="logical" >  T  T  T </v>
   <v type="logical" >  T  T  T </v>
   <v type="logical" >  T  T  T </v>
   <v type="logical" >  T  T  T </v>
   <v type="logical" >  T  T  T </v>
   <v type="logical" >  T  T  T </v>
   <v type="logical" >  T  T  T </v>
   <v type="logical" >  T  T  T </v>
   <v type="logical" >  T  T  T </v>
   <v type="logical" >  T  T  T </v>
   <v type="logical" >  T  T  T </v>
   <v type="logical" >  T  T  T </v>
   <v type="logical" >  T  T  T </v>
   <v type="logical" >  T  T  T </v>
   <v type="logical" >  T  T  T </v>
   <v type="logical" >  T  T  T </v>
   <v type="logical" >  T  T  T </v>
   <v type="logical" >  T  T  T </v>
   <v type="logical" >  T  T  T </v>
   <v type="logical" >  T  T  T </v>
   <v type="logical" >  T  T  T </v>
   <v type="logical" >  T  T  T </v>
   <v type="logical" >  T  T  T </v>
   <v type="logical" >  T  T  T </v>
   <v type="logical" >  T  T  T </v>
   <v type="logical" >  T  T  T </v>
   <v type="logical" >  T  T  T </v>
   <v type="logical" >  T  T  T </v>
   <v type="logical" >  T  T  T </v>
   <v type="logical" >  T  T  T </v>
   <v type="logical" >  T  T  T </v>
   <v type="logical" >  T  T  T </v>
   <v type="logical" >  T  T  T </v>
   <v type="logical" >  T  T  T </v>
   <v type="logical" >  T  T  T </v>
   <v type="logical" >  T  T  T </v>
   <v type="logical" >  T  T  T </v>
   <v type="logical" >  T  T  T </v>
   <v type="logical" >  T  T  T </v>
   <v type="logical" >  T  T  T </v>
   <v type="logical" >  T  T  T </v>
   <v type="logical" >  T  T  T </v>
   <v type="logical" >  T  T  T </v>
   <v type="logical" >  T  T  T </v>
   <v type="logical" >  T  T  T </v>
   <v type="logical" >  T  T  T </v>
   <v type="logical" >  T  T  T </v>
   <v type="logical" >  T  T  T </v>
   <v type="logical" >  T  T  T </v>
   <v type="logical" >  T  T  T </v>
   <v type="logical" >  T  T  T </v>
   <v type="logical" >  T  T  T </v>
   <v type="logical" >  T  T  T </v>
   <v type="logical" >  T  T  T </v>
   <v type="logical" >  T  T  T </v>
   <v type="logical" >  T  T  T </v>
   <v type="logical" >  T  T  T </v>
   <v type="logical" >  T  T  T </v>
   <v type="logical" >  T  T  T </v>
   <v type="logical" >  T  T  T </v>
   <v type="logical" >  T  T  T </v>
   <v type="logical" >  T  T  T </v>
   <v type="logical" >  T  T  T </v>
   <v type="logical" >  T  T  T </v>
   <v type="logical" >  T  T  T </v>
   <v type="logical" >  T  T  T </v>
  </varray>
  <nose>
   <v>      -3.00000000       0.00000000       0.00010000       0.00010000 </v>
  </nose>
 </structure>
 <calculation>
  <scstep>
   <time name="dav">   83.65   84.84</time>
   <time name="total">   89.13   90.45</time>
   <energy>
    <i name="alphaZ">    196.80145815 </i>
    <i name="ewald">  39306.84248315 </i>
    <i name="hartreedc"> -51631.49587897 </i>
    <i name="XCdc">   1356.20577924 </i>
    <i name="pawpsdc">  12061.16201661 </i>
    <i name="pawaedc"> -12133.24665886 </i>
    <i name="eentropy">     -0.04822422 </i>
    <i name="bandstr">  -1683.46144454 </i>
    <i name="atom">  16094.84310894 </i>
    <i name="e_fr_energy">   3567.60263950 </i>
    <i name="e_wo_entrp">   3567.65086372 </i>
    <i name="e_0_energy">   3567.62675161 </i>
   </energy>
  </scstep>
  <scstep>
   <time name="dav">  107.12  108.79</time>
   <time name="total">  107.12  108.81</time>
   <energy>
    <i name="e_fr_energy">   -221.82431320 </i>
    <i name="e_wo_entrp">   -221.81603698 </i>
    <i name="e_0_energy">   -221.82017509 </i>
   </energy>
  </scstep>
  <scstep>
   <time name="dav">   92.13   93.51</time>
   <time name="total">   92.13   93.52</time>
   <energy>
    <i name="e_fr_energy">   -874.57485333 </i>
    <i name="e_wo_entrp">   -874.56890542 </i>
    <i name="e_0_energy">   -874.57187937 </i>
   </energy>
  </scstep>
  <scstep>
   <time name="dav">   92.29   93.69</time>
   <time name="total">   92.29   93.69</time>
   <energy>
    <i name="e_fr_energy">   -896.54410542 </i>
    <i name="e_wo_entrp">   -896.53841232 </i>
    <i name="e_0_energy">   -896.54125887 </i>
   </energy>
  </scstep>
  <scstep>
   <time name="dav">  101.15  102.63</time>
   <time name="total">  106.60  108.20</time>
   <energy>
    <i name="e_fr_energy">   -897.19922027 </i>
    <i name="e_wo_entrp">   -897.19355318 </i>
    <i name="e_0_energy">   -897.19638673 </i>
   </energy>
  </scstep>
  <scstep>
   <time name="dav">   90.23   91.52</time>
   <time name="total">  101.44  102.87</time>
   <energy>
    <i name="e_fr_energy">   -878.50099427 </i>
    <i name="e_wo_entrp">   -878.49992333 </i>
    <i name="e_0_energy">   -878.50045880 </i>
   </energy>
  </scstep>
  <scstep>
   <time name="dav">   88.86   90.10</time>
   <time name="total">  101.06  102.47</time>
   <energy>
    <i name="e_fr_energy">   -856.58912817 </i>
    <i name="e_wo_entrp">   -856.58912740 </i>
    <i name="e_0_energy">   -856.58912778 </i>
   </energy>
  </scstep>
  <scstep>
   <time name="dav">   89.21   90.59</time>
   <time name="total">  101.57  103.12</time>
   <energy>
    <i name="e_fr_energy">   -851.56032445 </i>
    <i name="e_wo_entrp">   -851.56032445 </i>
    <i name="e_0_energy">   -851.56032445 </i>
   </energy>
  </scstep>
  <scstep>
   <time name="dav">   87.68   88.93</time>
   <time name="total">   99.84  101.33</time>
   <energy>
    <i name="e_fr_energy">   -851.69992771 </i>
    <i name="e_wo_entrp">   -851.69992771 </i>
    <i name="e_0_energy">   -851.69992771 </i>
   </energy>
  </scstep>
  <scstep>
   <time name="dav">   85.94   87.18</time>
   <time name="total">   98.15   99.55</time>
   <energy>
    <i name="e_fr_energy">   -851.51356301 </i>
    <i name="e_wo_entrp">   -851.51356301 </i>
    <i name="e_0_energy">   -851.51356301 </i>
   </energy>
  </scstep>
  <scstep>
   <time name="dav">   86.96   88.24</time>
   <time name="total">   99.33  100.78</time>
   <energy>
    <i name="e_fr_energy">   -851.49913821 </i>
    <i name="e_wo_entrp">   -851.49913821 </i>
    <i name="e_0_energy">   -851.49913821 </i>
   </energy>
  </scstep>
  <scstep>
   <time name="dav">   87.17   88.38</time>
   <time name="total">   99.54  100.97</time>
   <energy>
    <i name="e_fr_energy">   -851.49902945 </i>
    <i name="e_wo_entrp">   -851.49902945 </i>
    <i name="e_0_energy">   -851.49902945 </i>
   </energy>
  </scstep>
  <scstep>
   <time name="dav">   90.73   92.14</time>
   <time name="total">  103.17  104.73</time>
   <energy>
    <i name="e_fr_energy">   -851.49914295 </i>
    <i name="e_wo_entrp">   -851.49914295 </i>
    <i name="e_0_energy">   -851.49914295 </i>
   </energy>
  </scstep>
  <scstep>
   <time name="dav">   87.03   88.33</time>
   <time name="total">   99.53  101.01</time>
   <energy>
    <i name="e_fr_energy">   -851.49914292 </i>
    <i name="e_wo_entrp">   -851.49914292 </i>
    <i name="e_0_energy">   -851.49914292 </i>
   </energy>
  </scstep>
  <scstep>
   <time name="dav">   85.93   87.10</time>
   <time name="total">   98.45   99.84</time>
   <energy>
    <i name="e_fr_energy">   -851.49920876 </i>
    <i name="e_wo_entrp">   -851.49920876 </i>
    <i name="e_0_energy">   -851.49920876 </i>
   </energy>
  </scstep>
  <scstep>
   <time name="dav">   85.34   86.49</time>
   <time name="total">   97.87   99.23</time>
   <energy>
    <i name="e_fr_energy">   -851.49921431 </i>
    <i name="e_wo_entrp">   -851.49921430 </i>
    <i name="e_0_energy">   -851.49921430 </i>
   </energy>
  </scstep>
  <scstep>
   <time name="dav">   87.75   89.09</time>
   <time name="total">  100.28  101.77</time>
   <energy>
    <i name="e_fr_energy">   -851.49921417 </i>
    <i name="e_wo_entrp">   -851.49921417 </i>
    <i name="e_0_energy">   -851.49921417 </i>
   </energy>
  </scstep>
  <scstep>
   <time name="dav">   83.68   84.78</time>
   <time name="total">   89.67   90.87</time>
   <energy>
    <i name="alphaZ">    196.80145815 </i>
    <i name="ewald">  39306.84248315 </i>
    <i name="hartreedc"> -53159.69014947 </i>
    <i name="XCdc">   1407.31870473 </i>
    <i name="pawpsdc">  39757.05502165 </i>
    <i name="pawaedc"> -39840.41142168 </i>
    <i name="eentropy">     -0.00000000 </i>
    <i name="bandstr">  -4614.25841896 </i>
    <i name="atom">  16094.84310894 </i>
    <i name="e_fr_energy">   -851.49921350 </i>
    <i name="e_wo_entrp">   -851.49921350 </i>
    <i name="e_0_energy">   -851.49921350 </i>
   </energy>
  </scstep>
  <structure>
   <crystal>
    <varray name="basis" >
     <v>      17.27103806       0.00000000       0.00000000 </v>
     <v>      -8.63551903      14.95715771       0.00000000 </v>
     <v>       0.00000000       0.00000000      15.00000000 </v>
    </varray>
    <i name="volume">   3874.88459904 </i>
    <varray name="rec_basis" >
     <v>       0.05790040       0.03342881       0.00000000 </v>
     <v>       0.00000000       0.06685762       0.00000000 </v>
     <v>       0.00000000       0.00000000       0.06666667 </v>
    </varray>
   </crystal>
   <varray name="positions" >
    <v>       0.00182166       0.00144334       0.49960712 </v>
    <v>       0.00130215       0.14393902       0.49681522 </v>
    <v>       0.00099357       0.28654595       0.49567120 </v>
    <v>       0.00119235       0.42944150       0.49733703 </v>
    <v>       0.00157717       0.57245815       0.49965331 </v>
    <v>       0.00242828       0.71569653       0.50106034 </v>
    <v>       0.00261586       0.85904827       0.50097581 </v>
    <v>       0.14469586       0.00151297       0.49354467 </v>
    <v>       0.14411663       0.14404466       0.48636868 </v>
    <v>       0.14286636       0.28593044       0.47935085 </v>
    <v>       0.14291550       0.42905515       0.48102954 </v>
    <v>       0.14411482       0.57210165       0.48955611 </v>
    <v>       0.14458906       0.71517959       0.49549761 </v>
    <v>       0.14471304       0.85839317       0.49744791 </v>
    <v>       0.28690893       0.00075749       0.49179170 </v>
    <v>       0.28677521       0.14342502       0.47960549 </v>
    <v>       0.28528554       0.28570589       0.45865638 </v>
    <v>       0.28115779       0.42686883       0.44615769 </v>
    <v>       0.28583765       0.57182496       0.46496915 </v>
    <v>       0.28691232       0.71526260       0.48564373 </v>
    <v>       0.28691134       0.85810085       0.49417972 </v>
    <v>       0.42977119       0.00083241       0.49476276 </v>
    <v>       0.42944217       0.14297818       0.48771592 </v>
    <v>       0.42830120       0.28242018       0.47127829 </v>
    <v>       0.42841378       0.71727817       0.48364690 </v>
    <v>       0.42950600       0.85826520       0.49426829 </v>
    <v>       0.57251193       0.00124532       0.49915440 </v>
    <v>       0.57249151       0.14306122       0.49623338 </v>
    <v>       0.57302511       0.28539564       0.49121487 </v>
    <v>       0.57307449       0.85923149       0.50100142 </v>
    <v>       0.71557550       0.00129992       0.50300151 </v>
    <v>       0.71563474       0.14386241       0.50251517 </v>
    <v>       0.71550777       0.28636448       0.49970056 </v>
    <v>       0.71438328       0.42798426       0.49536824 </v>
    <v>       0.72216411       0.57609318       0.48356651 </v>
    <v>       0.72250248       0.71948150       0.48152384 </v>
    <v>       0.71469429       0.85881576       0.50074674 </v>
    <v>       0.85872077       0.00144370       0.50220178 </v>
    <v>       0.85841141       0.14395918       0.50279528 </v>
    <v>       0.85836475       0.28656135       0.50231053 </v>
    <v>       0.85851908       0.42939009       0.50066966 </v>
    <v>       0.85910271       0.57285097       0.49896654 </v>
    <v>       0.86111100       0.71680595       0.49763969 </v>
    <v>       0.85945531       0.85873694       0.50141862 </v>
    <v>       0.04926429       0.09664995       0.49500886 </v>
    <v>       0.04830578       0.23875832       0.49164343 </v>
    <v>       0.04825173       0.38162957       0.49237162 </v>
    <v>       0.04911110       0.52469132       0.49621280 </v>
    <v>       0.04945538       0.66775870       0.49929761 </v>
    <v>       0.04967918       0.81090954       0.50017349 </v>
    <v>       0.04966039       0.95398265       0.49870379 </v>
    <v>       0.19178582       0.09616093       0.48591436 </v>
    <v>       0.19077997       0.23869684       0.47579129 </v>
    <v>       0.18874400       0.38048004       0.47035127 </v>
    <v>       0.19092274       0.52417773       0.47952452 </v>
    <v>       0.19180340       0.66762181       0.48962999 </v>
    <v>       0.19202796       0.81058170       0.49573311 </v>
    <v>       0.19206499       0.95348763       0.49426930 </v>
    <v>       0.33439639       0.09598626       0.48623721 </v>
    <v>       0.33504403       0.23828151       0.46771990 </v>
    <v>       0.32367958       0.37563577       0.43511114 </v>
    <v>       0.32465267       0.52108705       0.43984968 </v>
    <v>       0.33540441       0.66862939       0.47647161 </v>
    <v>       0.33447259       0.81030139       0.49155675 </v>
    <v>       0.33441092       0.95317651       0.49397342 </v>
    <v>       0.47731472       0.09569405       0.49336832 </v>
    <v>       0.47641338       0.23773799       0.48381346 </v>
    <v>       0.47642155       0.81028035       0.49430748 </v>
    <v>       0.47734205       0.95350674       0.49672055 </v>
    <v>       0.62017756       0.09602637       0.49975786 </v>
    <v>       0.62033973       0.23806842       0.49584982 </v>
    <v>       0.62121083       0.37830774       0.49340241 </v>
    <v>       0.62154936       0.81469242       0.50463516 </v>
    <v>       0.62035967       0.95406426       0.50108025 </v>
    <v>       0.76335154       0.09658133       0.50363559 </v>
    <v>       0.76331068       0.23888130       0.50239992 </v>
    <v>       0.76324571       0.38151761       0.49890844 </v>
    <v>       0.76318996       0.52500015       0.49333645 </v>
    <v>       0.76649505       0.66975158       0.48697584 </v>
    <v>       0.76366319       0.81097471       0.49592812 </v>
    <v>       0.76343293       0.95407027       0.50204730 </v>
    <v>       0.90611292       0.09629525       0.50148950 </v>
    <v>       0.90594302       0.23902553       0.50137718 </v>
    <v>       0.90596310       0.38191556       0.50098663 </v>
    <v>       0.90631204       0.52493969       0.50068434 </v>
    <v>       0.90721660       0.66804720       0.50007342 </v>
    <v>       0.90747480       0.81160496       0.50075828 </v>
    <v>       0.90662324       0.95380354       0.50240847 </v>
    <v>       0.46467780       0.35439760       0.46488245 </v>
    <v>       0.58360627       0.41248614       0.49334023 </v>
    <v>       0.58466667       0.74287642       0.51000937 </v>
    <v>       0.46469498       0.68134233       0.48097238 </v>
    <v>       0.50735878       0.53975540       0.51763965 </v>
    <v>       0.49997387       0.50425340       0.61298397 </v>
    <v>       0.40788253       0.41809691       0.40076473 </v>
    <v>       0.41016709       0.56407573       0.40882034 </v>
    <v>       0.63409130       0.67350544       0.45911255 </v>
    <v>       0.63174161       0.53455159       0.47110320 </v>
    <v>       0.46866005       0.52049115       0.56977595 </v>
   </varray>
  </structure>
  <varray name="forces" >
   <v>       0.00047943       0.00008953      -0.00040977 </v>
   <v>      -0.00054455      -0.00018854      -0.00244264 </v>
   <v>      -0.00356881      -0.00084608      -0.00271918 </v>
   <v>      -0.00187205      -0.00133314      -0.00571715 </v>
   <v>      -0.00134472      -0.00155736      -0.00566658 </v>
   <v>      -0.00063193      -0.00104085      -0.00462158 </v>
   <v>       0.00024812      -0.00107765      -0.00261060 </v>
   <v>       0.00067298      -0.00120317      -0.00084207 </v>
   <v>      -0.00032528      -0.00106106      -0.00141238 </v>
   <v>       0.00117428      -0.00143410       0.00167806 </v>
   <v>      -0.00520611      -0.00094612      -0.00124266 </v>
   <v>      -0.00154731      -0.00094985      -0.00246271 </v>
   <v>      -0.00303922      -0.00098471      -0.00159352 </v>
   <v>      -0.00037154      -0.00029858      -0.00202127 </v>
   <v>      -0.00167402      -0.00343579      -0.00220467 </v>
   <v>       0.00018108      -0.00141558      -0.00070727 </v>
   <v>       0.00025817       0.00162205       0.00329013 </v>
   <v>       0.00218730       0.00427879       0.00435324 </v>
   <v>       0.00354100      -0.00166796       0.00276419 </v>
   <v>      -0.00015997      -0.00019405       0.00070010 </v>
   <v>      -0.00149793      -0.00042773      -0.00285873 </v>
   <v>      -0.00060098       0.00014055      -0.00245268 </v>
   <v>       0.00053284      -0.00069701      -0.00006962 </v>
   <v>       0.00179623      -0.00259765       0.00602973 </v>
   <v>      -0.00072368      -0.00053113       0.00589765 </v>
   <v>      -0.00081435       0.00025140       0.00075307 </v>
   <v>      -0.00157979       0.00172039      -0.00105196 </v>
   <v>       0.00043760       0.00027581      -0.00169485 </v>
   <v>       0.00137184      -0.00150550       0.00193232 </v>
   <v>      -0.00080677       0.00070371       0.00474393 </v>
   <v>      -0.00089927       0.00254797      -0.00231796 </v>
   <v>      -0.00107518       0.00212930      -0.00316774 </v>
   <v>       0.00125732      -0.00035605      -0.00377228 </v>
   <v>       0.00089330      -0.00047718      -0.00353948 </v>
   <v>      -0.00183928       0.00012504      -0.00889133 </v>
   <v>      -0.00108663      -0.00032016      -0.01848032 </v>
   <v>       0.00012691       0.00010380      -0.00146593 </v>
   <v>       0.00038423       0.00096965      -0.00415046 </v>
   <v>      -0.00057525       0.00173521      -0.00199491 </v>
   <v>      -0.00091288      -0.00019280      -0.00421528 </v>
   <v>      -0.00019863      -0.00121067      -0.00601395 </v>
   <v>      -0.00053341      -0.00163305      -0.00891800 </v>
   <v>      -0.00040763      -0.00094592      -0.00842324 </v>
   <v>       0.00095760      -0.00317457      -0.00379157 </v>
   <v>       0.00094490      -0.00067990      -0.00199266 </v>
   <v>       0.00312891      -0.00015113      -0.00099476 </v>
   <v>       0.00345869      -0.00010029      -0.00425372 </v>
   <v>       0.00123267       0.00028105      -0.00449716 </v>
   <v>       0.00056189      -0.00003329      -0.00489912 </v>
   <v>      -0.00026345      -0.00011689      -0.00295643 </v>
   <v>      -0.00049699      -0.00068412      -0.00016460 </v>
   <v>      -0.00027961      -0.00044685      -0.00133331 </v>
   <v>       0.00080675       0.00077991       0.00050905 </v>
   <v>       0.00190656       0.00007568       0.00093190 </v>
   <v>       0.00096630      -0.00025281      -0.00131024 </v>
   <v>       0.00079343      -0.00027186      -0.00089630 </v>
   <v>       0.00200692       0.00013479      -0.00293134 </v>
   <v>      -0.00008885       0.00018691      -0.00151613 </v>
   <v>      -0.00079561       0.00033788      -0.00135875 </v>
   <v>      -0.00006502       0.00020769       0.00242139 </v>
   <v>       0.00676544      -0.00102877       0.00505803 </v>
   <v>       0.00271720       0.00118144       0.00852772 </v>
   <v>       0.00233015       0.00149855       0.00504261 </v>
   <v>       0.00005717      -0.00066370      -0.00080940 </v>
   <v>      -0.00031686      -0.00081835      -0.00317649 </v>
   <v>      -0.00079646      -0.00126474      -0.00137303 </v>
   <v>      -0.00176079       0.00010625       0.00267604 </v>
   <v>       0.00069196       0.00047746       0.00379902 </v>
   <v>      -0.00035355      -0.00149763      -0.00157094 </v>
   <v>      -0.00054546      -0.00276049      -0.00262813 </v>
   <v>      -0.00130990      -0.00122582      -0.00148533 </v>
   <v>      -0.00211898      -0.00134485       0.00168847 </v>
   <v>       0.00003627      -0.00079729       0.00705389 </v>
   <v>       0.00058202      -0.00170028      -0.00009648 </v>
   <v>       0.00080281      -0.00336622      -0.00262911 </v>
   <v>       0.00012676      -0.00212759      -0.00359466 </v>
   <v>      -0.00135348      -0.00026302      -0.00504682 </v>
   <v>      -0.00242048       0.00034277      -0.00831609 </v>
   <v>      -0.00182954       0.00102018      -0.01452073 </v>
   <v>      -0.00060724       0.00052877      -0.00713532 </v>
   <v>      -0.00009853      -0.00124076      -0.00349908 </v>
   <v>       0.00111610      -0.00235520      -0.00353328 </v>
   <v>       0.00290803      -0.00213661      -0.00173688 </v>
   <v>      -0.00009027       0.00053040      -0.00461562 </v>
   <v>      -0.00011480       0.00029096      -0.00712732 </v>
   <v>      -0.00059325       0.00015575      -0.00610010 </v>
   <v>      -0.00076154       0.00085780      -0.00469915 </v>
   <v>       0.00006822       0.00042954      -0.00133757 </v>
   <v>      -0.00008662       0.00068015       0.00875938 </v>
   <v>      -0.00003440      -0.00263093       0.00579979 </v>
   <v>      -0.00001501       0.00019022       0.01392277 </v>
   <v>       0.00046934       0.00000562       0.00697521 </v>
   <v>       0.01185445       0.00780917       0.01933486 </v>
   <v>      -0.00323461       0.02087162       0.02734173 </v>
   <v>      -0.00573557      -0.00292268       0.01340959 </v>
   <v>       0.00462150       0.00226041       0.01658127 </v>
   <v>      -0.00019683       0.00308492      -0.02520916 </v>
   <v>      -0.00677923       0.00297211       0.00907065 </v>
   <v>      -0.00047455       0.00259487       0.07224378 </v>
  </varray>
  <varray name="stress" >
   <v>       2.72145489      -0.44967039      -0.02087531 </v>
   <v>      -0.44966983       4.14388241       0.01615327 </v>
   <v>      -0.02087466       0.01615270      -0.28566224 </v>
  </varray>
  <energy>
   <i name="e_fr_energy">   -859.41098115 </i>
   <i name="e_wo_entrp">   -859.41098115 </i>
   <i name="e_0_energy">   -859.41098115 </i>
  </energy>
  <time name="totalsc"> 1996.54 2025.48</time>
 </calculation>
 <calculation>
  <scstep>
   <time name="dav">   82.11   83.43</time>
   <time name="total">   93.71   95.24</time>
   <energy>
    <i name="alphaZ">    196.80145815 </i>
    <i name="ewald">  39306.76053967 </i>
    <i name="hartreedc"> -53159.60788430 </i>
    <i name="XCdc">   1407.31962469 </i>
    <i name="pawpsdc">  39756.34222126 </i>
    <i name="pawaedc"> -39839.69819202 </i>
    <i name="eentropy">     -0.00000000 </i>
    <i name="bandstr">  -4614.26015613 </i>
    <i name="atom">  16094.84310894 </i>
    <i name="e_fr_energy">   -851.49927974 </i>
    <i name="e_wo_entrp">   -851.49927974 </i>
    <i name="e_0_energy">   -851.49927974 </i>
   </energy>
  </scstep>
  <scstep>
   <time name="dav">   81.21   82.46</time>
   <time name="total">   92.06   93.42</time>
   <energy>
    <i name="e_fr_energy">   -851.49928668 </i>
    <i name="e_wo_entrp">   -851.49928668 </i>
    <i name="e_0_energy">   -851.49928668 </i>
   </energy>
  </scstep>
  <scstep>
   <time name="dav">   71.57   72.65</time>
   <time name="total">   83.15   84.42</time>
   <energy>
    <i name="e_fr_energy">   -851.49928560 </i>
    <i name="e_wo_entrp">   -851.49928560 </i>
    <i name="e_0_energy">   -851.49928560 </i>
   </energy>
  </scstep>
  <scstep>
   <time name="dav">   65.17   66.22</time>
   <time name="total">   70.22   71.33</time>
   <energy>
    <i name="alphaZ">    196.80145815 </i>
    <i name="ewald">  39306.76053967 </i>
    <i name="hartreedc"> -53159.56992852 </i>
    <i name="XCdc">   1407.31939747 </i>
    <i name="pawpsdc">  39756.10164222 </i>
    <i name="pawaedc"> -39839.45752439 </i>
    <i name="eentropy">     -0.00000000 </i>
    <i name="bandstr">  -4614.29798005 </i>
    <i name="atom">  16094.84310894 </i>
    <i name="e_fr_energy">   -851.49928651 </i>
    <i name="e_wo_entrp">   -851.49928651 </i>
    <i name="e_0_energy">   -851.49928651 </i>
   </energy>
  </scstep>
  <structure>
   <crystal>
    <varray name="basis" >
     <v>      17.27103806       0.00000000       0.00000000 </v>
     <v>      -8.63551903      14.95715771       0.00000000 </v>
     <v>       0.00000000       0.00000000      15.00000000 </v>
    </varray>
    <i name="volume">   3874.88459904 </i>
    <varray name="rec_basis" >
     <v>       0.05790040       0.03342881       0.00000000 </v>
     <v>       0.00000000       0.06685762       0.00000000 </v>
     <v>       0.00000000       0.00000000       0.06666667 </v>
    </varray>
   </crystal>
   <varray name="positions" >
    <v>       0.00182199       0.00144340       0.49960539 </v>
    <v>       0.00130179       0.14393891       0.49681235 </v>
    <v>       0.00099125       0.28654542       0.49566807 </v>
    <v>       0.00119092       0.42944069       0.49733197 </v>
    <v>       0.00157604       0.57245722       0.49964814 </v>
    <v>       0.00242778       0.71569597       0.50105620 </v>
    <v>       0.00261575       0.85904761       0.50097296 </v>
    <v>       0.14469592       0.00151225       0.49354178 </v>
    <v>       0.14411607       0.14404397       0.48636565 </v>
    <v>       0.14286646       0.28592945       0.47934980 </v>
    <v>       0.14291214       0.42905451       0.48102647 </v>
    <v>       0.14411370       0.57210109       0.48955221 </v>
    <v>       0.14458712       0.71517905       0.49549418 </v>
    <v>       0.14471287       0.85839311       0.49744430 </v>
    <v>       0.28690697       0.00075539       0.49178768 </v>
    <v>       0.28677490       0.14342420       0.47960225 </v>
    <v>       0.28528598       0.28570687       0.45865533 </v>
    <v>       0.28115999       0.42687142       0.44615670 </v>
    <v>       0.28583901       0.57182379       0.46496755 </v>
    <v>       0.28691225       0.71526255       0.48564112 </v>
    <v>       0.28691048       0.85810071       0.49417514 </v>
    <v>       0.42977104       0.00083272       0.49475876 </v>
    <v>       0.42944243       0.14297805       0.48771334 </v>
    <v>       0.42830139       0.28241875       0.47127945 </v>
    <v>       0.42841324       0.71727789       0.48364703 </v>
    <v>       0.42950575       0.85826548       0.49426579 </v>
    <v>       0.57251167       0.00124661       0.49915200 </v>
    <v>       0.57249196       0.14306168       0.49623072 </v>
    <v>       0.57302559       0.28539516       0.49121434 </v>
    <v>       0.57307439       0.85923202       0.50100162 </v>
    <v>       0.71557587       0.00130164       0.50299911 </v>
    <v>       0.71563488       0.14386394       0.50251198 </v>
    <v>       0.71550844       0.28636440       0.49969748 </v>
    <v>       0.71438384       0.42798413       0.49536774 </v>
    <v>       0.72216367       0.57609321       0.48357254 </v>
    <v>       0.72250191       0.71948117       0.48152277 </v>
    <v>       0.71469444       0.85881577       0.50074651 </v>
    <v>       0.85872136       0.00144437       0.50219891 </v>
    <v>       0.85841169       0.14396039       0.50279315 </v>
    <v>       0.85836423       0.28656130       0.50230693 </v>
    <v>       0.85851872       0.42938938       0.50066571 </v>
    <v>       0.85910217       0.57285002       0.49896194 </v>
    <v>       0.86111068       0.71680537       0.49763707 </v>
    <v>       0.85945489       0.85873484       0.50141703 </v>
    <v>       0.04926463       0.09664950       0.49500592 </v>
    <v>       0.04830754       0.23875823       0.49164122 </v>
    <v>       0.04825375       0.38162954       0.49236723 </v>
    <v>       0.04911205       0.52469159       0.49620817 </v>
    <v>       0.04945587       0.66775879       0.49929259 </v>
    <v>       0.04967915       0.81090959       0.50016997 </v>
    <v>       0.04965994       0.95398225       0.49870189 </v>
    <v>       0.19178555       0.09616070       0.48591101 </v>
    <v>       0.19078060       0.23869735       0.47578925 </v>
    <v>       0.18874496       0.38048001       0.47034920 </v>
    <v>       0.19092320       0.52417756       0.47952104 </v>
    <v>       0.19180387       0.66762172       0.48962678 </v>
    <v>       0.19202932       0.81058192       0.49572867 </v>
    <v>       0.19206513       0.95348789       0.49426585 </v>
    <v>       0.33439620       0.09598671       0.48623367 </v>
    <v>       0.33504403       0.23828175       0.46771846 </v>
    <v>       0.32368243       0.37563461       0.43511009 </v>
    <v>       0.32465408       0.52108759       0.43985123 </v>
    <v>       0.33540628       0.66863042       0.47647146 </v>
    <v>       0.33447253       0.81030106       0.49155326 </v>
    <v>       0.33441060       0.95317615       0.49396874 </v>
    <v>       0.47731397       0.09569348       0.49336527 </v>
    <v>       0.47641256       0.23773849       0.48381262 </v>
    <v>       0.47642226       0.81028076       0.49430647 </v>
    <v>       0.47734146       0.95350588       0.49671715 </v>
    <v>       0.62017638       0.09602470       0.49975478 </v>
    <v>       0.62033863       0.23806793       0.49584765 </v>
    <v>       0.62120950       0.37830744       0.49340273 </v>
    <v>       0.62154925       0.81469192       0.50463715 </v>
    <v>       0.62035949       0.95406319       0.50107857 </v>
    <v>       0.76335092       0.09657913       0.50363293 </v>
    <v>       0.76331010       0.23887999       0.50239667 </v>
    <v>       0.76324497       0.38151756       0.49890567 </v>
    <v>       0.76318908       0.52500049       0.49333576 </v>
    <v>       0.76649463       0.66975224       0.48697552 </v>
    <v>       0.76366307       0.81097499       0.49592735 </v>
    <v>       0.76343250       0.95406944       0.50204513 </v>
    <v>       0.90611282       0.09629371       0.50148644 </v>
    <v>       0.90594404       0.23902415       0.50137503 </v>
    <v>       0.90596335       0.38191600       0.50098288 </v>
    <v>       0.90631230       0.52493999       0.50067925 </v>
    <v>       0.90721659       0.66804744       0.50007034 </v>
    <v>       0.90747478       0.81160559       0.50075595 </v>
    <v>       0.90662347       0.95380384       0.50240702 </v>
    <v>       0.46467778       0.35439844       0.46488592 </v>
    <v>       0.58360611       0.41248547       0.49334213 </v>
    <v>       0.58466693       0.74287656       0.51001351 </v>
    <v>       0.46469527       0.68134236       0.48097304 </v>
    <v>       0.50736498       0.53975808       0.51764409 </v>
    <v>       0.49997885       0.50427036       0.61299498 </v>
    <v>       0.40787661       0.41809371       0.40076730 </v>
    <v>       0.41016970       0.56407694       0.40882642 </v>
    <v>       0.63409190       0.67350683       0.45911635 </v>
    <v>       0.63173998       0.53455303       0.47113094 </v>
    <v>       0.46865798       0.52048637       0.56981515 </v>
   </varray>
  </structure>
  <varray name="forces" >
   <v>       0.00015836      -0.00044005      -0.00044592 </v>
   <v>       0.00044783      -0.00056283      -0.00244677 </v>
   <v>       0.00198062      -0.00075766      -0.00169089 </v>
   <v>       0.00008602      -0.00071011      -0.00568215 </v>
   <v>      -0.00037372      -0.00076029      -0.00568507 </v>
   <v>      -0.00047421      -0.00069909      -0.00460634 </v>
   <v>       0.00085215       0.00142262      -0.00165805 </v>
   <v>      -0.00015391      -0.00074110      -0.00087469 </v>
   <v>       0.00012682      -0.00035978      -0.00149439 </v>
   <v>      -0.00002317       0.00132792       0.00083460 </v>
   <v>       0.00142018      -0.00026494      -0.00078591 </v>
   <v>       0.00020068      -0.00038291      -0.00260388 </v>
   <v>      -0.00069897       0.00072357      -0.00035649 </v>
   <v>       0.00004050      -0.00052473      -0.00210119 </v>
   <v>       0.00146282      -0.00054651      -0.00057845 </v>
   <v>      -0.00023689      -0.00069371      -0.00079386 </v>
   <v>       0.00100473      -0.00010593       0.00352425 </v>
   <v>       0.00227882      -0.00018891       0.00608945 </v>
   <v>      -0.00002096       0.00099072       0.00373376 </v>
   <v>       0.00019233      -0.00034089       0.00073148 </v>
   <v>      -0.00004565      -0.00062629      -0.00289496 </v>
   <v>      -0.00062778      -0.00080078      -0.00247645 </v>
   <v>      -0.00039096      -0.00083723      -0.00011255 </v>
   <v>      -0.00060631       0.00097993       0.00417593 </v>
   <v>       0.00063209       0.00014863       0.00600545 </v>
   <v>      -0.00032936      -0.00051405       0.00066157 </v>
   <v>      -0.00057110      -0.00087793      -0.00113547 </v>
   <v>      -0.00028451      -0.00091203      -0.00174679 </v>
   <v>      -0.00026404      -0.00124344       0.00179994 </v>
   <v>      -0.00019194      -0.00029580       0.00470696 </v>
   <v>      -0.00015479      -0.00037980      -0.00231850 </v>
   <v>      -0.00031123      -0.00096276      -0.00312692 </v>
   <v>      -0.00002511      -0.00076200      -0.00377167 </v>
   <v>      -0.00088995      -0.00062209      -0.00357644 </v>
   <v>      -0.00180089       0.00085250      -0.00850244 </v>
   <v>      -0.00069132       0.00097146      -0.01792653 </v>
   <v>      -0.00018230      -0.00009599      -0.00144048 </v>
   <v>       0.00011512      -0.00074943      -0.00408593 </v>
   <v>       0.00044007      -0.00105145      -0.00206249 </v>
   <v>       0.00021080      -0.00083224      -0.00407951 </v>
   <v>      -0.00060633      -0.00055126      -0.00604239 </v>
   <v>      -0.00182723      -0.00044632      -0.00765102 </v>
   <v>      -0.00029943       0.00003064      -0.00849283 </v>
   <v>      -0.00047376       0.00145846      -0.00233029 </v>
   <v>       0.00023118      -0.00044296      -0.00192710 </v>
   <v>       0.00052164      -0.00029162      -0.00085383 </v>
   <v>      -0.00074300      -0.00105546      -0.00387363 </v>
   <v>      -0.00035637      -0.00098000      -0.00449920 </v>
   <v>      -0.00083800      -0.00095481      -0.00473979 </v>
   <v>      -0.00008149      -0.00076481      -0.00296150 </v>
   <v>       0.00009856      -0.00095394      -0.00025629 </v>
   <v>      -0.00020601      -0.00106525      -0.00130704 </v>
   <v>       0.00061794      -0.00035657       0.00072601 </v>
   <v>       0.00052529       0.00043555       0.00107730 </v>
   <v>       0.00003248      -0.00045200      -0.00118907 </v>
   <v>      -0.00044130      -0.00049282      -0.00087549 </v>
   <v>      -0.00183939      -0.00135905      -0.00233595 </v>
   <v>      -0.00054227      -0.00100241      -0.00151996 </v>
   <v>      -0.00027264      -0.00112044      -0.00124702 </v>
   <v>       0.00007438      -0.00065418       0.00250345 </v>
   <v>      -0.00192233       0.00114734       0.00804285 </v>
   <v>       0.00305245       0.00100530       0.00813351 </v>
   <v>       0.00094273      -0.00019743       0.00467563 </v>
   <v>      -0.00046489      -0.00052853      -0.00080441 </v>
   <v>      -0.00067830      -0.00085954      -0.00316028 </v>
   <v>      -0.00020477      -0.00065195      -0.00138895 </v>
   <v>       0.00037378      -0.00109678       0.00297766 </v>
   <v>      -0.00028819      -0.00107076       0.00499562 </v>
   <v>      -0.00074947      -0.00049540      -0.00149156 </v>
   <v>      -0.00036863      -0.00041790      -0.00259030 </v>
   <v>       0.00035795      -0.00095102      -0.00141722 </v>
   <v>      -0.00016021      -0.00158607       0.00167785 </v>
   <v>      -0.00021619      -0.00030743       0.00694577 </v>
   <v>      -0.00044882       0.00011351      -0.00009880 </v>
   <v>      -0.00022868      -0.00007935      -0.00264798 </v>
   <v>       0.00014733      -0.00061484      -0.00366702 </v>
   <v>      -0.00025440      -0.00075798      -0.00499368 </v>
   <v>      -0.00122307      -0.00067705      -0.00816658 </v>
   <v>      -0.00112562       0.00033719      -0.01450320 </v>
   <v>      -0.00035310      -0.00013908      -0.00730423 </v>
   <v>      -0.00028102      -0.00003078      -0.00348782 </v>
   <v>       0.00006093      -0.00043360      -0.00348780 </v>
   <v>       0.00009104      -0.00072574      -0.00184752 </v>
   <v>      -0.00052899      -0.00065143      -0.00475324 </v>
   <v>      -0.00058051      -0.00078914      -0.00718294 </v>
   <v>      -0.00055336      -0.00074446      -0.00629225 </v>
   <v>       0.00015673      -0.00073065      -0.00478436 </v>
   <v>       0.00032677      -0.00068678      -0.00145353 </v>
   <v>       0.00003732      -0.00028820       0.00888338 </v>
   <v>      -0.00086815      -0.00242128       0.00572874 </v>
   <v>      -0.00012840      -0.00024744       0.01393274 </v>
   <v>       0.00030565      -0.00001212       0.00700631 </v>
   <v>      -0.00069706       0.00066932       0.03868128 </v>
   <v>       0.01092206       0.01540121       0.04141228 </v>
   <v>       0.00814202       0.00395857       0.00743415 </v>
   <v>       0.00718832       0.00325471       0.01535479 </v>
   <v>      -0.00332002       0.00039226      -0.03047291 </v>
   <v>      -0.01016148       0.00136439       0.00962912 </v>
   <v>      -0.00217450       0.01379360       0.03707835 </v>
  </varray>
  <varray name="stress" >
   <v>       2.72178437      -0.45038234      -0.01153620 </v>
   <v>      -0.45038180       4.14511733       0.01560752 </v>
   <v>      -0.01153554       0.01560697      -0.28866936 </v>
  </varray>
  <energy>
   <i name="e_fr_energy">   -859.41104056 </i>
   <i name="e_wo_entrp">   -859.41104056 </i>
   <i name="e_0_energy">   -859.41104056 </i>
  </energy>
  <time name="totalsc">  643.93  653.03</time>
 </calculation>
 <calculation>
  <scstep>
   <time name="dav">   80.93   82.15</time>
[...]
       <r>   -17.2574    11.3488    38.0306 </r>
       <r>   -17.1322     9.5142    39.2212 </r>
       <r>   -17.0071     2.8164    39.5737 </r>
       <r>   -16.8820     8.8054    40.6755 </r>
       <r>   -16.7568     7.8958    41.6636 </r>
       <r>   -16.6317     7.9238    42.6552 </r>
       <r>   -16.5065     3.0035    43.0310 </r>
       <r>   -16.3814     9.7241    44.2479 </r>
       <r>   -16.2563    14.4640    46.0579 </r>
       <r>   -16.1311     6.7454    46.9020 </r>
       <r>   -16.0060     3.9835    47.4004 </r>
       <r>   -15.8809     2.5975    47.7255 </r>
       <r>   -15.7557     0.4329    47.7797 </r>
       <r>   -15.6306     3.6634    48.2381 </r>
       <r>   -15.5054     2.5084    48.5520 </r>
       <r>   -15.3803     7.0701    49.4367 </r>
       <r>   -15.2552     9.9504    50.6819 </r>
       <r>   -15.1300     5.7967    51.4073 </r>
       <r>   -15.0049    11.8775    52.8936 </r>
       <r>   -14.8798     9.9622    54.1403 </r>
       <r>   -14.7546     6.9796    55.0137 </r>
       <r>   -14.6295     5.3940    55.6887 </r>
       <r>   -14.5043    11.3777    57.1124 </r>
       <r>   -14.3792     8.9872    58.2371 </r>
       <r>   -14.2541    13.5558    59.9334 </r>
       <r>   -14.1289    10.1415    61.2025 </r>
       <r>   -14.0038     4.6314    61.7821 </r>
       <r>   -13.8787     7.2260    62.6863 </r>
       <r>   -13.7535     4.9827    63.3098 </r>
       <r>   -13.6284     8.5398    64.3785 </r>
       <r>   -13.5032     7.6973    65.3417 </r>
       <r>   -13.3781     6.6667    66.1760 </r>
       <r>   -13.2530    10.1434    67.4453 </r>
       <r>   -13.1278     4.5231    68.0113 </r>
       <r>   -13.0027     6.0655    68.7703 </r>
       <r>   -12.8776     9.1856    69.9198 </r>
       <r>   -12.7524     6.3629    70.7160 </r>
       <r>   -12.6273     8.5638    71.7877 </r>
       <r>   -12.5021    10.7358    73.1311 </r>
       <r>   -12.3770    12.0323    74.6368 </r>
       <r>   -12.2519    11.0487    76.0194 </r>
       <r>   -12.1267     8.6065    77.0964 </r>
       <r>   -12.0016     9.6522    78.3043 </r>
       <r>   -11.8765     4.2334    78.8340 </r>
       <r>   -11.7513    10.7520    80.1795 </r>
       <r>   -11.6262     6.4209    80.9830 </r>
       <r>   -11.5010    11.7127    82.4487 </r>
       <r>   -11.3759    12.8142    84.0522 </r>
       <r>   -11.2508    10.4760    85.3632 </r>
       <r>   -11.1256    18.6957    87.7027 </r>
       <r>   -11.0005    11.6620    89.1621 </r>
       <r>   -10.8753    12.0725    90.6728 </r>
       <r>   -10.7502     6.7698    91.5199 </r>
       <r>   -10.6251    10.8560    92.8784 </r>
       <r>   -10.4999     6.2226    93.6571 </r>
       <r>   -10.3748    18.4936    95.9714 </r>
       <r>   -10.2497     9.5277    97.1636 </r>
       <r>   -10.1245    11.6777    98.6249 </r>
       <r>    -9.9994    17.7253   100.8430 </r>
       <r>    -9.8742    18.5212   103.1607 </r>
       <r>    -9.7491    16.2446   105.1936 </r>
       <r>    -9.6240    23.0446   108.0773 </r>
       <r>    -9.4988    17.5732   110.2764 </r>
       <r>    -9.3737    18.9981   112.6537 </r>
       <r>    -9.2486    18.3980   114.9560 </r>
       <r>    -9.1234    17.7774   117.1806 </r>
       <r>    -8.9983    21.3100   119.8473 </r>
       <r>    -8.8731    20.3102   122.3889 </r>
       <r>    -8.7480    29.4760   126.0775 </r>
       <r>    -8.6229    24.9830   129.2038 </r>
       <r>    -8.4977    16.8697   131.3148 </r>
       <r>    -8.3726    21.9225   134.0581 </r>
       <r>    -8.2475    12.6463   135.6407 </r>
       <r>    -8.1223    20.9373   138.2607 </r>
       <r>    -7.9972    23.1321   141.1554 </r>
       <r>    -7.8720    19.1886   143.5566 </r>
       <r>    -7.7469    13.2330   145.2126 </r>
       <r>    -7.6218    18.6962   147.5521 </r>
       <r>    -7.4966    15.6320   149.5083 </r>
       <r>    -7.3715    15.5430   151.4533 </r>
       <r>    -7.2464    12.2539   152.9867 </r>
       <r>    -7.1212    19.1592   155.3843 </r>
       <r>    -6.9961    19.1923   157.7860 </r>
       <r>    -6.8709    19.6202   160.2412 </r>
       <r>    -6.7458    11.5292   161.6839 </r>
       <r>    -6.6207    16.5283   163.7522 </r>
       <r>    -6.4955     7.6643   164.7113 </r>
       <r>    -6.3704     7.0283   165.5908 </r>
       <r>    -6.2453    14.8941   167.4546 </r>
       <r>    -6.1201    17.1522   169.6010 </r>
       <r>    -5.9950    20.4961   172.1659 </r>
       <r>    -5.8698     7.9858   173.1652 </r>
       <r>    -5.7447    15.3177   175.0820 </r>
       <r>    -5.6196    12.4948   176.6456 </r>
       <r>    -5.4944    12.1506   178.1661 </r>
       <r>    -5.3693    11.2086   179.5687 </r>
       <r>    -5.2442     9.1809   180.7176 </r>
       <r>    -5.1190     2.3282   181.0089 </r>
       <r>    -4.9939    11.6828   182.4709 </r>
       <r>    -4.8687    19.4555   184.9055 </r>
       <r>    -4.7436    17.5347   187.0997 </r>
       <r>    -4.6185     3.6230   187.5531 </r>
       <r>    -4.4933     8.5874   188.6277 </r>
       <r>    -4.3682     5.0025   189.2537 </r>
       <r>    -4.2431     2.9821   189.6269 </r>
       <r>    -4.1179     7.5916   190.5769 </r>
       <r>    -3.9928     7.8395   191.5579 </r>
       <r>    -3.8676     5.4958   192.2456 </r>
       <r>    -3.7425     7.6854   193.2074 </r>
       <r>    -3.6174     6.0120   193.9597 </r>
       <r>    -3.4922     0.3221   194.0000 </r>
       <r>    -3.3671     0.0186   194.0023 </r>
       <r>    -3.2420     2.1496   194.2713 </r>
       <r>    -3.1168     6.2151   195.0491 </r>
       <r>    -2.9917     1.9296   195.2905 </r>
       <r>    -2.8665     1.6634   195.4987 </r>
       <r>    -2.7414     0.0104   195.5000 </r>
       <r>    -2.6163     0.2155   195.5270 </r>
       <r>    -2.4911     3.6722   195.9865 </r>
       <r>    -2.3660     0.1079   196.0000 </r>
       <r>    -2.2409     0.0136   196.0017 </r>
       <r>    -2.1157     3.1739   196.3989 </r>
       <r>    -1.9906     0.8081   196.5000 </r>
       <r>    -1.8654     0.0021   196.5003 </r>
       <r>    -1.7403     1.3497   196.6692 </r>
       <r>    -1.6152     1.6976   196.8816 </r>
       <r>    -1.4900     6.2824   197.6678 </r>
       <r>    -1.3649     2.6406   197.9982 </r>
       <r>    -1.2398     0.1047   198.0113 </r>
       <r>    -1.1146     4.5285   198.5780 </r>
       <r>    -0.9895     5.5505   199.2726 </r>
       <r>    -0.8643     8.8388   200.3786 </r>
       <r>    -0.7392    16.1067   202.3942 </r>
       <r>    -0.6141     4.5918   202.9688 </r>
       <r>    -0.4889     7.9063   203.9582 </r>
       <r>    -0.3638    12.4421   205.5151 </r>
       <r>    -0.2387     5.9861   206.2642 </r>
       <r>    -0.1135     5.6359   206.9695 </r>
       <r>     0.0116     8.2229   207.9985 </r>
       <r>     0.1368     7.4876   208.9355 </r>
       <r>     0.2619    13.5324   210.6289 </r>
       <r>     0.3870     8.8613   211.7378 </r>
       <r>     0.5122     2.0937   211.9998 </r>
       <r>     0.6373     2.6393   212.3300 </r>
       <r>     0.7624     9.4459   213.5121 </r>
       <r>     0.8876    12.6986   215.1012 </r>
       <r>     1.0127     6.2941   215.8888 </r>
       <r>     1.1379     9.3128   217.0542 </r>
       <r>     1.2630     6.6887   217.8912 </r>
       <r>     1.3881     8.4011   218.9425 </r>
       <r>     1.5133    11.7973   220.4188 </r>
       <r>     1.6384    20.0688   222.9301 </r>
       <r>     1.7635    13.1373   224.5741 </r>
       <r>     1.8887    10.4994   225.8879 </r>
       <r>     2.0138    15.1624   227.7853 </r>
       <r>     2.1390    19.4678   230.2215 </r>
       <r>     2.2641    16.3115   232.2627 </r>
       <r>     2.3892    19.7872   234.7388 </r>
       <r>     2.5144    23.3709   237.6634 </r>
       <r>     2.6395     8.6886   238.7507 </r>
       <r>     2.7646    17.9241   240.9936 </r>
       <r>     2.8898    24.1075   244.0104 </r>
       <r>     3.0149    38.3842   248.8137 </r>
       <r>     3.1401    23.3318   251.7334 </r>
       <r>     3.2652    23.6637   254.6946 </r>
       <r>     3.3903    18.1422   256.9649 </r>
       <r>     3.5155    19.5564   259.4121 </r>
       <r>     3.6406    22.2544   262.1970 </r>
       <r>     3.7658    14.2317   263.9779 </r>
       <r>     3.8909    29.1836   267.6299 </r>
       <r>     4.0160    22.0788   270.3927 </r>
       <r>     4.1412    19.4318   272.8244 </r>
       <r>     4.2663    16.7758   274.9237 </r>
       <r>     4.3914    30.8954   278.7899 </r>
       <r>     4.5166     9.6305   279.9950 </r>
       <r>     4.6417     0.0401   280.0000 </r>
       <r>     4.7669     0.0000   280.0000 </r>
       <r>     4.8920     0.0000   280.0000 </r>
       <r>     5.0171     0.0000   280.0000 </r>
       <r>     5.1423     0.0000   280.0000 </r>
       <r>     5.2674     0.0000   280.0000 </r>
       <r>     5.3925     0.0000   280.0000 </r>
       <r>     5.5177     0.0000   280.0000 </r>
       <r>     5.6428     0.0000   280.0000 </r>
       <r>     5.7680     0.0000   280.0000 </r>
       <r>     5.8931     0.0000   280.0000 </r>
       <r>     6.0182     0.0000   280.0000 </r>
       <r>     6.1434     0.0000   280.0000 </r>
      </set>
     </set>
    </array>
   </total>
  </dos>
 </calculation>
 <structure name="finalpos" >
  <crystal>
   <varray name="basis" >
    <v>      17.27103806       0.00000000       0.00000000 </v>
    <v>      -8.63551903      14.95715771       0.00000000 </v>
    <v>       0.00000000       0.00000000      15.00000000 </v>
   </varray>
   <i name="volume">   3874.88459904 </i>
   <varray name="rec_basis" >
    <v>       0.05790040       0.03342881       0.00000000 </v>
    <v>       0.00000000       0.06685762       0.00000000 </v>
    <v>       0.00000000       0.00000000       0.06666667 </v>
   </varray>
  </crystal>
  <varray name="positions" >
   <v>       0.00174852       0.00130088       0.49450573 </v>
   <v>       0.00124791       0.14380037       0.49082830 </v>
   <v>       0.00089460       0.28642535       0.48909948 </v>
   <v>       0.00101825       0.42928986       0.49153853 </v>
   <v>       0.00132178       0.57225603       0.49430749 </v>
   <v>       0.00224263       0.71545141       0.49575137 </v>
   <v>       0.00251008       0.85885148       0.49586947 </v>
   <v>       0.14460375       0.00133318       0.48899062 </v>
   <v>       0.14417791       0.14397448       0.48188859 </v>
   <v>       0.14294126       0.28587472       0.47484754 </v>
   <v>       0.14292293       0.42901213       0.47673581 </v>
   <v>       0.14403201       0.57196334       0.48553447 </v>
   <v>       0.14447952       0.71498293       0.49122718 </v>
   <v>       0.14457909       0.85816086       0.49276642 </v>
   <v>       0.28680003       0.00049461       0.48832647 </v>
   <v>       0.28680570       0.14325905       0.47673652 </v>
   <v>       0.28581136       0.28592741       0.45702519 </v>
   <v>       0.28197500       0.42723957       0.44550182 </v>
   <v>       0.28627106       0.57187886       0.46434602 </v>
   <v>       0.28696817       0.71511762       0.48402423 </v>
   <v>       0.28685634       0.85791758       0.49111009 </v>
   <v>       0.42970632       0.00058192       0.49208148 </v>
   <v>       0.42936444       0.14265266       0.48524690 </v>
   <v>       0.42839571       0.28225871       0.47061420 </v>
   <v>       0.42849174       0.71700112       0.48563270 </v>
   <v>       0.42947797       0.85805690       0.49337368 </v>
   <v>       0.57247699       0.00104238       0.49623319 </v>
   <v>       0.57245170       0.14284809       0.49247690 </v>
   <v>       0.57290897       0.28516346       0.48929762 </v>
   <v>       0.57309184       0.85909347       0.50180054 </v>
   <v>       0.71557985       0.00123089       0.49942244 </v>
   <v>       0.71562404       0.14373361       0.49695225 </v>
   <v>       0.71543954       0.28620907       0.49469954 </v>
   <v>       0.71414247       0.42781023       0.49248104 </v>
   <v>       0.72160898       0.57587469       0.48144191 </v>
   <v>       0.72209281       0.71934471       0.47957607 </v>
   <v>       0.71467578       0.85873665       0.49988167 </v>
   <v>       0.85867818       0.00133788       0.49735281 </v>
   <v>       0.85839159       0.14387891       0.49621159 </v>
   <v>       0.85826700       0.28645326       0.49559185 </v>
   <v>       0.85830080       0.42922522       0.49497479 </v>
   <v>       0.85879653       0.57266790       0.49429253 </v>
   <v>       0.86091506       0.71665680       0.49321545 </v>
   <v>       0.85941490       0.85865139       0.49755399 </v>
   <v>       0.04924799       0.09651855       0.48969764 </v>
   <v>       0.04821853       0.23862157       0.48567445 </v>
   <v>       0.04811923       0.38151629       0.48655600 </v>
   <v>       0.04894132       0.52453991       0.49107238 </v>
   <v>       0.04930152       0.66754250       0.49419500 </v>
   <v>       0.04953828       0.81068116       0.49501172 </v>
   <v>       0.04956108       0.95380833       0.49370325 </v>
   <v>       0.19178429       0.09602357       0.48193365 </v>
   <v>       0.19093606       0.23869691       0.47203234 </v>
   <v>       0.18891480       0.38051227       0.46694193 </v>
   <v>       0.19102083       0.52413326       0.47641599 </v>
   <v>       0.19178380       0.66747061       0.48627159 </v>
   <v>       0.19193902       0.81039054       0.49167112 </v>
   <v>       0.19195433       0.95325555       0.48999643 </v>
   <v>       0.33432707       0.09571675       0.48329784 </v>
   <v>       0.33524144       0.23825227       0.46617262 </v>
   <v>       0.32500960       0.37643867       0.43575473 </v>
   <v>       0.32581064       0.52150708       0.44056293 </v>
   <v>       0.33562236       0.66851639       0.47662021 </v>
   <v>       0.33446588       0.81013308       0.48979556 </v>
   <v>       0.33433255       0.95297204       0.49093488 </v>
   <v>       0.47726400       0.09541792       0.49043579 </v>
   <v>       0.47633238       0.23740968       0.48234312 </v>
   <v>       0.47640719       0.81007962       0.49536381 </v>
   <v>       0.47728718       0.95329063       0.49460182 </v>
   <v>       0.62016492       0.09583990       0.49547938 </v>
   <v>       0.62027670       0.23786541       0.49202774 </v>
   <v>       0.62098987       0.37807516       0.49262809 </v>
   <v>       0.62167778       0.81467177       0.50665969 </v>
   <v>       0.62035339       0.95390922       0.49905144 </v>
   <v>       0.76336369       0.09649996       0.49808361 </v>
   <v>       0.76324926       0.23874865       0.49630885 </v>
   <v>       0.76306926       0.38136026       0.49410759 </v>
   <v>       0.76281795       0.52483414       0.49018693 </v>
   <v>       0.76615090       0.66959093       0.48393892 </v>
   <v>       0.76355259       0.81087549       0.49383131 </v>
   <v>       0.76340791       0.95398067       0.49881016 </v>
   <v>       0.90607000       0.09616856       0.49541442 </v>
   <v>       0.90587613       0.23895939       0.49427410 </v>
   <v>       0.90579006       0.38180363       0.49469881 </v>
   <v>       0.90604669       0.52476107       0.49533626 </v>
   <v>       0.90699115       0.66784954       0.49503279 </v>
   <v>       0.90736348       0.81146172       0.49607143 </v>
   <v>       0.90658891       0.95371467       0.49779040 </v>
   <v>       0.46497881       0.35424990       0.46521688 </v>
   <v>       0.58331944       0.41216625       0.49501780 </v>
   <v>       0.58505753       0.74304962       0.51477339 </v>
   <v>       0.46472244       0.68097484       0.48458910 </v>
   <v>       0.51021692       0.53607258       0.53427387 </v>
   <v>       0.49720787       0.51676674       0.63513166 </v>
   <v>       0.41077888       0.42036971       0.40548966 </v>
   <v>       0.41218420       0.56477935       0.41221653 </v>
   <v>       0.63334367       0.67344401       0.45862652 </v>
   <v>       0.63090124       0.53437432       0.47114563 </v>
   <v>       0.46694347       0.52071305       0.58222991 </v>
  </varray>
  <varray name="selective"  type="logical" >
   <v type="logical" >  T  T  T </v>
   <v type="logical" >  T  T  T </v>
   <v type="logical" >  T  T  T </v>
   <v type="logical" >  T  T  T </v>
   <v type="logical" >  T  T  T </v>
   <v type="logical" >  T  T  T </v>
   <v type="logical" >  T  T  T </v>
   <v type="logical" >  T  T  T </v>
   <v type="logical" >  T  T  T </v>
   <v type="logical" >  T  T  T </v>
   <v type="logical" >  T  T  T </v>
   <v type="logical" >  T  T  T </v>
   <v type="logical" >  T  T  T </v>
   <v type="logical" >  T  T  T </v>
   <v type="logical" >  T  T  T </v>
   <v type="logical" >  T  T  T </v>
   <v type="logical" >  T  T  T </v>
   <v type="logical" >  T  T  T </v>
   <v type="logical" >  T  T  T </v>
   <v type="logical" >  T  T  T </v>
   <v type="logical" >  T  T  T </v>
   <v type="logical" >  T  T  T </v>
   <v type="logical" >  T  T  T </v>
   <v type="logical" >  T  T  T </v>
   <v type="logical" >  T  T  T </v>
   <v type="logical" >  T  T  T </v>
   <v type="logical" >  T  T  T </v>
   <v type="logical" >  T  T  T </v>
   <v type="logical" >  T  T  T </v>
   <v type="logical" >  T  T  T </v>
   <v type="logical" >  T  T  T </v>
   <v type="logical" >  T  T  T </v>
   <v type="logical" >  T  T  T </v>
   <v type="logical" >  T  T  T </v>
   <v type="logical" >  T  T  T </v>
   <v type="logical" >  T  T  T </v>
   <v type="logical" >  T  T  T </v>
   <v type="logical" >  T  T  T </v>
   <v type="logical" >  T  T  T </v>
   <v type="logical" >  T  T  T </v>
   <v type="logical" >  T  T  T </v>
   <v type="logical" >  T  T  T </v>
   <v type="logical" >  T  T  T </v>
   <v type="logical" >  T  T  T </v>
   <v type="logical" >  T  T  T </v>
   <v type="logical" >  T  T  T </v>
   <v type="logical" >  T  T  T </v>
   <v type="logical" >  T  T  T </v>
   <v type="logical" >  T  T  T </v>
   <v type="logical" >  T  T  T </v>
   <v type="logical" >  T  T  T </v>
   <v type="logical" >  T  T  T </v>
   <v type="logical" >  T  T  T </v>
   <v type="logical" >  T  T  T </v>
   <v type="logical" >  T  T  T </v>
   <v type="logical" >  T  T  T </v>
   <v type="logical" >  T  T  T </v>
   <v type="logical" >  T  T  T </v>
   <v type="logical" >  T  T  T </v>
   <v type="logical" >  T  T  T </v>
   <v type="logical" >  T  T  T </v>
   <v type="logical" >  T  T  T </v>
   <v type="logical" >  T  T  T </v>
   <v type="logical" >  T  T  T </v>
   <v type="logical" >  T  T  T </v>
   <v type="logical" >  T  T  T </v>
   <v type="logical" >  T  T  T </v>
   <v type="logical" >  T  T  T </v>
   <v type="logical" >  T  T  T </v>
   <v type="logical" >  T  T  T </v>
   <v type="logical" >  T  T  T </v>
   <v type="logical" >  T  T  T </v>
   <v type="logical" >  T  T  T </v>
   <v type="logical" >  T  T  T </v>
   <v type="logical" >  T  T  T </v>
   <v type="logical" >  T  T  T </v>
   <v type="logical" >  T  T  T </v>
   <v type="logical" >  T  T  T </v>
   <v type="logical" >  T  T  T </v>
   <v type="logical" >  T  T  T </v>
   <v type="logical" >  T  T  T </v>
   <v type="logical" >  T  T  T </v>
   <v type="logical" >  T  T  T </v>
   <v type="logical" >  T  T  T </v>
   <v type="logical" >  T  T  T </v>
   <v type="logical" >  T  T  T </v>
   <v type="logical" >  T  T  T </v>
   <v type="logical" >  T  T  T </v>
   <v type="logical" >  T  T  T </v>
   <v type="logical" >  T  T  T </v>
   <v type="logical" >  T  T  T </v>
   <v type="logical" >  T  T  T </v>
   <v type="logical" >  T  T  T </v>
   <v type="logical" >  T  T  T </v>
   <v type="logical" >  T  T  T </v>
   <v type="logical" >  T  T  T </v>
   <v type="logical" >  T  T  T </v>
   <v type="logical" >  T  T  T </v>
   <v type="logical" >  T  T  T </v>
  </varray>
  <nose>
   <v>      -3.00000000       0.00000000       0.00010000       0.00010000 </v>
  </nose>
 </structure>
</modeling>
