unknown system                          
           1
    17.271038    0.000000    0.000000
    -8.635519   14.957158    0.000000
     0.000000    0.000000   15.000000
   C    H    F    O 
    88     6     4     1
Direct configuration=     1
   0.00182199  0.00144340  0.49960539
   0.00130179  0.14393891  0.49681235
   0.00099125  0.28654542  0.49566807
   0.00119092  0.42944069  0.49733197
   0.00157604  0.57245722  0.49964814
   0.00242778  0.71569597  0.50105620
   0.00261575  0.85904761  0.50097296
   0.14469592  0.00151225  0.49354178
   0.14411607  0.14404397  0.48636565
   0.14286646  0.28592945  0.47934980
   0.14291214  0.42905451  0.48102647
   0.14411370  0.57210109  0.48955221
   0.14458712  0.71517905  0.49549418
   0.14471287  0.85839311  0.49744430
   0.28690697  0.00075539  0.49178768
   0.28677490  0.14342420  0.47960225
   0.28528598  0.28570687  0.45865533
   0.28115999  0.42687142  0.44615670
   0.28583901  0.57182379  0.46496755
   0.28691225  0.71526255  0.48564112
   0.28691048  0.85810071  0.49417514
   0.42977104  0.00083272  0.49475876
   0.42944243  0.14297805  0.48771334
   0.42830139  0.28241875  0.47127945
   0.42841324  0.71727789  0.48364703
   0.42950575  0.85826548  0.49426579
   0.57251167  0.00124661  0.49915200
   0.57249196  0.14306168  0.49623072
   0.57302559  0.28539516  0.49121434
   0.57307439  0.85923202  0.50100162
   0.71557587  0.00130164  0.50299911
   0.71563488  0.14386394  0.50251198
   0.71550844  0.28636440  0.49969748
   0.71438384  0.42798413  0.49536774
   0.72216367  0.57609321  0.48357254
   0.72250191  0.71948117  0.48152277
   0.71469444  0.85881577  0.50074651
   0.85872136  0.00144437  0.50219891
   0.85841169  0.14396039  0.50279315
   0.85836423  0.28656130  0.50230693
   0.85851872  0.42938938  0.50066571
   0.85910217  0.57285002  0.49896194
   0.86111068  0.71680537  0.49763707
   0.85945489  0.85873484  0.50141703
   0.04926463  0.09664950  0.49500592
   0.04830754  0.23875823  0.49164122
   0.04825375  0.38162954  0.49236723
   0.04911205  0.52469159  0.49620817
   0.04945587  0.66775879  0.49929259
   0.04967915  0.81090959  0.50016997
   0.04965994  0.95398225  0.49870189
   0.19178555  0.09616070  0.48591101
   0.19078060  0.23869735  0.47578925
   0.18874496  0.38048001  0.47034920
   0.19092320  0.52417756  0.47952104
   0.19180387  0.66762172  0.48962678
   0.19202932  0.81058192  0.49572867
   0.19206513  0.95348789  0.49426585
   0.33439620  0.09598671  0.48623367
   0.33504403  0.23828175  0.46771846
   0.32368243  0.37563461  0.43511009
   0.32465408  0.52108759  0.43985123
   0.33540628  0.66863042  0.47647146
   0.33447253  0.81030106  0.49155326
   0.33441060  0.95317615  0.49396874
   0.47731397  0.09569348  0.49336527
   0.47641256  0.23773849  0.48381262
   0.47642226  0.81028076  0.49430647
   0.47734146  0.95350588  0.49671715
   0.62017638  0.09602470  0.49975478
   0.62033863  0.23806793  0.49584765
   0.62120950  0.37830744  0.49340273
   0.62154925  0.81469192  0.50463715
   0.62035949  0.95406319  0.50107857
   0.76335092  0.09657913  0.50363293
   0.76331010  0.23887999  0.50239667
   0.76324497  0.38151756  0.49890567
   0.76318908  0.52500049  0.49333576
   0.76649463  0.66975224  0.48697552
   0.76366307  0.81097499  0.49592735
   0.76343250  0.95406944  0.50204513
   0.90611282  0.09629371  0.50148644
   0.90594404  0.23902415  0.50137503
   0.90596335  0.38191600  0.50098288
   0.90631230  0.52493999  0.50067925
   0.90721659  0.66804744  0.50007034
   0.90747478  0.81160559  0.50075595
   0.90662347  0.95380384  0.50240702
   0.46467778  0.35439844  0.46488592
   0.58360611  0.41248547  0.49334213
   0.58466693  0.74287656  0.51001351
   0.46469527  0.68134236  0.48097304
   0.50736498  0.53975808  0.51764409
   0.49997885  0.50427036  0.61299498
   0.40787661  0.41809371  0.40076730
   0.41016970  0.56407694  0.40882642
   0.63409190  0.67350683  0.45911635
   0.63173998  0.53455303  0.47113094
   0.46865798  0.52048637  0.56981515
Direct configuration=     2
   0.00182225  0.00144314  0.49960184
   0.00130158  0.14393841  0.49680651
   0.00099019  0.28654442  0.49566249
   0.00118956  0.42943951  0.49732175
   0.00157472  0.57245593  0.49963768
   0.00242700  0.71569509  0.50104784
   0.00261685  0.85904815  0.50096789
   0.14469566  0.00151113  0.49353584
   0.14411551  0.14404309  0.48635941
   0.14286693  0.28592951  0.47934698
   0.14290989  0.42905374  0.48102056
   0.14411279  0.57210038  0.48954417
   0.14458535  0.71517924  0.49548812
   0.14471272  0.85839281  0.49743689
   0.28690612  0.00075332  0.49178071
   0.28677428  0.14342311  0.47959557
   0.28528670  0.28570756  0.45865328
   0.28116280  0.42687329  0.44615586
   0.28584042  0.57182340  0.46496493
   0.28691229  0.71526235  0.48563579
   0.28690962  0.85810028  0.49416581
   0.42977037  0.00083265  0.49475062
   0.42944233  0.14297771  0.48770801
   0.42830155  0.28241855  0.47128032
   0.42841328  0.71727783  0.48364725
   0.42950529  0.85826549  0.49426059
   0.57251085  0.00124726  0.49914703
   0.57249198  0.14306173  0.49622526
   0.57302560  0.28539442  0.49121312
   0.57307421  0.85923234  0.50100191
   0.71557601  0.00130294  0.50299424
   0.71563452  0.14386470  0.50250555
   0.71550882  0.28636393  0.49969127
   0.71438376  0.42798377  0.49536677
   0.72216310  0.57609382  0.48358539
   0.72250150  0.71948147  0.48152141
   0.71469446  0.85881565  0.50074609
   0.85872175  0.00144444  0.50219316
   0.85841189  0.14396074  0.50278877
   0.85836365  0.28656072  0.50229975
   0.85851797  0.42938845  0.50065775
   0.85910069  0.57284898  0.49895364
   0.86111046  0.71680493  0.49763186
   0.85945484  0.85873405  0.50141496
   0.04926494  0.09664878  0.49500000
   0.04830933  0.23875794  0.49163681
   0.04825474  0.38162877  0.49235859
   0.04911247  0.52469121  0.49619879
   0.04945562  0.66775830  0.49928255
   0.04967898  0.81090921  0.50016282
   0.04965932  0.95398122  0.49869792
   0.19178483  0.09615978  0.48590420
   0.19078133  0.23869752  0.47578521
   0.18874615  0.38048021  0.47034505
   0.19092344  0.52417708  0.47951402
   0.19180394  0.66762136  0.48962025
   0.19202902  0.81058127  0.49572009
   0.19206469  0.95348753  0.49425880
   0.33439561  0.09598655  0.48622651
   0.33504381  0.23828160  0.46771552
   0.32368335  0.37563388  0.43511003
   0.32465707  0.52108852  0.43985394
   0.33540851  0.66863123  0.47647078
   0.33447214  0.81030049  0.49154614
   0.33440973  0.95317538  0.49395924
   0.47731308  0.09569279  0.49335903
   0.47641186  0.23773862  0.48381104
   0.47642246  0.81028043  0.49430519
   0.47734038  0.95350491  0.49671026
   0.62017501  0.09602309  0.49974856
   0.62033760  0.23806717  0.49584330
   0.62120801  0.37830669  0.49340336
   0.62154905  0.81469129  0.50464100
   0.62035914  0.95406237  0.50107511
   0.76335022  0.09657715  0.50362751
   0.76330950  0.23887847  0.50239006
   0.76324401  0.38151709  0.49890015
   0.76318771  0.52500042  0.49333463
   0.76649400  0.66975304  0.48697519
   0.76366276  0.81097507  0.49592581
   0.76343196  0.95406866  0.50204077
   0.90611266  0.09629203  0.50148028
   0.90594480  0.23902244  0.50137058
   0.90596313  0.38191602  0.50097520
   0.90631212  0.52493979  0.50066894
   0.90721626  0.66804726  0.50006402
   0.90747474  0.81160566  0.50075123
   0.90662368  0.95380360  0.50240401
   0.46467743  0.35439943  0.46489291
   0.58360536  0.41248430  0.49334586
   0.58466721  0.74287652  0.51002170
   0.46469574  0.68134241  0.48097425
   0.50736661  0.53975809  0.51766714
   0.49999600  0.50430056  0.61302738
   0.40787617  0.41809235  0.40076782
   0.41017696  0.56408011  0.40883760
   0.63409007  0.67350761  0.45912079
   0.63173396  0.53455470  0.47118799
   0.46865679  0.52048488  0.56986772
Direct configuration=     3
   0.00182351  0.00144231  0.49959736
   0.00130194  0.14393739  0.49679778
   0.00099178  0.28654302  0.49565435
   0.00118933  0.42943840  0.49730657
   0.00157400  0.57245484  0.49962197
   0.00242618  0.71569419  0.50103533
   0.00261808  0.85904903  0.50096062
   0.14469575  0.00151040  0.49352794
   0.14411544  0.14404247  0.48635003
   0.14286852  0.28593087  0.47934213
   0.14291084  0.42905319  0.48101134
   0.14411301  0.57209994  0.48953202
   0.14458488  0.71517954  0.49547895
   0.14471244  0.85839215  0.49742565
   0.28690656  0.00075251  0.49177053
   0.28677333  0.14342213  0.47958552
   0.28528729  0.28570713  0.45865046
   0.28116553  0.42687348  0.44615541
   0.28584175  0.57182432  0.46496167
   0.28691244  0.71526180  0.48562790
   0.28690901  0.85809928  0.49415181
   0.42976907  0.00083175  0.49473835
   0.42944139  0.14297722  0.48769997
   0.42830122  0.28241997  0.47128091
   0.42841476  0.71727818  0.48364773
   0.42950468  0.85826472  0.49425271
   0.57250975  0.00124564  0.49914064
   0.57249083  0.14306070  0.49621700
   0.57302457  0.28539362  0.49121115
   0.57307404  0.85923186  0.50100231
   0.71557348  0.00129995  0.50298749
   0.71563466  0.14386333  0.50249756
   0.71550813  0.28636289  0.49968200
   0.71438200  0.42798305  0.49536531
   0.72216187  0.57609529  0.48360507
   0.72250101  0.71948254  0.48151991
   0.71469399  0.85881525  0.50074548
   0.85872129  0.00144305  0.50218467
   0.85841164  0.14395877  0.50278206
   0.85836354  0.28655933  0.50228920
   0.85851696  0.42938778  0.50064576
   0.85909897  0.57284840  0.49894154
   0.86111049  0.71680526  0.49762390
   0.85945512  0.85873495  0.50141221
   0.04926481  0.09664791  0.49499122
   0.04830979  0.23875739  0.49163031
   0.04825218  0.38162598  0.49234714
   0.04911100  0.52468949  0.49618587
   0.04945381  0.66775687  0.49926783
   0.04967873  0.81090829  0.50015213
   0.04965915  0.95398020  0.49869185
   0.19178368  0.09615804  0.48589402
   0.19078174  0.23869702  0.47577938
   0.18874716  0.38048101  0.47033908
   0.19092308  0.52417654  0.47950490
   0.19180305  0.66762094  0.48961051
   0.19202684  0.81058007  0.49570759
   0.19206366  0.95348618  0.49424827
   0.33439470  0.09598503  0.48621599
   0.33504358  0.23828095  0.46771115
   0.32368102  0.37563471  0.43511219
   0.32466215  0.52109009  0.43985758
   0.33540821  0.66863008  0.47646797
   0.33447204  0.81029969  0.49153661
   0.33440849  0.95317417  0.49394512
   0.47731253  0.09569234  0.49334964
   0.47641174  0.23773797  0.48380886
   0.47642202  0.81027994  0.49430377
   0.47733905  0.95350453  0.49670007
   0.62017422  0.09602295  0.49973928
   0.62033755  0.23806642  0.49583682
   0.62120727  0.37830545  0.49340428
   0.62154882  0.81469101  0.50464668
   0.62035857  0.95406281  0.50106992
   0.76334997  0.09657749  0.50361936
   0.76330934  0.23887776  0.50238001
   0.76324322  0.38151606  0.49889194
   0.76318623  0.52499953  0.49333325
   0.76649355  0.66975378  0.48697488
   0.76366250  0.81097492  0.49592344
   0.76343167  0.95406869  0.50203426
   0.90611256  0.09629141  0.50147114
   0.90594445  0.23902145  0.50136368
   0.90596194  0.38191489  0.50096342
   0.90631081  0.52493858  0.50065348
   0.90721522  0.66804610  0.50005427
   0.90747502  0.81160498  0.50074416
   0.90662385  0.95380275  0.50239937
   0.46467669  0.35440031  0.46490332
   0.58360376  0.41248275  0.49335127
   0.58466740  0.74287623  0.51003388
   0.46469634  0.68134259  0.48097612
   0.50735479  0.53975135  0.51771980
   0.50003036  0.50434030  0.61308857
   0.40788306  0.41809549  0.40076444
   0.41018882  0.56408499  0.40885445
   0.63408782  0.67350901  0.45912292
   0.63172302  0.53455652  0.47127531
   0.46865945  0.52049345  0.56991199
Direct configuration=     4
   0.00182326  0.00144137  0.49959185
   0.00130305  0.14393689  0.49678721
   0.00099415  0.28654101  0.49564353
   0.00118909  0.42943688  0.49728650
   0.00157176  0.57245352  0.49960338
   0.00242502  0.71569312  0.50101840
   0.00261837  0.85904883  0.50095086
   0.14469581  0.00150973  0.49351766
   0.14411554  0.14404187  0.48633743
   0.14287125  0.28593143  0.47933534
   0.14291346  0.42905276  0.48099869
   0.14411334  0.57209957  0.48951575
   0.14458479  0.71517892  0.49546582
   0.14471141  0.85839096  0.49741022
   0.28690701  0.00075262  0.49175645
   0.28677204  0.14342090  0.47957197
   0.28528582  0.28570467  0.45864760
   0.28116802  0.42687386  0.44615545
   0.28584295  0.57182556  0.46495757
   0.28691213  0.71526065  0.48561737
   0.28690804  0.85809746  0.49413292
   0.42976703  0.00082934  0.49472388
   0.42943979  0.14297650  0.48768901
   0.42830038  0.28242174  0.47128159
   0.42841631  0.71727831  0.48364836
   0.42950703  0.85826571  0.49424286
   0.57250832  0.00124314  0.49913227
   0.57248894  0.14305901  0.49620566
   0.57302294  0.28539250  0.49120834
   0.57307362  0.85923081  0.50100281
   0.71557206  0.00129763  0.50297807
   0.71563471  0.14386068  0.50248754
   0.71550672  0.28636145  0.49966954
   0.71437911  0.42798192  0.49536343
   0.72215885  0.57609689  0.48363263
   0.72249971  0.71948367  0.48151843
   0.71469311  0.85881478  0.50074459
   0.85871928  0.00144055  0.50217448
   0.85841100  0.14395561  0.50277395
   0.85836369  0.28655750  0.50227520
   0.85851563  0.42938707  0.50062938
   0.85909750  0.57284792  0.49892510
   0.86111081  0.71680623  0.49761283
   0.85945558  0.85873634  0.50140842
   0.04926448  0.09664683  0.49497949
   0.04830968  0.23875653  0.49162131
   0.04824835  0.38162244  0.49233231
   0.04910859  0.52468708  0.49616857
   0.04945117  0.66775499  0.49924840
   0.04967835  0.81090716  0.50013770
   0.04966011  0.95397989  0.49868358
   0.19178258  0.09615615  0.48588025
   0.19078179  0.23869616  0.47577162
   0.18874804  0.38048209  0.47033139
   0.19092251  0.52417607  0.47949328
   0.19180166  0.66762070  0.48959726
   0.19202420  0.81057896  0.49569099
   0.19206291  0.95348449  0.49423406
   0.33439354  0.09598273  0.48620196
   0.33504357  0.23828024  0.46770514
   0.32368343  0.37563568  0.43511187
   0.32466965  0.52109275  0.43986211
   0.33540813  0.66862904  0.47646451
   0.33447196  0.81029880  0.49152424
   0.33440719  0.95317243  0.49392621
   0.47731174  0.09569183  0.49333679
   0.47641143  0.23773713  0.48380575
   0.47642130  0.81027962  0.49430218
   0.47733920  0.95350424  0.49668751
   0.62017394  0.09602336  0.49972696
   0.62033711  0.23806324  0.49582907
   0.62120645  0.37830385  0.49340544
   0.62154840  0.81469103  0.50465425
   0.62035714  0.95406307  0.50106298
   0.76334965  0.09657817  0.50360842
   0.76330937  0.23887825  0.50236755
   0.76324223  0.38151470  0.49888088
   0.76318436  0.52499815  0.49333189
   0.76649343  0.66975496  0.48697485
   0.76366261  0.81097537  0.49592041
   0.76343222  0.95406965  0.50202665
   0.90611259  0.09629124  0.50145893
   0.90594360  0.23902078  0.50135388
   0.90596021  0.38191286  0.50094693
   0.90630854  0.52493687  0.50063251
   0.90721345  0.66804442  0.50004060
   0.90747587  0.81160467  0.50073468
   0.90662433  0.95380199  0.50239296
   0.46467567  0.35440174  0.46491705
   0.58360143  0.41248060  0.49335826
   0.58466752  0.74287594  0.51005013
   0.46469722  0.68134297  0.48097875
   0.50733508  0.53974097  0.51779405
   0.50007665  0.50439251  0.61317208
   0.40788436  0.41809567  0.40076393
   0.41020491  0.56409118  0.40887817
   0.63408879  0.67351145  0.45912084
   0.63170931  0.53456039  0.47139030
   0.46866717  0.52050532  0.56996112
Direct configuration=     5
   0.00182217  0.00144067  0.49958431
   0.00130385  0.14393664  0.49677427
   0.00099406  0.28653848  0.49562969
   0.00118699  0.42943426  0.49726146
   0.00156797  0.57245139  0.49958082
   0.00242319  0.71569163  0.50099655
   0.00261706  0.85904780  0.50093924
   0.14469426  0.00150753  0.49350499
   0.14411487  0.14404032  0.48632119
   0.14287330  0.28593091  0.47932593
   0.14291396  0.42905203  0.48098242
   0.14410909  0.57209642  0.48949599
   0.14458324  0.71517699  0.49544721
   0.14471047  0.85839058  0.49739161
   0.28690613  0.00075205  0.49173704
   0.28677079  0.14341888  0.47955420
   0.28528405  0.28570233  0.45864315
   0.28117171  0.42687605  0.44615468
   0.28584459  0.57182602  0.46495146
   0.28691129  0.71525939  0.48560353
   0.28690626  0.85809404  0.49410973
   0.42976521  0.00082634  0.49470739
   0.42944158  0.14297692  0.48767562
   0.42829911  0.28242085  0.47128360
   0.42841638  0.71727780  0.48364826
   0.42951123  0.85826723  0.49423137
   0.57250754  0.00124264  0.49912086
   0.57248708  0.14305683  0.49619075
   0.57302174  0.28539025  0.49120444
   0.57307267  0.85922993  0.50100282
   0.71557237  0.00129752  0.50296721
   0.71563429  0.14385956  0.50247470
   0.71550537  0.28635980  0.49965393
   0.71437666  0.42798057  0.49536206
   0.72215450  0.57609726  0.48367183
   0.72249840  0.71948459  0.48152070
   0.71469233  0.85881482  0.50074390
   0.85871791  0.00143914  0.50216255
   0.85841035  0.14395388  0.50276512
   0.85836293  0.28655732  0.50225989
   0.85851377  0.42938541  0.50060824
   0.85909485  0.57284648  0.49890542
   0.86111142  0.71680733  0.49759929
   0.85945621  0.85873666  0.50140360
   0.04926351  0.09664464  0.49496600
   0.04831126  0.23875553  0.49160909
   0.04824760  0.38162006  0.49231292
   0.04910685  0.52468536  0.49614565
   0.04944898  0.66775333  0.49922401
   0.04967743  0.81090597  0.50011898
   0.04966149  0.95398027  0.49867281
   0.19178323  0.09615625  0.48586337
   0.19078136  0.23869496  0.47576136
   0.18874949  0.38048241  0.47032137
   0.19092263  0.52417578  0.47947787
   0.19180076  0.66762040  0.48957945
   0.19202265  0.81057791  0.49566934
   0.19206303  0.95348340  0.49421541
   0.33439221  0.09598108  0.48618359
   0.33504324  0.23827948  0.46769670
   0.32368743  0.37563675  0.43511015
   0.32467865  0.52109632  0.43986710
   0.33540940  0.66862913  0.47645959
   0.33447418  0.81029864  0.49150915
   0.33440601  0.95317019  0.49390185
   0.47730941  0.09569012  0.49331978
   0.47640993  0.23773708  0.48380072
   0.47642143  0.81027956  0.49429961
   0.47734020  0.95350375  0.49667205
   0.62017422  0.09602307  0.49971297
   0.62033506  0.23805925  0.49581935
   0.62120394  0.37830191  0.49340676
   0.62154787  0.81469080  0.50466331
   0.62035536  0.95406151  0.50105402
   0.76334892  0.09657630  0.50359469
   0.76330903  0.23887808  0.50235223
   0.76324027  0.38151342  0.49886704
   0.76318154  0.52499707  0.49333250
   0.76649369  0.66975736  0.48697855
   0.76366311  0.81097713  0.49591831
   0.76343200  0.95406960  0.50201792
   0.90611266  0.09628992  0.50144379
   0.90594350  0.23901900  0.50134062
   0.90595880  0.38191085  0.50092498
   0.90630579  0.52493544  0.50060586
   0.90721152  0.66804329  0.50002283
   0.90747697  0.81160580  0.50072308
   0.90662536  0.95380049  0.50238625
   0.46467456  0.35440458  0.46493366
   0.58359886  0.41247781  0.49336638
   0.58466775  0.74287605  0.51006936
   0.46469866  0.68134360  0.48098142
   0.50732148  0.53973393  0.51786762
   0.50012540  0.50446342  0.61326371
   0.40788033  0.41809302  0.40076496
   0.41022498  0.56409812  0.40890928
   0.63409221  0.67351455  0.45912014
   0.63169517  0.53456512  0.47150912
   0.46867300  0.52050491  0.57004512
Direct configuration=     6
   0.00182172  0.00143998  0.49957399
   0.00130404  0.14393581  0.49675846
   0.00099194  0.28653593  0.49561219
   0.00118394  0.42943090  0.49723131
   0.00156394  0.57244884  0.49955300
   0.00242105  0.71568985  0.50096935
   0.00261773  0.85904403  0.50092714
   0.14469325  0.00150572  0.49348891
   0.14411323  0.14403747  0.48630156
   0.14287426  0.28593000  0.47931343
   0.14291217  0.42905101  0.48096243
   0.14410327  0.57209262  0.48947233
   0.14458026  0.71517447  0.49542220
   0.14470977  0.85839035  0.49736904
   0.28690467  0.00075017  0.49171148
   0.28677047  0.14341663  0.47953221
   0.28528399  0.28570187  0.45863641
   0.28117774  0.42687985  0.44615286
   0.28584757  0.57182596  0.46494333
   0.28691103  0.71525891  0.48558661
   0.28690484  0.85809037  0.49408204
   0.42976393  0.00082360  0.49468756
   0.42944410  0.14297787  0.48766069
   0.42829803  0.28242114  0.47128518
   0.42841566  0.71727707  0.48364769
   0.42951445  0.85826785  0.49421795
   0.57250845  0.00124427  0.49910581
   0.57248560  0.14305355  0.49617378
   0.57302085  0.28538715  0.49119932
   0.57307153  0.85922915  0.50100244
   0.71557048  0.00129578  0.50295518
   0.71563382  0.14386033  0.50245841
   0.71550316  0.28635885  0.49963591
   0.71437443  0.42797899  0.49536084
   0.72214892  0.57609755  0.48372142
   0.72249889  0.71948638  0.48152600
   0.71469181  0.85881541  0.50074323
   0.85871868  0.00143892  0.50214861
   0.85841013  0.14395368  0.50275410
   0.85836170  0.28655747  0.50224248
   0.85851136  0.42938277  0.50058166
   0.85909157  0.57284447  0.49888164
   0.86111249  0.71680875  0.49758289
   0.85945683  0.85873559  0.50139728
   0.04926258  0.09664235  0.49495052
   0.04831366  0.23875450  0.49159500
   0.04824830  0.38161830  0.49229024
   0.04910411  0.52468342  0.49611663
   0.04944709  0.66775147  0.49919489
   0.04967792  0.81090748  0.50009695
   0.04966116  0.95398176  0.49866110
   0.19178398  0.09615640  0.48584330
   0.19078051  0.23869303  0.47574853
   0.18875292  0.38048217  0.47031037
   0.19092255  0.52417333  0.47946244
   0.19179945  0.66761637  0.48955731
   0.19202138  0.81057339  0.49564367
   0.19206122  0.95348274  0.49419334
   0.33438952  0.09598091  0.48616335
   0.33504218  0.23827820  0.46768598
   0.32368680  0.37563590  0.43511069
   0.32468841  0.52110029  0.43987325
   0.33541130  0.66862975  0.47645307
   0.33447789  0.81029875  0.49149068
   0.33440463  0.95316718  0.49387243
   0.47730741  0.09568565  0.49330201
   0.47640862  0.23773735  0.48379395
   0.47642294  0.81027928  0.49429612
   0.47734163  0.95350356  0.49665389
   0.62017646  0.09602510  0.49969822
   0.62033187  0.23805594  0.49580693
   0.62120012  0.37829900  0.49340812
   0.62154753  0.81469019  0.50467382
   0.62035520  0.95406003  0.50104450
   0.76334816  0.09657289  0.50357846
   0.76330812  0.23887656  0.50233365
   0.76323740  0.38151192  0.49885006
   0.76317747  0.52499588  0.49333538
   0.76649393  0.66976002  0.48698595
   0.76366393  0.81097970  0.49591684
   0.76343082  0.95406833  0.50200763
   0.90611267  0.09628763  0.50142616
   0.90594372  0.23901649  0.50132390
   0.90595773  0.38190955  0.50089716
   0.90630068  0.52493299  0.50057602
   0.90720979  0.66804093  0.50000144
   0.90747753  0.81160747  0.50070901
   0.90662567  0.95379919  0.50237885
   0.46467289  0.35440751  0.46495317
   0.58359590  0.41247423  0.49337542
   0.58466819  0.74287665  0.51009174
   0.46470064  0.68134469  0.48098445
   0.50731511  0.53973087  0.51793975
   0.50017923  0.50455078  0.61336717
   0.40787546  0.41808973  0.40076680
   0.41024936  0.56410536  0.40894957
   0.63409013  0.67351568  0.45912413
   0.63168248  0.53457712  0.47162937
   0.46867348  0.52049401  0.57016186
Direct configuration=     7
   0.00182166  0.00143906  0.49955884
   0.00130423  0.14393328  0.49673903
   0.00099058  0.28653378  0.49558768
   0.00118169  0.42942779  0.49719144
   0.00155927  0.57244734  0.49951606
   0.00241948  0.71568853  0.50093265
   0.00262046  0.85904289  0.50091170
   0.14468950  0.00150596  0.49346800
   0.14411101  0.14403369  0.48627583
   0.14287523  0.28592956  0.47929525
   0.14291073  0.42904883  0.48093557
   0.14409930  0.57208774  0.48944244
   0.14457693  0.71516984  0.49538561
   0.14471042  0.85838929  0.49733809
   0.28690287  0.00074747  0.49167499
   0.28677024  0.14341544  0.47950255
   0.28528420  0.28570177  0.45862608
   0.28118407  0.42688266  0.44615352
   0.28585172  0.57182605  0.46493216
   0.28691188  0.71525873  0.48556375
   0.28690619  0.85808639  0.49404663
   0.42976187  0.00081991  0.49466170
   0.42944318  0.14297692  0.48764115
   0.42829636  0.28242380  0.47128576
   0.42841628  0.71727690  0.48364607
   0.42951626  0.85826710  0.49419978
   0.57251197  0.00124734  0.49908462
   0.57248418  0.14304963  0.49615251
   0.57301877  0.28538437  0.49119171
   0.57307140  0.85922809  0.50100140
   0.71556727  0.00129208  0.50294008
   0.71563498  0.14386151  0.50243596
   0.71549944  0.28635736  0.49961310
   0.71437021  0.42797698  0.49536025
   0.72214178  0.57610037  0.48379060
   0.72249953  0.71948932  0.48153820
   0.71469140  0.85881625  0.50074317
   0.85872040  0.00143823  0.50213102
   0.85840977  0.14395235  0.50273755
   0.85836052  0.28655597  0.50221931
   0.85850894  0.42937857  0.50054639
   0.85908723  0.57284202  0.49885098
   0.86111432  0.71681094  0.49756277
   0.85945746  0.85873500  0.50138895
   0.04926297  0.09664107  0.49493569
   0.04831451  0.23875355  0.49157651
   0.04824717  0.38161628  0.49226034
   0.04909625  0.52467772  0.49607854
   0.04944374  0.66774866  0.49915674
   0.04967919  0.81090688  0.50007087
   0.04965864  0.95398087  0.49864681
   0.19178309  0.09615434  0.48581647
   0.19077928  0.23868992  0.47573062
   0.18875735  0.38048250  0.47029626
   0.19092156  0.52416977  0.47944330
   0.19179660  0.66760969  0.48952680
   0.19201976  0.81056704  0.49560933
   0.19205801  0.95348160  0.49416403
   0.33438922  0.09598146  0.48613769
   0.33504077  0.23827487  0.46767284
   0.32368053  0.37563304  0.43511313
   0.32470067  0.52110500  0.43988099
   0.33541235  0.66862979  0.47644301
   0.33448109  0.81029844  0.49146488
   0.33440207  0.95316603  0.49383462
   0.47730772  0.09568141  0.49328241
   0.47640862  0.23773731  0.48378432
   0.47642505  0.81027858  0.49429050
   0.47734548  0.95350147  0.49663353
   0.62017646  0.09602554  0.49968086
   0.62032838  0.23805343  0.49578942
   0.62119657  0.37829501  0.49340986
   0.62154735  0.81468993  0.50468674
   0.62035544  0.95405969  0.50103271
   0.76334716  0.09657073  0.50355798
   0.76330678  0.23887566  0.50230898
   0.76323355  0.38151056  0.49882957
   0.76317114  0.52499363  0.49334402
   0.76649407  0.66976208  0.48700241
   0.76366479  0.81098219  0.49591719
   0.76342966  0.95406708  0.50199451
   0.90611380  0.09628834  0.50140556
   0.90594252  0.23901508  0.50130165
   0.90595353  0.38190838  0.50086098
   0.90629411  0.52492912  0.50053862
   0.90720853  0.66803844  0.49997290
   0.90747841  0.81160763  0.50069087
   0.90662475  0.95379854  0.50236929
   0.46466996  0.35441041  0.46497788
   0.58359176  0.41247009  0.49338610
   0.58466884  0.74287773  0.51011932
   0.46470296  0.68134690  0.48098778
   0.50729755  0.53972279  0.51804072
   0.50025844  0.50466033  0.61351305
   0.40788598  0.41809569  0.40076083
   0.41027880  0.56411181  0.40900249
   0.63409075  0.67351811  0.45913301
   0.63165936  0.53458582  0.47175124
   0.46866930  0.52048217  0.57028520
Direct configuration=     8
   0.00182031  0.00143759  0.49953835
   0.00130569  0.14393159  0.49671498
   0.00099120  0.28653231  0.49555374
   0.00117642  0.42942165  0.49714713
   0.00155145  0.57243951  0.49946618
   0.00241998  0.71568913  0.50088591
   0.00262303  0.85904556  0.50089006
   0.14468509  0.00150293  0.49344162
   0.14410939  0.14403094  0.48624567
   0.14287691  0.28592937  0.47926992
   0.14291175  0.42904489  0.48090104
   0.14409984  0.57208142  0.48940487
   0.14456978  0.71516079  0.49533504
   0.14470873  0.85838262  0.49729785
   0.28689687  0.00074468  0.49162564
   0.28676482  0.14341161  0.47947100
   0.28528248  0.28569777  0.45861230
   0.28119051  0.42688597  0.44615727
   0.28585569  0.57182643  0.46491874
   0.28691213  0.71525627  0.48553333
   0.28690843  0.85808370  0.49400055
   0.42976141  0.00081497  0.49462709
   0.42943997  0.14297316  0.48761540
   0.42829423  0.28242319  0.47128806
   0.42841932  0.71727761  0.48364334
   0.42951867  0.85826476  0.49417530
   0.57251634  0.00124721  0.49905899
   0.57248340  0.14304748  0.49612623
   0.57301508  0.28538227  0.49118047
   0.57307344  0.85922758  0.50099999
   0.71556643  0.00128949  0.50292049
   0.71563765  0.14386034  0.50240785
   0.71549503  0.28635501  0.49958363
   0.71436366  0.42797460  0.49535981
   0.72212857  0.57610726  0.48386731
   0.72249848  0.71949163  0.48155633
   0.71469133  0.85881666  0.50074356
   0.85872054  0.00143766  0.50210881
   0.85840343  0.14395016  0.50271607
   0.85835878  0.28655298  0.50218658
   0.85850394  0.42937480  0.50049976
   0.85908156  0.57283877  0.49881233
   0.86111758  0.71681241  0.49753869
   0.85945880  0.85873644  0.50137779
   0.04926564  0.09664042  0.49492358
   0.04831288  0.23875229  0.49155092
   0.04824337  0.38161316  0.49221953
   0.04908832  0.52467677  0.49602856
   0.04943933  0.66774630  0.49910845
   0.04968615  0.81090535  0.50004019
   0.04965536  0.95397678  0.49862860
   0.19178010  0.09615037  0.48578017
   0.19077784  0.23868611  0.47570582
   0.18875974  0.38048323  0.47027799
   0.19092115  0.52416662  0.47941666
   0.19179052  0.66760320  0.48948981
   0.19201825  0.81056177  0.49556679
   0.19205487  0.95348009  0.49412455
   0.33439167  0.09597881  0.48610711
   0.33504102  0.23827364  0.46765553
   0.32368782  0.37563545  0.43510930
   0.32471679  0.52110924  0.43989193
   0.33541331  0.66862894  0.47642850
   0.33448220  0.81029668  0.49142912
   0.33439919  0.95316382  0.49378638
   0.47731031  0.09568142  0.49326283
   0.47640737  0.23773646  0.48377102
   0.47642627  0.81027725  0.49428234
   0.47735133  0.95350038  0.49661358
   0.62017636  0.09602466  0.49965768
   0.62032607  0.23804940  0.49576695
   0.62119320  0.37829098  0.49341200
   0.62154811  0.81469062  0.50470270
   0.62035520  0.95405979  0.50101696
   0.76334609  0.09657076  0.50353200
   0.76330560  0.23887676  0.50227608
   0.76322926  0.38150815  0.49880352
   0.76316128  0.52499067  0.49336026
   0.76649319  0.66976439  0.48703027
   0.76366634  0.81098473  0.49591917
   0.76343070  0.95406744  0.50197738
   0.90611560  0.09629024  0.50138119
   0.90593993  0.23901503  0.50127221
   0.90594873  0.38190496  0.50081354