  97  97   0   0
  0.3994726E+02  0.1727104E-08  0.1727104E-08  0.1500000E-08  0.0000000E+00
  1.000000000000000E-004
  CAR 
 unknown system                          
      5.79169783    -25.36808027  301     -2.50723348      1.00000000
    -25.368  0.0000E+00  0.0000E+00  0.0000E+00  0.0000E+00
    -25.264  0.0000E+00  0.0000E+00  0.0000E+00  0.0000E+00
    -25.160  0.0000E+00  0.0000E+00  0.0000E+00  0.0000E+00
    -25.056  0.0000E+00  0.0000E+00  0.0000E+00  0.0000E+00
    -24.953  0.0000E+00  0.0000E+00  0.0000E+00  0.0000E+00
    -24.849  0.0000E+00  0.0000E+00  0.0000E+00  0.0000E+00
    -24.745  0.0000E+00  0.0000E+00  0.0000E+00  0.0000E+00
    -24.641  0.0000E+00  0.0000E+00  0.0000E+00  0.0000E+00
    -24.537  0.0000E+00  0.0000E+00  0.0000E+00  0.0000E+00
    -24.433  0.0000E+00  0.0000E+00  0.0000E+00  0.0000E+00
    -24.329  0.0000E+00  0.0000E+00  0.0000E+00  0.0000E+00
    -24.226  0.1519E-15  0.1519E-15  0.1577E-16  0.1577E-16
    -24.122  0.2447E-07  0.2447E-07  0.2541E-08  0.2541E-08
    -24.018  0.9862E-03  0.9862E-03  0.1024E-03  0.1024E-03
    -23.914  0.2652E-01  0.2652E-01  0.2857E-02  0.2857E-02
    -23.810  0.4584E-02  0.4584E-02  0.3333E-02  0.3333E-02
    -23.706  0.9936E-06  0.9936E-06  0.3333E-02  0.3333E-02
    -23.602  0.6154E-13  0.6154E-13  0.3333E-02  0.3333E-02
    -23.498  0.0000E+00  0.0000E+00  0.3333E-02  0.3333E-02
    -23.395  0.0000E+00  0.0000E+00  0.3333E-02  0.3333E-02
    -23.291  0.0000E+00  0.0000E+00  0.3333E-02  0.3333E-02
    -23.187  0.0000E+00  0.0000E+00  0.3333E-02  0.3333E-02
    -23.083  0.0000E+00  0.0000E+00  0.3333E-02  0.3333E-02
    -22.979  0.0000E+00  0.0000E+00  0.3333E-02  0.3333E-02
    -22.875  0.0000E+00  0.0000E+00  0.3333E-02  0.3333E-02
    -22.771  0.0000E+00  0.0000E+00  0.3333E-02  0.3333E-02
    -22.668  0.0000E+00  0.0000E+00  0.3333E-02  0.3333E-02
    -22.564  0.8743E-10  0.8743E-10  0.3333E-02  0.3333E-02
    -22.460  0.5863E-04  0.5863E-04  0.3339E-02  0.3339E-02
    -22.356  0.1943E-01  0.1943E-01  0.5358E-02  0.5358E-02
    -22.252  0.4304E-01  0.4304E-01  0.9829E-02  0.9829E-02
    -22.148  0.1647E-02  0.1647E-02  0.1000E-01  0.1000E-01
    -22.044  0.7822E-07  0.7822E-07  0.1000E-01  0.1000E-01
    -21.941  0.1362E-08  0.1362E-08  0.1000E-01  0.1000E-01
    -21.837  0.1271E-03  0.1271E-03  0.1001E-01  0.1001E-01
    -21.733  0.1015E-01  0.1015E-01  0.1107E-01  0.1107E-01
    -21.629  0.3267E-01  0.3267E-01  0.1446E-01  0.1446E-01
    -21.525  0.1056E-01  0.1056E-01  0.1556E-01  0.1556E-01
    -21.421  0.1454E-01  0.1454E-01  0.1707E-01  0.1707E-01
    -21.317  0.3324E-01  0.3324E-01  0.2052E-01  0.2052E-01
    -21.213  0.1341E-01  0.1341E-01  0.2191E-01  0.2191E-01
    -21.110  0.2133E-01  0.2133E-01  0.2413E-01  0.2413E-01
    -21.006  0.1064E-01  0.1064E-01  0.2523E-01  0.2523E-01
    -20.902  0.4789E-01  0.4789E-01  0.3021E-01  0.3021E-01
    -20.798  0.1920E-01  0.1920E-01  0.3220E-01  0.3220E-01
    -20.694  0.3272E-02  0.3272E-02  0.3254E-01  0.3254E-01
    -20.590  0.1448E-01  0.1448E-01  0.3405E-01  0.3405E-01
    -20.486  0.1817E-01  0.1817E-01  0.3593E-01  0.3593E-01
    -20.383  0.3339E-01  0.3339E-01  0.3940E-01  0.3940E-01
    -20.279  0.4549E-01  0.4549E-01  0.4413E-01  0.4413E-01
    -20.175  0.1124E-01  0.1124E-01  0.4529E-01  0.4529E-01
    -20.071  0.2031E-01  0.2031E-01  0.4740E-01  0.4740E-01
    -19.967  0.1678E-01  0.1678E-01  0.4915E-01  0.4915E-01
    -19.863  0.1421E-01  0.1421E-01  0.5062E-01  0.5062E-01
    -19.759  0.2055E-01  0.2055E-01  0.5276E-01  0.5276E-01
    -19.655  0.2890E-01  0.2890E-01  0.5576E-01  0.5576E-01
    -19.552  0.4107E-01  0.4107E-01  0.6002E-01  0.6002E-01
    -19.448  0.2793E-01  0.2793E-01  0.6292E-01  0.6292E-01
    -19.344  0.1733E-01  0.1733E-01  0.6472E-01  0.6472E-01
    -19.240  0.1777E-01  0.1777E-01  0.6657E-01  0.6657E-01
    -19.136  0.5019E-02  0.5019E-02  0.6709E-01  0.6709E-01
    -19.032  0.2742E-01  0.2742E-01  0.6994E-01  0.6994E-01
    -18.928  0.2737E-01  0.2737E-01  0.7278E-01  0.7278E-01
    -18.825  0.1785E-01  0.1785E-01  0.7464E-01  0.7464E-01
    -18.721  0.2085E-01  0.2085E-01  0.7680E-01  0.7680E-01
    -18.617  0.4253E-01  0.4253E-01  0.8122E-01  0.8122E-01
    -18.513  0.3105E-01  0.3105E-01  0.8445E-01  0.8445E-01
    -18.409  0.2503E-01  0.2503E-01  0.8704E-01  0.8704E-01
    -18.305  0.2210E-01  0.2210E-01  0.8934E-01  0.8934E-01
    -18.201  0.2089E-01  0.2089E-01  0.9151E-01  0.9151E-01
    -18.097  0.1661E-01  0.1661E-01  0.9324E-01  0.9324E-01
    -17.994  0.3350E-01  0.3350E-01  0.9671E-01  0.9671E-01
    -17.890  0.1120E-01  0.1120E-01  0.9788E-01  0.9788E-01
    -17.786  0.1697E-01  0.1697E-01  0.9964E-01  0.9964E-01
    -17.682  0.1485E-01  0.1485E-01  0.1012E+00  0.1012E+00
    -17.578  0.3009E-01  0.3009E-01  0.1043E+00  0.1043E+00
    -17.474  0.5739E-01  0.5739E-01  0.1103E+00  0.1103E+00
    -17.370  0.2527E-01  0.2527E-01  0.1129E+00  0.1129E+00
    -17.267  0.4168E-01  0.4168E-01  0.1172E+00  0.1172E+00
    -17.163  0.1926E-01  0.1926E-01  0.1192E+00  0.1192E+00
    -17.059  0.1486E-01  0.1486E-01  0.1208E+00  0.1208E+00
    -16.955  0.3591E-01  0.3591E-01  0.1245E+00  0.1245E+00
    -16.851  0.2846E-01  0.2846E-01  0.1275E+00  0.1275E+00
    -16.747  0.3119E-02  0.3119E-02  0.1278E+00  0.1278E+00
    -16.643  0.1690E-01  0.1690E-01  0.1295E+00  0.1295E+00
    -16.539  0.2191E-01  0.2191E-01  0.1318E+00  0.1318E+00
    -16.436  0.5686E-01  0.5686E-01  0.1377E+00  0.1377E+00
    -16.332  0.5013E-01  0.5012E-01  0.1429E+00  0.1429E+00
    -16.228  0.3995E-02  0.3995E-02  0.1433E+00  0.1433E+00
    -16.124  0.1730E-02  0.1730E-02  0.1435E+00  0.1435E+00
    -16.020  0.7315E-02  0.7315E-02  0.1443E+00  0.1443E+00
    -15.916  0.1547E-01  0.1547E-01  0.1459E+00  0.1459E+00
    -15.812  0.1581E-01  0.1581E-01  0.1475E+00  0.1475E+00
    -15.709  0.6895E-02  0.6895E-02  0.1482E+00  0.1482E+00
    -15.605  0.4387E-02  0.4387E-02  0.1487E+00  0.1487E+00
    -15.501  0.2951E-01  0.2951E-01  0.1518E+00  0.1518E+00
    -15.397  0.2312E-01  0.2312E-01  0.1542E+00  0.1542E+00
    -15.293  0.2565E-01  0.2565E-01  0.1568E+00  0.1568E+00
    -15.189  0.2666E-01  0.2666E-01  0.1596E+00  0.1596E+00
    -15.085  0.2247E-01  0.2247E-01  0.1619E+00  0.1619E+00
    -14.981  0.3806E-01  0.3806E-01  0.1659E+00  0.1659E+00
    -14.878  0.3761E-01  0.3761E-01  0.1698E+00  0.1698E+00
    -14.774  0.1780E-01  0.1780E-01  0.1716E+00  0.1716E+00
    -14.670  0.2494E-01  0.2494E-01  0.1742E+00  0.1742E+00
    -14.566  0.3991E-01  0.3991E-01  0.1784E+00  0.1784E+00
    -14.462  0.2359E-01  0.2359E-01  0.1808E+00  0.1808E+00
    -14.358  0.2500E-01  0.2500E-01  0.1834E+00  0.1834E+00
    -14.254  0.4192E-01  0.4192E-01  0.1878E+00  0.1878E+00
    -14.151  0.3097E-01  0.3097E-01  0.1910E+00  0.1910E+00
    -14.047  0.2263E-01  0.2263E-01  0.1933E+00  0.1933E+00
    -13.943  0.1812E-01  0.1812E-01  0.1952E+00  0.1952E+00
    -13.839  0.1051E-01  0.1051E-01  0.1963E+00  0.1963E+00
    -13.735  0.1951E-01  0.1951E-01  0.1983E+00  0.1983E+00
    -13.631  0.2179E-01  0.2179E-01  0.2006E+00  0.2006E+00
    -13.527  0.2945E-01  0.2945E-01  0.2037E+00  0.2037E+00
    -13.423  0.2755E-01  0.2755E-01  0.2065E+00  0.2065E+00
    -13.320  0.4345E-01  0.4345E-01  0.2110E+00  0.2110E+00
    -13.216  0.9229E-02  0.9229E-02  0.2120E+00  0.2120E+00
    -13.112  0.2338E-01  0.2338E-01  0.2144E+00  0.2144E+00
    -13.008  0.5557E-02  0.5557E-02  0.2150E+00  0.2150E+00
    -12.904  0.8719E-02  0.8719E-02  0.2159E+00  0.2159E+00
    -12.800  0.3081E-01  0.3081E-01  0.2191E+00  0.2191E+00
    -12.696  0.1998E-01  0.1998E-01  0.2212E+00  0.2212E+00
    -12.593  0.4018E-01  0.4018E-01  0.2254E+00  0.2254E+00
    -12.489  0.4815E-01  0.4815E-01  0.2304E+00  0.2304E+00
    -12.385  0.3954E-01  0.3954E-01  0.2345E+00  0.2345E+00
    -12.281  0.3166E-01  0.3166E-01  0.2378E+00  0.2378E+00
    -12.177  0.1345E-01  0.1345E-01  0.2391E+00  0.2391E+00
    -12.073  0.4237E-02  0.4237E-02  0.2396E+00  0.2396E+00
    -11.969  0.3552E-01  0.3552E-01  0.2433E+00  0.2433E+00
    -11.866  0.4595E-01  0.4595E-01  0.2480E+00  0.2480E+00
    -11.762  0.2895E-01  0.2895E-01  0.2511E+00  0.2511E+00
    -11.658  0.1324E-01  0.1324E-01  0.2524E+00  0.2524E+00
    -11.554  0.4289E-01  0.4289E-01  0.2569E+00  0.2569E+00
    -11.450  0.3552E-01  0.3552E-01  0.2606E+00  0.2606E+00
    -11.346  0.4641E-01  0.4641E-01  0.2654E+00  0.2654E+00
    -11.242  0.2873E-01  0.2873E-01  0.2684E+00  0.2684E+00
    -11.138  0.3230E-01  0.3230E-01  0.2717E+00  0.2717E+00
    -11.035  0.2988E-01  0.2988E-01  0.2748E+00  0.2748E+00
    -10.931  0.4031E-01  0.4031E-01  0.2790E+00  0.2790E+00
    -10.827  0.3924E-01  0.3924E-01  0.2831E+00  0.2831E+00
    -10.723  0.3696E-01  0.3696E-01  0.2869E+00  0.2869E+00
    -10.619  0.6193E-02  0.6193E-02  0.2876E+00  0.2876E+00
    -10.515  0.2012E-01  0.2012E-01  0.2897E+00  0.2897E+00
    -10.411  0.1204E-01  0.1204E-01  0.2909E+00  0.2909E+00
    -10.308  0.2221E-01  0.2221E-01  0.2932E+00  0.2932E+00
    -10.204  0.4955E-01  0.4955E-01  0.2984E+00  0.2984E+00
    -10.100  0.6191E-01  0.6191E-01  0.3048E+00  0.3048E+00
     -9.996  0.5499E-01  0.5499E-01  0.3105E+00  0.3105E+00
     -9.892  0.4362E-01  0.4362E-01  0.3151E+00  0.3151E+00
     -9.788  0.7496E-01  0.7496E-01  0.3228E+00  0.3228E+00
     -9.684  0.4965E-01  0.4965E-01  0.3280E+00  0.3280E+00
     -9.580  0.3936E-01  0.3936E-01  0.3321E+00  0.3321E+00
     -9.477  0.6267E-01  0.6267E-01  0.3386E+00  0.3386E+00
     -9.373  0.6370E-01  0.6370E-01  0.3452E+00  0.3452E+00
     -9.269  0.5635E-01  0.5635E-01  0.3511E+00  0.3511E+00
     -9.165  0.5403E-01  0.5403E-01  0.3567E+00  0.3567E+00
     -9.061  0.6062E-01  0.6062E-01  0.3630E+00  0.3630E+00
     -8.957  0.9184E-01  0.9184E-01  0.3725E+00  0.3725E+00
     -8.853  0.7669E-01  0.7669E-01  0.3805E+00  0.3805E+00
     -8.750  0.9134E-01  0.9134E-01  0.3900E+00  0.3900E+00
     -8.646  0.5299E-01  0.5299E-01  0.3955E+00  0.3955E+00
     -8.542  0.7630E-01  0.7630E-01  0.4034E+00  0.4034E+00
     -8.438  0.5002E-01  0.5002E-01  0.4086E+00  0.4086E+00
     -8.334  0.6618E-01  0.6618E-01  0.4155E+00  0.4155E+00
     -8.230  0.7657E-01  0.7657E-01  0.4234E+00  0.4234E+00
     -8.126  0.8062E-01  0.8062E-01  0.4318E+00  0.4318E+00
     -8.022  0.4258E-01  0.4258E-01  0.4362E+00  0.4362E+00
     -7.919  0.5980E-01  0.5980E-01  0.4424E+00  0.4424E+00
     -7.815  0.4562E-01  0.4562E-01  0.4472E+00  0.4472E+00
     -7.711  0.7361E-01  0.7361E-01  0.4548E+00  0.4548E+00
     -7.607  0.2426E-01  0.2426E-01  0.4573E+00  0.4573E+00
     -7.503  0.3410E-01  0.3410E-01  0.4609E+00  0.4609E+00
     -7.399  0.4232E-01  0.4232E-01  0.4653E+00  0.4653E+00
     -7.295  0.7320E-01  0.7320E-01  0.4729E+00  0.4729E+00
     -7.192  0.7827E-01  0.7827E-01  0.4810E+00  0.4810E+00
     -7.088  0.4994E-01  0.4994E-01  0.4862E+00  0.4862E+00
     -6.984  0.4825E-01  0.4825E-01  0.4912E+00  0.4912E+00
     -6.880  0.4646E-01  0.4646E-01  0.4960E+00  0.4960E+00
     -6.776  0.3238E-01  0.3238E-01  0.4994E+00  0.4994E+00
     -6.672  0.3560E-01  0.3560E-01  0.5031E+00  0.5031E+00
     -6.568  0.3475E-01  0.3475E-01  0.5067E+00  0.5067E+00
     -6.464  0.3719E-01  0.3719E-01  0.5105E+00  0.5105E+00
     -6.361  0.3319E-01  0.3319E-01  0.5140E+00  0.5140E+00
     -6.257  0.5576E-01  0.5576E-01  0.5198E+00  0.5198E+00
     -6.153  0.7412E-01  0.7412E-01  0.5275E+00  0.5275E+00
     -6.049  0.4338E-01  0.4338E-01  0.5320E+00  0.5320E+00
     -5.945  0.3827E-01  0.3827E-01  0.5360E+00  0.5360E+00
     -5.841  0.4746E-01  0.4746E-01  0.5409E+00  0.5409E+00
     -5.737  0.7048E-01  0.7048E-01  0.5482E+00  0.5482E+00
     -5.634  0.3723E-01  0.3723E-01  0.5521E+00  0.5521E+00
     -5.530  0.2203E-01  0.2203E-01  0.5544E+00  0.5544E+00
     -5.426  0.1341E-01  0.1341E-01  0.5558E+00  0.5558E+00
     -5.322  0.8602E-02  0.8602E-02  0.5567E+00  0.5567E+00
     -5.218  0.1075E-01  0.1075E-01  0.5578E+00  0.5578E+00
     -5.114  0.4384E-01  0.4384E-01  0.5623E+00  0.5623E+00
     -5.010  0.6708E-01  0.6708E-01  0.5693E+00  0.5693E+00
     -4.906  0.5903E-01  0.5903E-01  0.5754E+00  0.5754E+00
     -4.803  0.5201E-01  0.5201E-01  0.5808E+00  0.5808E+00
     -4.699  0.3203E-01  0.3203E-01  0.5842E+00  0.5842E+00
     -4.595  0.4554E-01  0.4554E-01  0.5889E+00  0.5889E+00
     -4.491  0.1861E-01  0.1861E-01  0.5908E+00  0.5908E+00
     -4.387  0.3696E-02  0.3696E-02  0.5912E+00  0.5912E+00
     -4.283  0.3531E-01  0.3531E-01  0.5949E+00  0.5949E+00
     -4.179  0.2088E-01  0.2088E-01  0.5970E+00  0.5970E+00
     -4.076  0.2587E-01  0.2587E-01  0.5997E+00  0.5997E+00
     -3.972  0.3309E-01  0.3309E-01  0.6032E+00  0.6032E+00
     -3.868  0.2459E-01  0.2459E-01  0.6057E+00  0.6057E+00
     -3.764  0.9106E-02  0.9106E-02  0.6067E+00  0.6067E+00
     -3.660  0.2437E-04  0.2437E-04  0.6067E+00  0.6067E+00
     -3.556  0.1620E-02  0.1620E-02  0.6068E+00  0.6068E+00
     -3.452  0.6355E-02  0.6355E-02  0.6075E+00  0.6075E+00
     -3.349  0.1094E-01  0.1094E-01  0.6086E+00  0.6086E+00
     -3.245  0.1549E-01  0.1549E-01  0.6102E+00  0.6102E+00
     -3.141  0.1271E-01  0.1271E-01  0.6116E+00  0.6116E+00
     -3.037  0.1026E-02  0.1026E-02  0.6117E+00  0.6117E+00
     -2.933  0.1705E-06  0.1705E-06  0.6117E+00  0.6117E+00
     -2.829  0.7388E-06  0.7388E-06  0.6117E+00  0.6117E+00
     -2.725  0.2652E-02  0.2652E-02  0.6119E+00  0.6119E+00
     -2.621  0.1300E-01  0.1300E-01  0.6133E+00  0.6133E+00
     -2.518  0.3965E-03  0.3965E-03  0.6133E+00  0.6133E+00
     -2.414  0.8639E-04  0.8639E-04  0.6133E+00  0.6133E+00
     -2.310  0.1036E-01  0.1036E-01  0.6144E+00  0.6144E+00
     -2.206  0.5596E-02  0.5596E-02  0.6150E+00  0.6150E+00
     -2.102  0.7126E-05  0.7126E-05  0.6150E+00  0.6150E+00
     -1.998  0.5565E-03  0.5565E-03  0.6151E+00  0.6151E+00
     -1.894  0.8422E-02  0.8422E-02  0.6159E+00  0.6159E+00
     -1.791  0.1185E-01  0.1185E-01  0.6172E+00  0.6172E+00
     -1.687  0.1689E-01  0.1689E-01  0.6189E+00  0.6189E+00
     -1.583  0.5954E-02  0.5954E-02  0.6195E+00  0.6195E+00
     -1.479  0.4507E-02  0.4507E-02  0.6200E+00  0.6200E+00
     -1.375  0.1173E-01  0.1173E-01  0.6212E+00  0.6212E+00
     -1.271  0.3058E-01  0.3058E-01  0.6244E+00  0.6244E+00
     -1.167  0.5785E-02  0.5785E-02  0.6250E+00  0.6250E+00
     -1.063  0.2782E-02  0.2782E-02  0.6253E+00  0.6253E+00
     -0.960  0.2458E-01  0.2458E-01  0.6278E+00  0.6278E+00
     -0.856  0.6001E-01  0.6001E-01  0.6341E+00  0.6341E+00
     -0.752  0.2328E-01  0.2328E-01  0.6365E+00  0.6365E+00
     -0.648  0.3079E-01  0.3079E-01  0.6397E+00  0.6397E+00
     -0.544  0.3353E-01  0.3353E-01  0.6432E+00  0.6432E+00
     -0.440  0.2328E-01  0.2328E-01  0.6456E+00  0.6456E+00
     -0.336  0.1675E-01  0.1675E-01  0.6473E+00  0.6473E+00
     -0.233  0.1646E-01  0.1646E-01  0.6490E+00  0.6490E+00
     -0.129  0.3824E-01  0.3824E-01  0.6530E+00  0.6530E+00
     -0.025  0.2951E-01  0.2951E-01  0.6561E+00  0.6561E+00
      0.079  0.3384E-01  0.3384E-01  0.6596E+00  0.6596E+00
      0.183  0.4079E-01  0.4079E-01  0.6638E+00  0.6638E+00
      0.287  0.1659E-01  0.1659E-01  0.6656E+00  0.6656E+00
      0.391  0.1054E-01  0.1054E-01  0.6666E+00  0.6666E+00
      0.495  0.1026E-01  0.1026E-01  0.6677E+00  0.6677E+00
      0.598  0.1801E-01  0.1801E-01  0.6696E+00  0.6696E+00
      0.702  0.2107E-01  0.2107E-01  0.6718E+00  0.6718E+00
      0.806  0.3576E-01  0.3576E-01  0.6755E+00  0.6755E+00
      0.910  0.1672E-01  0.1672E-01  0.6772E+00  0.6772E+00
      1.014  0.3845E-01  0.3845E-01  0.6812E+00  0.6812E+00
      1.118  0.3075E-01  0.3075E-01  0.6844E+00  0.6844E+00
      1.222  0.2071E-01  0.2071E-01  0.6866E+00  0.6866E+00
      1.325  0.3400E-01  0.3400E-01  0.6901E+00  0.6901E+00
      1.429  0.5734E-01  0.5734E-01  0.6960E+00  0.6960E+00
      1.533  0.5573E-01  0.5573E-01  0.7018E+00  0.7018E+00
      1.637  0.4356E-01  0.4356E-01  0.7064E+00  0.7064E+00
      1.741  0.3765E-01  0.3765E-01  0.7103E+00  0.7103E+00
      1.845  0.2721E-01  0.2721E-01  0.7131E+00  0.7131E+00
      1.949  0.5075E-01  0.5075E-01  0.7184E+00  0.7184E+00
      2.053  0.6386E-01  0.6386E-01  0.7250E+00  0.7250E+00
      2.156  0.4500E-01  0.4500E-01  0.7297E+00  0.7297E+00
      2.260  0.6970E-01  0.6970E-01  0.7369E+00  0.7369E+00
      2.364  0.6442E-01  0.6442E-01  0.7436E+00  0.7436E+00
      2.468  0.8770E-01  0.8770E-01  0.7527E+00  0.7527E+00
      2.572  0.1677E-01  0.1677E-01  0.7545E+00  0.7545E+00
      2.676  0.2774E-01  0.2774E-01  0.7573E+00  0.7573E+00
      2.780  0.6447E-01  0.6447E-01  0.7640E+00  0.7640E+00
      2.883  0.1185E+00  0.1185E+00  0.7763E+00  0.7763E+00
      2.987  0.1464E+00  0.1464E+00  0.7915E+00  0.7915E+00
      3.091  0.5200E-01  0.5200E-01  0.7969E+00  0.7969E+00
      3.195  0.6883E-01  0.6883E-01  0.8041E+00  0.8041E+00
      3.299  0.6846E-01  0.6846E-01  0.8112E+00  0.8112E+00
      3.403  0.3074E-01  0.3074E-01  0.8144E+00  0.8144E+00
      3.507  0.8392E-01  0.8392E-01  0.8231E+00  0.8231E+00
      3.611  0.6925E-01  0.6925E-01  0.8303E+00  0.8303E+00
      3.714  0.3895E-01  0.3895E-01  0.8343E+00  0.8343E+00
      3.818  0.8711E-01  0.8711E-01  0.8434E+00  0.8434E+00
      3.922  0.8543E-01  0.8543E-01  0.8523E+00  0.8523E+00
      4.026  0.7718E-01  0.7718E-01  0.8603E+00  0.8603E+00
      4.130  0.4567E-01  0.4567E-01  0.8650E+00  0.8650E+00
      4.234  0.6001E-01  0.5998E-01  0.8713E+00  0.8713E+00
      4.338  0.9341E-01  0.9344E-01  0.8810E+00  0.8810E+00
      4.441  0.2253E-01  0.2267E-01  0.8833E+00  0.8833E+00
      4.545  0.2793E-03  0.1318E-03  0.8833E+00  0.8833E+00
      4.649  0.6170E-08  0.6955E-09  0.8833E+00  0.8833E+00
      4.753  0.3830E-16  0.8908E-18  0.8833E+00  0.8833E+00
      4.857  0.0000E+00  0.0000E+00  0.8833E+00  0.8833E+00
      4.961  0.0000E+00  0.0000E+00  0.8833E+00  0.8833E+00
      5.065  0.0000E+00  0.0000E+00  0.8833E+00  0.8833E+00
      5.169  0.0000E+00  0.0000E+00  0.8833E+00  0.8833E+00
      5.272  0.0000E+00  0.0000E+00  0.8833E+00  0.8833E+00
      5.376  0.0000E+00  0.0000E+00  0.8833E+00  0.8833E+00
      5.480  0.0000E+00  0.0000E+00  0.8833E+00  0.8833E+00
      5.584  0.0000E+00  0.0000E+00  0.8833E+00  0.8833E+00
      5.688  0.0000E+00  0.0000E+00  0.8833E+00  0.8833E+00
      5.792  0.0000E+00  0.0000E+00  0.8833E+00  0.8833E+00
