       N       E                     dE             d eps       ncg     rms          rms(c)
DAV:   1     0.326295624676E+04    0.32630E+04   -0.13767E+05  4590   0.105E+03
DAV:   2    -0.251148724465E+03   -0.35141E+04   -0.33112E+04  6400   0.258E+02
DAV:   3    -0.864096617160E+03   -0.61295E+03   -0.61021E+03  5280   0.111E+02
DAV:   4    -0.886231090151E+03   -0.22134E+02   -0.22055E+02  5390   0.266E+01
DAV:   5    -0.886859398042E+03   -0.62831E+00   -0.62755E+00  6080   0.382E+00    0.518E+01
DAV:   6    -0.869569711174E+03    0.17290E+02   -0.21864E+01  5150   0.735E+00    0.337E+01
DAV:   7    -0.847405589169E+03    0.22164E+02   -0.32751E+01  5060   0.865E+00    0.204E+01
DAV:   8    -0.842612558984E+03    0.47930E+01   -0.24062E+01  5150   0.736E+00    0.822E+00
DAV:   9    -0.842508989800E+03    0.10357E+00   -0.11059E+00  5050   0.204E+00    0.329E+00
DAV:  10    -0.842417735118E+03    0.91255E-01   -0.45942E-01  4890   0.122E+00    0.971E-01
DAV:  11    -0.842406428620E+03    0.11306E-01   -0.90583E-02  4820   0.540E-01    0.340E-01
DAV:  12    -0.842404437405E+03    0.19912E-02   -0.92031E-03  5350   0.180E-01    0.179E-01
DAV:  13    -0.842404024133E+03    0.41327E-03   -0.26509E-03  5185   0.112E-01    0.823E-02
DAV:  14    -0.842404150065E+03   -0.12593E-03   -0.60703E-04  5160   0.491E-02    0.528E-02
DAV:  15    -0.842404182285E+03   -0.32220E-04   -0.74013E-05  4900   0.180E-02    0.287E-02
DAV:  16    -0.842404195358E+03   -0.13073E-04   -0.29437E-05  3960   0.113E-02    0.103E-02
DAV:  17    -0.842404195299E+03    0.58368E-07   -0.57835E-06  3600   0.578E-03
   1 F= -.85016684E+03 E0= -.85016684E+03  d E =-.850167E+03  mag=     0.0001
       N       E                     dE             d eps       ncg     rms          rms(c)
DAV:   1    -0.842404166018E+03    0.29340E-04   -0.45567E-04  4510   0.427E-02    0.566E-03
DAV:   2    -0.842404166281E+03   -0.26319E-06   -0.83797E-06  2800   0.584E-03
   2 F= -.85016681E+03 E0= -.85016681E+03  d E =0.266605E-04  mag=    -0.0000
       N       E                     dE             d eps       ncg     rms          rms(c)
DAV:   1    -0.842404097855E+03    0.68163E-04   -0.10937E-03  4480   0.630E-02    0.104E-02
DAV:   2    -0.842404098001E+03   -0.14519E-06   -0.15949E-05  3390   0.762E-03
   3 F= -.85016675E+03 E0= -.85016675E+03  d E =0.639933E-04  mag=     0.0000
       N       E                     dE             d eps       ncg     rms          rms(c)
DAV:   1    -0.842403999805E+03    0.98050E-04   -0.22892E-03  4440   0.902E-02    0.144E-02
DAV:   2    -0.842404000295E+03   -0.48998E-06   -0.30768E-05  4250   0.104E-02
   4 F= -.85016666E+03 E0= -.85016666E+03  d E =0.910769E-04  mag=    -0.0000
       N       E                     dE             d eps       ncg     rms          rms(c)
DAV:   1    -0.842403857109E+03    0.14270E-03   -0.41088E-03  4360   0.121E-01    0.197E-02
DAV:   2    -0.842403857911E+03   -0.80175E-06   -0.54946E-05  4590   0.138E-02
   5 F= -.85016652E+03 E0= -.85016652E+03  d E =0.132923E-03  mag=     0.0000
