 vasp.6.4.2 20Jul23 (build Aug 26 2025 15:10:52) complex                        
  
 executed on             LinuxIFC date 2025.12.02  12:14:44
 running   50 mpi-ranks, on    1 nodes
 each image running on   10 cores
 distrk:  each k-point on    5 cores,    2 groups
 distr:  one band on NCORE=   1 cores,    5 groups


--------------------------------------------------------------------------------------------------------


 INCAR:
   ENCUT = 520
   EDIFF = 1E-5
   NELM = 200
   ALGO = Normal
   ISMEAR = 0
   SIGMA = 0.05
   LASPH = .TRUE.
   ADDGRID = .TRUE.
   LREAL = Auto
   ISYM = 0
   ISPIN = 2
   MAGMOM = 97*0.6
   IMIX = 4
   AMIX = 0.20
   BMIX = 1E-4
   AMIX_MAG = 0.80
   BMIX_MAG = 1E-4
   IBRION = 3
   POTIM = 0
   IMAGES = 5
   SPRING = -5
   LCLIMB = .TRUE.
   IOPT = 7
   ISIF = 2
   EDIFFG = -0.03
   NSW = 300
   IVDW = 12
   ISTART = 0
   ICHARG = 2
   LWAVE = .FALSE.
   LCHARG = .FALSE.
   KPAR = 2

 POTCAR:    PAW_PBE C 08Apr2002                   
 POTCAR:    PAW_PBE H 15Jun2001                   
 POTCAR:    PAW_PBE N 08Apr2002                   
 POTCAR:    PAW_PBE O 08Apr2002                   
 -----------------------------------------------------------------------------
|                                                                             |
|           W    W    AA    RRRRR   N    N  II  N    N   GGGG   !!!           |
|           W    W   A  A   R    R  NN   N  II  NN   N  G    G  !!!           |
|           W    W  A    A  R    R  N N  N  II  N N  N  G       !!!           |
|           W WW W  AAAAAA  RRRRR   N  N N  II  N  N N  G  GGG   !            |
|           WW  WW  A    A  R   R   N   NN  II  N   NN  G    G                |
|           W    W  A    A  R    R  N    N  II  N    N   GGGG   !!!           |
|                                                                             |
|     For optimal performance we recommend to set                             |
|       NCORE = 2 up to number-of-cores-per-socket                            |
|     NCORE specifies how many cores store one orbital (NPAR=cpu/NCORE).      |
|     This setting can greatly improve the performance of VASP for DFT.       |
|     The default, NCORE=1 might be grossly inefficient on modern             |
|     multi-core architectures or massively parallel machines. Do your        |
|     own testing! More info at https://www.vasp.at/wiki/index.php/NCORE      |
|     Unfortunately you need to use the default for GW and RPA                |
|     calculations (for HF NCORE is supported but not extensively tested      |
|     yet).                                                                   |
|                                                                             |
 -----------------------------------------------------------------------------

 POTCAR:    PAW_PBE C 08Apr2002                   
   SHA256 =  253f7b50bb8d59471dbedb8285d89021f4a42ed1a2c5d38a03a736e69125dd95 C/POTCAR              
   COPYR  = (c) Copyright 08Apr2002 Georg Kresse                                                    
   COPYR  = This file is part of the software VASP. Any use, copying, and all other rights are regul
   COPYR  = If you do not have a valid VASP license, you may not use, copy or distribute this file. 
   VRHFIN =C: s2p2                                                                                  
   LEXCH  = PE                                                                                      
   EATOM  =   147.1560 eV,   10.8157 Ry                                                             
                                                                                                    
   TITEL  = PAW_PBE C 08Apr2002                                                                     
   LULTRA =        F    use ultrasoft PP ?                                                          
   IUNSCR =        1    unscreen: 0-lin 1-nonlin 2-no                                               
   RPACOR =    1.200    partial core radius                                                         
   POMASS =   12.011; ZVAL   =    4.000    mass and valenz                                          
   RCORE  =    1.500    outmost cutoff radius                                                       
   RWIGS  =    1.630; RWIGS  =    0.863    wigner-seitz radius (au A)                               
   ENMAX  =  400.000; ENMIN  =  300.000 eV                                                          
   ICORE  =        2    local potential                                                             
   LCOR   =        T    correct aug charges                                                         
   LPAW   =        T    paw PP                                                                      
   EAUG   =  644.873                                                                                
   DEXC   =    0.000                                                                                
   RMAX   =    1.529    core radius for proj-oper                                                   
   RAUG   =    1.300    factor for augmentation sphere                                              
   RDEP   =    1.501    radius for radial grids                                                     
   RDEPT  =    1.300    core radius for aug-charge                                                  
                                                                                                    
   Atomic configuration                                                                             
    4 entries                                                                                       
     n  l   j            E        occ.                                                              
     1  0  0.50      -273.3789   2.0000                                                             
     2  0  0.50       -13.7508   2.0000                                                             
     2  1  0.50        -5.2854   2.0000                                                             
     3  2  1.50        -5.4423   0.0000                                                             
   Description                                                                                      
     l       E           TYP  RCUT    TYP  RCUT                                                     
     0    -13.7508458     23  1.200                                                                 
     0     -8.2022199     23  1.200                                                                 
     1     -5.2854383     23  1.500                                                                 
     1     34.0145650     23  1.500                                                                 
     2     -5.4423304      7  1.500                                                                 
  local pseudopotential read in
  partial core-charges read in
  partial kinetic energy density read in
  atomic valenz-charges read in
  non local Contribution for L=           0  read in
    real space projection operators read in
  non local Contribution for L=           0  read in
    real space projection operators read in
  non local Contribution for L=           1  read in
    real space projection operators read in
  non local Contribution for L=           1  read in
    real space projection operators read in
    PAW grid and wavefunctions read in
 
   number of l-projection  operators is LMAX  =           4
   number of lm-projection operators is LMMAX =           8
 
 POTCAR:    PAW_PBE H 15Jun2001                   
   SHA256 =  030f79b5d3ab3cf0e668861823c8fb652ff669f3e15e46930bd03bfd63a607b6 H/POTCAR              
   COPYR  = (c) Copyright 15Jun2001 Georg Kresse                                                    
   COPYR  = This file is part of the software VASP. Any use, copying, and all other rights are regul
   COPYR  = If you do not have a valid VASP license, you may not use, copy or distribute this file. 
   VRHFIN =H: ultrasoft test                                                                        
   LEXCH  = PE                                                                                      
   EATOM  =    12.4884 eV,    0.9179 Ry                                                             
                                                                                                    
   TITEL  = PAW_PBE H 15Jun2001                                                                     
   LULTRA =        F    use ultrasoft PP ?                                                          
   IUNSCR =        0    unscreen: 0-lin 1-nonlin 2-no                                               
   RPACOR =    0.000    partial core radius                                                         
   POMASS =    1.000; ZVAL   =    1.000    mass and valenz                                          
   RCORE  =    1.100    outmost cutoff radius                                                       
   RWIGS  =    0.700; RWIGS  =    0.370    wigner-seitz radius (au A)                               
   ENMAX  =  250.000; ENMIN  =  200.000 eV                                                          
   RCLOC  =    0.701    cutoff for local pot                                                        
   LCOR   =        T    correct aug charges                                                         
   LPAW   =        T    paw PP                                                                      
   EAUG   =  400.000                                                                                
   RMAX   =    1.123    core radius for proj-oper                                                   
   RAUG   =    1.200    factor for augmentation sphere                                              
   RDEP   =    1.112    radius for radial grids                                                     
   RDEPT  =    0.926    core radius for aug-charge                                                  
                                                                                                    
   Atomic configuration                                                                             
    2 entries                                                                                       
     n  l   j            E        occ.                                                              
     1  0  0.50        -6.4927   1.0000                                                             
     2  1  0.50        -3.4015   0.0000                                                             
   Description                                                                                      
     l       E           TYP  RCUT    TYP  RCUT                                                     
     0     -6.4927494     23  1.100                                                                 
     0      6.8029130     23  1.100                                                                 
     1     -4.0817478     23  1.100                                                                 
  local pseudopotential read in
  atomic valenz-charges read in
  non local Contribution for L=           0  read in
    real space projection operators read in
  non local Contribution for L=           0  read in
    real space projection operators read in
  non local Contribution for L=           1  read in
    real space projection operators read in
    PAW grid and wavefunctions read in
 
   number of l-projection  operators is LMAX  =           3
   number of lm-projection operators is LMMAX =           5
 
 POTCAR:    PAW_PBE N 08Apr2002                   
   SHA256 =  e053789ff3a61a86a1b75d8a110fcc91f86041011e7b0817c7c99e4e8a6349d7 N/POTCAR              
   COPYR  = (c) Copyright 08Apr2002 Georg Kresse                                                    
   COPYR  = This file is part of the software VASP. Any use, copying, and all other rights are regul
   COPYR  = If you do not have a valid VASP license, you may not use, copy or distribute this file. 
   VRHFIN =N: s2p3                                                                                  
   LEXCH  = PE                                                                                      
   EATOM  =   264.5486 eV,   19.4438 Ry                                                             
                                                                                                    
   TITEL  = PAW_PBE N 08Apr2002                                                                     
   LULTRA =        F    use ultrasoft PP ?                                                          
   IUNSCR =        1    unscreen: 0-lin 1-nonlin 2-no                                               
   RPACOR =    1.200    partial core radius                                                         
   POMASS =   14.001; ZVAL   =    5.000    mass and valenz                                          
   RCORE  =    1.500    outmost cutoff radius                                                       
   RWIGS  =    1.400; RWIGS  =    0.741    wigner-seitz radius (au A)                               
   ENMAX  =  400.000; ENMIN  =  300.000 eV                                                          
   ICORE  =        2    local potential                                                             
   LCOR   =        T    correct aug charges                                                         
   LPAW   =        T    paw PP                                                                      
   EAUG   =  627.112                                                                                
   DEXC   =    0.000                                                                                
   RMAX   =    1.529    core radius for proj-oper                                                   
   RAUG   =    1.300    factor for augmentation sphere                                              
   RDEP   =    1.514    radius for radial grids                                                     
   RDEPT  =    1.338    core radius for aug-charge                                                  
                                                                                                    
   Atomic configuration                                                                             
    4 entries                                                                                       
     n  l   j            E        occ.                                                              
     1  0  0.50      -384.7179   2.0000                                                             
     2  0  0.50       -18.5828   2.0000                                                             
     2  1  0.50        -7.0898   3.0000                                                             
     3  2  1.50        -6.8029   0.0000                                                             
   Description                                                                                      
     l       E           TYP  RCUT    TYP  RCUT                                                     
     0    -18.5828119     23  1.200                                                                 
     0    -13.5018863     23  1.200                                                                 
     1     -7.0897853     23  1.500                                                                 
     1      9.5240782     23  1.500                                                                 
     2     -6.8029130      7  1.500                                                                 
  local pseudopotential read in
  partial core-charges read in
  partial kinetic energy density read in
  atomic valenz-charges read in
  non local Contribution for L=           0  read in
    real space projection operators read in
  non local Contribution for L=           0  read in
    real space projection operators read in
  non local Contribution for L=           1  read in
    real space projection operators read in
  non local Contribution for L=           1  read in
    real space projection operators read in
    PAW grid and wavefunctions read in
 
   number of l-projection  operators is LMAX  =           4
   number of lm-projection operators is LMMAX =           8
 
 POTCAR:    PAW_PBE O 08Apr2002                   
   SHA256 =  818f92134a0a090dccd8ba1447fa70422a3b330e708bb4f08108d8ae51209ddf O/POTCAR              
   COPYR  = (c) Copyright 08Apr2002 Georg Kresse                                                    
   COPYR  = This file is part of the software VASP. Any use, copying, and all other rights are regul
   COPYR  = If you do not have a valid VASP license, you may not use, copy or distribute this file. 
   VRHFIN =O: s2p4                                                                                  
   LEXCH  = PE                                                                                      
   EATOM  =   432.3788 eV,   31.7789 Ry                                                             
                                                                                                    
   TITEL  = PAW_PBE O 08Apr2002                                                                     
   LULTRA =        F    use ultrasoft PP ?                                                          
   IUNSCR =        1    unscreen: 0-lin 1-nonlin 2-no                                               
   RPACOR =    1.200    partial core radius                                                         
   POMASS =   16.000; ZVAL   =    6.000    mass and valenz                                          
   RCORE  =    1.520    outmost cutoff radius                                                       
   RWIGS  =    1.550; RWIGS  =    0.820    wigner-seitz radius (au A)                               
   ENMAX  =  400.000; ENMIN  =  300.000 eV                                                          
   ICORE  =        2    local potential                                                             
   LCOR   =        T    correct aug charges                                                         
   LPAW   =        T    paw PP                                                                      
   EAUG   =  605.392                                                                                
   DEXC   =    0.000                                                                                
   RMAX   =    1.553    core radius for proj-oper                                                   
   RAUG   =    1.300    factor for augmentation sphere                                              
   RDEP   =    1.550    radius for radial grids                                                     
   RDEPT  =    1.329    core radius for aug-charge                                                  
                                                                                                    
   Atomic configuration                                                                             
    4 entries                                                                                       
     n  l   j            E        occ.                                                              
     1  0  0.50      -514.6923   2.0000                                                             
     2  0  0.50       -23.9615   2.0000                                                             
     2  1  0.50        -9.0305   4.0000                                                             
     3  2  1.50        -9.5241   0.0000                                                             
   Description                                                                                      
     l       E           TYP  RCUT    TYP  RCUT                                                     
     0    -23.9615318     23  1.200                                                                 
     0     -9.5240782     23  1.200                                                                 
     1     -9.0304911     23  1.520                                                                 
     1      8.1634956     23  1.520                                                                 
     2     -9.5240782      7  1.500                                                                 
  local pseudopotential read in
  partial core-charges read in
  partial kinetic energy density read in
  kinetic energy density of atom read in
  atomic valenz-charges read in
  non local Contribution for L=           0  read in
    real space projection operators read in
  non local Contribution for L=           0  read in
    real space projection operators read in
  non local Contribution for L=           1  read in
    real space projection operators read in
  non local Contribution for L=           1  read in
    real space projection operators read in
    PAW grid and wavefunctions read in
 
   number of l-projection  operators is LMAX  =           4
   number of lm-projection operators is LMMAX =           8
 
 Optimization of the real space projectors (new method)

 maximal supplied QI-value         = 25.13
 optimisation between [QCUT,QGAM] = [ 11.56, 23.12] = [ 37.43,149.72] Ry 
 Optimized for a Real-space Cutoff    1.04 Angstroem

   l    n(q)    QCUT    max X(q) W(low)/X(q) W(high)/X(q)  e(spline) 
   0      7    11.561   115.676    0.20E-03    0.60E-03    0.21E-06
   0      7    11.561    87.132    0.20E-03    0.59E-03    0.21E-06
   1      7    11.561     4.429    0.23E-03    0.35E-03    0.15E-06
   1      7    11.561     2.733    0.18E-03    0.25E-03    0.12E-06
 Optimization of the real space projectors (new method)

 maximal supplied QI-value         = 34.20
 optimisation between [QCUT,QGAM] = [ 11.63, 23.26] = [ 37.87,151.49] Ry 
 Optimized for a Real-space Cutoff    1.14 Angstroem

   l    n(q)    QCUT    max X(q) W(low)/X(q) W(high)/X(q)  e(spline) 
   0      8    11.629    19.460    0.27E-03    0.65E-03    0.17E-06
   0      8    11.629    12.209    0.25E-03    0.62E-03    0.16E-06
   1      7    11.629     4.655    0.29E-03    0.85E-04    0.19E-06
 Optimization of the real space projectors (new method)

 maximal supplied QI-value         = 25.13
 optimisation between [QCUT,QGAM] = [ 11.56, 23.12] = [ 37.43,149.72] Ry 
 Optimized for a Real-space Cutoff    1.25 Angstroem

   l    n(q)    QCUT    max X(q) W(low)/X(q) W(high)/X(q)  e(spline) 
   0      9    11.561    79.467    0.52E-04    0.16E-03    0.37E-06
   0      9    11.561    66.151    0.51E-04    0.16E-03    0.37E-06
   1      8    11.561    18.886    0.46E-03    0.28E-03    0.80E-06
   1      8    11.561    13.488    0.47E-03    0.29E-03    0.82E-06
 Optimization of the real space projectors (new method)

 maximal supplied QI-value         = 24.76
 optimisation between [QCUT,QGAM] = [ 11.64, 23.27] = [ 37.91,151.63] Ry 
 Optimized for a Real-space Cutoff    1.04 Angstroem

   l    n(q)    QCUT    max X(q) W(low)/X(q) W(high)/X(q)  e(spline) 
   0      7    11.635    20.381    0.14E-03    0.49E-03    0.18E-06
   0      7    11.635    15.268    0.16E-03    0.52E-03    0.19E-06
   1      7    11.635     5.964    0.30E-03    0.44E-03    0.22E-06
   1      7    11.635     5.382    0.27E-03    0.34E-03    0.19E-06
  PAW_PBE C 08Apr2002                   :
 energy of atom  1       EATOM= -147.1560
 kinetic energy error for atom=    0.0071 (will be added to EATOM!!)
  PAW_PBE H 15Jun2001                   :
 energy of atom  2       EATOM=  -12.4884
 kinetic energy error for atom=    0.0014 (will be added to EATOM!!)
  PAW_PBE N 08Apr2002                   :
 energy of atom  3       EATOM= -264.5486
 kinetic energy error for atom=    0.0125 (will be added to EATOM!!)
  PAW_PBE O 08Apr2002                   :
 energy of atom  4       EATOM= -432.3788
 kinetic energy error for atom=    0.0208 (will be added to EATOM!!)
 
 
 POSCAR: C    H    N    O
  positions in direct lattice
  velocities in cartesian coordinates
 exchange correlation table for  LEXCH =        8
   RHO(1)=    0.500       N(1)  =     2000
   RHO(2)=  100.500       N(2)  =     4000

 VTST: version 4.1, (05/19/21)

 CHAIN: initializing optimizer
 
 OPT: Using FIRE optimizer
 OPT: FIRE, Init
 OPT: FIRE, MAXMOVE       0.20000
 OPT: FIRE, TIMESTEP      0.10000
 OPT: FIRE, FTIMEMAX      1.00000
 OPT: FIRE, FTIMEINC      1.10000
 OPT: FIRE, FTIMEDEC      0.50000
 OPT: FIRE, FALPHADEC     0.99000
 OPT: FIRE, FALPHA        0.10000
 OPT: FIRE, FNMIN         5
 
 CHAIN: Read ICHAIN            0
 CHAIN: Running the NEB
 NEB:          SPRING     -5.000000
 NEB:          LCLIMB      T
 NEB:     LTANGENTOLD      F
 NEB:           LDNEB      F
 NEB:        LDNEBORG      F
 NEB:        LNEBCELL      F
 NEB:          EFIRST      0.000000
 NEB:           ELAST      0.000000
 
 POSCAR: C    H    N    O
  positions in direct lattice
  No initial velocities read in
 
 POSCAR: C    H    N    O
  positions in direct lattice
  No initial velocities read in
 
 POSCAR: C    H    N    O
  positions in direct lattice
  No initial velocities read in
 
 POSCAR: C    H    N    O
  positions in direct lattice
  No initial velocities read in
 


--------------------------------------------------------------------------------------------------------


 ion  position               nearest neighbor table
   1  0.999  0.999  0.499-  45 1.43  51 1.43  86 1.43
   2  0.999  0.142  0.499-  46 1.42  80 1.42  45 1.43
   3  0.999  0.285  0.500-  81 1.42  47 1.42  46 1.42
   4  0.999  0.428  0.499-  47 1.42  82 1.42  48 1.43
   5  0.999  0.571  0.499-  48 1.43  49 1.43  83 1.43
   6  1.000  0.714  0.499-  49 1.42  50 1.43  84 1.43
   7  1.000  0.857  0.498-  51 1.42  50 1.43  85 1.43
   8  0.143  0.000  0.499-  52 1.42  58 1.43  51 1.43
   9  0.142  0.142  0.500-  53 1.42  45 1.43  52 1.43
  10  0.141  0.285  0.501-  54 1.42  46 1.42  53 1.42
  11  0.141  0.428  0.501-  54 1.42  47 1.42  55 1.42
  12  0.142  0.571  0.500-  55 1.42  48 1.43  56 1.43
  13  0.143  0.714  0.499-  56 1.42  57 1.43  49 1.43
  14  0.143  0.857  0.499-  57 1.43  58 1.43  50 1.43
  15  0.286  0.000  0.499-  65 1.42  58 1.43  59 1.43
  16  0.286  0.143  0.500-  59 1.42  60 1.43  52 1.43
  17  0.285  0.287  0.502-  61 1.39  53 1.43  60 1.46
  18  0.282  0.427  0.504-  62 1.41  61 1.41  54 1.42
  19  0.285  0.570  0.503-  62 1.39  55 1.43  63 1.46
  20  0.286  0.714  0.501-  64 1.42  63 1.43  56 1.43
  21  0.286  0.857  0.500-  65 1.42  57 1.43  64 1.43
  22  0.429  0.000  0.500-  69 1.42  66 1.42  65 1.43
  23  0.429  0.144  0.500-  66 1.43  59 1.43  67 1.43
  24  0.428  0.284  0.501-  87 1.09  67 1.40  60 1.40
  25  0.428  0.716  0.502-  92 1.09  68 1.40  63 1.40
  26  0.429  0.857  0.500-  69 1.43  64 1.43  68 1.43
  27  0.571  1.000  0.500-  69 1.42  70 1.42  72 1.43
  28  0.571  0.143  0.500-  66 1.42  70 1.42  71 1.43
  29  0.575  0.289  0.501-  95 1.36  71 1.43  67 1.46
  30  0.575  0.857  0.501-  96 1.36  72 1.43  68 1.46
  31  0.714  0.000  0.500-  72 1.42  79 1.42  73 1.42
  32  0.714  0.143  0.500-  74 1.42  73 1.42  70 1.43
  33  0.714  0.285  0.500-  71 1.42  75 1.42  74 1.42
  34  0.710  0.425  0.502-  95 1.35  75 1.43  76 1.47
  35  0.716  0.572  0.510-  91 1.09  76 1.39  77 1.41
  36  0.716  0.715  0.510-  90 1.09  78 1.39  77 1.41
  37  0.710  0.857  0.502-  96 1.35  79 1.43  78 1.47
  38  0.856  0.999  0.500-  80 1.42  79 1.43  86 1.43
  39  0.856  0.143  0.500-  73 1.42  81 1.42  80 1.43
  40  0.857  0.285  0.500-  74 1.42  81 1.42  82 1.43
  41  0.856  0.428  0.500-  82 1.42  75 1.43  83 1.43
  42  0.856  0.570  0.500-  83 1.42  84 1.43  76 1.44
  43  0.857  0.714  0.501-  85 1.42  84 1.42  77 1.43
  44  0.856  0.857  0.500-  86 1.42  85 1.43  78 1.44
  45  0.047  0.095  0.499-   1 1.43   9 1.43   2 1.43
  46  0.046  0.237  0.500-   2 1.42  10 1.42   3 1.42
  47  0.046  0.380  0.500-   4 1.42  11 1.42   3 1.42
  48  0.047  0.524  0.499-   5 1.43  12 1.43   4 1.43
  49  0.047  0.667  0.499-   6 1.42   5 1.43  13 1.43
  50  0.047  0.809  0.499-   6 1.43   7 1.43  14 1.43
  51  0.047  0.952  0.498-   7 1.42   1 1.43   8 1.43
  52  0.190  0.095  0.500-   8 1.42   9 1.43  16 1.43
  53  0.189  0.238  0.501-   9 1.42  10 1.42  17 1.43
  54  0.187  0.379  0.502-  11 1.42  10 1.42  18 1.42
  55  0.189  0.523  0.501-  12 1.42  11 1.42  19 1.43
  56  0.190  0.667  0.500-  13 1.42  12 1.43  20 1.43
  57  0.191  0.810  0.499-  21 1.43  14 1.43  13 1.43
  58  0.191  0.952  0.499-  15 1.43  14 1.43   8 1.43
  59  0.334  0.096  0.500-  16 1.42  23 1.43  15 1.43
  60  0.335  0.239  0.501-  24 1.40  16 1.43  17 1.46
  61  0.329  0.379  0.505-  88 1.08  17 1.39  18 1.41
  62  0.329  0.521  0.505-  89 1.08  19 1.39  18 1.41
  63  0.335  0.667  0.502-  25 1.40  20 1.43  19 1.46
  64  0.334  0.809  0.500-  20 1.42  26 1.43  21 1.43
  65  0.333  0.952  0.499-  15 1.42  21 1.42  22 1.43
  66  0.476  0.095  0.500-  28 1.42  22 1.42  23 1.43
  67  0.477  0.239  0.500-  24 1.40  23 1.43  29 1.46
  68  0.477  0.809  0.501-  25 1.40  26 1.43  30 1.46
  69  0.476  0.952  0.500-  27 1.42  22 1.42  26 1.43
  70  0.619  0.095  0.500-  27 1.42  28 1.42  32 1.43
  71  0.619  0.238  0.500-  33 1.42  29 1.43  28 1.43
  72  0.619  0.953  0.500-  31 1.42  30 1.43  27 1.43
  73  0.762  0.095  0.500-  39 1.42  32 1.42  31 1.42
  74  0.762  0.238  0.500-  40 1.42  32 1.42  33 1.42
  75  0.761  0.380  0.500-  33 1.42  41 1.43  34 1.43
  76  0.759  0.523  0.504-  35 1.39  42 1.44  34 1.47
  77  0.761  0.666  0.507-  36 1.41  35 1.41  43 1.43
  78  0.759  0.808  0.504-  36 1.39  44 1.44  37 1.47
  79  0.761  0.952  0.501-  31 1.42  38 1.43  37 1.43
  80  0.904  0.094  0.500-  38 1.42   2 1.42  39 1.43
  81  0.904  0.238  0.500-   3 1.42  39 1.42  40 1.42
  82  0.904  0.381  0.499-  41 1.42   4 1.42  40 1.43
  83  0.904  0.524  0.499-  42 1.42   5 1.43  41 1.43
  84  0.904  0.666  0.500-  43 1.42  42 1.43   6 1.43
  85  0.904  0.809  0.500-  43 1.42  44 1.43   7 1.43
  86  0.904  0.952  0.499-  44 1.42   1 1.43  38 1.43
  87  0.466  0.356  0.502-  24 1.09
  88  0.401  0.419  0.506-  61 1.08
  89  0.401  0.554  0.507-  62 1.08
  90  0.644  0.681  0.520-  36 1.09
  91  0.644  0.534  0.520-  35 1.09
  92  0.466  0.681  0.502-  25 1.09
  93  0.552  0.607  0.463-  97 0.97
  94  0.553  0.518  0.463-  97 0.97
  95  0.620  0.379  0.502-  34 1.35  29 1.36
  96  0.620  0.812  0.502-  37 1.35  30 1.36
  97  0.513  0.542  0.465-  94 0.97  93 0.97
 

IMPORTANT INFORMATION: All symmetrisations will be switched off!
NOSYMM: (Re-)initialisation of all symmetry stuff for point group C_1.


----------------------------------------------------------------------------------------

                                     Primitive cell                                     

  volume of cell :    3874.8846

  direct lattice vectors                    reciprocal lattice vectors
    17.271038055  0.000000000  0.000000000     0.057900399  0.033428811  0.000000000
    -8.635519028 14.957157706  0.000000000     0.000000000  0.066857622  0.000000000
     0.000000000  0.000000000 15.000000000     0.000000000  0.000000000  0.066666667

  length of vectors
    17.271038055 17.271038055 15.000000000     0.066857622  0.066857622  0.066666667

  position of ions in fractional coordinates (direct lattice)
     0.999200051  0.999354324  0.498543082
     0.998927651  0.142003361  0.499341213
     0.998928052  0.285128964  0.499809982
     0.998921069  0.428245158  0.499488674
     0.999225905  0.571190236  0.498732825
     0.999570736  0.713931172  0.498551643
     0.999566227  0.856982260  0.498493243
     0.142820966  0.000101355  0.498876636
     0.142198878  0.142482345  0.499633471
     0.141130266  0.284545128  0.500694150
     0.141107338  0.427893548  0.500861793
     0.142183807  0.571030441  0.499974080
     0.142837236  0.714056183  0.499140869
     0.142863271  0.857098140  0.498789082
     0.285963153  0.000124902  0.499279044
     0.286072702  0.143124379  0.500120667
     0.285215052  0.286617675  0.502317583
     0.282438571  0.426868750  0.504116596
     0.285167798  0.569877979  0.502709062
     0.286056162  0.714244081  0.500610512
     0.285970491  0.857168653  0.499509968
     0.428809182  0.000068986  0.499611155
     0.429444398  0.143675530  0.499912839
     0.428001126  0.283740261  0.501059789
     0.427998030  0.715575562  0.501642894
     0.429442627  0.857079192  0.500190734
     0.571306328  0.999934854  0.499954424
     0.571332508  0.142762971  0.499796607
     0.574740359  0.288836160  0.500625837
     0.574742574  0.857285849  0.501013928
     0.714128184  0.000323462  0.500185134
     0.714000271  0.142685390  0.499621483
     0.714139444  0.285201982  0.499966185
     0.710006283  0.424502927  0.501999269
     0.715839451  0.571721728  0.510267751
     0.715833210  0.715456072  0.510314425
     0.710009274  0.856888488  0.502264410
     0.856216779  0.999391946  0.499771400
     0.856490807  0.142539781  0.499639470
     0.856506735  0.285335797  0.499585796
     0.856240290  0.428194972  0.499669137
     0.855750448  0.570485365  0.500019666
     0.856825620  0.714078529  0.501070568
     0.855725123  0.856583408  0.500030640
     0.046899741  0.094633214  0.499005208
     0.045986883  0.236976252  0.499835018
     0.045967919  0.380331094  0.499944236
     0.046896516  0.523590192  0.499288643
     0.047258203  0.666511634  0.498642638
     0.047198251  0.809266467  0.498527367
     0.047246171  0.952084858  0.498457046
     0.190422833  0.095108069  0.499527456
     0.189348234  0.237516629  0.500777182
     0.187382927  0.379362344  0.501701526
     0.189320126  0.523125953  0.501058382
     0.190421500  0.666633458  0.499933075
     0.190661110  0.809561383  0.499144210
     0.190666995  0.952441118  0.498970495
     0.333996265  0.095871987  0.499697921
     0.334565773  0.238588427  0.501217646
     0.328795491  0.379183375  0.504853413
     0.328744762  0.520891053  0.505055182
     0.334557667  0.667268972  0.501772680
     0.333983873  0.809426432  0.500057148
     0.333365191  0.952356936  0.499411130
     0.476355810  0.095292635  0.499724829
     0.477012908  0.239435856  0.500414140
     0.477016977  0.808898083  0.500847206
     0.476345262  0.952405493  0.499859380
     0.618711217  0.095036599  0.499717659
     0.619424466  0.238240711  0.500124371
     0.619424233  0.952577744  0.500427807
     0.761677368  0.095465644  0.499688262
     0.761665167  0.237577716  0.499602611
     0.760882923  0.380004378  0.500449197
     0.759484390  0.522831953  0.503678873
     0.761145001  0.666245913  0.507247464
     0.759464913  0.808000886  0.503758438
     0.760874716  0.952266195  0.500667745
     0.903707912  0.094332616  0.499507581
     0.903937621  0.237643118  0.499627429
     0.903714213  0.380730226  0.499471768
     0.903866911  0.523560098  0.499063541
     0.903803932  0.665943681  0.499575691
     0.903790454  0.809188494  0.499559060
     0.903842691  0.951639228  0.499044796
     0.466266691  0.356333155  0.501615963
     0.401091711  0.418757518  0.506457746
     0.401033648  0.553659800  0.506755425
     0.643919602  0.681019059  0.520361353
     0.643917408  0.534193024  0.520296168
     0.466267351  0.681259520  0.502296013
     0.551880595  0.606798735  0.463303261
     0.552745010  0.518087905  0.463304275
     0.619905094  0.379429517  0.501518743
     0.619911830  0.811862425  0.501867782
     0.512594684  0.542291270  0.465112091

  ion indices of the primitive-cell ions
   primitive index   ion index
                 1           1
                 2           2
                 3           3
                 4           4
                 5           5
                 6           6
                 7           7
                 8           8
                 9           9
                10          10
                11          11
                12          12
                13          13
                14          14
                15          15
                16          16
                17          17
                18          18
                19          19
                20          20
                21          21
                22          22
                23          23
                24          24
                25          25
                26          26
                27          27
                28          28
                29          29
                30          30
                31          31
                32          32
                33          33
                34          34
                35          35
                36          36
                37          37
                38          38
                39          39
                40          40
                41          41
                42          42
                43          43
                44          44
                45          45
                46          46
                47          47
                48          48
                49          49
                50          50
                51          51
                52          52
                53          53
                54          54
                55          55
                56          56
                57          57
                58          58
                59          59
                60          60
                61          61
                62          62
                63          63
                64          64
                65          65
                66          66
                67          67
                68          68
                69          69
                70          70
                71          71
                72          72
                73          73
                74          74
                75          75
                76          76
                77          77
                78          78
                79          79
                80          80
                81          81
                82          82
                83          83
                84          84
                85          85
                86          86
                87          87
                88          88
                89          89
                90          90
                91          91
                92          92
                93          93
                94          94
                95          95
                96          96
                97          97

----------------------------------------------------------------------------------------

 
 
 KPOINTS: Automatic mesh                          

Automatic generation of k-mesh.
 Grid dimensions read from file:
 generate k-points for:    2    2    1

 Generating k-lattice:

  Cartesian coordinates                     Fractional coordinates (reciprocal lattice)
     0.028950200  0.016714406  0.000000000     0.500000000  0.000000000  0.000000000
     0.000000000  0.033428811  0.000000000     0.000000000  0.500000000  0.000000000
     0.000000000  0.000000000  0.066666667     0.000000000  0.000000000  1.000000000

  Length of vectors
     0.033428811  0.033428811  0.066666667

  Shift w.r.t. Gamma in fractional coordinates (k-lattice)
     0.000000000  0.000000000  0.000000000

 
 Subroutine IBZKPT returns following result:
 ===========================================
 
 Found      4 irreducible k-points:
 
 Following reciprocal coordinates:
            Coordinates               Weight
  0.000000  0.000000  0.000000      1.000000
  0.500000  0.000000  0.000000      1.000000
  0.000000  0.500000  0.000000      1.000000
  0.500000  0.500000  0.000000      1.000000
 
 Following cartesian coordinates:
            Coordinates               Weight
  0.000000  0.000000  0.000000      1.000000
  0.028950  0.016714  0.000000      1.000000
  0.000000  0.033429  0.000000      1.000000
  0.028950  0.050143  0.000000      1.000000
 


--------------------------------------------------------------------------------------------------------




 Dimension of arrays:
   k-points           NKPTS =      4   k-points in BZ     NKDIM =      4   number of bands    NBANDS=    265
   number of dos      NEDOS =    301   number of ions     NIONS =     97
   non local maximal  LDIM  =      4   non local SUM 2l+1 LMDIM =      8
   total plane-waves  NPLWV = 774144
   max r-space proj   IRMAX =   1673   max aug-charges    IRDMAX=  20933
   dimension x,y,z NGX =    96 NGY =   96 NGZ =   84
   dimension x,y,z NGXF=   192 NGYF=  192 NGZF=  168
   support grid    NGXF=   384 NGYF=  384 NGZF=  336
   ions per type =              86   8   2   1
   NGX,Y,Z   is equivalent  to a cutoff of   9.24,  9.24,  9.31 a.u.
   NGXF,Y,Z  is equivalent  to a cutoff of  18.48, 18.48, 18.62 a.u.

 SYSTEM =  unknown system                          
 POSCAR =  C    H    N    O                        

 Startparameter for this run:
   NWRITE =      2    write-flag & timer
   PREC   = normal    normal or accurate (medium, high low for compatibility)
   ISTART =      0    job   : 0-new  1-cont  2-samecut
   ICHARG =      2    charge: 1-file 2-atom 10-const
   ISPIN  =      2    spin polarized calculation?
   LNONCOLLINEAR =      F non collinear calculations
   LSORBIT =      F    spin-orbit coupling
   INIWAV =      1    electr: 0-lowe 1-rand  2-diag
   LASPH  =      T    aspherical Exc in radial PAW
 Electronic Relaxation 1
   ENCUT  =  520.0 eV  38.22 Ry    6.18 a.u.  32.11 32.11 27.89*2*pi/ulx,y,z
   ENINI  =  520.0     initial cutoff
   ENAUG  =  644.9 eV  augmentation charge cutoff
   NELM   =    200;   NELMIN=  2; NELMDL= -5     # of ELM steps 
   EDIFF  = 0.1E-04   stopping-criterion for ELM
   LREAL  =      T    real-space projection
   NLSPLINE    = F    spline interpolate recip. space projectors
   LCOMPAT=      F    compatible to vasp.4.4
   GGA_COMPAT  = T    GGA compatible to vasp.4.4-vasp.4.6
   LMAXPAW     = -100 max onsite density
   LMAXMIX     =    2 max onsite mixed and CHGCAR
   VOSKOWN=      0    Vosko Wilk Nusair interpolation
   ROPT   =   -0.00050  -0.00050  -0.00050  -0.00050
 Ionic relaxation
   EDIFFG = -.3E-01   stopping-criterion for IOM
   NSW    =    300    number of steps for IOM
   NBLOCK =      1;   KBLOCK =    300    inner block; outer block 
   IBRION =      3    ionic relax: 0-MD 1-quasi-New 2-CG
   NFREE  =      0    steps in history (QN), initial steepest desc. (CG)
   ISIF   =      2    stress and relaxation
   IWAVPR =     11    prediction:  0-non 1-charg 2-wave 3-comb
   ISYM   =      0    0-nonsym 1-usesym 2-fastsym
   LCORR  =      T    Harris-Foulkes like correction to forces

   POTIM  = 0.0000    time-step for ionic-motion
   TEIN   =    0.0    initial temperature
   TEBEG  =    0.0;   TEEND  =   0.0 temperature during run
   SMASS  =  -3.00    Nose mass-parameter (am)
   estimated Nose-frequenzy (Omega)   =  0.10E-29 period in steps = 0.00E+00 mass=  -0.682E-26a.u.
   SCALEE = 1.0000    scale energy and forces
   NPACO  =    256;   APACO  = 10.0  distance and # of slots for P.C.
   PSTRESS=    0.0 pullay stress

  Mass of Ions in am
   POMASS =  12.01  1.00 14.00 16.00
  Ionic Valenz
   ZVAL   =   4.00  1.00  5.00  6.00
  Atomic Wigner-Seitz radii
   RWIGS  =  -1.00 -1.00 -1.00 -1.00
  virtual crystal weights 
   VCA    =   1.00  1.00  1.00  1.00
   NELECT =     368.0000    total number of electrons
   NUPDOWN=      -1.0000    fix difference up-down

 DOS related values:
   EMIN   =  10.00;   EMAX   =-10.00  energy-range for DOS
   EFERMI =   0.00;   METHOD = LEGACY      
   ISMEAR =     0;   SIGMA  =   0.05  broadening in eV -4-tet -1-fermi 0-gaus

 Electronic relaxation 2 (details)
   IALGO  =     38    algorithm
   LDIAG  =      T    sub-space diagonalisation (order eigenvalues)
   LSUBROT=      F    optimize rotation matrix (better conditioning)
   TURBO    =      0    0=normal 1=particle mesh
   IRESTART =      0    0=no restart 2=restart with 2 vectors
   NREBOOT  =      0    no. of reboots
   NMIN     =      0    reboot dimension
   EREF     =   0.00    reference energy to select bands
   IMIX   =      4    mixing-type and parameters
     AMIX     =   0.20;   BMIX     =  0.00
     AMIX_MAG =   0.80;   BMIX_MAG =  0.00
     AMIN     =   0.10
     WC   =   100.;   INIMIX=   1;  MIXPRE=   1;  MAXMIX= -45

 Intra band minimization:
   WEIMIN = 0.0010     energy-eigenvalue tresh-hold
   EBREAK =  0.94E-08  absolut break condition
   DEPER  =   0.30     relativ break condition  

   TIME   =   0.40     timestep for ELM

  volume/ion in A,a.u.               =      39.95       269.58
  Fermi-wavevector in a.u.,A,eV,Ry     =   0.746915  1.411465  7.590446  0.557882
  Thomas-Fermi vector in A             =   1.842848
 
 Write flags
   LWAVE        =      F    write WAVECAR
   LDOWNSAMPLE  =      F    k-point downsampling of WAVECAR
   LCHARG       =      F    write CHGCAR
   LVTOT        =      F    write LOCPOT, total local potential
   LVHAR        =      F    write LOCPOT, Hartree potential only
   LELF         =      F    write electronic localiz. function (ELF)
   LORBIT       =      0    0 simple, 1 ext, 2 COOP (PROOUT), +10 PAW based schemes


 Dipole corrections
   LMONO  =      F    monopole corrections only (constant potential shift)
   LDIPOL =      F    correct potential (dipole corrections)
   IDIPOL =      0    1-x, 2-y, 3-z, 4-all directions 
   EPSILON=  1.0000000 bulk dielectric constant

 Exchange correlation treatment:
   GGA     =    --    GGA type
   LEXCH   =     8    internal setting for exchange type
   LIBXC   =     F    Libxc                    
   VOSKOWN =     0    Vosko Wilk Nusair interpolation
   LHFCALC =     F    Hartree Fock is set to
   LHFONE  =     F    Hartree Fock one center treatment
   AEXX    =    0.0000 exact exchange contribution

 Linear response parameters
   LEPSILON=     F    determine dielectric tensor
   LRPA    =     F    only Hartree local field effects (RPA)
   LNABLA  =     F    use nabla operator in PAW spheres
   LVEL    =     F    velocity operator in full k-point grid
   CSHIFT  =0.1000    complex shift for real part using Kramers Kronig
   OMEGAMAX=  -1.0    maximum frequency
   DEG_THRESHOLD= 0.2000000E-02 threshold for treating states as degnerate
   RTIME   =   -0.100 relaxation time in fs
  (WPLASMAI=    0.000 imaginary part of plasma frequency in eV, 0.658/RTIME)
   DFIELD  = 0.0000000 0.0000000 0.0000000 field for delta impulse in time
 
  Optional k-point grid parameters
   LKPOINTS_OPT  =     F    use optional k-point grid
   KPOINTS_OPT_MODE=     1    mode for optional k-point grid
 
 Orbital magnetization related:
   ORBITALMAG=     F  switch on orbital magnetization
   LCHIMAG   =     F  perturbation theory with respect to B field
   DQ        =  0.001000  dq finite difference perturbation B field
   LLRAUG    =     F  two centre corrections for induced B field
   LBONE     =     F  B-component reconstruction in AE one-centre
   LVGVCALC  =     T  calculate vGv susceptibility
   LVGVAPPL  =     F  apply vGv susceptibility instead of pGv for G=0

 Random number generation:
   RANDOM_GENERATOR = DEFAULT
   PCG_SEED         = not used


--------------------------------------------------------------------------------------------------------


 quickmin algorithm: (dynamic with friction)
   using selective dynamics as specified on POSCAR
 charge density and potential will be updated during run
 spin polarized calculation
 Variant of blocked Davidson
 Davidson routine will perform the subspace rotation
 perform sub-space diagonalisation
    after iterative eigenvector-optimisation
 modified Broyden-mixing scheme, WC =      100.0
 initial mixing is a Kerker type mixing with AMIX =  0.2000 and BMIX =      0.0001
 Hartree-type preconditioning will be used
 using additional bands           81
 real space projection scheme for non local part
 use partial core corrections
 calculate Harris-corrections to forces 
   (improved forces if not selfconsistent)
 use gradient corrections 
 use of overlap-Matrix (Vanderbilt PP)
 Gauss-broadening in eV      SIGMA  =   0.05


--------------------------------------------------------------------------------------------------------


  energy-cutoff  :      520.00
  volume of cell :     3874.88
      direct lattice vectors                 reciprocal lattice vectors
    17.271038055  0.000000000  0.000000000     0.057900399  0.033428811  0.000000000
    -8.635519028 14.957157706  0.000000000     0.000000000  0.066857622  0.000000000
     0.000000000  0.000000000 15.000000000     0.000000000  0.000000000  0.066666667

  length of vectors
    17.271038055 17.271038055 15.000000000     0.066857622  0.066857622  0.066666667


 
 k-points in units of 2pi/SCALE and weight: Automatic mesh                          
   0.00000000  0.00000000  0.00000000       0.250
   0.02895020  0.01671441  0.00000000       0.250
   0.00000000  0.03342881  0.00000000       0.250
   0.02895020  0.05014322  0.00000000       0.250
 
 k-points in reciprocal lattice and weights: Automatic mesh                          
   0.00000000  0.00000000  0.00000000       0.250
   0.50000000  0.00000000  0.00000000       0.250
   0.00000000  0.50000000  0.00000000       0.250
   0.50000000  0.50000000  0.00000000       0.250
 
 position of ions in fractional coordinates (direct lattice) 
   0.99920005  0.99935432  0.49854308
   0.99892765  0.14200336  0.49934121
   0.99892805  0.28512896  0.49980998
   0.99892107  0.42824516  0.49948867
   0.99922591  0.57119024  0.49873282
   0.99957074  0.71393117  0.49855164
   0.99956623  0.85698226  0.49849324
   0.14282097  0.00010136  0.49887664
   0.14219888  0.14248234  0.49963347
   0.14113027  0.28454513  0.50069415
   0.14110734  0.42789355  0.50086179
   0.14218381  0.57103044  0.49997408
   0.14283724  0.71405618  0.49914087
   0.14286327  0.85709814  0.49878908
   0.28596315  0.00012490  0.49927904
   0.28607270  0.14312438  0.50012067
   0.28521505  0.28661768  0.50231758
   0.28243857  0.42686875  0.50411660
   0.28516780  0.56987798  0.50270906
   0.28605616  0.71424408  0.50061051
   0.28597049  0.85716865  0.49950997
   0.42880918  0.00006899  0.49961115
   0.42944440  0.14367553  0.49991284
   0.42800113  0.28374026  0.50105979
   0.42799803  0.71557556  0.50164289
   0.42944263  0.85707919  0.50019073
   0.57130633  0.99993485  0.49995442
   0.57133251  0.14276297  0.49979661
   0.57474036  0.28883616  0.50062584
   0.57474257  0.85728585  0.50101393
   0.71412818  0.00032346  0.50018513
   0.71400027  0.14268539  0.49962148
   0.71413944  0.28520198  0.49996619
   0.71000628  0.42450293  0.50199927
   0.71583945  0.57172173  0.51026775
   0.71583321  0.71545607  0.51031443
   0.71000927  0.85688849  0.50226441
   0.85621678  0.99939195  0.49977140
   0.85649081  0.14253978  0.49963947
   0.85650673  0.28533580  0.49958580
   0.85624029  0.42819497  0.49966914
   0.85575045  0.57048536  0.50001967
   0.85682562  0.71407853  0.50107057
   0.85572512  0.85658341  0.50003064
   0.04689974  0.09463321  0.49900521
   0.04598688  0.23697625  0.49983502
   0.04596792  0.38033109  0.49994424
   0.04689652  0.52359019  0.49928864
   0.04725820  0.66651163  0.49864264
   0.04719825  0.80926647  0.49852737
   0.04724617  0.95208486  0.49845705
   0.19042283  0.09510807  0.49952746
   0.18934823  0.23751663  0.50077718
   0.18738293  0.37936234  0.50170153
   0.18932013  0.52312595  0.50105838
   0.19042150  0.66663346  0.49993308
   0.19066111  0.80956138  0.49914421
   0.19066699  0.95244112  0.49897050
   0.33399626  0.09587199  0.49969792
   0.33456577  0.23858843  0.50121765
   0.32879549  0.37918338  0.50485341
   0.32874476  0.52089105  0.50505518
   0.33455767  0.66726897  0.50177268
   0.33398387  0.80942643  0.50005715
   0.33336519  0.95235694  0.49941113
   0.47635581  0.09529263  0.49972483
   0.47701291  0.23943586  0.50041414
   0.47701698  0.80889808  0.50084721
   0.47634526  0.95240549  0.49985938
   0.61871122  0.09503660  0.49971766
   0.61942447  0.23824071  0.50012437
   0.61942423  0.95257774  0.50042781
   0.76167737  0.09546564  0.49968826
   0.76166517  0.23757772  0.49960261
   0.76088292  0.38000438  0.50044920
   0.75948439  0.52283195  0.50367887
   0.76114500  0.66624591  0.50724746
   0.75946491  0.80800089  0.50375844
   0.76087472  0.95226620  0.50066774
   0.90370791  0.09433262  0.49950758
   0.90393762  0.23764312  0.49962743
   0.90371421  0.38073023  0.49947177
   0.90386691  0.52356010  0.49906354
   0.90380393  0.66594368  0.49957569
   0.90379045  0.80918849  0.49955906
   0.90384269  0.95163923  0.49904480
   0.46626669  0.35633315  0.50161596
   0.40109171  0.41875752  0.50645775
   0.40103365  0.55365980  0.50675543
   0.64391960  0.68101906  0.52036135
   0.64391741  0.53419302  0.52029617
   0.46626735  0.68125952  0.50229601
   0.55188060  0.60679873  0.46330326
   0.55274501  0.51808791  0.46330428
   0.61990509  0.37942952  0.50151874
   0.61991183  0.81186242  0.50186778
   0.51259468  0.54229127  0.46511209
 
 position of ions in cartesian coordinates  (Angst):
   8.62727883 14.94750022  7.47814623
  16.02624474  2.12396667  7.49011820
  14.79028780  4.26471889  7.49714973
  13.55428460  6.40533036  7.49233011
  12.32514448  8.54338244  7.48099237
  11.09845800 10.67838113  7.47827465
   9.86305973 12.81801881  7.47739865
   2.46579109  0.00151599  7.48314954
   1.22551324  2.13113090  7.49450206
  -0.01972868  4.25598636  7.51041225
  -1.25801266  6.40007128  7.51292690
  -2.47548230  8.54099237  7.49961120
  -3.69929841 10.68025094  7.48711303
  -4.93409030 12.81975204  7.48183622
   4.93780191  0.00186818  7.48918566
   3.70481922  2.14073392  7.50181000
   2.45086763  4.28698577  7.53476375
   1.19177410  6.38474322  7.56174894
   0.00395176  8.52375480  7.54063594
  -1.22738149 10.68306135  7.50915768
  -2.46308897 12.82080672  7.49264952
   7.40538397  0.00103183  7.49416732
   6.17623776  2.14897756  7.49869259
   4.94177931  4.24394784  7.51589684
   1.21260388 10.70297653  7.52464341
   0.01559628 12.81946864  7.50286101
   1.23209687 14.95618331  7.49931636
   8.63467313  2.13532827  7.49694911
   7.43211246  4.32016800  7.50938756
   2.52329260 12.82255965  7.51520892
  12.33094179  0.00483807  7.50277700
  11.09936346  2.13416788  7.49432225
   9.87106237  4.26581102  7.49949278
   8.59674243  6.34935723  7.52998903
   7.42617653  8.55133205  7.65401627
   6.18484809 10.70118929  7.65471638
   4.86292035 12.81661626  7.53396616
   6.15748441 14.94806295  7.49657100
  13.56158033  2.13198998  7.49459205
  12.32873770  4.26781252  7.49378694
  11.09047280  6.40457973  7.49503705
   9.85326133  8.53283957  7.50029499
   8.63182916 10.68058517  7.51605852
   7.38221884 12.81205312  7.50045960
  -0.00719970  1.41544390  7.48507812
  -1.25217173  3.54449117  7.49752526
  -2.49044272  5.68867215  7.49916354
  -3.71152155  7.83142107  7.48932965
  -4.93947567  9.96911962  7.47963957
  -6.17327318 12.10432617  7.47791050
  -7.40575649 14.24048336  7.47685569
   2.46749245  1.42254639  7.49291184
   1.21916118  3.55257367  7.51165773
  -0.03969307  5.67418241  7.52552289
  -1.24770903  7.82447738  7.51587573
  -2.46794894  9.97094177  7.49899613
  -3.69806744 12.10873727  7.48716315
  -4.93180648 14.24581201  7.48455743
   4.94055783  1.43397243  7.49546882
   3.71796329  3.56860474  7.51826468
   2.40419418  5.67150554  7.57280120
   1.17959869  7.79104962  7.57582773
   0.01594430  9.98044724  7.52659021
  -1.22156917 12.10671879  7.50085723
  -2.46653354 14.24455289  7.49116696
   7.40425796  1.42530696  7.49587243
   6.17085519  3.58127986  7.50621211
   1.25332358 12.09881620  7.51270810
   0.00246139 14.24527916  7.49789070
   9.86509461  1.42147741  7.49576489
   8.64077133  3.56340388  7.50186556
   2.47209627 14.24785554  7.50641711
  12.33056342  1.42789469  7.49532393
  11.10314120  3.55348736  7.49403916
   9.85970288  5.68378541  7.50673796
   8.60215853  7.82007997  7.55518310
   7.39238502  9.96514519  7.60871196
   6.13924039 12.08539668  7.55637657
   4.91778333 14.24319566  7.51001617
  14.79336264  1.41094782  7.49261372
  13.55976938  3.55446560  7.49441143
  12.32027946  5.69464203  7.49207652
  11.08950663  7.83097095  7.48595312
   9.85886277  9.96062466  7.49363537
   8.62163669 12.10315992  7.49338590
   7.39240285 14.23381801  7.48567194
   4.97578803  5.32973119  7.52423945
   3.31108169  6.26342224  7.59686620
   2.14512765  8.28117695  7.60133138
   5.24020691 10.18610947  7.80542030
   6.50808804  7.99000930  7.80444251
   2.16989162 10.18970608  7.53444019
   4.29152874  9.07598437  6.94954892
   5.07252215  7.74912251  6.94956413
   7.42983365  5.67518712  7.52278115
   3.69566738 12.14315433  7.52801673
   4.17007571  8.11113605  6.97668137
 


--------------------------------------------------------------------------------------------------------


 k-point   1 :   0.0000 0.0000 0.0000  plane waves:  104449
 k-point   2 :   0.5000 0.0000 0.0000  plane waves:  104264
 k-point   3 :   0.0000 0.5000 0.0000  plane waves:  104264
 k-point   4 :   0.5000 0.5000 0.0000  plane waves:  104264

 maximum and minimum number of plane-waves per node :    104449   104264

 maximum number of plane-waves:    104449
 maximum index in each direction: 
   IXMAX=   32   IYMAX=   32   IZMAX=   27
   IXMIN=  -32   IYMIN=  -32   IZMIN=  -27


 serial   3D FFT for wavefunctions
 parallel 3D FFT for charge:
    minimum data exchange during FFTs selected (reduces bandwidth)


 total amount of memory used by VASP MPI-rank0  1122710. kBytes
=======================================================================

   base      :      30000. kBytes
   nonlr-proj:       9003. kBytes
   fftplans  :     185212. kBytes
   grid      :     184190. kBytes
   one-center:        595. kBytes
   wavefun   :     713710. kBytes
 
     INWAV:  cpu time      0.0001: real time      0.0001
 Broyden mixing: mesh for mixing (old mesh)
   NGX = 65   NGY = 65   NGZ = 55
  (NGX  =192   NGY  =192   NGZ  =168)
  gives a total of 232375 points

 initial charge density was supplied:
 charge density of overlapping atoms calculated
 number of electron     368.0000000 magnetization      58.2000000
 keeping initial charge density in first step


--------------------------------------------------------------------------------------------------------


 Maximum index for non-local projection operator         1579
 Maximum index for augmentation-charges         4013 (set IRDMAX)


--------------------------------------------------------------------------------------------------------


 First call to EWALD:  gamma=   0.113
 Maximum number of real-space cells 3x 3x 3
 Maximum number of reciprocal cells 3x 3x 3

    FEWALD:  cpu time      0.0056: real time      0.0056


--------------------------------------- Ionic step        1  -------------------------------------------




--------------------------------------- Iteration      1(   1)  ---------------------------------------


    POTLOK:  cpu time      2.3209: real time      2.3836
    SETDIJ:  cpu time      2.8514: real time      2.8632
     EDDAV:  cpu time     72.7357: real time     73.1996
       DOS:  cpu time      0.0014: real time      0.0147
    --------------------------------------------
      LOOP:  cpu time     77.9095: real time     78.4611

 eigenvalue-minimisations  :  4590
 total energy-change (2. order) : 0.3262956E+04  (-0.1376724E+05)
 number of electron     368.0000000 magnetization      58.2000000
 augmentation part      368.0000000 magnetization      58.2000000

 Free energy of the ion-electron system (eV)
  ---------------------------------------------------
  alpha Z        PSCENC =       175.87611319
  Ewald energy   TEWEN  =     36637.01869522
  -Hartree energ DENC   =    -46832.81502292
  -exchange      EXHF   =         0.00000000
  -V(xc)+E(xc)   XCENC  =      1224.38044445
  PAW double counting   =     10101.41315093   -10154.35997595
  entropy T*S    EENTRO =        -0.04461240
  eigenvalues    EBANDS =     -1604.64326492
  atomic energy  EATOM  =     13716.13071916
  Solvation  Ediel_sol  =         0.00000000
  ---------------------------------------------------
  free energy    TOTEN  =      3262.95624676 eV

  energy without entropy =     3263.00085915  energy(sigma->0) =     3262.97855295


--------------------------------------------------------------------------------------------------------




--------------------------------------- Iteration      1(   2)  ---------------------------------------


     EDDAV:  cpu time     94.8624: real time     95.5049
       DOS:  cpu time      0.0008: real time      0.0144
    --------------------------------------------
      LOOP:  cpu time     94.8631: real time     95.5193

 eigenvalue-minimisations  :  6400
 total energy-change (2. order) :-0.3514105E+04  (-0.3311187E+04)
 number of electron     368.0000000 magnetization      58.2000000
 augmentation part      368.0000000 magnetization      58.2000000

 Free energy of the ion-electron system (eV)
  ---------------------------------------------------
  alpha Z        PSCENC =       175.87611319
  Ewald energy   TEWEN  =     36637.01869522
  -Hartree energ DENC   =    -46832.81502292
  -exchange      EXHF   =         0.00000000
  -V(xc)+E(xc)   XCENC  =      1224.38044445
  PAW double counting   =     10101.41315093   -10154.35997595
  entropy T*S    EENTRO =        -0.00003159
  eigenvalues    EBANDS =     -5118.79281694
  atomic energy  EATOM  =     13716.13071916
  Solvation  Ediel_sol  =         0.00000000
  ---------------------------------------------------
  free energy    TOTEN  =      -251.14872447 eV

  energy without entropy =     -251.14869287  energy(sigma->0) =     -251.14870867


--------------------------------------------------------------------------------------------------------




--------------------------------------- Iteration      1(   3)  ---------------------------------------


     EDDAV:  cpu time     81.1328: real time     81.6885
       DOS:  cpu time      0.0009: real time      0.0159
    --------------------------------------------
      LOOP:  cpu time     81.1337: real time     81.7045

 eigenvalue-minimisations  :  5280
 total energy-change (2. order) :-0.6129479E+03  (-0.6102089E+03)
 number of electron     368.0000000 magnetization      58.2000000
 augmentation part      368.0000000 magnetization      58.2000000

 Free energy of the ion-electron system (eV)
  ---------------------------------------------------
  alpha Z        PSCENC =       175.87611319
  Ewald energy   TEWEN  =     36637.01869522
  -Hartree energ DENC   =    -46832.81502292
  -exchange      EXHF   =         0.00000000
  -V(xc)+E(xc)   XCENC  =      1224.38044445
  PAW double counting   =     10101.41315093   -10154.35997595
  entropy T*S    EENTRO =        -0.00000118
  eigenvalues    EBANDS =     -5731.74074005
  atomic energy  EATOM  =     13716.13071916
  Solvation  Ediel_sol  =         0.00000000
  ---------------------------------------------------
  free energy    TOTEN  =      -864.09661716 eV

  energy without entropy =     -864.09661598  energy(sigma->0) =     -864.09661657


--------------------------------------------------------------------------------------------------------




--------------------------------------- Iteration      1(   4)  ---------------------------------------


     EDDAV:  cpu time     82.3918: real time     82.9705
       DOS:  cpu time      0.0008: real time      0.0143
    --------------------------------------------
      LOOP:  cpu time     82.3926: real time     82.9848

 eigenvalue-minimisations  :  5390
 total energy-change (2. order) :-0.2213447E+02  (-0.2205496E+02)
 number of electron     368.0000000 magnetization      58.2000000
 augmentation part      368.0000000 magnetization      58.2000000

 Free energy of the ion-electron system (eV)
  ---------------------------------------------------
  alpha Z        PSCENC =       175.87611319
  Ewald energy   TEWEN  =     36637.01869522
  -Hartree energ DENC   =    -46832.81502292
  -exchange      EXHF   =         0.00000000
  -V(xc)+E(xc)   XCENC  =      1224.38044445
  PAW double counting   =     10101.41315093   -10154.35997595
  entropy T*S    EENTRO =        -0.00000215
  eigenvalues    EBANDS =     -5753.87521208
  atomic energy  EATOM  =     13716.13071916
  Solvation  Ediel_sol  =         0.00000000
  ---------------------------------------------------
  free energy    TOTEN  =      -886.23109015 eV

  energy without entropy =     -886.23108800  energy(sigma->0) =     -886.23108908


--------------------------------------------------------------------------------------------------------




--------------------------------------- Iteration      1(   5)  ---------------------------------------


     EDDAV:  cpu time     90.4921: real time     91.1528
       DOS:  cpu time      0.0008: real time      0.0137
    CHARGE:  cpu time      5.3724: real time      5.4064
    MIXING:  cpu time      0.0549: real time      0.0666
    --------------------------------------------
      LOOP:  cpu time     95.9202: real time     96.6395

 eigenvalue-minimisations  :  6080
 total energy-change (2. order) :-0.6283079E+00  (-0.6275454E+00)
 number of electron     368.0000000 magnetization      12.4400150
 augmentation part       10.6146246 magnetization      11.5146411

 Broyden mixing:
  rms(total) = 0.51837E+01    rms(broyden)= 0.51831E+01
  rms(prec ) = 0.56465E+01
  weight for this iteration     100.00

 Free energy of the ion-electron system (eV)
  ---------------------------------------------------
  alpha Z        PSCENC =       175.87611319
  Ewald energy   TEWEN  =     36637.01869522
  -Hartree energ DENC   =    -46832.81502292
  -exchange      EXHF   =         0.00000000
  -V(xc)+E(xc)   XCENC  =      1224.38044445
  PAW double counting   =     10101.41315093   -10154.35997595
  entropy T*S    EENTRO =        -0.00000231
  eigenvalues    EBANDS =     -5754.50351980
  atomic energy  EATOM  =     13716.13071916
  Solvation  Ediel_sol  =         0.00000000
  ---------------------------------------------------
  free energy    TOTEN  =      -886.85939804 eV

  energy without entropy =     -886.85939573  energy(sigma->0) =     -886.85939689


--------------------------------------------------------------------------------------------------------




--------------------------------------- Iteration      1(   6)  ---------------------------------------


    POTLOK:  cpu time      2.4651: real time      2.5135
    SETDIJ:  cpu time      2.8563: real time      2.8672
     EDDAV:  cpu time     78.7292: real time     79.2379
       DOS:  cpu time      0.0008: real time      0.0145
    CHARGE:  cpu time      5.5175: real time      5.5528
    MIXING:  cpu time      0.0592: real time      0.0595
    --------------------------------------------
      LOOP:  cpu time     89.6281: real time     90.2454

 eigenvalue-minimisations  :  5150
 total energy-change (2. order) : 0.1728969E+02  (-0.2186382E+01)
 number of electron     368.0000000 magnetization      -5.8260350
 augmentation part       10.2507766 magnetization      -5.8455258

 Broyden mixing:
  rms(total) = 0.33723E+01    rms(broyden)= 0.33723E+01
  rms(prec ) = 0.37142E+01
  weight for this iteration     100.00

 eigenvalues of (default mixing * dielectric matrix)
  average eigenvalue GAMMA=   1.4223
  1.4223

 Free energy of the ion-electron system (eV)
  ---------------------------------------------------
  alpha Z        PSCENC =       175.87611319
  Ewald energy   TEWEN  =     36637.01869522
  -Hartree energ DENC   =    -47294.30243444
  -exchange      EXHF   =         0.00000000
  -V(xc)+E(xc)   XCENC  =      1234.48188770
  PAW double counting   =     13817.00893634   -13873.80835571
  entropy T*S    EENTRO =        -0.00233186
  eigenvalues    EBANDS =     -5281.97294077
  atomic energy  EATOM  =     13716.13071916
  Solvation  Ediel_sol  =         0.00000000
  ---------------------------------------------------
  free energy    TOTEN  =      -869.56971117 eV

  energy without entropy =     -869.56737931  energy(sigma->0) =     -869.56854524


--------------------------------------------------------------------------------------------------------




--------------------------------------- Iteration      1(   7)  ---------------------------------------


    POTLOK:  cpu time      2.4308: real time      2.4811
    SETDIJ:  cpu time      2.9071: real time      2.9189
     EDDAV:  cpu time     77.5176: real time     78.0227
       DOS:  cpu time      0.0009: real time      0.0139
    CHARGE:  cpu time      5.5920: real time      5.6277
    MIXING:  cpu time      0.0667: real time      0.0672
    --------------------------------------------
      LOOP:  cpu time     88.5152: real time     89.1316

 eigenvalue-minimisations  :  5060
 total energy-change (2. order) : 0.2216412E+02  (-0.3275139E+01)
 number of electron     368.0000000 magnetization       1.3065838
 augmentation part        9.8045815 magnetization       1.3083496

 Broyden mixing:
  rms(total) = 0.20406E+01    rms(broyden)= 0.20405E+01
  rms(prec ) = 0.21627E+01
  weight for this iteration     100.00

 eigenvalues of (default mixing * dielectric matrix)
  average eigenvalue GAMMA=   2.4873
  1.2964  3.6781

 Free energy of the ion-electron system (eV)
  ---------------------------------------------------
  alpha Z        PSCENC =       175.87611319
  Ewald energy   TEWEN  =     36637.01869522
  -Hartree energ DENC   =    -47897.44796494
  -exchange      EXHF   =         0.00000000
  -V(xc)+E(xc)   XCENC  =      1255.87483127
  PAW double counting   =     20637.57245539   -20698.77213197
  entropy T*S    EENTRO =        -0.00001249
  eigenvalues    EBANDS =     -4673.65829400
  atomic energy  EATOM  =     13716.13071916
  Solvation  Ediel_sol  =         0.00000000
  ---------------------------------------------------
  free energy    TOTEN  =      -847.40558917 eV

  energy without entropy =     -847.40557668  energy(sigma->0) =     -847.40558292


--------------------------------------------------------------------------------------------------------




--------------------------------------- Iteration      1(   8)  ---------------------------------------


    POTLOK:  cpu time      2.3852: real time      2.4884
    SETDIJ:  cpu time      2.9589: real time      2.9732
     EDDAV:  cpu time     79.2398: real time     79.7581
       DOS:  cpu time      0.0008: real time      0.0147
    CHARGE:  cpu time      5.5332: real time      5.5689
    MIXING:  cpu time      0.0689: real time      0.0693
    --------------------------------------------
      LOOP:  cpu time     90.1868: real time     90.8725

 eigenvalue-minimisations  :  5150
 total energy-change (2. order) : 0.4793030E+01  (-0.2406201E+01)
 number of electron     368.0000000 magnetization      -0.8246897
 augmentation part        9.4424742 magnetization      -0.8253438

 Broyden mixing:
  rms(total) = 0.82162E+00    rms(broyden)= 0.82150E+00
  rms(prec ) = 0.84492E+00
  weight for this iteration     100.00

 eigenvalues of (default mixing * dielectric matrix)
  average eigenvalue GAMMA=   2.4560
  4.3676  1.3257  1.6747

 Free energy of the ion-electron system (eV)
  ---------------------------------------------------
  alpha Z        PSCENC =       175.87611319
  Ewald energy   TEWEN  =     36637.01869522
  -Hartree energ DENC   =    -48438.26807499
  -exchange      EXHF   =         0.00000000
  -V(xc)+E(xc)   XCENC  =      1276.53654128
  PAW double counting   =     31158.87374665   -31223.74559444
  entropy T*S    EENTRO =        -0.00000006
  eigenvalues    EBANDS =     -4145.03470500
  atomic energy  EATOM  =     13716.13071916
  Solvation  Ediel_sol  =         0.00000000
  ---------------------------------------------------
  free energy    TOTEN  =      -842.61255898 eV

  energy without entropy =     -842.61255892  energy(sigma->0) =     -842.61255895


--------------------------------------------------------------------------------------------------------




--------------------------------------- Iteration      1(   9)  ---------------------------------------


    POTLOK:  cpu time      2.4653: real time      2.4936
    SETDIJ:  cpu time      2.7545: real time      2.7656
     EDDAV:  cpu time     77.9565: real time     78.4793
       DOS:  cpu time      0.0009: real time      0.0299
    CHARGE:  cpu time      5.5165: real time      5.5556
    MIXING:  cpu time      0.0664: real time      0.0669
    --------------------------------------------
      LOOP:  cpu time     88.7601: real time     89.3908

 eigenvalue-minimisations  :  5050
 total energy-change (2. order) : 0.1035692E+00  (-0.1105891E+00)
 number of electron     368.0000000 magnetization       0.1240976
 augmentation part        9.4423046 magnetization       0.1243004

 Broyden mixing:
  rms(total) = 0.32851E+00    rms(broyden)= 0.32849E+00
  rms(prec ) = 0.34679E+00
  weight for this iteration     100.00

 eigenvalues of (default mixing * dielectric matrix)
  average eigenvalue GAMMA=   2.4298
  4.7252  1.0919  1.2292  2.6729

 Free energy of the ion-electron system (eV)
  ---------------------------------------------------
  alpha Z        PSCENC =       175.87611319
  Ewald energy   TEWEN  =     36637.01869522
  -Hartree energ DENC   =    -48409.35281325
  -exchange      EXHF   =         0.00000000
  -V(xc)+E(xc)   XCENC  =      1276.37659580
  PAW double counting   =     35320.22681534   -35384.77871136
  entropy T*S    EENTRO =        -0.00000007
  eigenvalues    EBANDS =     -4174.00640383
  atomic energy  EATOM  =     13716.13071916
  Solvation  Ediel_sol  =         0.00000000
  ---------------------------------------------------
  free energy    TOTEN  =      -842.50898980 eV

  energy without entropy =     -842.50898973  energy(sigma->0) =     -842.50898977


--------------------------------------------------------------------------------------------------------




--------------------------------------- Iteration      1(  10)  ---------------------------------------


    POTLOK:  cpu time      2.2472: real time      2.2901
    SETDIJ:  cpu time      2.9735: real time      2.9867
     EDDAV:  cpu time     76.6282: real time     77.1331
       DOS:  cpu time      0.0007: real time      0.0142
    CHARGE:  cpu time      5.5914: real time      5.6270
    MIXING:  cpu time      0.0872: real time      0.0878
    --------------------------------------------
      LOOP:  cpu time     87.5282: real time     88.1388

 eigenvalue-minimisations  :  4890
 total energy-change (2. order) : 0.9125468E-01  (-0.4594249E-01)
 number of electron     368.0000000 magnetization      -0.0223862
 augmentation part        9.4711295 magnetization      -0.0225075

 Broyden mixing:
  rms(total) = 0.97136E-01    rms(broyden)= 0.97124E-01
  rms(prec ) = 0.10776E+00
  weight for this iteration     100.00

 eigenvalues of (default mixing * dielectric matrix)
  average eigenvalue GAMMA=   2.3105
  4.7514  3.0953  0.9860  1.4645  1.2553

 Free energy of the ion-electron system (eV)
  ---------------------------------------------------
  alpha Z        PSCENC =       175.87611319
  Ewald energy   TEWEN  =     36637.01869522
  -Hartree energ DENC   =    -48351.41146256
  -exchange      EXHF   =         0.00000000
  -V(xc)+E(xc)   XCENC  =      1274.69802334
  PAW double counting   =     37041.24255338   -37105.28663217
  entropy T*S    EENTRO =        -0.00000004
  eigenvalues    EBANDS =     -4230.68574464
  atomic energy  EATOM  =     13716.13071916
  Solvation  Ediel_sol  =         0.00000000
  ---------------------------------------------------
  free energy    TOTEN  =      -842.41773512 eV

  energy without entropy =     -842.41773508  energy(sigma->0) =     -842.41773510


--------------------------------------------------------------------------------------------------------




--------------------------------------- Iteration      1(  11)  ---------------------------------------


    POTLOK:  cpu time      2.3820: real time      2.4197
    SETDIJ:  cpu time      2.9892: real time      3.0187
     EDDAV:  cpu time     75.7288: real time     76.2099
       DOS:  cpu time      0.0007: real time      0.0143
    CHARGE:  cpu time      5.3170: real time      5.3553
    MIXING:  cpu time      0.0773: real time      0.0777
    --------------------------------------------
      LOOP:  cpu time     86.4949: real time     87.0957

 eigenvalue-minimisations  :  4820
 total energy-change (2. order) : 0.1130650E-01  (-0.9058327E-02)
 number of electron     368.0000000 magnetization       0.0190857
 augmentation part        9.4714234 magnetization       0.0188050

 Broyden mixing:
  rms(total) = 0.34032E-01    rms(broyden)= 0.34019E-01
  rms(prec ) = 0.39039E-01
  weight for this iteration     100.00

 eigenvalues of (default mixing * dielectric matrix)
  average eigenvalue GAMMA=   2.1475
  4.7121  3.1134  1.6598  1.0579  1.0579  1.2842

 Free energy of the ion-electron system (eV)
  ---------------------------------------------------
  alpha Z        PSCENC =       175.87611319
  Ewald energy   TEWEN  =     36637.01869522
  -Hartree energ DENC   =    -48338.85404843
  -exchange      EXHF   =         0.00000000
  -V(xc)+E(xc)   XCENC  =      1274.29886979
  PAW double counting   =     37267.03149433   -37330.94495004
  entropy T*S    EENTRO =        -0.00000004
  eigenvalues    EBANDS =     -4242.96332180
  atomic energy  EATOM  =     13716.13071916
  Solvation  Ediel_sol  =         0.00000000
  ---------------------------------------------------
  free energy    TOTEN  =      -842.40642862 eV

  energy without entropy =     -842.40642858  energy(sigma->0) =     -842.40642860


--------------------------------------------------------------------------------------------------------




--------------------------------------- Iteration      1(  12)  ---------------------------------------


    POTLOK:  cpu time      2.3383: real time      2.3864
    SETDIJ:  cpu time      2.9672: real time      2.9791
     EDDAV:  cpu time     81.5861: real time     82.1103
       DOS:  cpu time      0.0006: real time      0.0142
    CHARGE:  cpu time      5.2478: real time      5.2839
    MIXING:  cpu time      0.0791: real time      0.0795
    --------------------------------------------
      LOOP:  cpu time     92.2191: real time     92.8535

 eigenvalue-minimisations  :  5350
 total energy-change (2. order) : 0.1991215E-02  (-0.9203101E-03)
 number of electron     368.0000000 magnetization      -0.0026608
 augmentation part        9.4711428 magnetization      -0.0027696

 Broyden mixing:
  rms(total) = 0.17915E-01    rms(broyden)= 0.17911E-01
  rms(prec ) = 0.20114E-01
  weight for this iteration     100.00

 eigenvalues of (default mixing * dielectric matrix)
  average eigenvalue GAMMA=   2.1134
  4.6607  3.1534  2.1946  1.4477  1.0362  1.0362  1.2653

 Free energy of the ion-electron system (eV)
  ---------------------------------------------------
  alpha Z        PSCENC =       175.87611319
  Ewald energy   TEWEN  =     36637.01869522
  -Hartree energ DENC   =    -48338.36254822
  -exchange      EXHF   =         0.00000000
  -V(xc)+E(xc)   XCENC  =      1274.27490205
  PAW double counting   =     37285.66786444   -37349.55621755
  entropy T*S    EENTRO =        -0.00000004
  eigenvalues    EBANDS =     -4243.45396565
  atomic energy  EATOM  =     13716.13071916
  Solvation  Ediel_sol  =         0.00000000
  ---------------------------------------------------
  free energy    TOTEN  =      -842.40443741 eV

  energy without entropy =     -842.40443737  energy(sigma->0) =     -842.40443739


[...]
   -.195E+02 0.112E+02 0.214E+00   0.196E+02 -.112E+02 -.218E+00   -.123E+00 0.553E-01 0.420E-02   0.313E-03 0.469E-03 -.753E-03
   -.406E+01 -.230E+01 0.130E+01   0.400E+01 0.226E+01 -.130E+01   0.561E-01 0.367E-01 0.813E-03   0.676E-03 0.533E-04 -.232E-03
   0.833E+01 -.123E+02 0.934E+00   -.845E+01 0.122E+02 -.933E+00   0.118E+00 0.313E-01 -.250E-02   0.779E-03 -.705E-03 -.195E-03
   0.193E+02 -.669E+02 -.549E+00   -.195E+02 0.675E+02 0.543E+00   0.245E+00 -.618E+00 0.112E-01   0.224E-03 -.432E-03 -.145E-02
   -.482E+02 0.501E+02 -.124E+01   0.486E+02 -.507E+02 0.124E+01   -.412E+00 0.517E+00 0.947E-02   -.757E-03 0.701E-03 -.210E-02
   -.645E+01 0.135E+02 0.861E+00   0.636E+01 -.136E+02 -.859E+00   0.872E-01 0.101E+00 -.231E-02   0.345E-04 0.429E-03 -.748E-03
   0.434E+01 0.248E+01 0.124E+01   -.451E+01 -.258E+01 -.125E+01   0.169E+00 0.937E-01 0.561E-03   -.733E-03 -.612E-03 -.652E-03
   0.252E+02 -.101E+02 0.287E+00   -.256E+02 0.996E+01 -.266E+00   0.426E+00 0.142E+00 -.192E-01   -.331E-04 -.537E-03 -.974E-03
   0.386E+01 0.269E+02 -.435E+00   -.420E+01 -.271E+02 0.460E+00   0.341E+00 0.299E+00 -.206E-01   -.103E-02 -.111E-03 -.200E-02
   0.147E+01 0.933E+01 0.154E+01   -.146E+01 -.918E+01 -.156E+01   -.119E-01 -.142E+00 0.174E-01   -.709E-03 0.205E-03 -.137E-02
   0.881E+01 -.343E+01 0.170E+01   -.868E+01 0.338E+01 -.171E+01   -.133E+00 0.551E-01 0.152E-01   0.686E-03 -.138E-03 -.156E-03
   0.234E+02 -.185E+02 0.662E-01   -.235E+02 0.189E+02 -.646E-01   0.674E-01 -.397E+00 0.312E-02   0.118E-03 -.795E-04 -.152E-02
   0.698E+02 0.121E+02 -.623E+01   -.704E+02 -.123E+02 0.620E+01   0.568E+00 0.227E+00 0.453E-01   0.598E-03 -.221E-03 0.243E-02
   0.820E+02 0.474E+02 -.188E+02   -.823E+02 -.475E+02 0.189E+02   0.294E+00 0.167E+00 -.144E+00   0.809E-03 0.106E-04 0.109E-01
   0.453E+02 0.544E+02 -.612E+01   -.458E+02 -.548E+02 0.608E+01   0.482E+00 0.381E+00 0.438E-01   -.107E-04 0.402E-03 0.474E-02
   -.429E+01 0.295E+02 -.489E+00   0.459E+01 -.298E+02 0.492E+00   -.307E+00 0.257E+00 0.396E-02   -.249E-03 0.141E-03 -.237E-02
   -.119E+01 0.607E+01 0.163E+01   0.131E+01 -.613E+01 -.163E+01   -.125E+00 0.558E-01 0.693E-02   0.159E-03 0.375E-03 -.127E-02
   -.176E+01 -.104E+01 0.107E+01   0.188E+01 0.112E+01 -.108E+01   -.117E+00 -.698E-01 0.103E-01   -.115E-02 0.815E-03 -.729E-04
   0.474E+01 -.410E+01 0.192E+01   -.473E+01 0.424E+01 -.193E+01   -.104E-01 -.139E+00 0.924E-02   -.876E-04 0.218E-02 -.112E-02
   0.187E+02 -.135E+01 0.532E+01   -.187E+02 0.147E+01 -.536E+01   -.216E-02 -.126E+00 0.372E-01   0.107E-02 -.617E-04 -.423E-02
   0.264E+02 0.105E+02 0.527E+01   -.264E+02 -.105E+02 -.520E+01   0.180E-01 0.651E-01 -.640E-01   -.730E-03 0.832E-03 -.283E-02
   0.223E+02 0.176E+02 0.526E+01   -.223E+02 -.176E+02 -.519E+01   0.648E-01 -.216E-01 -.640E-01   0.383E-03 -.399E-03 -.233E-02
   0.825E+01 0.169E+02 0.533E+01   -.814E+01 -.170E+02 -.536E+01   -.109E+00 0.628E-01 0.363E-01   -.151E-02 -.246E-02 -.233E-02
   0.692E+00 -.650E+02 -.262E+01   -.367E+00 0.708E+02 0.268E+01   -.324E+00 -.588E+01 -.511E-01   -.708E-05 -.169E-04 -.446E-03
   -.483E+02 -.337E+02 -.103E+02   0.533E+02 0.371E+02 0.105E+02   -.495E+01 -.341E+01 -.997E-01   -.976E-04 0.187E-03 0.737E-03
   -.532E+02 -.249E+02 -.106E+02   0.587E+02 0.275E+02 0.107E+02   -.542E+01 -.259E+01 -.108E+00   0.190E-03 -.177E-03 0.854E-03
   0.492E+02 0.354E+02 -.251E+02   -.543E+02 -.380E+02 0.261E+02   0.509E+01 0.258E+01 -.949E+00   0.228E-03 0.386E-03 0.409E-02
   0.553E+02 0.250E+02 -.250E+02   -.601E+02 -.282E+02 0.260E+02   0.477E+01 0.312E+01 -.948E+00   0.443E-03 0.239E-03 0.381E-02
   -.558E+02 0.330E+02 -.307E+01   0.611E+02 -.357E+02 0.314E+01   -.525E+01 0.266E+01 -.605E-01   -.523E-04 -.945E-04 -.467E-03
   -.229E+01 -.699E+02 0.257E+02   0.307E+01 0.782E+02 -.262E+02   -.761E+00 -.826E+01 0.283E+00   -.857E-03 -.508E-03 -.684E-04
   -.621E+02 0.321E+02 0.257E+02   0.697E+02 -.354E+02 -.262E+02   -.759E+01 0.334E+01 0.284E+00   -.850E-03 -.298E-03 -.721E-04
   0.197E+03 -.116E+03 -.461E+01   -.225E+03 0.131E+03 0.472E+01   0.276E+02 -.156E+02 -.955E-01   -.210E-03 -.113E-03 -.380E-02
   -.155E+01 0.228E+03 -.536E+01   0.124E+01 -.260E+03 0.547E+01   0.306E+00 0.317E+02 -.983E-01   -.869E-03 -.293E-03 -.304E-02
   0.253E+02 0.157E+02 0.118E+03   -.654E+02 -.393E+02 -.117E+03   0.401E+02 0.236E+02 -.130E+01   -.686E-02 -.755E-03 -.227E-02
 -----------------------------------------------------------------------------------------------
   -.456E+02 -.267E+02 0.359E+01   0.213E-12 0.142E-13 0.853E-13   0.456E+02 0.266E+02 -.360E+01   -.209E-02 0.101E-02 -.335E-01
 
 
 POSITION                                       TOTAL-FORCE (eV/Angst)
 -----------------------------------------------------------------------------------
      8.62728     14.94748      7.47827        -0.000133      0.001818     -0.004425
     16.02624      2.12395      7.49021        -0.001064     -0.000445     -0.001573
     14.79028      4.26472      7.49717         0.000188     -0.003624     -0.000481
     13.55430      6.40531      7.49244         0.000545     -0.000468     -0.001382
     12.32516      8.54339      7.48136         0.000906     -0.002649     -0.003357
     11.09848     10.67838      7.47855         0.001672     -0.002980     -0.003468
      9.86305     12.81799      7.47758        -0.001295      0.001374     -0.003851
      2.46577      0.00151      7.48316        -0.001640      0.000663     -0.004363
      1.22548      2.13112      7.49451        -0.001049     -0.000725     -0.001369
     -0.01972      4.25599      7.51046        -0.006219     -0.003801      0.002692
     -1.25800      6.40007      7.51301        -0.000793      0.000389      0.002688
     -2.47550      8.54101      7.49982        -0.000627      0.000051     -0.000101
     -3.69928     10.68023      7.48728         0.001919     -0.001513     -0.002062
     -4.93411     12.81976      7.48191        -0.000518     -0.000313     -0.003800
      4.93779      0.00187      7.48922        -0.002217      0.001427     -0.002586
      3.70481      2.14074      7.50184        -0.002211     -0.000335      0.001016
      2.45084      4.28698      7.53466         0.000891     -0.000475      0.009237
      1.19179      6.38475      7.56151        -0.000097      0.001854      0.011797
      0.00399      8.52377      7.54054        -0.000510      0.001163      0.008030
     -1.22735     10.68305      7.50924        -0.000247     -0.001631      0.002002
     -2.46310     12.82080      7.49267        -0.001024     -0.001710     -0.001796
      7.40536      0.00104      7.49417        -0.001313     -0.000152     -0.001613
      6.17623      2.14898      7.49873        -0.004153      0.001742     -0.000111
      4.94175      4.24394      7.51608        -0.000078      0.000180      0.006278
      1.21265     10.70299      7.52481         0.000125     -0.000594      0.007139
      0.01557     12.81946      7.50294        -0.001030     -0.003585      0.000788
      1.23206     14.95621      7.49941         0.001083     -0.000279     -0.000034
      8.63465      2.13534      7.49697         0.000047      0.000699     -0.000750
      7.43209      4.32019      7.50956        -0.000864     -0.000777      0.004493
      2.52330     12.82257      7.51541        -0.000368     -0.000117      0.005667
     12.33091      0.00483      7.50299         0.001930      0.000748      0.002712
     11.09935      2.13417      7.49434         0.003880      0.001067     -0.001230
      9.87104      4.26583      7.49955         0.000652     -0.000727      0.000592
      8.59671      6.34937      7.53009        -0.000707     -0.000921      0.010717
      7.42615      8.55132      7.65284        -0.002533     -0.003683      0.032660
      6.18484     10.70115      7.65333        -0.001766     -0.001744      0.032940
      4.86292     12.81662      7.53403        -0.000678      0.000731      0.010533
      6.15750     14.94808      7.49676        -0.000313      0.000518      0.000725
     13.56157      2.13197      7.49466         0.000669     -0.000331     -0.000824
     12.32873      4.26781      7.49376         0.001763     -0.007299     -0.002107
     11.09047      6.40457      7.49523        -0.000582     -0.000755      0.000718
      9.85326      8.53281      7.50072        -0.001352     -0.002701      0.003513
      8.63184     10.68058      7.51622        -0.001020     -0.001358      0.007283
      7.38221     12.81210      7.50069        -0.002680      0.002909      0.003181
     -0.00721      1.41542      7.48514         0.000844     -0.000063     -0.003171
     -1.25216      3.54449      7.49761         0.003896      0.001073     -0.001889
     -2.49043      5.68866      7.49922         0.000587      0.001957     -0.000552
     -3.71151      7.83141      7.48959        -0.001576     -0.000098     -0.001085
     -4.93945      9.96909      7.47999        -0.009014      0.004423     -0.005314
     -6.17328     12.10431      7.47807        -0.002121     -0.000851     -0.004051
     -7.40577     14.24045      7.47692        -0.000153     -0.002693     -0.005235
      2.46747      1.42254      7.49290         0.000145     -0.000408     -0.001937
      1.21914      3.55256      7.51166         0.002950      0.001870      0.002701
     -0.03968      5.67419      7.52554         0.003321      0.002049      0.005152
     -1.24771      7.82449      7.51598         0.001281     -0.000323      0.002494
     -2.46791      9.97092      7.49910        -0.001123      0.001540      0.000212
     -3.69808     12.10874      7.48721        -0.001500      0.000552     -0.002708
     -4.93182     14.24582      7.48461        -0.000239     -0.001737     -0.003724
      4.94055      1.43398      7.49551         0.001377     -0.003059      0.000043
      3.71793      3.56860      7.51832         0.000317      0.000497      0.005610
      2.40420      5.67149      7.57246         0.002871      0.002742      0.015136
      1.17964      7.79108      7.57542         0.003412      0.001078      0.015181
      0.01599      9.98046      7.52662         0.000419      0.000555      0.006104
     -1.22158     12.10674      7.50091        -0.001413      0.002575     -0.000495
     -2.46655     14.24454      7.49118         0.000280     -0.000965     -0.003025
      7.40424      1.42532      7.49587         0.000893     -0.001884     -0.001012
      6.17084      3.58129      7.50628         0.001116     -0.001296      0.003405
      1.25332     12.09883      7.51289        -0.001394      0.001993      0.004316
      0.00243     14.24530      7.49795        -0.001365      0.001059     -0.000667
      9.86507      1.42150      7.49582        -0.002744     -0.001371     -0.001377
      8.64074      3.56342      7.50194        -0.000752     -0.001117      0.001392
      2.47204     14.24786      7.50656        -0.002791     -0.000102      0.002986
     12.33053      1.42788      7.49544        -0.002688     -0.000788     -0.000428
     11.10311      3.55349      7.49404        -0.001462      0.001382     -0.001983
      9.85967      5.68380      7.50685        -0.000927      0.000042      0.003775
      8.60213      7.82009      7.55519        -0.002510     -0.000779      0.016025
      7.39237      9.96513      7.60795        -0.002796     -0.000050      0.026880
      6.13925     12.08539      7.55611        -0.001577     -0.003874      0.015471
      4.91776     14.24319      7.51026        -0.001141     -0.001312      0.005192
     14.79334      1.41093      7.49273        -0.000484     -0.000595     -0.001837
     13.55976      3.55445      7.49439        -0.001012      0.004466     -0.000250
     12.32028      5.69462      7.49214        -0.001106      0.003110     -0.001594
     11.08944      7.83096      7.48634        -0.000927      0.000271      0.000053
      9.85885      9.96059      7.49390        -0.001916      0.000940      0.001934
      8.62164     12.10314      7.49363        -0.000300     -0.004025      0.001411
      7.39242     14.23383      7.48591        -0.004506     -0.006714     -0.000313
      4.97577      5.32972      7.52446         0.000633     -0.000006      0.009351
      3.31112      6.26335      7.59632         0.002003      0.002241      0.019581
      2.14514      8.28121      7.60069         0.004053      0.000936      0.018739
      5.24011     10.18597      7.80223        -0.001792     -0.008383      0.062894
      6.50788      7.98992      7.80134        -0.006897      0.002847      0.063517
      2.16997     10.18977      7.53469         0.000465      0.000913      0.010332
      4.29168      9.07607      6.94905         0.017528      0.010393     -0.169175
      5.07286      7.74926      6.94897         0.019195      0.011727     -0.169335
      7.42981      5.67520      7.52299        -0.001118     -0.000846      0.008966
      3.69566     12.14318      7.52819        -0.002171     -0.000723      0.009031
      4.17044      8.11123      6.97668         0.016738      0.009188     -0.082843
 -----------------------------------------------------------------------------------
    total drift:                                0.062226     -0.060560     -0.043797


--------------------------------------------------------------------------------------------------------



  FREE ENERGIE OF THE ION-ELECTRON SYSTEM (eV)
  ---------------------------------------------------
  free  energy   TOTEN  =      -850.16652218 eV

  energy  without entropy=     -850.16652214  energy(sigma->0) =     -850.16652216
 
 d Force =-0.1311811E-03[-0.137E-03,-0.125E-03]  d Energy =-0.1329233E-03 0.174E-05
 d Force =-0.8965808E-01[-0.895E-01,-0.899E-01]  d Ewald  =-0.8965809E-01 0.669E-08


--------------------------------------------------------------------------------------------------------


    POTLOK:  cpu time      4.8684: real time      4.9065


--------------------------------------------------------------------------------------------------------


 NEB: the previous image is higher in energy: T
 NEB: the next image is higher in energy    : F
 NEB: only prev energy greater

 NEB: Tangent
 ----------------------------------------------
     -0.00286     -0.00175     -0.01791
     -0.00031     -0.00028     -0.00791
      0.00083      0.00015     -0.00369
     -0.00014     -0.00042     -0.00882
     -0.00314     -0.00126     -0.01777
     -0.00471     -0.00225     -0.01824
     -0.00473     -0.00243     -0.01839
     -0.00273     -0.00107     -0.01424
     -0.00014      0.00080     -0.00485
      0.00175      0.00123      0.00619
      0.00158      0.00059      0.00541
     -0.00001     -0.00040     -0.00430
     -0.00296     -0.00121     -0.01210
     -0.00383     -0.00167     -0.01462
     -0.00245     -0.00144     -0.00810
     -0.00093     -0.00027      0.00233
      0.00315      0.00338      0.02757
      0.00322      0.00218      0.04515
      0.00374      0.00052      0.02789
     -0.00162     -0.00083      0.00435
     -0.00274     -0.00130     -0.00657
     -0.00194     -0.00140     -0.00541
     -0.00102     -0.00191     -0.00026
      0.00097     -0.00012      0.01463
     -0.00067      0.00036      0.01611
     -0.00227     -0.00067      0.00012
     -0.00162     -0.00077     -0.00305
     -0.00079     -0.00153     -0.00339
     -0.00056     -0.00271      0.00980
     -0.00271     -0.00002      0.01100
     -0.00129     -0.00099      0.00134
     -0.00049     -0.00075     -0.00627
     -0.00081     -0.00085     -0.00024
     -0.00363     -0.00171      0.02934
     -0.01038     -0.00485      0.14399
     -0.00940     -0.00732      0.14461
     -0.00349     -0.00263      0.03129
     -0.00197     -0.00180     -0.00217
     -0.00016     -0.00055     -0.00468
     -0.00000     -0.00042     -0.00580
     -0.00193     -0.00098     -0.00407
     -0.00728     -0.00257      0.00207
     -0.00663     -0.00397      0.01848
     -0.00605     -0.00536      0.00320
     -0.00066     -0.00064     -0.01222
      0.00111      0.00030     -0.00302
      0.00085      0.00024     -0.00394
     -0.00117     -0.00033     -0.01189
     -0.00345     -0.00144     -0.01835
     -0.00431     -0.00203     -0.01811
     -0.00320     -0.00170     -0.01943
     -0.00124     -0.00046     -0.00583
      0.00197      0.00211      0.00846
      0.00243      0.00161      0.01598
      0.00209      0.00044      0.00797
     -0.00185     -0.00057     -0.00342
     -0.00332     -0.00126     -0.01090
     -0.00297     -0.00153     -0.01241
     -0.00161     -0.00122     -0.00262
      0.00075      0.00023      0.01585
      0.00519      0.00481      0.05662
      0.00640      0.00217      0.05621
     -0.00065      0.00012      0.01708
     -0.00229     -0.00095     -0.00118
     -0.00233     -0.00131     -0.00700
     -0.00102     -0.00165     -0.00360
     -0.00030     -0.00217      0.00657
     -0.00220      0.00008      0.00747
     -0.00191     -0.00094     -0.00369
     -0.00067     -0.00094     -0.00545
     -0.00044     -0.00169      0.00194
     -0.00168     -0.00030      0.00324
     -0.00044     -0.00077     -0.00492
     -0.00030     -0.00058     -0.00577
     -0.00223     -0.00076      0.00713
     -0.00890     -0.00241      0.05308
     -0.00559     -0.00331      0.10318
     -0.00665     -0.00693      0.05401
     -0.00193     -0.00208      0.00909
     -0.00054     -0.00098     -0.00574
      0.00048     -0.00021     -0.00516
     -0.00073     -0.00050     -0.00752
     -0.00446     -0.00120     -0.01227
     -0.00556     -0.00271     -0.00347
     -0.00523     -0.00369     -0.00267
     -0.00342     -0.00352     -0.01126
      0.00228      0.00015      0.02161
      0.00601      0.00879      0.07619
      0.01022      0.00096      0.07668
      0.00283     -0.01976      0.28065
     -0.01545      0.01233      0.27951
     -0.00007      0.00072      0.02396
      0.04995      0.02981     -0.50296
      0.04918      0.03224     -0.50079
     -0.00247     -0.00319      0.02288
     -0.00402     -0.00128      0.02430
      0.04670      0.02912     -0.48632

 NEB: forces: par spring, perp REAL, dneb     0.095635    0.139441    0.000000
 NEB: distance to prev, next image, angle between     1.076069    1.056942  148.618638
 NEB: projections on to tangent (spring, REAL)    -0.095635    0.232729

 stress matrix after NEB project (eV)
     -2.29599     -0.34652     -0.03494
     -0.34652     -1.96896     -0.00515
     -0.03494     -0.00515     -0.40523
  FORCES: max atom, RMS     0.029449    0.005643
  FORCE total and by dimension    0.055574    0.029262
  Stress total and by dimension    3.091151    2.295988
 OPT: skip step - force has converged


--------------------------------------------------------------------------------------------------------


  
 reached required accuracy - stopping structural energy minimisation
     LOOP+:  cpu time    291.0845: real time    293.2951
    4ORBIT:  cpu time      0.0000: real time      0.0000

 total amount of memory used by VASP MPI-rank0  1122710. kBytes
=======================================================================

   base      :      30000. kBytes
   nonlr-proj:       9003. kBytes
   fftplans  :     185212. kBytes
   grid      :     184190. kBytes
   one-center:        595. kBytes
   wavefun   :     713710. kBytes
 
  
  
 General timing and accounting informations for this job:
 ========================================================
  
                  Total CPU time used (sec):     2901.881
                            User time (sec):     2800.156
                          System time (sec):      101.725
                         Elapsed time (sec):     2926.153
  
                   Maximum memory used (kb):     1565692.
                   Average memory used (kb):          N/A
  
                          Minor page faults:       250033
                          Major page faults:           31
                 Voluntary context switches:         2489
