<?xml version="1.0" encoding="ISO-8859-1"?>
<modeling>
 <generator>
  <i name="program" type="string">vasp </i>
  <i name="version" type="string">6.4.2  </i>
  <i name="subversion" type="string">20Jul23 (build Aug 26 2025 15:10:52) complex                          parallel </i>
  <i name="platform" type="string">LinuxIFC </i>
  <i name="date" type="string">2025 12 02 </i>
  <i name="time" type="string">12:14:44 </i>
 </generator>
 <incar>
  <i type="int" name="ISTART">     0</i>
  <i type="string" name="ALGO">Normal</i>
  <i type="logical" name="ADDGRID"> T  </i>
  <i type="int" name="ISPIN">     2</i>
  <i type="int" name="IMIX">     4</i>
  <i name="AMIX">      0.20000000</i>
  <i name="BMIX">      0.00010000</i>
  <i name="AMIX_MAG">      0.80000000</i>
  <i name="BMIX_MAG">      0.00010000</i>
  <i type="int" name="ICHARG">     2</i>
  <i type="int" name="NELM">   200</i>
  <i type="int" name="IBRION">     3</i>
  <i name="EDIFF">      0.00001000</i>
  <i name="EDIFFG">     -0.03000000</i>
  <i type="int" name="NSW">   300</i>
  <i type="int" name="ISIF">     2</i>
  <i type="int" name="ISYM">     0</i>
  <i name="ENCUT">    520.00000000</i>
  <i name="POTIM">      0.00000000</i>
  <v name="MAGMOM">      0.60000000      0.60000000      0.60000000      0.60000000      0.60000000      0.60000000      0.60000000      0.60000000      0.60000000      0.60000000      0.60000000      0.60000000      0.60000000      0.60000000      0.60000000      0.60000000      0.60000000      0.60000000      0.60000000      0.60000000
      0.60000000      0.60000000      0.60000000      0.60000000      0.60000000      0.60000000      0.60000000      0.60000000      0.60000000      0.60000000      0.60000000      0.60000000      0.60000000      0.60000000      0.60000000      0.60000000      0.60000000      0.60000000      0.60000000      0.60000000
      0.60000000      0.60000000      0.60000000      0.60000000      0.60000000      0.60000000      0.60000000      0.60000000      0.60000000      0.60000000      0.60000000      0.60000000      0.60000000      0.60000000      0.60000000      0.60000000      0.60000000      0.60000000      0.60000000      0.60000000
      0.60000000      0.60000000      0.60000000      0.60000000      0.60000000      0.60000000      0.60000000      0.60000000      0.60000000      0.60000000      0.60000000      0.60000000      0.60000000      0.60000000      0.60000000      0.60000000      0.60000000      0.60000000      0.60000000      0.60000000
      0.60000000      0.60000000      0.60000000      0.60000000      0.60000000      0.60000000      0.60000000      0.60000000      0.60000000      0.60000000      0.60000000      0.60000000      0.60000000      0.60000000      0.60000000      0.60000000      0.60000000</v>
  <i type="string" name="LREAL">Auto</i>
  <i type="int" name="ISMEAR">     0</i>
  <i name="SIGMA">      0.05000000</i>
  <i type="logical" name="LWAVE"> F  </i>
  <i type="logical" name="LCHARG"> F  </i>
  <i type="logical" name="LASPH"> T  </i>
  <i type="int" name="IVDW">    12</i>
  <i name="SPRING">     -5.00000000</i>
 </incar>
 <primitive_cell>
  <structure name="primitive_cell" >
   <crystal>
    <varray name="basis" >
     <v>      17.27103806       0.00000000       0.00000000 </v>
     <v>      -8.63551903      14.95715771       0.00000000 </v>
     <v>       0.00000000       0.00000000      15.00000000 </v>
    </varray>
    <i name="volume">   3874.88459904 </i>
    <varray name="rec_basis" >
     <v>       0.05790040       0.03342881       0.00000000 </v>
     <v>       0.00000000       0.06685762       0.00000000 </v>
     <v>       0.00000000       0.00000000       0.06666667 </v>
    </varray>
   </crystal>
   <varray name="positions" >
    <v>       0.99920005       0.99935432       0.49854308 </v>
    <v>       0.99892765       0.14200336       0.49934121 </v>
    <v>       0.99892805       0.28512896       0.49980998 </v>
    <v>       0.99892107       0.42824516       0.49948867 </v>
    <v>       0.99922591       0.57119024       0.49873282 </v>
    <v>       0.99957074       0.71393117       0.49855164 </v>
    <v>       0.99956623       0.85698226       0.49849324 </v>
    <v>       0.14282097       0.00010136       0.49887664 </v>
    <v>       0.14219888       0.14248234       0.49963347 </v>
    <v>       0.14113027       0.28454513       0.50069415 </v>
    <v>       0.14110734       0.42789355       0.50086179 </v>
    <v>       0.14218381       0.57103044       0.49997408 </v>
    <v>       0.14283724       0.71405618       0.49914087 </v>
    <v>       0.14286327       0.85709814       0.49878908 </v>
    <v>       0.28596315       0.00012490       0.49927904 </v>
    <v>       0.28607270       0.14312438       0.50012067 </v>
    <v>       0.28521505       0.28661768       0.50231758 </v>
    <v>       0.28243857       0.42686875       0.50411660 </v>
    <v>       0.28516780       0.56987798       0.50270906 </v>
    <v>       0.28605616       0.71424408       0.50061051 </v>
    <v>       0.28597049       0.85716865       0.49950997 </v>
    <v>       0.42880918       0.00006899       0.49961115 </v>
    <v>       0.42944440       0.14367553       0.49991284 </v>
    <v>       0.42800113       0.28374026       0.50105979 </v>
    <v>       0.42799803       0.71557556       0.50164289 </v>
    <v>       0.42944263       0.85707919       0.50019073 </v>
    <v>       0.57130633       0.99993485       0.49995442 </v>
    <v>       0.57133251       0.14276297       0.49979661 </v>
    <v>       0.57474036       0.28883616       0.50062584 </v>
    <v>       0.57474257       0.85728585       0.50101393 </v>
    <v>       0.71412818       0.00032346       0.50018513 </v>
    <v>       0.71400027       0.14268539       0.49962148 </v>
    <v>       0.71413944       0.28520198       0.49996619 </v>
    <v>       0.71000628       0.42450293       0.50199927 </v>
    <v>       0.71583945       0.57172173       0.51026775 </v>
    <v>       0.71583321       0.71545607       0.51031443 </v>
    <v>       0.71000927       0.85688849       0.50226441 </v>
    <v>       0.85621678       0.99939195       0.49977140 </v>
    <v>       0.85649081       0.14253978       0.49963947 </v>
    <v>       0.85650673       0.28533580       0.49958580 </v>
    <v>       0.85624029       0.42819497       0.49966914 </v>
    <v>       0.85575045       0.57048536       0.50001967 </v>
    <v>       0.85682562       0.71407853       0.50107057 </v>
    <v>       0.85572512       0.85658341       0.50003064 </v>
    <v>       0.04689974       0.09463321       0.49900521 </v>
    <v>       0.04598688       0.23697625       0.49983502 </v>
    <v>       0.04596792       0.38033109       0.49994424 </v>
    <v>       0.04689652       0.52359019       0.49928864 </v>
    <v>       0.04725820       0.66651163       0.49864264 </v>
    <v>       0.04719825       0.80926647       0.49852737 </v>
    <v>       0.04724617       0.95208486       0.49845705 </v>
    <v>       0.19042283       0.09510807       0.49952746 </v>
    <v>       0.18934823       0.23751663       0.50077718 </v>
    <v>       0.18738293       0.37936234       0.50170153 </v>
    <v>       0.18932013       0.52312595       0.50105838 </v>
    <v>       0.19042150       0.66663346       0.49993308 </v>
    <v>       0.19066111       0.80956138       0.49914421 </v>
    <v>       0.19066699       0.95244112       0.49897050 </v>
    <v>       0.33399626       0.09587199       0.49969792 </v>
    <v>       0.33456577       0.23858843       0.50121765 </v>
    <v>       0.32879549       0.37918338       0.50485341 </v>
    <v>       0.32874476       0.52089105       0.50505518 </v>
    <v>       0.33455767       0.66726897       0.50177268 </v>
    <v>       0.33398387       0.80942643       0.50005715 </v>
    <v>       0.33336519       0.95235694       0.49941113 </v>
    <v>       0.47635581       0.09529263       0.49972483 </v>
    <v>       0.47701291       0.23943586       0.50041414 </v>
    <v>       0.47701698       0.80889808       0.50084721 </v>
    <v>       0.47634526       0.95240549       0.49985938 </v>
    <v>       0.61871122       0.09503660       0.49971766 </v>
    <v>       0.61942447       0.23824071       0.50012437 </v>
    <v>       0.61942423       0.95257774       0.50042781 </v>
    <v>       0.76167737       0.09546564       0.49968826 </v>
    <v>       0.76166517       0.23757772       0.49960261 </v>
    <v>       0.76088292       0.38000438       0.50044920 </v>
    <v>       0.75948439       0.52283195       0.50367887 </v>
    <v>       0.76114500       0.66624591       0.50724746 </v>
    <v>       0.75946491       0.80800089       0.50375844 </v>
    <v>       0.76087472       0.95226620       0.50066774 </v>
    <v>       0.90370791       0.09433262       0.49950758 </v>
    <v>       0.90393762       0.23764312       0.49962743 </v>
    <v>       0.90371421       0.38073023       0.49947177 </v>
    <v>       0.90386691       0.52356010       0.49906354 </v>
    <v>       0.90380393       0.66594368       0.49957569 </v>
    <v>       0.90379045       0.80918849       0.49955906 </v>
    <v>       0.90384269       0.95163923       0.49904480 </v>
    <v>       0.46626669       0.35633315       0.50161596 </v>
    <v>       0.40109171       0.41875752       0.50645775 </v>
    <v>       0.40103365       0.55365980       0.50675543 </v>
    <v>       0.64391960       0.68101906       0.52036135 </v>
    <v>       0.64391741       0.53419302       0.52029617 </v>
    <v>       0.46626735       0.68125952       0.50229601 </v>
    <v>       0.55188060       0.60679873       0.46330326 </v>
    <v>       0.55274501       0.51808791       0.46330428 </v>
    <v>       0.61990509       0.37942952       0.50151874 </v>
    <v>       0.61991183       0.81186242       0.50186778 </v>
    <v>       0.51259468       0.54229127       0.46511209 </v>
   </varray>
  </structure>
  <varray name="primitive_index" >
   <v type="int" >        1 </v>
   <v type="int" >        2 </v>
   <v type="int" >        3 </v>
   <v type="int" >        4 </v>
   <v type="int" >        5 </v>
   <v type="int" >        6 </v>
   <v type="int" >        7 </v>
   <v type="int" >        8 </v>
   <v type="int" >        9 </v>
   <v type="int" >       10 </v>
   <v type="int" >       11 </v>
   <v type="int" >       12 </v>
   <v type="int" >       13 </v>
   <v type="int" >       14 </v>
   <v type="int" >       15 </v>
   <v type="int" >       16 </v>
   <v type="int" >       17 </v>
   <v type="int" >       18 </v>
   <v type="int" >       19 </v>
   <v type="int" >       20 </v>
   <v type="int" >       21 </v>
   <v type="int" >       22 </v>
   <v type="int" >       23 </v>
   <v type="int" >       24 </v>
   <v type="int" >       25 </v>
   <v type="int" >       26 </v>
   <v type="int" >       27 </v>
   <v type="int" >       28 </v>
   <v type="int" >       29 </v>
   <v type="int" >       30 </v>
   <v type="int" >       31 </v>
   <v type="int" >       32 </v>
   <v type="int" >       33 </v>
   <v type="int" >       34 </v>
   <v type="int" >       35 </v>
   <v type="int" >       36 </v>
   <v type="int" >       37 </v>
   <v type="int" >       38 </v>
   <v type="int" >       39 </v>
   <v type="int" >       40 </v>
   <v type="int" >       41 </v>
   <v type="int" >       42 </v>
   <v type="int" >       43 </v>
   <v type="int" >       44 </v>
   <v type="int" >       45 </v>
   <v type="int" >       46 </v>
   <v type="int" >       47 </v>
   <v type="int" >       48 </v>
   <v type="int" >       49 </v>
   <v type="int" >       50 </v>
   <v type="int" >       51 </v>
   <v type="int" >       52 </v>
   <v type="int" >       53 </v>
   <v type="int" >       54 </v>
   <v type="int" >       55 </v>
   <v type="int" >       56 </v>
   <v type="int" >       57 </v>
   <v type="int" >       58 </v>
   <v type="int" >       59 </v>
   <v type="int" >       60 </v>
   <v type="int" >       61 </v>
   <v type="int" >       62 </v>
   <v type="int" >       63 </v>
   <v type="int" >       64 </v>
   <v type="int" >       65 </v>
   <v type="int" >       66 </v>
   <v type="int" >       67 </v>
   <v type="int" >       68 </v>
   <v type="int" >       69 </v>
   <v type="int" >       70 </v>
   <v type="int" >       71 </v>
   <v type="int" >       72 </v>
   <v type="int" >       73 </v>
   <v type="int" >       74 </v>
   <v type="int" >       75 </v>
   <v type="int" >       76 </v>
   <v type="int" >       77 </v>
   <v type="int" >       78 </v>
   <v type="int" >       79 </v>
   <v type="int" >       80 </v>
   <v type="int" >       81 </v>
   <v type="int" >       82 </v>
   <v type="int" >       83 </v>
   <v type="int" >       84 </v>
   <v type="int" >       85 </v>
   <v type="int" >       86 </v>
   <v type="int" >       87 </v>
   <v type="int" >       88 </v>
   <v type="int" >       89 </v>
   <v type="int" >       90 </v>
   <v type="int" >       91 </v>
   <v type="int" >       92 </v>
   <v type="int" >       93 </v>
   <v type="int" >       94 </v>
   <v type="int" >       95 </v>
   <v type="int" >       96 </v>
   <v type="int" >       97 </v>
  </varray>
 </primitive_cell>
 <kpoints>
  <generation param="Gamma">
   <v type="int" name="divisions">       2        2        1 </v>
   <v name="usershift">      0.00000000       0.00000000       0.00000000 </v>
   <v name="genvec1">      0.50000000       0.00000000       0.00000000 </v>
   <v name="genvec2">      0.00000000       0.50000000       0.00000000 </v>
   <v name="genvec3">      0.00000000       0.00000000       1.00000000 </v>
   <v name="shift">      0.00000000       0.00000000       0.00000000 </v>
  </generation>
  <varray name="kpointlist" >
   <v>       0.00000000       0.00000000       0.00000000 </v>
   <v>       0.50000000       0.00000000       0.00000000 </v>
   <v>       0.00000000       0.50000000       0.00000000 </v>
   <v>       0.50000000       0.50000000       0.00000000 </v>
  </varray>
  <varray name="weights" >
   <v>       0.25000000 </v>
   <v>       0.25000000 </v>
   <v>       0.25000000 </v>
   <v>       0.25000000 </v>
  </varray>
 </kpoints>
 <parameters>
  <separator name="general" >
   <i type="string" name="SYSTEM">unknown system</i>
   <i type="logical" name="LCOMPAT"> F  </i>
  </separator>
  <separator name="electronic" >
   <i type="string" name="PREC">normal</i>
   <i name="ENMAX">    520.00000000</i>
   <i name="ENAUG">    644.87300000</i>
   <i name="EDIFF">      0.00001000</i>
   <i type="int" name="IALGO">    38</i>
   <i type="int" name="IWAVPR">    11</i>
   <i type="int" name="NBANDS">   265</i>
   <i type="int" name="NBANDSLOW">    -1</i>
   <i type="int" name="NBANDSHIGH">    -1</i>
   <i name="NELECT">    368.00000000</i>
   <i type="int" name="TURBO">     0</i>
   <i type="int" name="IRESTART">     0</i>
   <i type="int" name="NREBOOT">     0</i>
   <i type="int" name="NMIN">     0</i>
   <i name="EREF">      0.00000000</i>
   <separator name="electronic smearing" >
    <i type="int" name="ISMEAR">     0</i>
    <i name="SIGMA">      0.05000000</i>
    <i name="KSPACING">      0.50000000</i>
    <i type="logical" name="KGAMMA"> T  </i>
    <i type="logical" name="KBLOWUP"> T  </i>
   </separator>
   <separator name="electronic projectors" >
    <i type="logical" name="LREAL"> T  </i>
    <v name="ROPT">     -0.00050000     -0.00050000     -0.00050000     -0.00050000</v>
    <i type="int" name="LMAXPAW">  -100</i>
    <i type="int" name="LMAXMIX">     2</i>
    <i type="logical" name="NLSPLINE"> F  </i>
   </separator>
   <separator name="electronic startup" >
    <i type="int" name="ISTART">     0</i>
    <i type="int" name="ICHARG">     2</i>
    <i type="int" name="INIWAV">     1</i>
   </separator>
   <separator name="electronic spin" >
    <i type="int" name="ISPIN">     2</i>
    <i type="logical" name="LNONCOLLINEAR"> F  </i>
    <v name="MAGMOM">      0.60000000      0.60000000      0.60000000      0.60000000      0.60000000      0.60000000      0.60000000      0.60000000      0.60000000      0.60000000      0.60000000      0.60000000      0.60000000      0.60000000      0.60000000      0.60000000      0.60000000      0.60000000      0.60000000      0.60000000
      0.60000000      0.60000000      0.60000000      0.60000000      0.60000000      0.60000000      0.60000000      0.60000000      0.60000000      0.60000000      0.60000000      0.60000000      0.60000000      0.60000000      0.60000000      0.60000000      0.60000000      0.60000000      0.60000000      0.60000000
      0.60000000      0.60000000      0.60000000      0.60000000      0.60000000      0.60000000      0.60000000      0.60000000      0.60000000      0.60000000      0.60000000      0.60000000      0.60000000      0.60000000      0.60000000      0.60000000      0.60000000      0.60000000      0.60000000      0.60000000
      0.60000000      0.60000000      0.60000000      0.60000000      0.60000000      0.60000000      0.60000000      0.60000000      0.60000000      0.60000000      0.60000000      0.60000000      0.60000000      0.60000000      0.60000000      0.60000000      0.60000000      0.60000000      0.60000000      0.60000000
      0.60000000      0.60000000      0.60000000      0.60000000      0.60000000      0.60000000      0.60000000      0.60000000      0.60000000      0.60000000      0.60000000      0.60000000      0.60000000      0.60000000      0.60000000      0.60000000      0.60000000</v>
    <i name="NUPDOWN">     -1.00000000</i>
    <i type="logical" name="LSORBIT"> F  </i>
    <v name="SAXIS">      0.00000000      0.00000000      1.00000000</v>
    <i type="logical" name="LSPIRAL"> F  </i>
    <v name="QSPIRAL">      0.00000000      0.00000000      0.00000000</v>
    <i type="logical" name="LZEROZ"> F  </i>
   </separator>
   <separator name="electronic exchange-correlation" >
    <i type="logical" name="LASPH"> T  </i>
    <i type="logical" name="LMETAGGA"> F  </i>
   </separator>
   <separator name="electronic convergence" >
    <i type="int" name="NELM">   200</i>
    <i type="int" name="NELMDL">    -5</i>
    <i type="int" name="NELMIN">     2</i>
    <i name="ENINI">    520.00000000</i>
    <separator name="electronic convergence detail" >
     <i type="logical" name="LDIAG"> T  </i>
     <i type="logical" name="LSUBROT"> F  </i>
     <i name="WEIMIN">      0.00100000</i>
     <i name="EBREAK">      0.00000001</i>
     <i name="DEPER">      0.30000000</i>
     <i type="int" name="NRMM">     4</i>
     <i name="TIME">      0.40000000</i>
    </separator>
   </separator>
   <separator name="electronic mixer" >
    <i name="AMIX">      0.20000000</i>
    <i name="BMIX">      0.00010000</i>
    <i name="AMIN">      0.10000000</i>
    <i name="AMIX_MAG">      0.80000000</i>
    <i name="BMIX_MAG">      0.00010000</i>
    <separator name="electronic mixer details" >
     <i type="int" name="IMIX">     4</i>
     <i type="logical" name="MIXFIRST"> F  </i>
     <i type="int" name="MAXMIX">   -45</i>
     <i name="WC">    100.00000000</i>
     <i type="int" name="INIMIX">     1</i>
     <i type="int" name="MIXPRE">     1</i>
     <i type="int" name="MREMOVE">     5</i>
    </separator>
   </separator>
   <separator name="electronic dipolcorrection" >
    <i type="logical" name="LDIPOL"> F  </i>
    <i type="logical" name="LMONO"> F  </i>
    <i type="int" name="IDIPOL">     0</i>
    <i name="EPSILON">      1.00000000</i>
    <v name="DIPOL">   -100.00000000   -100.00000000   -100.00000000</v>
    <i name="EFIELD">      0.00000000</i>
   </separator>
  </separator>
  <separator name="grids" >
   <i type="int" name="NGX">    96</i>
   <i type="int" name="NGY">    96</i>
   <i type="int" name="NGZ">    84</i>
   <i type="int" name="NGXF">   192</i>
   <i type="int" name="NGYF">   192</i>
   <i type="int" name="NGZF">   168</i>
   <i type="logical" name="ADDGRID"> T  </i>
  </separator>
  <separator name="ionic" >
   <i type="int" name="NSW">   300</i>
   <i type="int" name="IBRION">     3</i>
   <i type="int" name="MDALGO">     0</i>
   <i type="int" name="ISIF">     2</i>
   <i name="PSTRESS">      0.00000000</i>
   <i name="EDIFFG">     -0.03000000</i>
   <i type="int" name="NFREE">     0</i>
   <i name="POTIM">      0.00000000</i>
   <i name="SMASS">     -3.00000000</i>
   <i name="SCALEE">      1.00000000</i>
  </separator>
  <separator name="ionic md" >
   <i name="TEBEG">      0.00010000</i>
   <i name="TEEND">      0.00010000</i>
   <i type="int" name="NBLOCK">     1</i>
   <i type="int" name="KBLOCK">   300</i>
   <i type="int" name="NPACO">   256</i>
   <i name="APACO">     10.00000000</i>
  </separator>
  <separator name="symmetry" >
   <i type="int" name="ISYM">     0</i>
   <i name="SYMPREC">      0.00001000</i>
  </separator>
  <separator name="dos" >
   <i type="int" name="LORBIT">     0</i>
   <v name="RWIGS">     -1.00000000     -1.00000000     -1.00000000     -1.00000000</v>
   <i type="int" name="NEDOS">   301</i>
   <i name="EMIN">     10.00000000</i>
   <i name="EMAX">    -10.00000000</i>
   <i name="EFERMI">      0.00000000</i>
  </separator>
  <separator name="writing" >
   <i type="int" name="NWRITE">     2</i>
   <i type="logical" name="LWAVE"> F  </i>
   <i type="logical" name="LDOWNSAMPLE"> F  </i>
   <i type="logical" name="LCHARG"> F  </i>
   <i type="logical" name="LPARD"> F  </i>
   <i type="logical" name="LVTOT"> F  </i>
   <i type="logical" name="LVHAR"> F  </i>
   <i type="logical" name="LELF"> F  </i>
   <i type="logical" name="LOPTICS"> F  </i>
   <v name="STM">      0.00000000      0.00000000      0.00000000      0.00000000      0.00000000      0.00000000      0.00000000</v>
  </separator>
  <separator name="performance" >
   <i type="int" name="NPAR">     5</i>
   <i type="int" name="NSIM">     4</i>
   <i type="int" name="NBLK">    -1</i>
   <i type="logical" name="LPLANE"> T  </i>
   <i type="logical" name="LSCALAPACK"> T  </i>
   <i type="logical" name="LSCAAWARE"> F  </i>
   <i type="logical" name="LSCALU"> F  </i>
   <i type="logical" name="LASYNC"> F  </i>
   <i type="logical" name="LORBITALREAL"> F  </i>
  </separator>
  <separator name="miscellaneous" >
   <i type="int" name="IDIOT">     3</i>
   <i type="int" name="PHON_NSTRUCT">    -1</i>
   <i type="logical" name="LMUSIC"> F  </i>
   <v name="POMASS">     12.01100000      1.00000000     14.00100000     16.00000000</v>
   <v name="DARWINR">      0.00000000      0.00000000      0.00000000      0.00000000</v>
   <v name="DARWINV">      1.00000000      1.00000000      1.00000000      1.00000000</v>
   <i type="logical" name="LCORR"> T  </i>
  </separator>
  <i type="logical" name="GGA_COMPAT"> T  </i>
  <i type="logical" name="LBERRY"> F  </i>
  <i type="int" name="ICORELEVEL">     0</i>
  <i type="logical" name="LDAU"> F  </i>
  <i type="int" name="I_CONSTRAINED_M">     0</i>
  <separator name="electronic exchange-correlation" >
   <i type="string" name="GGA">--</i>
   <i type="int" name="VOSKOWN">     0</i>
   <i type="logical" name="LHFCALC"> F  </i>
   <i type="string" name="PRECFOCK"></i>
   <i type="logical" name="LSYMGRAD"> F  </i>
   <i type="logical" name="LHFONE"> F  </i>
   <i type="logical" name="LRHFCALC"> F  </i>
   <i type="logical" name="LTHOMAS"> F  </i>
   <i type="logical" name="LMODELHF"> F  </i>
   <i type="logical" name="LFOCKACE"> F  </i>
   <i name="ENCUT4O">     -1.00000000</i>
   <i type="int" name="EXXOEP">     0</i>
   <i type="int" name="FOURORBIT">     0</i>
   <i name="AEXX">      0.00000000</i>
   <i name="HFALPHA">      0.00000000</i>
   <i name="MCALPHA">      0.00000000</i>
   <i name="ALDAX">      1.00000000</i>
   <i name="AGGAX">      1.00000000</i>
   <i name="ALDAC">      1.00000000</i>
   <i name="AGGAC">      1.00000000</i>
   <i type="int" name="NKREDX">     1</i>
   <i type="int" name="NKREDY">     1</i>
   <i type="int" name="NKREDZ">     1</i>
   <i type="logical" name="SHIFTRED"> F  </i>
   <i type="logical" name="ODDONLY"> F  </i>
   <i type="logical" name="EVENONLY"> F  </i>
   <i type="int" name="LMAXFOCK">     0</i>
   <i type="int" name="NMAXFOCKAE">     0</i>
   <i type="logical" name="LFOCKAEDFT"> F  </i>
   <i name="HFSCREEN">      0.00000000</i>
   <i name="HFSCREENC">      0.00000000</i>
   <i type="int" name="NBANDSGWLOW">     0</i>
  </separator>
  <separator name="vdW DFT" >
   <i type="logical" name="LUSE_VDW"> F  </i>
   <i type="int" name="IVDW_NL">     1</i>
   <i type="logical" name="LSPIN_VDW"> F  </i>
   <i name="Zab_VDW">     -0.84910000</i>
   <i name="PARAM1">      0.12340000</i>
   <i name="PARAM2">      1.00000000</i>
   <i name="PARAM3">      0.00000000</i>
  </separator>
  <separator name="model GW" >
   <i type="int" name="MODEL_GW">     0</i>
   <i name="MODEL_EPS0">     23.96835834</i>
   <i name="MODEL_ALPHA">      1.00000000</i>
  </separator>
  <separator name="linear response parameters" >
   <i type="logical" name="LEPSILON"> F  </i>
   <i type="logical" name="LRPA"> F  </i>
   <i type="logical" name="LNABLA"> F  </i>
   <i type="logical" name="LVEL"> F  </i>
   <i name="CSHIFT">      0.10000000</i>
   <i name="OMEGAMAX">     -1.00000000</i>
   <i name="DEG_THRESHOLD">      0.00200000</i>
   <i name="RTIME">     -0.10000000</i>
   <i name="WPLASMAI">      0.00000000</i>
   <v name="DFIELD">      0.00000000      0.00000000      0.00000000</v>
   <v name="WPLASMA">      0.00000000      0.00000000      0.00000000      0.00000000      0.00000000      0.00000000      0.00000000      0.00000000      0.00000000</v>
  </separator>
  <separator name="orbital magnetization" >
   <i type="logical" name="NUCIND"> F  </i>
   <v name="MAGPOS">      0.00000000      0.00000000      0.00000000</v>
   <i type="logical" name="LNICSALL"> T  </i>
   <i type="logical" name="ORBITALMAG"> F  </i>
   <i type="logical" name="LMAGBLOCH"> F  </i>
   <i type="logical" name="LCHIMAG"> F  </i>
   <i type="logical" name="LGAUGE"> T  </i>
   <i type="int" name="MAGATOM">     0</i>
   <v name="MAGDIPOL">      0.00000000      0.00000000      0.00000000</v>
   <v name="AVECCONST">      0.00000000      0.00000000      0.00000000</v>
  </separator>
  <separator name="response functions" >
   <i type="logical" name="LALL_IN_ONE"> F  </i>
   <i type="int" name="IALL_IN_ONE">    -1</i>
   <i type="int" name="NBANDS_WAVE">    -1</i>
   <i type="logical" name="LFINITE_TEMPERATURE"> F  </i>
   <i type="logical" name="LADDER"> F  </i>
   <i type="logical" name="LRPAFORCE"> F  </i>
   <i type="logical" name="LFXC"> F  </i>
   <i type="logical" name="LHARTREE"> T  </i>
   <i type="int" name="IBSE">     0</i>
   <v type="int" name="KPOINT">    -1     0     0     0</v>
   <i type="logical" name="LTCTC"> F  </i>
   <i type="logical" name="LTCTE"> F  </i>
   <i type="logical" name="LTETE"> F  </i>
   <i type="logical" name="LTRIPLET"> F  </i>
   <i type="logical" name="LFXCEPS"> F  </i>
   <i type="logical" name="LFXHEG"> F  </i>
   <i type="int" name="NATURALO">     2</i>
   <i type="logical" name="LHOLEGF"> F  </i>
   <i type="logical" name="L2ORDER"> F  </i>
   <i type="logical" name="LDMP1"> F  </i>
   <i type="logical" name="LMP2LT"> F  </i>
   <i type="logical" name="LSMP2LT"> F  </i>
   <i type="logical" name="LGWLF"> F  </i>
   <i name="ENCUTGW">     -1.60000002</i>
   <i name="ENCUTGWSOFT">     -1.60000002</i>
   <i name="ENCUTLF">     -1.00000000</i>
   <i type="logical" name="LESF_SPLINES"> F  </i>
   <i type="int" name="LMAXMP2">    -1</i>
   <i name="SCISSOR">      0.00000000</i>
   <i type="int" name="NOMEGA">     0</i>
   <i type="int" name="NOMEGAR">     0</i>
   <i type="int" name="NBANDSGW">    -1</i>
   <i type="int" name="NBANDSO">    -1</i>
   <i type="int" name="NBANDSV">    -1</i>
   <i type="int" name="NELMGW">     1</i>
   <i type="int" name="NELMHF">     1</i>
   <i type="int" name="DIM">     3</i>
   <i type="int" name="IESPILON">     4</i>
   <i type="int" name="ANTIRES">     0</i>
   <i name="OMEGAMAX">    -30.00000000</i>
   <i name="OMEGAMIN">    -30.00000000</i>
   <i name="OMEGATL">   -200.00000000</i>
   <i type="int" name="OMEGAGRID">     0</i>
   <i name="CSHIFT">     -0.10000000</i>
   <i type="logical" name="LSELFENERGY"> F  </i>
   <i type="logical" name="LSPECTRAL"> F  </i>
   <i type="logical" name="LSPECTRALGW"> F  </i>
   <i type="logical" name="LSINGLES"> F  </i>
   <i type="logical" name="LFERMIGW"> F  </i>
   <i type="logical" name="ODDONLYGW"> F  </i>
   <i type="logical" name="EVENONLYGW"> F  </i>
   <i type="int" name="NKREDLFX">     1</i>
   <i type="int" name="NKREDLFY">     1</i>
   <i type="int" name="NKREDLFZ">     1</i>
   <i type="int" name="MAXMEM">  2800</i>
   <i type="int" name="TELESCOPE">     0</i>
   <i type="int" name="NTAUPAR">    -1</i>
   <i type="int" name="NOMEGAPAR">    -1</i>
   <i name="DAMP_NEWTON">      0.80000001</i>
   <i name="LAMBDA">      1.00000000</i>
  </separator>
  <separator name="External order field" >
   <i name="OFIELD_KAPPA">      0.00000000</i>
   <v name="OFIELD_K">      0.00000000      0.00000000      0.00000000</v>
   <i name="OFIELD_Q6_NEAR">      0.00000000</i>
   <i name="OFIELD_Q6_FAR">      0.00000000</i>
   <i name="OFIELD_A">      0.00000000</i>
  </separator>
  <separator name="optional k-points parameters" >
   <i type="int" name="KPOINTS_OPT_MODE">     1</i>
   <i type="logical" name="LKPOINTS_OPT"> F  </i>
  </separator>
 </parameters>
 <atominfo>
  <atoms>      97 </atoms>
  <types>       4 </types>
  <array name="atoms" >
   <dimension dim="1">ion</dimension>
   <field type="string">element</field>
   <field type="int">atomtype</field>
   <set>
    <rc><c>C </c><c>   1</c></rc>
    <rc><c>C </c><c>   1</c></rc>
    <rc><c>C </c><c>   1</c></rc>
    <rc><c>C </c><c>   1</c></rc>
    <rc><c>C </c><c>   1</c></rc>
    <rc><c>C </c><c>   1</c></rc>
    <rc><c>C </c><c>   1</c></rc>
    <rc><c>C </c><c>   1</c></rc>
    <rc><c>C </c><c>   1</c></rc>
    <rc><c>C </c><c>   1</c></rc>
    <rc><c>C </c><c>   1</c></rc>
    <rc><c>C </c><c>   1</c></rc>
    <rc><c>C </c><c>   1</c></rc>
    <rc><c>C </c><c>   1</c></rc>
    <rc><c>C </c><c>   1</c></rc>
    <rc><c>C </c><c>   1</c></rc>
    <rc><c>C </c><c>   1</c></rc>
    <rc><c>C </c><c>   1</c></rc>
    <rc><c>C </c><c>   1</c></rc>
    <rc><c>C </c><c>   1</c></rc>
    <rc><c>C </c><c>   1</c></rc>
    <rc><c>C </c><c>   1</c></rc>
    <rc><c>C </c><c>   1</c></rc>
    <rc><c>C </c><c>   1</c></rc>
    <rc><c>C </c><c>   1</c></rc>
    <rc><c>C </c><c>   1</c></rc>
    <rc><c>C </c><c>   1</c></rc>
    <rc><c>C </c><c>   1</c></rc>
    <rc><c>C </c><c>   1</c></rc>
    <rc><c>C </c><c>   1</c></rc>
    <rc><c>C </c><c>   1</c></rc>
    <rc><c>C </c><c>   1</c></rc>
    <rc><c>C </c><c>   1</c></rc>
    <rc><c>C </c><c>   1</c></rc>
    <rc><c>C </c><c>   1</c></rc>
    <rc><c>C </c><c>   1</c></rc>
    <rc><c>C </c><c>   1</c></rc>
    <rc><c>C </c><c>   1</c></rc>
    <rc><c>C </c><c>   1</c></rc>
    <rc><c>C </c><c>   1</c></rc>
    <rc><c>C </c><c>   1</c></rc>
    <rc><c>C </c><c>   1</c></rc>
    <rc><c>C </c><c>   1</c></rc>
    <rc><c>C </c><c>   1</c></rc>
    <rc><c>C </c><c>   1</c></rc>
    <rc><c>C </c><c>   1</c></rc>
    <rc><c>C </c><c>   1</c></rc>
    <rc><c>C </c><c>   1</c></rc>
    <rc><c>C </c><c>   1</c></rc>
    <rc><c>C </c><c>   1</c></rc>
    <rc><c>C </c><c>   1</c></rc>
    <rc><c>C </c><c>   1</c></rc>
    <rc><c>C </c><c>   1</c></rc>
    <rc><c>C </c><c>   1</c></rc>
    <rc><c>C </c><c>   1</c></rc>
    <rc><c>C </c><c>   1</c></rc>
    <rc><c>C </c><c>   1</c></rc>
    <rc><c>C </c><c>   1</c></rc>
    <rc><c>C </c><c>   1</c></rc>
    <rc><c>C </c><c>   1</c></rc>
    <rc><c>C </c><c>   1</c></rc>
    <rc><c>C </c><c>   1</c></rc>
    <rc><c>C </c><c>   1</c></rc>
    <rc><c>C </c><c>   1</c></rc>
    <rc><c>C </c><c>   1</c></rc>
    <rc><c>C </c><c>   1</c></rc>
    <rc><c>C </c><c>   1</c></rc>
    <rc><c>C </c><c>   1</c></rc>
    <rc><c>C </c><c>   1</c></rc>
    <rc><c>C </c><c>   1</c></rc>
    <rc><c>C </c><c>   1</c></rc>
    <rc><c>C </c><c>   1</c></rc>
    <rc><c>C </c><c>   1</c></rc>
    <rc><c>C </c><c>   1</c></rc>
    <rc><c>C </c><c>   1</c></rc>
    <rc><c>C </c><c>   1</c></rc>
    <rc><c>C </c><c>   1</c></rc>
    <rc><c>C </c><c>   1</c></rc>
    <rc><c>C </c><c>   1</c></rc>
    <rc><c>C </c><c>   1</c></rc>
    <rc><c>C </c><c>   1</c></rc>
    <rc><c>C </c><c>   1</c></rc>
    <rc><c>C </c><c>   1</c></rc>
    <rc><c>C </c><c>   1</c></rc>
    <rc><c>C </c><c>   1</c></rc>
    <rc><c>C </c><c>   1</c></rc>
    <rc><c>H </c><c>   2</c></rc>
    <rc><c>H </c><c>   2</c></rc>
    <rc><c>H </c><c>   2</c></rc>
    <rc><c>H </c><c>   2</c></rc>
    <rc><c>H </c><c>   2</c></rc>
    <rc><c>H </c><c>   2</c></rc>
    <rc><c>H </c><c>   2</c></rc>
    <rc><c>H </c><c>   2</c></rc>
    <rc><c>N </c><c>   3</c></rc>
    <rc><c>N </c><c>   3</c></rc>
    <rc><c>O </c><c>   4</c></rc>
   </set>
  </array>
  <array name="atomtypes" >
   <dimension dim="1">type</dimension>
   <field type="int">atomspertype</field>
   <field type="string">element</field>
   <field>mass</field>
   <field>valence</field>
   <field type="string">pseudopotential</field>
   <set>
    <rc><c>  86</c><c>C </c><c>     12.01100000</c><c>      4.00000000</c><c>  PAW_PBE C 08Apr2002                   </c></rc>
    <rc><c>   8</c><c>H </c><c>      1.00000000</c><c>      1.00000000</c><c>  PAW_PBE H 15Jun2001                   </c></rc>
    <rc><c>   2</c><c>N </c><c>     14.00100000</c><c>      5.00000000</c><c>  PAW_PBE N 08Apr2002                   </c></rc>
    <rc><c>   1</c><c>O </c><c>     16.00000000</c><c>      6.00000000</c><c>  PAW_PBE O 08Apr2002                   </c></rc>
   </set>
  </array>
 </atominfo>
 <structure name="initialpos" >
  <crystal>
   <varray name="basis" >
    <v>      17.27103806       0.00000000       0.00000000 </v>
    <v>      -8.63551903      14.95715771       0.00000000 </v>
    <v>       0.00000000       0.00000000      15.00000000 </v>
   </varray>
   <i name="volume">   3874.88459904 </i>
   <varray name="rec_basis" >
    <v>       0.05790040       0.03342881       0.00000000 </v>
    <v>       0.00000000       0.06685762       0.00000000 </v>
    <v>       0.00000000       0.00000000       0.06666667 </v>
   </varray>
  </crystal>
  <varray name="positions" >
   <v>       0.99920005       0.99935432       0.49854308 </v>
   <v>       0.99892765       0.14200336       0.49934121 </v>
   <v>       0.99892805       0.28512896       0.49980998 </v>
   <v>       0.99892107       0.42824516       0.49948867 </v>
   <v>       0.99922591       0.57119024       0.49873282 </v>
   <v>       0.99957074       0.71393117       0.49855164 </v>
   <v>       0.99956623       0.85698226       0.49849324 </v>
   <v>       0.14282097       0.00010136       0.49887664 </v>
   <v>       0.14219888       0.14248234       0.49963347 </v>
   <v>       0.14113027       0.28454513       0.50069415 </v>
   <v>       0.14110734       0.42789355       0.50086179 </v>
   <v>       0.14218381       0.57103044       0.49997408 </v>
   <v>       0.14283724       0.71405618       0.49914087 </v>
   <v>       0.14286327       0.85709814       0.49878908 </v>
   <v>       0.28596315       0.00012490       0.49927904 </v>
   <v>       0.28607270       0.14312438       0.50012067 </v>
   <v>       0.28521505       0.28661768       0.50231758 </v>
   <v>       0.28243857       0.42686875       0.50411660 </v>
   <v>       0.28516780       0.56987798       0.50270906 </v>
   <v>       0.28605616       0.71424408       0.50061051 </v>
   <v>       0.28597049       0.85716865       0.49950997 </v>
   <v>       0.42880918       0.00006899       0.49961115 </v>
   <v>       0.42944440       0.14367553       0.49991284 </v>
   <v>       0.42800113       0.28374026       0.50105979 </v>
   <v>       0.42799803       0.71557556       0.50164289 </v>
   <v>       0.42944263       0.85707919       0.50019073 </v>
   <v>       0.57130633       0.99993485       0.49995442 </v>
   <v>       0.57133251       0.14276297       0.49979661 </v>
   <v>       0.57474036       0.28883616       0.50062584 </v>
   <v>       0.57474257       0.85728585       0.50101393 </v>
   <v>       0.71412818       0.00032346       0.50018513 </v>
   <v>       0.71400027       0.14268539       0.49962148 </v>
   <v>       0.71413944       0.28520198       0.49996619 </v>
   <v>       0.71000628       0.42450293       0.50199927 </v>
   <v>       0.71583945       0.57172173       0.51026775 </v>
   <v>       0.71583321       0.71545607       0.51031443 </v>
   <v>       0.71000927       0.85688849       0.50226441 </v>
   <v>       0.85621678       0.99939195       0.49977140 </v>
   <v>       0.85649081       0.14253978       0.49963947 </v>
   <v>       0.85650673       0.28533580       0.49958580 </v>
   <v>       0.85624029       0.42819497       0.49966914 </v>
   <v>       0.85575045       0.57048536       0.50001967 </v>
   <v>       0.85682562       0.71407853       0.50107057 </v>
   <v>       0.85572512       0.85658341       0.50003064 </v>
   <v>       0.04689974       0.09463321       0.49900521 </v>
   <v>       0.04598688       0.23697625       0.49983502 </v>
   <v>       0.04596792       0.38033109       0.49994424 </v>
   <v>       0.04689652       0.52359019       0.49928864 </v>
   <v>       0.04725820       0.66651163       0.49864264 </v>
   <v>       0.04719825       0.80926647       0.49852737 </v>
   <v>       0.04724617       0.95208486       0.49845705 </v>
   <v>       0.19042283       0.09510807       0.49952746 </v>
   <v>       0.18934823       0.23751663       0.50077718 </v>
   <v>       0.18738293       0.37936234       0.50170153 </v>
   <v>       0.18932013       0.52312595       0.50105838 </v>
   <v>       0.19042150       0.66663346       0.49993308 </v>
   <v>       0.19066111       0.80956138       0.49914421 </v>
   <v>       0.19066699       0.95244112       0.49897050 </v>
   <v>       0.33399626       0.09587199       0.49969792 </v>
   <v>       0.33456577       0.23858843       0.50121765 </v>
   <v>       0.32879549       0.37918338       0.50485341 </v>
   <v>       0.32874476       0.52089105       0.50505518 </v>
   <v>       0.33455767       0.66726897       0.50177268 </v>
   <v>       0.33398387       0.80942643       0.50005715 </v>
   <v>       0.33336519       0.95235694       0.49941113 </v>
   <v>       0.47635581       0.09529263       0.49972483 </v>
   <v>       0.47701291       0.23943586       0.50041414 </v>
   <v>       0.47701698       0.80889808       0.50084721 </v>
   <v>       0.47634526       0.95240549       0.49985938 </v>
   <v>       0.61871122       0.09503660       0.49971766 </v>
   <v>       0.61942447       0.23824071       0.50012437 </v>
   <v>       0.61942423       0.95257774       0.50042781 </v>
   <v>       0.76167737       0.09546564       0.49968826 </v>
   <v>       0.76166517       0.23757772       0.49960261 </v>
   <v>       0.76088292       0.38000438       0.50044920 </v>
   <v>       0.75948439       0.52283195       0.50367887 </v>
   <v>       0.76114500       0.66624591       0.50724746 </v>
   <v>       0.75946491       0.80800089       0.50375844 </v>
   <v>       0.76087472       0.95226620       0.50066774 </v>
   <v>       0.90370791       0.09433262       0.49950758 </v>
   <v>       0.90393762       0.23764312       0.49962743 </v>
   <v>       0.90371421       0.38073023       0.49947177 </v>
   <v>       0.90386691       0.52356010       0.49906354 </v>
   <v>       0.90380393       0.66594368       0.49957569 </v>
   <v>       0.90379045       0.80918849       0.49955906 </v>
   <v>       0.90384269       0.95163923       0.49904480 </v>
   <v>       0.46626669       0.35633315       0.50161596 </v>
   <v>       0.40109171       0.41875752       0.50645775 </v>
   <v>       0.40103365       0.55365980       0.50675543 </v>
   <v>       0.64391960       0.68101906       0.52036135 </v>
   <v>       0.64391741       0.53419302       0.52029617 </v>
   <v>       0.46626735       0.68125952       0.50229601 </v>
   <v>       0.55188060       0.60679873       0.46330326 </v>
   <v>       0.55274501       0.51808791       0.46330428 </v>
   <v>       0.61990509       0.37942952       0.50151874 </v>
   <v>       0.61991183       0.81186242       0.50186778 </v>
   <v>       0.51259468       0.54229127       0.46511209 </v>
  </varray>
  <varray name="selective"  type="logical" >
   <v type="logical" >  T  T  T </v>
   <v type="logical" >  T  T  T </v>
   <v type="logical" >  T  T  T </v>
   <v type="logical" >  T  T  T </v>
   <v type="logical" >  T  T  T </v>
   <v type="logical" >  T  T  T </v>
   <v type="logical" >  T  T  T </v>
   <v type="logical" >  T  T  T </v>
   <v type="logical" >  T  T  T </v>
   <v type="logical" >  T  T  T </v>
   <v type="logical" >  T  T  T </v>
   <v type="logical" >  T  T  T </v>
   <v type="logical" >  T  T  T </v>
   <v type="logical" >  T  T  T </v>
   <v type="logical" >  T  T  T </v>
   <v type="logical" >  T  T  T </v>
   <v type="logical" >  T  T  T </v>
   <v type="logical" >  T  T  T </v>
   <v type="logical" >  T  T  T </v>
   <v type="logical" >  T  T  T </v>
   <v type="logical" >  T  T  T </v>
   <v type="logical" >  T  T  T </v>
   <v type="logical" >  T  T  T </v>
   <v type="logical" >  T  T  T </v>
   <v type="logical" >  T  T  T </v>
   <v type="logical" >  T  T  T </v>
   <v type="logical" >  T  T  T </v>
   <v type="logical" >  T  T  T </v>
   <v type="logical" >  T  T  T </v>
   <v type="logical" >  T  T  T </v>
   <v type="logical" >  T  T  T </v>
   <v type="logical" >  T  T  T </v>
   <v type="logical" >  T  T  T </v>
   <v type="logical" >  T  T  T </v>
   <v type="logical" >  T  T  T </v>
   <v type="logical" >  T  T  T </v>
   <v type="logical" >  T  T  T </v>
   <v type="logical" >  T  T  T </v>
   <v type="logical" >  T  T  T </v>
   <v type="logical" >  T  T  T </v>
   <v type="logical" >  T  T  T </v>
   <v type="logical" >  T  T  T </v>
   <v type="logical" >  T  T  T </v>
   <v type="logical" >  T  T  T </v>
   <v type="logical" >  T  T  T </v>
   <v type="logical" >  T  T  T </v>
   <v type="logical" >  T  T  T </v>
   <v type="logical" >  T  T  T </v>
   <v type="logical" >  T  T  T </v>
   <v type="logical" >  T  T  T </v>
   <v type="logical" >  T  T  T </v>
   <v type="logical" >  T  T  T </v>
   <v type="logical" >  T  T  T </v>
   <v type="logical" >  T  T  T </v>
   <v type="logical" >  T  T  T </v>
   <v type="logical" >  T  T  T </v>
   <v type="logical" >  T  T  T </v>
   <v type="logical" >  T  T  T </v>
   <v type="logical" >  T  T  T </v>
   <v type="logical" >  T  T  T </v>
   <v type="logical" >  T  T  T </v>
   <v type="logical" >  T  T  T </v>
   <v type="logical" >  T  T  T </v>
   <v type="logical" >  T  T  T </v>
   <v type="logical" >  T  T  T </v>
   <v type="logical" >  T  T  T </v>
   <v type="logical" >  T  T  T </v>
   <v type="logical" >  T  T  T </v>
   <v type="logical" >  T  T  T </v>
   <v type="logical" >  T  T  T </v>
   <v type="logical" >  T  T  T </v>
   <v type="logical" >  T  T  T </v>
   <v type="logical" >  T  T  T </v>
   <v type="logical" >  T  T  T </v>
   <v type="logical" >  T  T  T </v>
   <v type="logical" >  T  T  T </v>
   <v type="logical" >  T  T  T </v>
   <v type="logical" >  T  T  T </v>
   <v type="logical" >  T  T  T </v>
   <v type="logical" >  T  T  T </v>
   <v type="logical" >  T  T  T </v>
   <v type="logical" >  T  T  T </v>
   <v type="logical" >  T  T  T </v>
   <v type="logical" >  T  T  T </v>
   <v type="logical" >  T  T  T </v>
   <v type="logical" >  T  T  T </v>
   <v type="logical" >  T  T  T </v>
   <v type="logical" >  T  T  T </v>
   <v type="logical" >  T  T  T </v>
   <v type="logical" >  T  T  T </v>
   <v type="logical" >  T  T  T </v>
   <v type="logical" >  T  T  T </v>
   <v type="logical" >  T  T  T </v>
   <v type="logical" >  T  T  T </v>
   <v type="logical" >  T  T  T </v>
   <v type="logical" >  T  T  T </v>
   <v type="logical" >  T  T  F </v>
  </varray>
  <nose>
   <v>      -3.00000000       0.00000000       0.00010000       0.00010000 </v>
  </nose>
 </structure>
 <calculation>
  <scstep>
   <time name="dav">   72.74   73.20</time>
   <time name="total">   77.91   78.46</time>
   <energy>
    <i name="alphaZ">    175.87611319 </i>
    <i name="ewald">  36637.01869522 </i>
    <i name="hartreedc"> -46832.81502292 </i>
    <i name="XCdc">   1224.38044445 </i>
    <i name="pawpsdc">  10101.41315093 </i>
    <i name="pawaedc"> -10154.35997595 </i>
    <i name="eentropy">     -0.04461240 </i>
    <i name="bandstr">  -1604.64326492 </i>
    <i name="atom">  13716.13071916 </i>
    <i name="e_fr_energy">   3262.95624676 </i>
    <i name="e_wo_entrp">   3263.00085915 </i>
    <i name="e_0_energy">   3262.97855295 </i>
   </energy>
  </scstep>
  <scstep>
   <time name="dav">   94.86   95.50</time>
   <time name="total">   94.86   95.52</time>
   <energy>
    <i name="e_fr_energy">   -251.14872447 </i>
    <i name="e_wo_entrp">   -251.14869287 </i>
    <i name="e_0_energy">   -251.14870867 </i>
   </energy>
  </scstep>
  <scstep>
   <time name="dav">   81.13   81.69</time>
   <time name="total">   81.13   81.70</time>
   <energy>
    <i name="e_fr_energy">   -864.09661716 </i>
    <i name="e_wo_entrp">   -864.09661598 </i>
    <i name="e_0_energy">   -864.09661657 </i>
   </energy>
  </scstep>
  <scstep>
   <time name="dav">   82.39   82.97</time>
   <time name="total">   82.39   82.98</time>
   <energy>
    <i name="e_fr_energy">   -886.23109015 </i>
    <i name="e_wo_entrp">   -886.23108800 </i>
    <i name="e_0_energy">   -886.23108908 </i>
   </energy>
  </scstep>
  <scstep>
   <time name="dav">   90.49   91.15</time>
   <time name="total">   95.92   96.64</time>
   <energy>
    <i name="e_fr_energy">   -886.85939804 </i>
    <i name="e_wo_entrp">   -886.85939573 </i>
    <i name="e_0_energy">   -886.85939689 </i>
   </energy>
  </scstep>
  <scstep>
   <time name="dav">   78.73   79.24</time>
   <time name="total">   89.63   90.25</time>
   <energy>
    <i name="e_fr_energy">   -869.56971117 </i>
    <i name="e_wo_entrp">   -869.56737931 </i>
    <i name="e_0_energy">   -869.56854524 </i>
   </energy>
  </scstep>
  <scstep>
   <time name="dav">   77.52   78.02</time>
   <time name="total">   88.52   89.13</time>
   <energy>
    <i name="e_fr_energy">   -847.40558917 </i>
    <i name="e_wo_entrp">   -847.40557668 </i>
    <i name="e_0_energy">   -847.40558292 </i>
   </energy>
  </scstep>
  <scstep>
   <time name="dav">   79.24   79.76</time>
   <time name="total">   90.19   90.87</time>
   <energy>
    <i name="e_fr_energy">   -842.61255898 </i>
    <i name="e_wo_entrp">   -842.61255892 </i>
    <i name="e_0_energy">   -842.61255895 </i>
   </energy>
  </scstep>
  <scstep>
   <time name="dav">   77.96   78.48</time>
   <time name="total">   88.76   89.39</time>
   <energy>
    <i name="e_fr_energy">   -842.50898980 </i>
    <i name="e_wo_entrp">   -842.50898973 </i>
    <i name="e_0_energy">   -842.50898977 </i>
   </energy>
  </scstep>
  <scstep>
   <time name="dav">   76.63   77.13</time>
   <time name="total">   87.53   88.14</time>
   <energy>
    <i name="e_fr_energy">   -842.41773512 </i>
    <i name="e_wo_entrp">   -842.41773508 </i>
    <i name="e_0_energy">   -842.41773510 </i>
   </energy>
  </scstep>
  <scstep>
   <time name="dav">   75.73   76.21</time>
   <time name="total">   86.49   87.10</time>
   <energy>
    <i name="e_fr_energy">   -842.40642862 </i>
    <i name="e_wo_entrp">   -842.40642858 </i>
    <i name="e_0_energy">   -842.40642860 </i>
   </energy>
  </scstep>
  <scstep>
   <time name="dav">   81.59   82.11</time>
   <time name="total">   92.22   92.85</time>
   <energy>
    <i name="e_fr_energy">   -842.40443741 </i>
    <i name="e_wo_entrp">   -842.40443737 </i>
    <i name="e_0_energy">   -842.40443739 </i>
   </energy>
  </scstep>
  <scstep>
   <time name="dav">   79.37   79.89</time>
   <time name="total">   90.34   90.99</time>
   <energy>
    <i name="e_fr_energy">   -842.40402413 </i>
    <i name="e_wo_entrp">   -842.40402409 </i>
    <i name="e_0_energy">   -842.40402411 </i>
   </energy>
  </scstep>
  <scstep>
   <time name="dav">   79.37   79.90</time>
   <time name="total">   90.11   90.74</time>
   <energy>
    <i name="e_fr_energy">   -842.40415007 </i>
    <i name="e_wo_entrp">   -842.40415003 </i>
    <i name="e_0_energy">   -842.40415005 </i>
   </energy>
  </scstep>
  <scstep>
   <time name="dav">   76.03   76.53</time>
   <time name="total">   86.96   87.59</time>
   <energy>
    <i name="e_fr_energy">   -842.40418229 </i>
    <i name="e_wo_entrp">   -842.40418225 </i>
    <i name="e_0_energy">   -842.40418227 </i>
   </energy>
  </scstep>
  <scstep>
   <time name="dav">   65.13   65.58</time>
   <time name="total">   75.93   76.49</time>
   <energy>
    <i name="e_fr_energy">   -842.40419536 </i>
    <i name="e_wo_entrp">   -842.40419532 </i>
    <i name="e_0_energy">   -842.40419534 </i>
   </energy>
  </scstep>
  <scstep>
   <time name="dav">   60.39   60.79</time>
   <time name="total">   65.55   66.02</time>
   <energy>
    <i name="alphaZ">    175.87611319 </i>
    <i name="ewald">  36637.01869522 </i>
    <i name="hartreedc"> -48338.10627062 </i>
    <i name="XCdc">   1274.27762319 </i>
    <i name="pawpsdc">  37327.20946850 </i>
    <i name="pawaedc"> -37391.05375143 </i>
    <i name="eentropy">     -0.00000004 </i>
    <i name="bandstr">  -4243.75679247 </i>
    <i name="atom">  13716.13071916 </i>
    <i name="e_fr_energy">   -842.40419530 </i>
    <i name="e_wo_entrp">   -842.40419526 </i>
    <i name="e_0_energy">   -842.40419528 </i>
   </energy>
  </scstep>
  <structure>
   <crystal>
    <varray name="basis" >
     <v>      17.27103806       0.00000000       0.00000000 </v>
     <v>      -8.63551903      14.95715771       0.00000000 </v>
     <v>       0.00000000       0.00000000      15.00000000 </v>
    </varray>
    <i name="volume">   3874.88459904 </i>
    <varray name="rec_basis" >
     <v>       0.05790040       0.03342881       0.00000000 </v>
     <v>       0.00000000       0.06685762       0.00000000 </v>
     <v>       0.00000000       0.00000000       0.06666667 </v>
    </varray>
   </crystal>
   <varray name="positions" >
    <v>       0.99920005       0.99935432       0.49854308 </v>
    <v>       0.99892765       0.14200336       0.49934121 </v>
    <v>       0.99892805       0.28512896       0.49980998 </v>
    <v>       0.99892107       0.42824516       0.49948867 </v>
    <v>       0.99922591       0.57119024       0.49873282 </v>
    <v>       0.99957074       0.71393117       0.49855164 </v>
    <v>       0.99956623       0.85698226       0.49849324 </v>
    <v>       0.14282097       0.00010136       0.49887664 </v>
    <v>       0.14219888       0.14248234       0.49963347 </v>
    <v>       0.14113027       0.28454513       0.50069415 </v>
    <v>       0.14110734       0.42789355       0.50086179 </v>
    <v>       0.14218381       0.57103044       0.49997408 </v>
    <v>       0.14283724       0.71405618       0.49914087 </v>
    <v>       0.14286327       0.85709814       0.49878908 </v>
    <v>       0.28596315       0.00012490       0.49927904 </v>
    <v>       0.28607270       0.14312438       0.50012067 </v>
    <v>       0.28521505       0.28661768       0.50231758 </v>
    <v>       0.28243857       0.42686875       0.50411660 </v>
    <v>       0.28516780       0.56987798       0.50270906 </v>
    <v>       0.28605616       0.71424408       0.50061051 </v>
    <v>       0.28597049       0.85716865       0.49950997 </v>
    <v>       0.42880918       0.00006899       0.49961115 </v>
    <v>       0.42944440       0.14367553       0.49991284 </v>
    <v>       0.42800113       0.28374026       0.50105979 </v>
    <v>       0.42799803       0.71557556       0.50164289 </v>
    <v>       0.42944263       0.85707919       0.50019073 </v>
    <v>       0.57130633       0.99993485       0.49995442 </v>
    <v>       0.57133251       0.14276297       0.49979661 </v>
    <v>       0.57474036       0.28883616       0.50062584 </v>
    <v>       0.57474257       0.85728585       0.50101393 </v>
    <v>       0.71412818       0.00032346       0.50018513 </v>
    <v>       0.71400027       0.14268539       0.49962148 </v>
    <v>       0.71413944       0.28520198       0.49996619 </v>
    <v>       0.71000628       0.42450293       0.50199927 </v>
    <v>       0.71583945       0.57172173       0.51026775 </v>
    <v>       0.71583321       0.71545607       0.51031443 </v>
    <v>       0.71000927       0.85688849       0.50226441 </v>
    <v>       0.85621678       0.99939195       0.49977140 </v>
    <v>       0.85649081       0.14253978       0.49963947 </v>
    <v>       0.85650673       0.28533580       0.49958580 </v>
    <v>       0.85624029       0.42819497       0.49966914 </v>
    <v>       0.85575045       0.57048536       0.50001967 </v>
    <v>       0.85682562       0.71407853       0.50107057 </v>
    <v>       0.85572512       0.85658341       0.50003064 </v>
    <v>       0.04689974       0.09463321       0.49900521 </v>
    <v>       0.04598688       0.23697625       0.49983502 </v>
    <v>       0.04596792       0.38033109       0.49994424 </v>
    <v>       0.04689652       0.52359019       0.49928864 </v>
    <v>       0.04725820       0.66651163       0.49864264 </v>
    <v>       0.04719825       0.80926647       0.49852737 </v>
    <v>       0.04724617       0.95208486       0.49845705 </v>
    <v>       0.19042283       0.09510807       0.49952746 </v>
    <v>       0.18934823       0.23751663       0.50077718 </v>
    <v>       0.18738293       0.37936234       0.50170153 </v>
    <v>       0.18932013       0.52312595       0.50105838 </v>
    <v>       0.19042150       0.66663346       0.49993308 </v>
    <v>       0.19066111       0.80956138       0.49914421 </v>
    <v>       0.19066699       0.95244112       0.49897050 </v>
    <v>       0.33399626       0.09587199       0.49969792 </v>
    <v>       0.33456577       0.23858843       0.50121765 </v>
    <v>       0.32879549       0.37918338       0.50485341 </v>
    <v>       0.32874476       0.52089105       0.50505518 </v>
    <v>       0.33455767       0.66726897       0.50177268 </v>
    <v>       0.33398387       0.80942643       0.50005715 </v>
    <v>       0.33336519       0.95235694       0.49941113 </v>
    <v>       0.47635581       0.09529263       0.49972483 </v>
    <v>       0.47701291       0.23943586       0.50041414 </v>
    <v>       0.47701698       0.80889808       0.50084721 </v>
    <v>       0.47634526       0.95240549       0.49985938 </v>
    <v>       0.61871122       0.09503660       0.49971766 </v>
    <v>       0.61942447       0.23824071       0.50012437 </v>
    <v>       0.61942423       0.95257774       0.50042781 </v>
    <v>       0.76167737       0.09546564       0.49968826 </v>
    <v>       0.76166517       0.23757772       0.49960261 </v>
    <v>       0.76088292       0.38000438       0.50044920 </v>
    <v>       0.75948439       0.52283195       0.50367887 </v>
    <v>       0.76114500       0.66624591       0.50724746 </v>
    <v>       0.75946491       0.80800089       0.50375844 </v>
    <v>       0.76087472       0.95226620       0.50066774 </v>
    <v>       0.90370791       0.09433262       0.49950758 </v>
    <v>       0.90393762       0.23764312       0.49962743 </v>
    <v>       0.90371421       0.38073023       0.49947177 </v>
    <v>       0.90386691       0.52356010       0.49906354 </v>
    <v>       0.90380393       0.66594368       0.49957569 </v>
    <v>       0.90379045       0.80918849       0.49955906 </v>
    <v>       0.90384269       0.95163923       0.49904480 </v>
    <v>       0.46626669       0.35633315       0.50161596 </v>
    <v>       0.40109171       0.41875752       0.50645775 </v>
    <v>       0.40103365       0.55365980       0.50675543 </v>
    <v>       0.64391960       0.68101906       0.52036135 </v>
    <v>       0.64391741       0.53419302       0.52029617 </v>
    <v>       0.46626735       0.68125952       0.50229601 </v>
    <v>       0.55188060       0.60679873       0.46330326 </v>
    <v>       0.55274501       0.51808791       0.46330428 </v>
    <v>       0.61990509       0.37942952       0.50151874 </v>
    <v>       0.61991183       0.81186242       0.50186778 </v>
    <v>       0.51259468       0.54229127       0.46511209 </v>
   </varray>
  </structure>
  <varray name="forces" >
   <v>      -0.00029535       0.00162609      -0.00484890 </v>
   <v>      -0.00087603      -0.00085801      -0.00184542 </v>
   <v>      -0.00015300      -0.00248913      -0.00076944 </v>
   <v>       0.00083592      -0.00089418      -0.00199780 </v>
   <v>       0.00130180      -0.00206352      -0.00240791 </v>
   <v>       0.00242404      -0.00271274      -0.00298550 </v>
   <v>      -0.00173419       0.00131084      -0.00444203 </v>
   <v>      -0.00186291       0.00091670      -0.00464282 </v>
   <v>      -0.00139565      -0.00086972      -0.00162049 </v>
   <v>      -0.00629660      -0.00304762       0.00392558 </v>
   <v>      -0.00099256       0.00024608       0.00242235 </v>
   <v>       0.00047390      -0.00009291       0.00107415 </v>
   <v>       0.00174367      -0.00186941      -0.00252626 </v>
   <v>      -0.00087058       0.00024388      -0.00418170 </v>
   <v>      -0.00328412       0.00284035      -0.00161768 </v>
   <v>      -0.00148540       0.00053941       0.00090351 </v>
   <v>      -0.00010245      -0.00039503       0.00775042 </v>
   <v>      -0.00048960       0.00103816       0.01267739 </v>
   <v>       0.00041468       0.00078404       0.00816055 </v>
   <v>       0.00007125      -0.00253588       0.00225836 </v>
   <v>      -0.00054384      -0.00167747      -0.00196061 </v>
   <v>      -0.00153037       0.00004251      -0.00175255 </v>
   <v>      -0.00430921       0.00194476      -0.00002970 </v>
   <v>      -0.00026269       0.00015957       0.00652867 </v>
   <v>       0.00027934      -0.00099385       0.00675441 </v>
   <v>      -0.00084831      -0.00682048       0.00172805 </v>
   <v>       0.00159586       0.00010020      -0.00018342 </v>
   <v>       0.00023206       0.00086971      -0.00099806 </v>
   <v>      -0.00082884      -0.00066354       0.00492013 </v>
   <v>       0.00032766      -0.00027197       0.00544020 </v>
   <v>       0.00241892       0.00060561       0.00242166 </v>
   <v>       0.00505751       0.00065872      -0.00189327 </v>
   <v>       0.00079948      -0.00015589       0.00035019 </v>
   <v>      -0.00066027      -0.00020024       0.01045128 </v>
   <v>      -0.00326679      -0.00284687       0.03657485 </v>
   <v>      -0.00368987      -0.00088689       0.03452451 </v>
   <v>       0.00014879       0.00083611       0.01079107 </v>
   <v>       0.00012605       0.00095153       0.00127281 </v>
   <v>       0.00125162      -0.00060905      -0.00099554 </v>
   <v>       0.00223648      -0.00685061      -0.00226743 </v>
   <v>      -0.00006157      -0.00110552       0.00038333 </v>
   <v>      -0.00155192      -0.00295891       0.00482161 </v>
   <v>      -0.00143825      -0.00124283       0.00759142 </v>
   <v>      -0.00390443       0.00483878       0.00275333 </v>
   <v>       0.00098529      -0.00041298      -0.00346287 </v>
   <v>       0.00341694       0.00250792      -0.00021936 </v>
   <v>       0.00091097       0.00153044      -0.00083707 </v>
   <v>      -0.00054707      -0.00007625      -0.00150341 </v>
   <v>      -0.00829814       0.00292647      -0.00254508 </v>
   <v>      -0.00214118      -0.00137480      -0.00451031 </v>
   <v>      -0.00007847      -0.00314907      -0.00583433 </v>
   <v>      -0.00022432      -0.00057030      -0.00200975 </v>
   <v>       0.00271203       0.00203702       0.00275523 </v>
   <v>       0.00392993       0.00222423       0.00544722 </v>
   <v>       0.00243645      -0.00021791       0.00380890 </v>
   <v>      -0.00106191       0.00099537       0.00065648 </v>
   <v>      -0.00182507       0.00090288      -0.00323207 </v>
   <v>      -0.00028974      -0.00170131      -0.00354354 </v>
   <v>       0.00140848      -0.00299529      -0.00003747 </v>
   <v>      -0.00005930       0.00033961       0.00568969 </v>
   <v>       0.00332769       0.00269384       0.01428235 </v>
   <v>       0.00408271      -0.00017909       0.01433386 </v>
   <v>       0.00096328       0.00085898       0.00581252 </v>
   <v>      -0.00164348       0.00457934      -0.00075622 </v>
   <v>       0.00054303      -0.00166095      -0.00306764 </v>
   <v>       0.00107643      -0.00185424      -0.00132292 </v>
   <v>       0.00138870      -0.00137052       0.00209580 </v>
   <v>      -0.00171764       0.00258034       0.00398545 </v>
   <v>      -0.00144996       0.00186240      -0.00080400 </v>
   <v>      -0.00327891      -0.00122008      -0.00123851 </v>
   <v>      -0.00078953      -0.00148950       0.00121187 </v>
   <v>      -0.00467857      -0.00022098       0.00218276 </v>
   <v>      -0.00364672      -0.00085065      -0.00055653 </v>
   <v>      -0.00215922       0.00124997      -0.00193589 </v>
   <v>      -0.00127928       0.00005900       0.00326566 </v>
   <v>      -0.00434178       0.00088484       0.01774749 </v>
   <v>      -0.00115372      -0.00081829       0.02673962 </v>
   <v>      -0.00115656      -0.00488311       0.01507033 </v>
   <v>      -0.00236231      -0.00156943       0.00521087 </v>
   <v>      -0.00045511      -0.00061084      -0.00068577 </v>
   <v>      -0.00129827       0.00264534      -0.00203541 </v>
   <v>      -0.00092448       0.00261556      -0.00200240 </v>
   <v>      -0.00290774       0.00016532      -0.00025825 </v>
   <v>      -0.00421422       0.00140282       0.00235620 </v>
   <v>       0.00063598      -0.00539622       0.00107596 </v>
   <v>      -0.00533887      -0.00859990       0.00030693 </v>
   <v>       0.00074759      -0.00014002       0.00902712 </v>
   <v>       0.00190375       0.00174245       0.01960816 </v>
   <v>       0.00317750       0.00068760       0.01882404 </v>
   <v>       0.00078281      -0.00752496       0.05980685 </v>
   <v>      -0.00664382       0.00346785       0.06023235 </v>
   <v>       0.00076470       0.00104624       0.01018749 </v>
   <v>       0.01786166       0.01050051      -0.16903270 </v>
   <v>       0.01931157       0.01207707      -0.16920461 </v>
   <v>      -0.00150595      -0.00070392       0.00948630 </v>
   <v>      -0.00258158      -0.00077060       0.00964881 </v>
   <v>       0.01868121       0.01033702      -0.08273349 </v>
  </varray>
  <varray name="stress" >
   <v>      -0.95624668      -0.14337959      -0.01370344 </v>
   <v>      -0.14337953      -0.81884437      -0.00512904 </v>
   <v>      -0.01370333      -0.00512899      -0.17904062 </v>
  </varray>
  <energy>
   <i name="e_fr_energy">   -850.16683684 </i>
   <i name="e_wo_entrp">   -850.16683680 </i>
   <i name="e_0_energy">   -850.16683682 </i>
  </energy>
  <time name="totalsc"> 1714.76 1726.99</time>
 </calculation>
 <calculation>
  <scstep>
   <time name="dav">   71.18   71.63</time>
   <time name="total">   82.03   82.61</time>
   <energy>
    <i name="alphaZ">    175.87611319 </i>
    <i name="ewald">  36637.03839376 </i>
    <i name="hartreedc"> -48338.10462679 </i>
    <i name="XCdc">   1274.27760920 </i>
    <i name="pawpsdc">  37326.91887952 </i>
    <i name="pawaedc"> -37390.76291582 </i>
    <i name="eentropy">     -0.00000004 </i>
    <i name="bandstr">  -4243.77833819 </i>
    <i name="atom">  13716.13071916 </i>
    <i name="e_fr_energy">   -842.40416602 </i>
    <i name="e_wo_entrp">   -842.40416598 </i>
    <i name="e_0_energy">   -842.40416600 </i>
   </energy>
  </scstep>
  <scstep>
   <time name="dav">   51.24   51.59</time>
   <time name="total">   56.47   56.89</time>
   <energy>
    <i name="alphaZ">    175.87611319 </i>
    <i name="ewald">  36637.03839376 </i>
    <i name="hartreedc"> -48338.09878760 </i>
    <i name="XCdc">   1274.27755136 </i>
    <i name="pawpsdc">  37326.88000456 </i>
    <i name="pawaedc"> -37390.72403539 </i>
    <i name="eentropy">     -0.00000004 </i>
    <i name="bandstr">  -4243.78412528 </i>
    <i name="atom">  13716.13071916 </i>
    <i name="e_fr_energy">   -842.40416628 </i>
    <i name="e_wo_entrp">   -842.40416624 </i>
    <i name="e_0_energy">   -842.40416626 </i>
   </energy>
  </scstep>
  <structure>
   <crystal>
    <varray name="basis" >
     <v>      17.27103806       0.00000000       0.00000000 </v>
     <v>      -8.63551903      14.95715771       0.00000000 </v>
     <v>       0.00000000       0.00000000      15.00000000 </v>
    </varray>
    <i name="volume">   3874.88459904 </i>
    <varray name="rec_basis" >
     <v>       0.05790040       0.03342881       0.00000000 </v>
     <v>       0.00000000       0.06685762       0.00000000 </v>
     <v>       0.00000000       0.00000000       0.06666667 </v>
    </varray>
   </crystal>
   <varray name="positions" >
    <v>       0.99920115       0.99935579       0.49854377 </v>
    <v>       0.99892694       0.14200285       0.49934172 </v>
    <v>       0.99892696       0.28512727       0.49981027 </v>
    <v>       0.99892133       0.42824465       0.49948928 </v>
    <v>       0.99922670       0.57118913       0.49873516 </v>
    <v>       0.99957237       0.71392985       0.49855367 </v>
    <v>       0.99956681       0.85698366       0.49849432 </v>
    <v>       0.14282082       0.00010220       0.49887663 </v>
    <v>       0.14219771       0.14248159       0.49963344 </v>
    <v>       0.14112514       0.28454283       0.50069541 </v>
    <v>       0.14110648       0.42789359       0.50086223 </v>
    <v>       0.14218409       0.57103047       0.49997576 </v>
    <v>       0.14283831       0.71405519       0.49914184 </v>
    <v>       0.14286375       0.85709867       0.49878948 </v>
    <v>       0.28596282       0.00012712       0.49927973 </v>
    <v>       0.28607223       0.14312480       0.50012076 </v>
    <v>       0.28521389       0.28661667       0.50231672 </v>
    <v>       0.28243779       0.42686897       0.50411516 </v>
    <v>       0.28516754       0.56987839       0.50270840 </v>
    <v>       0.28605576       0.71424257       0.50061108 </v>
    <v>       0.28597027       0.85716781       0.49951009 </v>
    <v>       0.42880882       0.00006932       0.49961116 </v>
    <v>       0.42944295       0.14367725       0.49991288 </v>
    <v>       0.42800085       0.28374039       0.50106101 </v>
    <v>       0.42799795       0.71557482       0.50164393 </v>
    <v>       0.42944035       0.85707477       0.50019187 </v>
    <v>       0.57130767       0.99993509       0.49995498 </v>
    <v>       0.57133325       0.14276389       0.49979668 </v>
    <v>       0.57474006       0.28883631       0.50062704 </v>
    <v>       0.57474319       0.85728567       0.50101521 </v>
    <v>       0.71413013       0.00032408       0.50018650 </v>
    <v>       0.71400359       0.14268599       0.49962159 </v>
    <v>       0.71414009       0.28520206       0.49996649 </v>
    <v>       0.71000670       0.42450317       0.50199991 </v>
    <v>       0.71583909       0.57172088       0.51026065 </v>
    <v>       0.71583335       0.71545707       0.51030577 </v>
    <v>       0.71001059       0.85688962       0.50226483 </v>
    <v>       0.85621774       0.99939298       0.49977276 </v>
    <v>       0.85649141       0.14253949       0.49963984 </v>
    <v>       0.85650578       0.28533131       0.49958554 </v>
    <v>       0.85624035       0.42819444       0.49967033 </v>
    <v>       0.85575021       0.57048394       0.50002253 </v>
    <v>       0.85682606       0.71407856       0.50107166 </v>
    <v>       0.85572621       0.85658782       0.50003184 </v>
    <v>       0.04690036       0.09463307       0.49900557 </v>
    <v>       0.04598946       0.23697786       0.49983554 </v>
    <v>       0.04596877       0.38033206       0.49994454 </v>
    <v>       0.04689643       0.52359021       0.49929028 </v>
    <v>       0.04725519       0.66651390       0.49864500 </v>
    <v>       0.04719758       0.80926599       0.49852833 </v>
    <v>       0.04724586       0.95208312       0.49845739 </v>
    <v>       0.19042279       0.09510779       0.49952738 </v>
    <v>       0.18934988       0.23751753       0.50077717 </v>
    <v>       0.18738532       0.37936348       0.50170166 </v>
    <v>       0.18932102       0.52312571       0.50105919 </v>
    <v>       0.19042163       0.66663424       0.49993427 </v>
    <v>       0.19066111       0.80956226       0.49914443 </v>
    <v>       0.19066698       0.95244032       0.49897084 </v>
    <v>       0.33399651       0.09587025       0.49969847 </v>
    <v>       0.33456568       0.23858860       0.50121800 </v>
    <v>       0.32879681       0.37918413       0.50485054 </v>
    <v>       0.32874563       0.52089047       0.50505242 </v>
    <v>       0.33455863       0.66726952       0.50177284 </v>
    <v>       0.33398499       0.80942971       0.50005691 </v>
    <v>       0.33336553       0.95235611       0.49941061 </v>
    <v>       0.47635618       0.09529176       0.49972473 </v>
    <v>       0.47701354       0.23943541       0.50041413 </v>
    <v>       0.47701725       0.80889979       0.50084827 </v>
    <v>       0.47634550       0.95240695       0.49985966 </v>
    <v>       0.61870914       0.09503599       0.49971803 </v>
    <v>       0.61942377       0.23824008       0.50012478 </v>
    <v>       0.61942179       0.95257766       0.50042859 </v>
    <v>       0.76167513       0.09546524       0.49968898 </v>
    <v>       0.76166445       0.23757868       0.49960258 </v>
    <v>       0.76088270       0.38000458       0.50044987 </v>
    <v>       0.75948412       0.52283308       0.50367919 </v>
    <v>       0.76114547       0.66624608       0.50724273 </v>
    <v>       0.75946462       0.80799913       0.50375672 </v>
    <v>       0.76087341       0.95226560       0.50066930 </v>
    <v>       0.90370765       0.09433242       0.49950840 </v>
    <v>       0.90393768       0.23764493       0.49962719 </v>
    <v>       0.90371474       0.38073208       0.49947209 </v>
    <v>       0.90386625       0.52356047       0.49906612 </v>
    <v>       0.90380330       0.66594520       0.49957808 </v>
    <v>       0.90379041       0.80918568       0.49956042 </v>
    <v>       0.90383776       0.95163425       0.49904750 </v>
    <v>       0.46626662       0.35633303       0.50161735 </v>
    <v>       0.40109130       0.41875675       0.50645412 </v>
    <v>       0.40103369       0.55366006       0.50675116 </v>
    <v>       0.64391913       0.68101832       0.52033964 </v>
    <v>       0.64391625       0.53419263       0.52027501 </v>
    <v>       0.46626809       0.68126007       0.50229764 </v>
    <v>       0.55188185       0.60679928       0.46329973 </v>
    <v>       0.55274752       0.51808897       0.46330015 </v>
    <v>       0.61990480       0.37942974       0.50152016 </v>
    <v>       0.61991098       0.81186219       0.50186898 </v>
    <v>       0.51259707       0.54229186       0.46511209 </v>
   </varray>
  </structure>
  <varray name="forces" >
   <v>      -0.00132541      -0.00150209      -0.00461156 </v>
   <v>      -0.00004868      -0.00019935      -0.00173620 </v>
   <v>       0.00034278       0.00021622      -0.00073817 </v>
   <v>      -0.00017991      -0.00014308      -0.00186668 </v>
   <v>      -0.00148736      -0.00052401      -0.00216272 </v>
   <v>      -0.00236597      -0.00078980      -0.00276963 </v>
   <v>      -0.00176252      -0.00180528      -0.00433077 </v>
   <v>      -0.00092053      -0.00062065      -0.00457221 </v>
   <v>      -0.00007095       0.00037401      -0.00155189 </v>
   <v>       0.00342297       0.00180225       0.00168630 </v>
   <v>       0.00090181       0.00012704       0.00253716 </v>
   <v>      -0.00240470       0.00184260      -0.00006931 </v>
   <v>      -0.00150181      -0.00012638      -0.00233483 </v>
   <v>      -0.00158453      -0.00056045      -0.00410009 </v>
   <v>      -0.00004763      -0.00130113      -0.00271359 </v>
   <v>      -0.00043375      -0.00025654       0.00101096 </v>
   <v>       0.00094048       0.00134206       0.00776465 </v>
   <v>       0.00164666       0.00082981       0.01246272 </v>
   <v>       0.00203232       0.00028174       0.00821789 </v>
   <v>      -0.00033873       0.00019951       0.00227113 </v>
   <v>      -0.00110003      -0.00015389      -0.00203057 </v>
   <v>      -0.00071004      -0.00038940      -0.00176210 </v>
   <v>       0.00100129      -0.00152712       0.00035947 </v>
   <v>      -0.00025251      -0.00032521       0.00655670 </v>
   <v>      -0.00008868       0.00025116       0.00688415 </v>
   <v>      -0.00079804       0.00285853       0.00025993 </v>
   <v>      -0.00161381       0.00019052      -0.00011361 </v>
   <v>      -0.00062736      -0.00089875      -0.00091797 </v>
   <v>      -0.00032607      -0.00033861       0.00486871 </v>
   <v>      -0.00075858       0.00004452       0.00553457 </v>
   <v>      -0.00132401      -0.00043620       0.00253015 </v>
   <v>      -0.00183302      -0.00043244      -0.00170405 </v>
   <v>      -0.00059213      -0.00017398       0.00043496 </v>
   <v>      -0.00197542      -0.00056607       0.01055255 </v>
   <v>      -0.00430617      -0.00069401       0.03569802 </v>
   <v>      -0.00243068      -0.00323066       0.03365484 </v>
   <v>      -0.00167845      -0.00138687       0.01082141 </v>
   <v>      -0.00100394      -0.00103278       0.00156481 </v>
   <v>      -0.00059590      -0.00041522      -0.00091387 </v>
   <v>      -0.00040791      -0.00142291      -0.00220928 </v>
   <v>      -0.00065623      -0.00011375       0.00051763 </v>
   <v>      -0.00243283      -0.00047724       0.00500636 </v>
   <v>      -0.00205895      -0.00161260       0.00762879 </v>
   <v>      -0.00202061      -0.00168521       0.00301959 </v>
   <v>      -0.00063828      -0.00051608      -0.00338785 </v>
   <v>      -0.00021327      -0.00046335      -0.00007991 </v>
   <v>       0.00041269      -0.00047285      -0.00072393 </v>
   <v>       0.00009617      -0.00030212      -0.00131342 </v>
   <v>       0.00152402      -0.00244090      -0.00172458 </v>
   <v>      -0.00124281      -0.00069188      -0.00434464 </v>
   <v>      -0.00145156      -0.00020222      -0.00572198 </v>
   <v>      -0.00083864      -0.00017140      -0.00197936 </v>
   <v>      -0.00039137       0.00017570       0.00283238 </v>
   <v>       0.00003916       0.00010017       0.00548906 </v>
   <v>       0.00073816       0.00013850       0.00384143 </v>
   <v>       0.00055929      -0.00158986      -0.00061194 </v>
   <v>      -0.00111326      -0.00066890      -0.00310338 </v>
   <v>      -0.00138961      -0.00008502      -0.00346309 </v>
   <v>      -0.00114130      -0.00058022       0.00000534 </v>
   <v>      -0.00001578      -0.00003514       0.00568799 </v>
   <v>       0.00132227       0.00099985       0.01570532 </v>
   <v>       0.00209309       0.00074615       0.01415675 </v>
   <v>       0.00028279       0.00018910       0.00591149 </v>
   <v>      -0.00004579      -0.00189819       0.00085118 </v>
   <v>      -0.00123142       0.00017682      -0.00132039 </v>
   <v>      -0.00095795      -0.00014331      -0.00125572 </v>
   <v>      -0.00017366      -0.00016089       0.00240529 </v>
   <v>      -0.00047227      -0.00035294       0.00423597 </v>
   <v>      -0.00092673      -0.00071536      -0.00064230 </v>
   <v>       0.00005399       0.00014242      -0.00120204 </v>
   <v>      -0.00059107      -0.00003568       0.00131878 </v>
   <v>      -0.00062585      -0.00034326       0.00239611 </v>
   <v>       0.00014652      -0.00032800      -0.00046457 </v>
   <v>      -0.00000276      -0.00032945      -0.00190247 </v>
   <v>      -0.00127981      -0.00009719       0.00338400 </v>
   <v>      -0.00305007      -0.00123320       0.01746804 </v>
   <v>      -0.00211153      -0.00136319       0.02638429 </v>
   <v>      -0.00244323      -0.00159150       0.01476615 </v>
   <v>      -0.00069738      -0.00072744       0.00530722 </v>
   <v>      -0.00018807      -0.00032452      -0.00059184 </v>
   <v>       0.00019015      -0.00075943      -0.00194836 </v>
   <v>      -0.00011983      -0.00071968      -0.00189676 </v>
   <v>      -0.00121456      -0.00070188      -0.00003620 </v>
   <v>      -0.00275670      -0.00144816       0.00099389 </v>
   <v>      -0.00276106       0.00011873       0.00188841 </v>
   <v>       0.00129149       0.00174943      -0.00231557 </v>
   <v>       0.00055650      -0.00006177       0.00913642 </v>
   <v>       0.00246596       0.00221524       0.01955932 </v>
   <v>       0.00348988       0.00068294       0.01878613 </v>
   <v>       0.00018876      -0.00771951       0.06015766 </v>
   <v>      -0.00711473       0.00316257       0.06063337 </v>
   <v>       0.00076184       0.00080194       0.01026532 </v>
   <v>       0.01759184       0.01004285      -0.16901141 </v>
   <v>       0.01877864       0.01207494      -0.16918277 </v>
   <v>      -0.00060059      -0.00107706       0.00954983 </v>
   <v>      -0.00115812       0.00030644       0.00971147 </v>
   <v>       0.02015142       0.01130954      -0.08323847 </v>
  </varray>
  <varray name="stress" >
   <v>      -0.95038217      -0.14772157      -0.01370411 </v>
   <v>      -0.14772151      -0.81631384      -0.00455810 </v>
   <v>      -0.01370398      -0.00455804      -0.17042526 </v>
  </varray>
  <energy>
   <i name="e_fr_energy">   -850.16681018 </i>
   <i name="e_wo_entrp">   -850.16681014 </i>
   <i name="e_0_energy">   -850.16681016 </i>
  </energy>
  <time name="totalsc">  283.06  285.43</time>
 </calculation>
 <calculation>
  <scstep>
   <time name="dav">   71.63   72.11</time>
   <time name="total">   82.17   82.72</time>
   <energy>
    <i name="alphaZ">    175.87611319 </i>
    <i name="ewald">  36637.08777303 </i>
    <i name="hartreedc"> -48338.13257472 </i>
    <i name="XCdc">   1274.27796510 </i>
    <i name="pawpsdc">  37326.78312960 </i>
    <i name="pawaedc"> -37390.62715440 </i>
    <i name="eentropy">     -0.00000004 </i>
    <i name="bandstr">  -4243.80006878 </i>
    <i name="atom">  13716.13071916 </i>
    <i name="e_fr_energy">   -842.40409786 </i>
    <i name="e_wo_entrp">   -842.40409782 </i>
    <i name="e_0_energy">   -842.40409784 </i>
   </energy>
  </scstep>
  <scstep>
   <time name="dav">   57.69   58.07</time>
   <time name="total">   62.77   63.21</time>
   <energy>
    <i name="alphaZ">    175.87611319 </i>
    <i name="ewald">  36637.08777303 </i>
    <i name="hartreedc"> -48338.13182669 </i>
    <i name="XCdc">   1274.27798253 </i>
    <i name="pawpsdc">  37326.73889599 </i>
    <i name="pawaedc"> -37390.58291893 </i>
    <i name="eentropy">     -0.00000004 </i>
    <i name="bandstr">  -4243.80083624 </i>
    <i name="atom">  13716.13071916 </i>
    <i name="e_fr_energy">   -842.40409800 </i>
    <i name="e_wo_entrp">   -842.40409796 </i>
    <i name="e_0_energy">   -842.40409798 </i>
   </energy>
  </scstep>
  <structure>
   <crystal>
    <varray name="basis" >
     <v>      17.27103806       0.00000000       0.00000000 </v>
     <v>      -8.63551903      14.95715771       0.00000000 </v>
     <v>       0.00000000       0.00000000      15.00000000 </v>
    </varray>
    <i name="volume">   3874.88459904 </i>
    <varray name="rec_basis" >
     <v>       0.05790040       0.03342881       0.00000000 </v>
     <v>       0.00000000       0.06685762       0.00000000 </v>
     <v>       0.00000000       0.00000000       0.06666667 </v>
    </varray>
   </crystal>
   <varray name="positions" >
[...]
       <r>   -14.0467     6.7884    58.0017 </r>
       <r>   -13.9428     5.4347    58.5662 </r>
       <r>   -13.8390     3.1543    58.8938 </r>
       <r>   -13.7351     5.8528    59.5018 </r>
       <r>   -13.6312     6.5375    60.1808 </r>
       <r>   -13.5274     8.8342    61.0983 </r>
       <r>   -13.4235     8.2637    61.9567 </r>
       <r>   -13.3196    13.0361    63.3107 </r>
       <r>   -13.2158     2.7686    63.5982 </r>
       <r>   -13.1119     7.0150    64.3268 </r>
       <r>   -13.0080     1.6671    64.5000 </r>
       <r>   -12.9042     2.6157    64.7717 </r>
       <r>   -12.8003     9.2442    65.7318 </r>
       <r>   -12.6964     5.9935    66.3543 </r>
       <r>   -12.5926    12.0549    67.6064 </r>
       <r>   -12.4887    14.4449    69.1068 </r>
       <r>   -12.3848    11.8615    70.3388 </r>
       <r>   -12.2810     9.4968    71.3252 </r>
       <r>   -12.1771     4.0352    71.7443 </r>
       <r>   -12.0732     1.2711    71.8763 </r>
       <r>   -11.9694    10.6570    72.9832 </r>
       <r>   -11.8655    13.7837    74.4149 </r>
       <r>   -11.7616     8.6850    75.3170 </r>
       <r>   -11.6578     3.9731    75.7296 </r>
       <r>   -11.5539    12.8684    77.0662 </r>
       <r>   -11.4500    10.6570    78.1731 </r>
       <r>   -11.3462    13.9227    79.6192 </r>
       <r>   -11.2423     8.6178    80.5143 </r>
       <r>   -11.1384     9.6909    81.5209 </r>
       <r>   -11.0346     8.9654    82.4521 </r>
       <r>   -10.9307    12.0917    83.7080 </r>
       <r>   -10.8269    11.7722    84.9307 </r>
       <r>   -10.7230    11.0894    86.0825 </r>
       <r>   -10.6191     1.8578    86.2755 </r>
       <r>   -10.5153     6.0372    86.9025 </r>
       <r>   -10.4114     3.6107    87.2776 </r>
       <r>   -10.3075     6.6640    87.9697 </r>
       <r>   -10.2037    14.8654    89.5137 </r>
       <r>   -10.0998    18.5719    91.4427 </r>
       <r>    -9.9959    16.4967    93.1562 </r>
       <r>    -9.8921    13.0845    94.5152 </r>
       <r>    -9.7882    22.4871    96.8509 </r>
       <r>    -9.6843    14.8964    98.3981 </r>
       <r>    -9.5805    11.8093    99.6247 </r>
       <r>    -9.4766    18.8008   101.5774 </r>
       <r>    -9.3727    19.1094   103.5622 </r>
       <r>    -9.2689    16.9065   105.3183 </r>
       <r>    -9.1650    16.2091   107.0018 </r>
       <r>    -9.0611    18.1858   108.8907 </r>
       <r>    -8.9573    27.5519   111.7524 </r>
       <r>    -8.8534    23.0077   114.1421 </r>
       <r>    -8.7495    27.4005   116.9881 </r>
       <r>    -8.6457    15.8974   118.6393 </r>
       <r>    -8.5418    22.8898   121.0168 </r>
       <r>    -8.4379    15.0049   122.5753 </r>
       <r>    -8.3341    19.8527   124.6373 </r>
       <r>    -8.2302    22.9724   127.0234 </r>
       <r>    -8.1263    24.1874   129.5356 </r>
       <r>    -8.0225    12.7742   130.8624 </r>
       <r>    -7.9186    17.9385   132.7256 </r>
       <r>    -7.8147    13.6853   134.1471 </r>
       <r>    -7.7109    22.0843   136.4409 </r>
       <r>    -7.6070     7.2795   137.1970 </r>
       <r>    -7.5031    10.2308   138.2596 </r>
       <r>    -7.3993    12.6953   139.5782 </r>
       <r>    -7.2954    21.9615   141.8592 </r>
       <r>    -7.1915    23.4810   144.2981 </r>
       <r>    -7.0877    14.9811   145.8541 </r>
       <r>    -6.9838    14.4758   147.3577 </r>
       <r>    -6.8799    13.9368   148.8052 </r>
       <r>    -6.7761     9.7144   149.8142 </r>
       <r>    -6.6722    10.6793   150.9234 </r>
       <r>    -6.5683    10.4252   152.0063 </r>
       <r>    -6.4645    11.1557   153.1650 </r>
       <r>    -6.3606     9.9567   154.1991 </r>
       <r>    -6.2567    16.7292   155.9367 </r>
       <r>    -6.1529    22.2374   158.2464 </r>
       <r>    -6.0490    13.0136   159.5981 </r>
       <r>    -5.9452    11.4799   160.7905 </r>
       <r>    -5.8413    14.2376   162.2693 </r>
       <r>    -5.7374    21.1430   164.4653 </r>
       <r>    -5.6336    11.1682   165.6253 </r>
       <r>    -5.5297     6.6084   166.3117 </r>
       <r>    -5.4258     4.0234   166.7296 </r>
       <r>    -5.3220     2.5806   166.9976 </r>
       <r>    -5.2181     3.2237   167.3325 </r>
       <r>    -5.1142    13.1532   168.6986 </r>
       <r>    -5.0104    20.1246   170.7889 </r>
       <r>    -4.9065    17.7088   172.6282 </r>
       <r>    -4.8026    15.6018   174.2487 </r>
       <r>    -4.6988     9.6084   175.2467 </r>
       <r>    -4.5949    13.6621   176.6657 </r>
       <r>    -4.4910     5.5836   177.2457 </r>
       <r>    -4.3872     1.1087   177.3608 </r>
       <r>    -4.2833    10.5945   178.4612 </r>
       <r>    -4.1794     6.2654   179.1120 </r>
       <r>    -4.0756     7.7618   179.9182 </r>
       <r>    -3.9717     9.9284   180.9494 </r>
       <r>    -3.8678     7.3760   181.7155 </r>
       <r>    -3.7640     2.7318   181.9993 </r>
       <r>    -3.6601     0.0073   182.0000 </r>
       <r>    -3.5562     0.4860   182.0505 </r>
       <r>    -3.4524     1.9064   182.2485 </r>
       <r>    -3.3485     3.2818   182.5894 </r>
       <r>    -3.2446     4.6463   183.0720 </r>
       <r>    -3.1408     3.8131   183.4680 </r>
       <r>    -3.0369     0.3078   183.5000 </r>
       <r>    -2.9330     0.0001   183.5000 </r>
       <r>    -2.8292     0.0002   183.5000 </r>
       <r>    -2.7253     0.7957   183.5827 </r>
       <r>    -2.6214     3.8991   183.9876 </r>
       <r>    -2.5176     0.1189   184.0000 </r>
       <r>    -2.4137     0.0259   184.0027 </r>
       <r>    -2.3098     3.1071   184.3254 </r>
       <r>    -2.2060     1.6788   184.4998 </r>
       <r>    -2.1021     0.0021   184.5000 </r>
       <r>    -1.9982     0.1670   184.5173 </r>
       <r>    -1.8944     2.5266   184.7798 </r>
       <r>    -1.7905     3.5556   185.1491 </r>
       <r>    -1.6866     5.0679   185.6755 </r>
       <r>    -1.5828     1.7862   185.8610 </r>
       <r>    -1.4789     1.3520   186.0014 </r>
       <r>    -1.3751     3.5183   186.3668 </r>
       <r>    -1.2712     9.1729   187.3196 </r>
       <r>    -1.1673     1.7354   187.4998 </r>
       <r>    -1.0635     0.8347   187.5865 </r>
       <r>    -0.9596     7.3751   188.3526 </r>
       <r>    -0.8557    18.0032   190.2225 </r>
       <r>    -0.7519     6.9826   190.9477 </r>
       <r>    -0.6480     9.2382   191.9073 </r>
       <r>    -0.5441    10.0597   192.9521 </r>
       <r>    -0.4403     6.9828   193.6774 </r>
       <r>    -0.3364     5.0239   194.1992 </r>
       <r>    -0.2325     4.9380   194.7121 </r>
       <r>    -0.1287    11.4705   195.9035 </r>
       <r>    -0.0248     8.8538   196.8231 </r>
       <r>     0.0791    10.1530   197.8777 </r>
       <r>     0.1829    12.2369   199.1486 </r>
       <r>     0.2868     4.9784   199.6657 </r>
       <r>     0.3907     3.1619   199.9941 </r>
       <r>     0.4945     3.0792   200.3140 </r>
       <r>     0.5984     5.4031   200.8752 </r>
       <r>     0.7023     6.3203   201.5316 </r>
       <r>     0.8061    10.7268   202.6458 </r>
       <r>     0.9100     5.0157   203.1667 </r>
       <r>     1.0139    11.5340   204.3647 </r>
       <r>     1.1177     9.2248   205.3229 </r>
       <r>     1.2216     6.2120   205.9681 </r>
       <r>     1.3255    10.1991   207.0274 </r>
       <r>     1.4293    17.2008   208.8140 </r>
       <r>     1.5332    16.7177   210.5504 </r>
       <r>     1.6371    13.0671   211.9076 </r>
       <r>     1.7409    11.2951   213.0808 </r>
       <r>     1.8448     8.1627   213.9286 </r>
       <r>     1.9487    15.2243   215.5099 </r>
       <r>     2.0525    19.1574   217.4997 </r>
       <r>     2.1564    13.4987   218.9018 </r>
       <r>     2.2603    20.9092   221.0735 </r>
       <r>     2.3641    19.3263   223.0809 </r>
       <r>     2.4680    26.3111   225.8137 </r>
       <r>     2.5719     5.0319   226.3363 </r>
       <r>     2.6757     8.3210   227.2006 </r>
       <r>     2.7796    19.3415   229.2095 </r>
       <r>     2.8835    35.5361   232.9005 </r>
       <r>     2.9873    43.9139   237.4617 </r>
       <r>     3.0912    15.6002   239.0820 </r>
       <r>     3.1950    20.6503   241.2269 </r>
       <r>     3.2989    20.5375   243.3600 </r>
       <r>     3.4028     9.2223   244.3179 </r>
       <r>     3.5066    25.1773   246.9329 </r>
       <r>     3.6105    20.7753   249.0908 </r>
       <r>     3.7144    11.6855   250.3045 </r>
       <r>     3.8182    26.1329   253.0188 </r>
       <r>     3.9221    25.6291   255.6808 </r>
       <r>     4.0260    23.1536   258.0857 </r>
       <r>     4.1298    13.7011   259.5088 </r>
       <r>     4.2337    17.9951   261.3779 </r>
       <r>     4.3376    28.0328   264.2895 </r>
       <r>     4.4414     6.8009   264.9959 </r>
       <r>     4.5453     0.0396   265.0000 </r>
       <r>     4.6492     0.0000   265.0000 </r>
       <r>     4.7530     0.0000   265.0000 </r>
       <r>     4.8569     0.0000   265.0000 </r>
       <r>     4.9608     0.0000   265.0000 </r>
       <r>     5.0646     0.0000   265.0000 </r>
       <r>     5.1685     0.0000   265.0000 </r>
       <r>     5.2724     0.0000   265.0000 </r>
       <r>     5.3762     0.0000   265.0000 </r>
       <r>     5.4801     0.0000   265.0000 </r>
       <r>     5.5840     0.0000   265.0000 </r>
       <r>     5.6878     0.0000   265.0000 </r>
       <r>     5.7917     0.0000   265.0000 </r>
      </set>
     </set>
    </array>
   </total>
  </dos>
 </calculation>
 <structure name="finalpos" >
  <crystal>
   <varray name="basis" >
    <v>      17.27103806       0.00000000       0.00000000 </v>
    <v>      -8.63551903      14.95715771       0.00000000 </v>
    <v>       0.00000000       0.00000000      15.00000000 </v>
   </varray>
   <i name="volume">   3874.88459904 </i>
   <varray name="rec_basis" >
    <v>       0.05790040       0.03342881       0.00000000 </v>
    <v>       0.00000000       0.06685762       0.00000000 </v>
    <v>       0.00000000       0.00000000       0.06666667 </v>
   </varray>
  </crystal>
  <varray name="positions" >
   <v>       0.99919942       0.99935314       0.49855142 </v>
   <v>       0.99892683       0.14200243       0.49934714 </v>
   <v>       0.99892787       0.28512911       0.49981102 </v>
   <v>       0.99892106       0.42824367       0.49949582 </v>
   <v>       0.99922704       0.57119047       0.49875701 </v>
   <v>       0.99957224       0.71393118       0.49857021 </v>
   <v>       0.99956446       0.85698038       0.49850502 </v>
   <v>       0.14281962       0.00010125       0.49887727 </v>
   <v>       0.14219683       0.14248152       0.49963379 </v>
   <v>       0.14113074       0.28454558       0.50069721 </v>
   <v>       0.14110794       0.42789374       0.50086705 </v>
   <v>       0.14218379       0.57103190       0.49998803 </v>
   <v>       0.14283786       0.71405507       0.49915200 </v>
   <v>       0.14286258       0.85709875       0.49879380 </v>
   <v>       0.28596254       0.00012522       0.49928148 </v>
   <v>       0.28607259       0.14312503       0.50012242 </v>
   <v>       0.28521344       0.28661731       0.50231071 </v>
   <v>       0.28243987       0.42686912       0.50410065 </v>
   <v>       0.28517041       0.56987873       0.50270274 </v>
   <v>       0.28605794       0.71424351       0.50061613 </v>
   <v>       0.28596987       0.85716852       0.49951127 </v>
   <v>       0.42880788       0.00006969       0.49961153 </v>
   <v>       0.42944385       0.14367590       0.49991500 </v>
   <v>       0.42799899       0.28373949       0.50107173 </v>
   <v>       0.42800085       0.71557636       0.50165401 </v>
   <v>       0.42944087       0.85707857       0.50019608 </v>
   <v>       0.57130498       0.99993652       0.49996044 </v>
   <v>       0.57133167       0.14276397       0.49979798 </v>
   <v>       0.57473989       0.28883791       0.50063701 </v>
   <v>       0.57474299       0.85728630       0.50102722 </v>
   <v>       0.71412602       0.00032281       0.50019946 </v>
   <v>       0.71399968       0.14268525       0.49962246 </v>
   <v>       0.71413852       0.28520298       0.49996988 </v>
   <v>       0.71000490       0.42450394       0.50200629 </v>
   <v>       0.71583780       0.57172110       0.51018964 </v>
   <v>       0.71583155       0.71545316       0.51022181 </v>
   <v>       0.71000932       0.85688850       0.50226840 </v>
   <v>       0.85621827       0.99939293       0.49978378 </v>
   <v>       0.85648927       0.14253822       0.49964378 </v>
   <v>       0.85650603       0.28533537       0.49958379 </v>
   <v>       0.85623942       0.42819405       0.49968194 </v>
   <v>       0.85574920       0.57048355       0.50004788 </v>
   <v>       0.85682603       0.71407813       0.50108147 </v>
   <v>       0.85572634       0.85658645       0.50004580 </v>
   <v>       0.04689821       0.09463158       0.49900945 </v>
   <v>       0.04598732       0.23697623       0.49984077 </v>
   <v>       0.04596831       0.38033019       0.49994805 </v>
   <v>       0.04689703       0.52358941       0.49930609 </v>
   <v>       0.04725894       0.66650963       0.49866617 </v>
   <v>       0.04719738       0.80926506       0.49853822 </v>
   <v>       0.04724459       0.95208287       0.49846156 </v>
   <v>       0.19042144       0.09510784       0.49952694 </v>
   <v>       0.18934648       0.23751602       0.50077729 </v>
   <v>       0.18738422       0.37936293       0.50170290 </v>
   <v>       0.18932061       0.52312662       0.50106523 </v>
   <v>       0.19042300       0.66663197       0.49994018 </v>
   <v>       0.19066017       0.80956128       0.49914746 </v>
   <v>       0.19066622       0.95244151       0.49897417 </v>
   <v>       0.33399582       0.09587236       0.49970054 </v>
   <v>       0.33456385       0.23858803       0.50122101 </v>
   <v>       0.32879533       0.37918239       0.50483046 </v>
   <v>       0.32874819       0.52089341       0.50502784 </v>
   <v>       0.33456105       0.66726995       0.50177498 </v>
   <v>       0.33398387       0.80942807       0.50006083 </v>
   <v>       0.33336391       0.95235628       0.49941219 </v>
   <v>       0.47635493       0.09529319       0.49972443 </v>
   <v>       0.47701263       0.23943669       0.50041898 </v>
   <v>       0.47701749       0.80889928       0.50085923 </v>
   <v>       0.47634394       0.95240675       0.49986302 </v>
   <v>       0.61871021       0.09503800       0.49972157 </v>
   <v>       0.61942323       0.23824168       0.50012913 </v>
   <v>       0.61942075       0.95257785       0.50043721 </v>
   <v>       0.76167505       0.09546479       0.49969610 </v>
   <v>       0.76166340       0.23757786       0.49960256 </v>
   <v>       0.76088131       0.38000511       0.50045677 </v>
   <v>       0.75948323       0.52283237       0.50367951 </v>
   <v>       0.76114384       0.66624505       0.50719678 </v>
   <v>       0.75946511       0.80800072       0.50374053 </v>
   <v>       0.76087313       0.95226586       0.50068373 </v>
   <v>       0.90370636       0.09433168       0.49951505 </v>
   <v>       0.90393653       0.23764181       0.49962571 </v>
   <v>       0.90371362       0.38072883       0.49947579 </v>
   <v>       0.90386284       0.52355955       0.49908907 </v>
   <v>       0.90380244       0.66594160       0.49959340 </v>
   <v>       0.90378989       0.80918702       0.49957566 </v>
   <v>       0.90384399       0.95164027       0.49906080 </v>
   <v>       0.46626529       0.35633215       0.50163045 </v>
   <v>       0.40109151       0.41875260       0.50642136 </v>
   <v>       0.40103572       0.55366211       0.50671261 </v>
   <v>       0.64390965       0.68101002       0.52014850 </v>
   <v>       0.64390202       0.53418680       0.52008917 </v>
   <v>       0.46627385       0.68126374       0.50231266 </v>
   <v>       0.55189206       0.60680438       0.46326973 </v>
   <v>       0.55276910       0.51809726       0.46326484 </v>
   <v>       0.61990427       0.37943043       0.50153284 </v>
   <v>       0.61991192       0.81186381       0.50187964 </v>
   <v>       0.51261905       0.54229764       0.46511209 </v>
  </varray>
  <varray name="selective"  type="logical" >
   <v type="logical" >  T  T  T </v>
   <v type="logical" >  T  T  T </v>
   <v type="logical" >  T  T  T </v>
   <v type="logical" >  T  T  T </v>
   <v type="logical" >  T  T  T </v>
   <v type="logical" >  T  T  T </v>
   <v type="logical" >  T  T  T </v>
   <v type="logical" >  T  T  T </v>
   <v type="logical" >  T  T  T </v>
   <v type="logical" >  T  T  T </v>
   <v type="logical" >  T  T  T </v>
   <v type="logical" >  T  T  T </v>
   <v type="logical" >  T  T  T </v>
   <v type="logical" >  T  T  T </v>
   <v type="logical" >  T  T  T </v>
   <v type="logical" >  T  T  T </v>
   <v type="logical" >  T  T  T </v>
   <v type="logical" >  T  T  T </v>
   <v type="logical" >  T  T  T </v>
   <v type="logical" >  T  T  T </v>
   <v type="logical" >  T  T  T </v>
   <v type="logical" >  T  T  T </v>
   <v type="logical" >  T  T  T </v>
   <v type="logical" >  T  T  T </v>
   <v type="logical" >  T  T  T </v>
   <v type="logical" >  T  T  T </v>
   <v type="logical" >  T  T  T </v>
   <v type="logical" >  T  T  T </v>
   <v type="logical" >  T  T  T </v>
   <v type="logical" >  T  T  T </v>
   <v type="logical" >  T  T  T </v>
   <v type="logical" >  T  T  T </v>
   <v type="logical" >  T  T  T </v>
   <v type="logical" >  T  T  T </v>
   <v type="logical" >  T  T  T </v>
   <v type="logical" >  T  T  T </v>
   <v type="logical" >  T  T  T </v>
   <v type="logical" >  T  T  T </v>
   <v type="logical" >  T  T  T </v>
   <v type="logical" >  T  T  T </v>
   <v type="logical" >  T  T  T </v>
   <v type="logical" >  T  T  T </v>
   <v type="logical" >  T  T  T </v>
   <v type="logical" >  T  T  T </v>
   <v type="logical" >  T  T  T </v>
   <v type="logical" >  T  T  T </v>
   <v type="logical" >  T  T  T </v>
   <v type="logical" >  T  T  T </v>
   <v type="logical" >  T  T  T </v>
   <v type="logical" >  T  T  T </v>
   <v type="logical" >  T  T  T </v>
   <v type="logical" >  T  T  T </v>
   <v type="logical" >  T  T  T </v>
   <v type="logical" >  T  T  T </v>
   <v type="logical" >  T  T  T </v>
   <v type="logical" >  T  T  T </v>
   <v type="logical" >  T  T  T </v>
   <v type="logical" >  T  T  T </v>
   <v type="logical" >  T  T  T </v>
   <v type="logical" >  T  T  T </v>
   <v type="logical" >  T  T  T </v>
   <v type="logical" >  T  T  T </v>
   <v type="logical" >  T  T  T </v>
   <v type="logical" >  T  T  T </v>
   <v type="logical" >  T  T  T </v>
   <v type="logical" >  T  T  T </v>
   <v type="logical" >  T  T  T </v>
   <v type="logical" >  T  T  T </v>
   <v type="logical" >  T  T  T </v>
   <v type="logical" >  T  T  T </v>
   <v type="logical" >  T  T  T </v>
   <v type="logical" >  T  T  T </v>
   <v type="logical" >  T  T  T </v>
   <v type="logical" >  T  T  T </v>
   <v type="logical" >  T  T  T </v>
   <v type="logical" >  T  T  T </v>
   <v type="logical" >  T  T  T </v>
   <v type="logical" >  T  T  T </v>
   <v type="logical" >  T  T  T </v>
   <v type="logical" >  T  T  T </v>
   <v type="logical" >  T  T  T </v>
   <v type="logical" >  T  T  T </v>
   <v type="logical" >  T  T  T </v>
   <v type="logical" >  T  T  T </v>
   <v type="logical" >  T  T  T </v>
   <v type="logical" >  T  T  T </v>
   <v type="logical" >  T  T  T </v>
   <v type="logical" >  T  T  T </v>
   <v type="logical" >  T  T  T </v>
   <v type="logical" >  T  T  T </v>
   <v type="logical" >  T  T  T </v>
   <v type="logical" >  T  T  T </v>
   <v type="logical" >  T  T  T </v>
   <v type="logical" >  T  T  T </v>
   <v type="logical" >  T  T  T </v>
   <v type="logical" >  T  T  T </v>
   <v type="logical" >  T  T  F </v>
  </varray>
  <nose>
   <v>      -3.00000000       0.00000000       0.00010000       0.00010000 </v>
  </nose>
 </structure>
</modeling>
