unknown system                          
           1
    17.271038    0.000000    0.000000
    -8.635519   14.957158    0.000000
     0.000000    0.000000   15.000000
   C    H    N    O 
    86     8     2     1
Direct configuration=     1
   0.99920115  0.99935579  0.49854377
   0.99892694  0.14200285  0.49934172
   0.99892696  0.28512727  0.49981027
   0.99892133  0.42824465  0.49948928
   0.99922670  0.57118913  0.49873516
   0.99957237  0.71392985  0.49855367
   0.99956681  0.85698366  0.49849432
   0.14282082  0.00010220  0.49887663
   0.14219771  0.14248159  0.49963344
   0.14112514  0.28454283  0.50069541
   0.14110648  0.42789359  0.50086223
   0.14218409  0.57103047  0.49997576
   0.14283831  0.71405519  0.49914184
   0.14286375  0.85709867  0.49878948
   0.28596282  0.00012712  0.49927973
   0.28607223  0.14312480  0.50012076
   0.28521389  0.28661667  0.50231672
   0.28243779  0.42686897  0.50411516
   0.28516754  0.56987839  0.50270840
   0.28605576  0.71424257  0.50061108
   0.28597027  0.85716781  0.49951009
   0.42880882  0.00006932  0.49961116
   0.42944295  0.14367725  0.49991288
   0.42800085  0.28374039  0.50106101
   0.42799795  0.71557482  0.50164393
   0.42944035  0.85707477  0.50019187
   0.57130767  0.99993509  0.49995498
   0.57133325  0.14276389  0.49979668
   0.57474006  0.28883631  0.50062704
   0.57474319  0.85728567  0.50101521
   0.71413013  0.00032408  0.50018650
   0.71400359  0.14268599  0.49962159
   0.71414009  0.28520206  0.49996649
   0.71000670  0.42450317  0.50199991
   0.71583909  0.57172088  0.51026065
   0.71583335  0.71545707  0.51030577
   0.71001059  0.85688962  0.50226483
   0.85621774  0.99939298  0.49977276
   0.85649141  0.14253949  0.49963984
   0.85650578  0.28533131  0.49958554
   0.85624035  0.42819444  0.49967033
   0.85575021  0.57048394  0.50002253
   0.85682606  0.71407856  0.50107166
   0.85572621  0.85658782  0.50003184
   0.04690036  0.09463307  0.49900557
   0.04598946  0.23697786  0.49983554
   0.04596877  0.38033206  0.49994454
   0.04689643  0.52359021  0.49929028
   0.04725519  0.66651390  0.49864500
   0.04719758  0.80926599  0.49852833
   0.04724586  0.95208312  0.49845739
   0.19042279  0.09510779  0.49952738
   0.18934988  0.23751753  0.50077717
   0.18738532  0.37936348  0.50170166
   0.18932102  0.52312571  0.50105919
   0.19042163  0.66663424  0.49993427
   0.19066111  0.80956226  0.49914443
   0.19066698  0.95244032  0.49897084
   0.33399651  0.09587025  0.49969847
   0.33456568  0.23858860  0.50121800
   0.32879681  0.37918413  0.50485054
   0.32874563  0.52089047  0.50505242
   0.33455863  0.66726952  0.50177284
   0.33398499  0.80942971  0.50005691
   0.33336553  0.95235611  0.49941061
   0.47635618  0.09529176  0.49972473
   0.47701354  0.23943541  0.50041413
   0.47701725  0.80889979  0.50084827
   0.47634550  0.95240695  0.49985966
   0.61870914  0.09503599  0.49971803
   0.61942377  0.23824008  0.50012478
   0.61942179  0.95257766  0.50042859
   0.76167513  0.09546524  0.49968898
   0.76166445  0.23757868  0.49960258
   0.76088270  0.38000458  0.50044987
   0.75948412  0.52283308  0.50367919
   0.76114547  0.66624608  0.50724273
   0.75946462  0.80799913  0.50375672
   0.76087341  0.95226560  0.50066930
   0.90370765  0.09433242  0.49950840
   0.90393768  0.23764493  0.49962719
   0.90371474  0.38073208  0.49947209
   0.90386625  0.52356047  0.49906612
   0.90380330  0.66594520  0.49957808
   0.90379041  0.80918568  0.49956042
   0.90383776  0.95163425  0.49904750
   0.46626662  0.35633303  0.50161735
   0.40109130  0.41875675  0.50645412
   0.40103369  0.55366006  0.50675116
   0.64391913  0.68101832  0.52033964
   0.64391625  0.53419263  0.52027501
   0.46626809  0.68126007  0.50229764
   0.55188185  0.60679928  0.46329973
   0.55274752  0.51808897  0.46330015
   0.61990480  0.37942974  0.50152016
   0.61991098  0.81186219  0.50186898
   0.51259707  0.54229186  0.46511209
Direct configuration=     2
   0.99920154  0.99935641  0.49854533
   0.99892630  0.14200230  0.49934282
   0.99892608  0.28512587  0.49981087
   0.99892147  0.42824418  0.49949059
   0.99922708  0.57118806  0.49874002
   0.99957329  0.71392863  0.49855791
   0.99956681  0.85698415  0.49849656
   0.14282057  0.00010276  0.49887669
   0.14219669  0.14248099  0.49963344
   0.14112290  0.28454181  0.50069629
   0.14110594  0.42789357  0.50086318
   0.14218354  0.57103197  0.49997830
   0.14283903  0.71405450  0.49914395
   0.14286395  0.85709914  0.49879034
   0.28596269  0.00012849  0.49928029
   0.28607165  0.14312506  0.50012104
   0.28521287  0.28661595  0.50231501
   0.28243752  0.42686926  0.50411211
   0.28516789  0.56987885  0.50270712
   0.28605569  0.71424156  0.50061224
   0.28597004  0.85716726  0.49951029
   0.42880847  0.00006967  0.49961117
   0.42944217  0.14367812  0.49991326
   0.42800012  0.28374029  0.50106347
   0.42799803  0.71557427  0.50164609
   0.42943941  0.85707309  0.50019307
   0.57130834  0.99993564  0.49995616
   0.57133352  0.14276442  0.49979690
   0.57473989  0.28883685  0.50062940
   0.57474383  0.85728555  0.50101785
   0.71413124  0.00032455  0.50018933
   0.71400542  0.14268639  0.49962193
   0.71414050  0.28520221  0.49996718
   0.71000656  0.42450338  0.50200126
   0.71583850  0.57172076  0.51024570
   0.71583356  0.71545732  0.51028772
   0.71001122  0.85689024  0.50226570
   0.85621821  0.99939357  0.49977571
   0.85649151  0.14253904  0.49964063
   0.85650418  0.28532632  0.49958508
   0.85624046  0.42819412  0.49967283
   0.85575009  0.57048292  0.50002843
   0.85682640  0.71407835  0.50107387
   0.85572718  0.85659184  0.50003444
   0.04690053  0.09463272  0.49900635
   0.04599119  0.23697889  0.49983668
   0.04596942  0.38033252  0.49994522
   0.04689659  0.52359008  0.49929369
   0.04725345  0.66651446  0.49865035
   0.04719707  0.80926553  0.49853038
   0.04724544  0.95208181  0.49845818
   0.19042246  0.09510752  0.49952724
   0.18935049  0.23751796  0.50077720
   0.18738682  0.37936420  0.50170197
   0.18932186  0.52312550  0.50106084
   0.19042198  0.66663390  0.49993574
   0.19066099  0.80956286  0.49914497
   0.19066685  0.95243991  0.49897158
   0.33399627  0.09586857  0.49969960
   0.33456539  0.23858868  0.50121871
   0.32879753  0.37918437  0.50484583
   0.32874644  0.52088999  0.50504673
   0.33455987  0.66727013  0.50177323
   0.33398584  0.80943147  0.50005762
   0.33336574  0.95235581  0.49941085
   0.47635626  0.09529126  0.49972457
   0.47701426  0.23943543  0.50041435
   0.47701751  0.80890105  0.50085060
   0.47634537  0.95240795  0.49986033
   0.61870761  0.09503579  0.49971880
   0.61942305  0.23823991  0.50012568
   0.61941944  0.95257741  0.50043031
   0.76167328  0.09546482  0.49969050
   0.76166380  0.23757943  0.49960254
   0.76088220  0.38000488  0.50045131
   0.75948362  0.52283377  0.50367960
   0.76114560  0.66624601  0.50723295
   0.75946444  0.80799805  0.50375303
   0.76087217  0.95226503  0.50067249
   0.90370740  0.09433224  0.49951011
   0.90393750  0.23764603  0.49962676
   0.90371508  0.38073331  0.49947281
   0.90386567  0.52356056  0.49907146
   0.90380191  0.66594614  0.49958187
   0.90379017  0.80918414  0.49956375
   0.90383596  0.95163194  0.49905100
   0.46626640  0.35633282  0.50162021
   0.40109101  0.41875557  0.50644679
   0.40103398  0.55366058  0.50674256
   0.64391773  0.68101668  0.52029626
   0.64391350  0.53419161  0.52023277
   0.46626950  0.68126101  0.50230097
   0.55188400  0.60680003  0.46329274
   0.55275220  0.51809110  0.46329198
   0.61990464  0.37942992  0.50152305
   0.61991058  0.81186253  0.50187143
   0.51260314  0.54229375  0.46511209
Direct configuration=     3
   0.99920059  0.99935496  0.49854784
   0.99892644  0.14200223  0.49934458
   0.99892710  0.28512812  0.49981063
   0.99892132  0.42824397  0.49949271
   0.99922642  0.57118773  0.49874759
   0.99957305  0.71392966  0.49856334
   0.99956571  0.85698245  0.49850005
   0.14282017  0.00010218  0.49887686
   0.14219670  0.14248119  0.49963351
   0.14112587  0.28454332  0.50069684
   0.14110666  0.42789364  0.50086474
   0.14218380  0.57103185  0.49998275
   0.14283855  0.71405479  0.49914730
   0.14286337  0.85709907  0.49879174
   0.28596272  0.00012741  0.49928083
   0.28607286  0.14312566  0.50012157
   0.28521273  0.28661635  0.50231254
   0.28243852  0.42686934  0.50410733
   0.28516907  0.56987886  0.50270523
   0.28605657  0.71424227  0.50061392
   0.28597000  0.85716784  0.49951061
   0.42880822  0.00006972  0.49961125
   0.42944275  0.14367729  0.49991395
   0.42799949  0.28373989  0.50106706
   0.42799906  0.71557497  0.50164942
   0.42944070  0.85707600  0.50019439
   0.57130707  0.99993616  0.49995795
   0.57133276  0.14276417  0.49979730
   0.57473994  0.28883738  0.50063274
   0.57474370  0.85728586  0.50102183
   0.71412929  0.00032391  0.50019362
   0.71400339  0.14268630  0.49962261
   0.71413982  0.28520261  0.49996828
   0.71000584  0.42450367  0.50200336
   0.71583785  0.57172196  0.51022220
   0.71583253  0.71545545  0.51026013
   0.71001049  0.85688949  0.50226692
   0.85621826  0.99939330  0.49977933
   0.85649057  0.14253866  0.49964191
   0.85650442  0.28532863  0.49958447
   0.85624023  0.42819413  0.49967667
   0.85574992  0.57048341  0.50003734
   0.85682623  0.71407810  0.50107715
   0.85572675  0.85658947  0.50003940
   0.04689958  0.09463220  0.49900760
   0.04598979  0.23697778  0.49983845
   0.04596897  0.38033134  0.49994637
   0.04689700  0.52358990  0.49929891
   0.04725529  0.66651251  0.49865740
   0.04719719  0.80926527  0.49853364
   0.04724509  0.95208225  0.49845950
   0.19042177  0.09510753  0.49952707
   0.18934876  0.23751714  0.50077725
   0.18738581  0.37936367  0.50170239
   0.18932191  0.52312595  0.50106324
   0.19042243  0.66663273  0.49993760
   0.19066063  0.80956227  0.49914593
   0.19066656  0.95244061  0.49897270
   0.33399580  0.09586964  0.49970027
   0.33456465  0.23858835  0.50121972
   0.32879666  0.37918354  0.50483917
   0.32874668  0.52089015  0.50503811
   0.33456059  0.66727022  0.50177391
   0.33398529  0.80942968  0.50005933
   0.33336518  0.95235625  0.49941185
   0.47635573  0.09529205  0.49972443
   0.47701354  0.23943594  0.50041631
   0.47701744  0.80890039  0.50085424
   0.47634472  0.95240747  0.49986145
   0.61870852  0.09503668  0.49971997
   0.61942300  0.23824063  0.50012711
   0.61941948  0.95257745  0.50043312
   0.76167377  0.09546473  0.49969284
   0.76166358  0.23757884  0.49960251
   0.76088168  0.38000500  0.50045356
   0.75948330  0.52283328  0.50367981
   0.76114490  0.66624551  0.50721783
   0.75946491  0.80799931  0.50374719
   0.76087228  0.95226529  0.50067730
   0.90370728  0.09433219  0.49951275
   0.90393696  0.23764431  0.49962625
   0.90371454  0.38073164  0.49947400
   0.90386427  0.52356017  0.49907898
   0.90380148  0.66594431  0.49958679
   0.90378997  0.80918577  0.49956900
   0.90383889  0.95163504  0.49905533
   0.46626595  0.35633255  0.50162454
   0.40109118  0.41875423  0.50643586
   0.40103467  0.55366128  0.50672973
   0.64391488  0.68101404  0.52023235
   0.64390879  0.53418969  0.52017064
   0.46627144  0.68126220  0.50230596
   0.55188738  0.60680166  0.46328261
   0.55275934  0.51809391  0.46328008
   0.61990450  0.37943017  0.50152733
   0.61991108  0.81186315  0.50187505
   0.51261100  0.54229596  0.46511209
Direct configuration=     4
   0.99919942  0.99935314  0.49855142
   0.99892683  0.14200243  0.49934714
   0.99892787  0.28512911  0.49981102
   0.99892106  0.42824367  0.49949582
   0.99922704  0.57119047  0.49875701
   0.99957224  0.71393118  0.49857021
   0.99956446  0.85698038  0.49850502
   0.14281962  0.00010125  0.49887727
   0.14219683  0.14248152  0.49963379
   0.14113074  0.28454558  0.50069721
   0.14110794  0.42789374  0.50086705
   0.14218379  0.57103190  0.49998803
   0.14283786  0.71405507  0.49915200
   0.14286258  0.85709875  0.49879380
   0.28596254  0.00012522  0.49928148
   0.28607259  0.14312503  0.50012242
   0.28521344  0.28661731  0.50231071
   0.28243987  0.42686912  0.50410065
   0.28517041  0.56987873  0.50270274
   0.28605794  0.71424351  0.50061613
   0.28596987  0.85716852  0.49951127
   0.42880788  0.00006969  0.49961153
   0.42944385  0.14367590  0.49991500
   0.42799899  0.28373949  0.50107173
   0.42800085  0.71557636  0.50165401
   0.42944087  0.85707857  0.50019608
   0.57130498  0.99993652  0.49996044
   0.57133167  0.14276397  0.49979798
   0.57473989  0.28883791  0.50063701
   0.57474299  0.85728630  0.50102722
   0.71412602  0.00032281  0.50019946
   0.71399968  0.14268525  0.49962246
   0.71413852  0.28520298  0.49996988
   0.71000490  0.42450394  0.50200629
   0.71583780  0.57172110  0.51018964
   0.71583155  0.71545316  0.51022181
   0.71000932  0.85688850  0.50226840
   0.85621827  0.99939293  0.49978378
   0.85648927  0.14253822  0.49964378
   0.85650603  0.28533537  0.49958379
   0.85623942  0.42819405  0.49968194
   0.85574920  0.57048355  0.50004788
   0.85682603  0.71407813  0.50108147
   0.85572634  0.85658645  0.50004580
   0.04689821  0.09463158  0.49900945
   0.04598732  0.23697623  0.49984077
   0.04596831  0.38033019  0.49994805
   0.04689703  0.52358941  0.49930609
   0.04725894  0.66650963  0.49866617
   0.04719738  0.80926506  0.49853822
   0.04724459  0.95208287  0.49846156
   0.19042144  0.09510784  0.49952694
   0.18934648  0.23751602  0.50077729
   0.18738422  0.37936293  0.50170290
   0.18932061  0.52312662  0.50106523
   0.19042300  0.66663197  0.49994018
   0.19066017  0.80956128  0.49914746
   0.19066622  0.95244151  0.49897417
   0.33399582  0.09587236  0.49970054
   0.33456385  0.23858803  0.50122101
   0.32879533  0.37918239  0.50483046
   0.32874819  0.52089341  0.50502784
   0.33456105  0.66726995  0.50177498
   0.33398387  0.80942807  0.50006083
   0.33336391  0.95235628  0.49941219
   0.47635493  0.09529319  0.49972443
   0.47701263  0.23943669  0.50041898
   0.47701749  0.80889928  0.50085923
   0.47634394  0.95240675  0.49986302
   0.61871021  0.09503800  0.49972157
   0.61942323  0.23824168  0.50012913
   0.61942075  0.95257785  0.50043721
   0.76167505  0.09546479  0.49969610
   0.76166340  0.23757786  0.49960256
   0.76088131  0.38000511  0.50045677
   0.75948323  0.52283237  0.50367951
   0.76114384  0.66624505  0.50719678
   0.75946511  0.80800072  0.50374053
   0.76087313  0.95226586  0.50068373
   0.90370636  0.09433168  0.49951505
   0.90393653  0.23764181  0.49962571
   0.90371362  0.38072883  0.49947579
   0.90386284  0.52355955  0.49908907
   0.90380244  0.66594160  0.49959340
   0.90378989  0.80918702  0.49957566
   0.90384399  0.95164027  0.49906080
   0.46626529  0.35633215  0.50163045
   0.40109151  0.41875260  0.50642136
   0.40103572  0.55366211  0.50671261
   0.64390965  0.68101002  0.52014850
   0.64390202  0.53418680  0.52008917
   0.46627385  0.68126374  0.50231266
   0.55189206  0.60680438  0.46326973
   0.55276910  0.51809726  0.46326484
   0.61990427  0.37943043  0.50153284
   0.61991192  0.81186381  0.50187964
   0.51261905  0.54229764  0.46511209
Direct configuration=     5
   0.99919942  0.99935314  0.49855142
   0.99892683  0.14200243  0.49934714
   0.99892787  0.28512911  0.49981102
   0.99892106  0.42824367  0.49949582
   0.99922704  0.57119047  0.49875701
   0.99957224  0.71393118  0.49857021
   0.99956446  0.85698038  0.49850502
   0.14281962  0.00010125  0.49887727
   0.14219683  0.14248152  0.49963379
   0.14113074  0.28454558  0.50069721
   0.14110794  0.42789374  0.50086705
   0.14218379  0.57103190  0.49998803
   0.14283786  0.71405507  0.49915200
   0.14286258  0.85709875  0.49879380
   0.28596254  0.00012522  0.49928148
   0.28607259  0.14312503  0.50012242
   0.28521344  0.28661731  0.50231071
   0.28243987  0.42686912  0.50410065
   0.28517041  0.56987873  0.50270274
   0.28605794  0.71424351  0.50061613
   0.28596987  0.85716852  0.49951127
   0.42880788  0.00006969  0.49961153
   0.42944385  0.14367590  0.49991500
   0.42799899  0.28373949  0.50107173
   0.42800085  0.71557636  0.50165401
   0.42944087  0.85707857  0.50019608
   0.57130498  0.99993652  0.49996044
   0.57133167  0.14276397  0.49979798
   0.57473989  0.28883791  0.50063701
   0.57474299  0.85728630  0.50102722
   0.71412602  0.00032281  0.50019946
   0.71399968  0.14268525  0.49962246
   0.71413852  0.28520298  0.49996988
   0.71000490  0.42450394  0.50200629
   0.71583780  0.57172110  0.51018964
   0.71583155  0.71545316  0.51022181
   0.71000932  0.85688850  0.50226840
   0.85621827  0.99939293  0.49978378
   0.85648927  0.14253822  0.49964378
   0.85650603  0.28533537  0.49958379
   0.85623942  0.42819405  0.49968194
   0.85574920  0.57048355  0.50004788
   0.85682603  0.71407813  0.50108147
   0.85572634  0.85658645  0.50004580
   0.04689821  0.09463158  0.49900945
   0.04598732  0.23697623  0.49984077
   0.04596831  0.38033019  0.49994805
   0.04689703  0.52358941  0.49930609
   0.04725894  0.66650963  0.49866617
   0.04719738  0.80926506  0.49853822
   0.04724459  0.95208287  0.49846156
   0.19042144  0.09510784  0.49952694
   0.18934648  0.23751602  0.50077729
   0.18738422  0.37936293  0.50170290
   0.18932061  0.52312662  0.50106523
   0.19042300  0.66663197  0.49994018
   0.19066017  0.80956128  0.49914746
   0.19066622  0.95244151  0.49897417
   0.33399582  0.09587236  0.49970054
   0.33456385  0.23858803  0.50122101
   0.32879533  0.37918239  0.50483046
   0.32874819  0.52089341  0.50502784
   0.33456105  0.66726995  0.50177498
   0.33398387  0.80942807  0.50006083
   0.33336391  0.95235628  0.49941219
   0.47635493  0.09529319  0.49972443
   0.47701263  0.23943669  0.50041898
   0.47701749  0.80889928  0.50085923
   0.47634394  0.95240675  0.49986302
   0.61871021  0.09503800  0.49972157
   0.61942323  0.23824168  0.50012913
   0.61942075  0.95257785  0.50043721
   0.76167505  0.09546479  0.49969610
   0.76166340  0.23757786  0.49960256
   0.76088131  0.38000511  0.50045677
   0.75948323  0.52283237  0.50367951
   0.76114384  0.66624505  0.50719678
   0.75946511  0.80800072  0.50374053
   0.76087313  0.95226586  0.50068373
   0.90370636  0.09433168  0.49951505
   0.90393653  0.23764181  0.49962571
   0.90371362  0.38072883  0.49947579
   0.90386284  0.52355955  0.49908907
   0.90380244  0.66594160  0.49959340
   0.90378989  0.80918702  0.49957566
   0.90384399  0.95164027  0.49906080
   0.46626529  0.35633215  0.50163045
   0.40109151  0.41875260  0.50642136
   0.40103572  0.55366211  0.50671261
   0.64390965  0.68101002  0.52014850
   0.64390202  0.53418680  0.52008917
   0.46627385  0.68126374  0.50231266
   0.55189206  0.60680438  0.46326973
   0.55276910  0.51809726  0.46326484
   0.61990427  0.37943043  0.50153284
   0.61991192  0.81186381  0.50187964
   0.51261905  0.54229764  0.46511209
