  98  98   0   0
  0.3953964E+02  0.1727104E-08  0.1727104E-08  0.1500000E-08  0.1000000E-15
   1.0000000000000000E-004
  CAR 
 unknown system                          
      5.71255120    -25.47855252  301     -2.38791514      1.00000000
    -25.479  0.0000E+00  0.0000E+00  0.0000E+00  0.0000E+00
    -25.375  0.0000E+00  0.0000E+00  0.0000E+00  0.0000E+00
    -25.271  0.0000E+00  0.0000E+00  0.0000E+00  0.0000E+00
    -25.167  0.0000E+00  0.0000E+00  0.0000E+00  0.0000E+00
    -25.063  0.0000E+00  0.0000E+00  0.0000E+00  0.0000E+00
    -24.959  0.0000E+00  0.0000E+00  0.0000E+00  0.0000E+00
    -24.855  0.0000E+00  0.0000E+00  0.0000E+00  0.0000E+00
    -24.751  0.0000E+00  0.0000E+00  0.0000E+00  0.0000E+00
    -24.647  0.0000E+00  0.0000E+00  0.0000E+00  0.0000E+00
    -24.543  0.0000E+00  0.0000E+00  0.0000E+00  0.0000E+00
    -24.439  0.0000E+00  0.0000E+00  0.0000E+00  0.0000E+00
    -24.335  0.1440E-15  0.1440E-15  0.1498E-16  0.1498E-16
    -24.231  0.2388E-07  0.2388E-07  0.2483E-08  0.2483E-08
    -24.127  0.9815E-03  0.9815E-03  0.1020E-03  0.1020E-03
    -24.023  0.2651E-01  0.2651E-01  0.2858E-02  0.2858E-02
    -23.919  0.4570E-02  0.4570E-02  0.3333E-02  0.3333E-02
    -23.815  0.9750E-06  0.9750E-06  0.3333E-02  0.3333E-02
    -23.711  0.5842E-13  0.5842E-13  0.3333E-02  0.3333E-02
    -23.607  0.0000E+00  0.0000E+00  0.3333E-02  0.3333E-02
    -23.503  0.0000E+00  0.0000E+00  0.3333E-02  0.3333E-02
    -23.399  0.0000E+00  0.0000E+00  0.3333E-02  0.3333E-02
    -23.295  0.0000E+00  0.0000E+00  0.3333E-02  0.3333E-02
    -23.191  0.0000E+00  0.0000E+00  0.3333E-02  0.3333E-02
    -23.087  0.0000E+00  0.0000E+00  0.3333E-02  0.3333E-02
    -22.983  0.0000E+00  0.0000E+00  0.3333E-02  0.3333E-02
    -22.879  0.0000E+00  0.0000E+00  0.3333E-02  0.3333E-02
    -22.775  0.0000E+00  0.0000E+00  0.3333E-02  0.3333E-02
    -22.671  0.0000E+00  0.0000E+00  0.3333E-02  0.3333E-02
    -22.567  0.0000E+00  0.0000E+00  0.3333E-02  0.3333E-02
    -22.463  0.4301E-13  0.4301E-13  0.3333E-02  0.3333E-02
    -22.359  0.8103E-06  0.8103E-06  0.3333E-02  0.3333E-02
    -22.255  0.4260E-02  0.4260E-02  0.3776E-02  0.3776E-02
    -22.152  0.2672E-01  0.2672E-01  0.6554E-02  0.6554E-02
    -22.048  0.1084E-02  0.1084E-02  0.6667E-02  0.6667E-02
    -21.944  0.2985E-07  0.2985E-07  0.6667E-02  0.6667E-02
    -21.840  0.1074E-06  0.1074E-06  0.6667E-02  0.6667E-02
    -21.736  0.1370E-02  0.1370E-02  0.6809E-02  0.6809E-02
    -21.632  0.2577E-01  0.2577E-01  0.9488E-02  0.9488E-02
    -21.528  0.2242E-01  0.2242E-01  0.1182E-01  0.1182E-01
    -21.424  0.1349E-01  0.1349E-01  0.1322E-01  0.1322E-01
    -21.320  0.2322E-01  0.2322E-01  0.1564E-01  0.1564E-01
    -21.216  0.1872E-01  0.1872E-01  0.1758E-01  0.1758E-01
    -21.112  0.2363E-01  0.2363E-01  0.2004E-01  0.2004E-01
    -21.008  0.2010E-01  0.2010E-01  0.2213E-01  0.2213E-01
    -20.904  0.1565E-01  0.1565E-01  0.2376E-01  0.2376E-01
    -20.800  0.3448E-01  0.3448E-01  0.2734E-01  0.2734E-01
    -20.696  0.1431E-01  0.1431E-01  0.2883E-01  0.2883E-01
    -20.592  0.2367E-01  0.2367E-01  0.3129E-01  0.3129E-01
    -20.488  0.2591E-01  0.2591E-01  0.3399E-01  0.3399E-01
    -20.384  0.1528E-01  0.1528E-01  0.3557E-01  0.3557E-01
    -20.280  0.2757E-01  0.2757E-01  0.3844E-01  0.3844E-01
    -20.176  0.2797E-01  0.2797E-01  0.4135E-01  0.4135E-01
    -20.072  0.1325E-01  0.1325E-01  0.4273E-01  0.4273E-01
    -19.968  0.1888E-01  0.1888E-01  0.4469E-01  0.4469E-01
    -19.864  0.3089E-01  0.3089E-01  0.4790E-01  0.4790E-01
    -19.760  0.2701E-01  0.2701E-01  0.5071E-01  0.5071E-01
    -19.656  0.1900E-01  0.1900E-01  0.5268E-01  0.5268E-01
    -19.552  0.1543E-01  0.1543E-01  0.5429E-01  0.5429E-01
    -19.448  0.3019E-01  0.3019E-01  0.5743E-01  0.5743E-01
    -19.344  0.2765E-01  0.2765E-01  0.6030E-01  0.6030E-01
    -19.240  0.1999E-01  0.1999E-01  0.6238E-01  0.6238E-01
    -19.136  0.2156E-01  0.2156E-01  0.6462E-01  0.6462E-01
    -19.032  0.2024E-01  0.2024E-01  0.6673E-01  0.6673E-01
    -18.928  0.3647E-01  0.3647E-01  0.7052E-01  0.7052E-01
    -18.824  0.1414E-01  0.1414E-01  0.7199E-01  0.7199E-01
    -18.720  0.2241E-01  0.2241E-01  0.7432E-01  0.7432E-01
    -18.617  0.1932E-01  0.1932E-01  0.7633E-01  0.7633E-01
    -18.513  0.3587E-01  0.3587E-01  0.8006E-01  0.8006E-01
    -18.409  0.2947E-01  0.2947E-01  0.8312E-01  0.8312E-01
    -18.305  0.1290E-01  0.1290E-01  0.8446E-01  0.8446E-01
    -18.201  0.1837E-01  0.1837E-01  0.8637E-01  0.8637E-01
    -18.097  0.2337E-01  0.2337E-01  0.8880E-01  0.8880E-01
    -17.993  0.3502E-01  0.3502E-01  0.9244E-01  0.9244E-01
    -17.889  0.3376E-01  0.3376E-01  0.9595E-01  0.9595E-01
    -17.785  0.1835E-01  0.1835E-01  0.9786E-01  0.9786E-01
    -17.681  0.1478E-01  0.1478E-01  0.9940E-01  0.9940E-01
    -17.577  0.2653E-01  0.2653E-01  0.1022E+00  0.1022E+00
    -17.473  0.2720E-01  0.2720E-01  0.1050E+00  0.1050E+00
    -17.369  0.3788E-01  0.3788E-01  0.1089E+00  0.1089E+00
    -17.265  0.2158E-01  0.2158E-01  0.1112E+00  0.1112E+00
    -17.161  0.2502E-01  0.2502E-01  0.1138E+00  0.1138E+00
    -17.057  0.2196E-01  0.2196E-01  0.1161E+00  0.1161E+00
    -16.953  0.2277E-01  0.2277E-01  0.1184E+00  0.1184E+00
    -16.849  0.3796E-01  0.3796E-01  0.1224E+00  0.1224E+00
    -16.745  0.4503E-01  0.4503E-01  0.1270E+00  0.1270E+00
    -16.641  0.2437E-01  0.2437E-01  0.1296E+00  0.1296E+00
    -16.537  0.2120E-01  0.2120E-01  0.1318E+00  0.1318E+00
    -16.433  0.1587E-01  0.1587E-01  0.1334E+00  0.1334E+00
    -16.329  0.3018E-01  0.3018E-01  0.1366E+00  0.1366E+00
    -16.225  0.2690E-01  0.2690E-01  0.1394E+00  0.1394E+00
    -16.121  0.1316E-01  0.1316E-01  0.1407E+00  0.1407E+00
    -16.017  0.1140E-01  0.1140E-01  0.1419E+00  0.1419E+00
    -15.913  0.1356E-01  0.1356E-01  0.1433E+00  0.1433E+00
    -15.809  0.2256E-01  0.2256E-01  0.1457E+00  0.1457E+00
    -15.705  0.1390E-01  0.1390E-01  0.1471E+00  0.1471E+00
    -15.601  0.6811E-02  0.6811E-02  0.1478E+00  0.1478E+00
    -15.497  0.9599E-02  0.9599E-02  0.1488E+00  0.1488E+00
    -15.393  0.2226E-01  0.2226E-01  0.1511E+00  0.1511E+00
    -15.289  0.1891E-01  0.1891E-01  0.1531E+00  0.1531E+00
    -15.185  0.3495E-01  0.3495E-01  0.1567E+00  0.1567E+00
    -15.082  0.2284E-01  0.2284E-01  0.1591E+00  0.1591E+00
    -14.978  0.2634E-01  0.2634E-01  0.1619E+00  0.1619E+00
    -14.874  0.2788E-01  0.2788E-01  0.1648E+00  0.1648E+00
    -14.770  0.3196E-01  0.3196E-01  0.1681E+00  0.1681E+00
    -14.666  0.2757E-01  0.2757E-01  0.1709E+00  0.1709E+00
    -14.562  0.3416E-01  0.3416E-01  0.1745E+00  0.1745E+00
    -14.458  0.3462E-01  0.3462E-01  0.1781E+00  0.1781E+00
    -14.354  0.2288E-01  0.2288E-01  0.1805E+00  0.1805E+00
    -14.250  0.3039E-01  0.3039E-01  0.1836E+00  0.1836E+00
    -14.146  0.2675E-01  0.2675E-01  0.1864E+00  0.1864E+00
    -14.042  0.2546E-01  0.2546E-01  0.1891E+00  0.1891E+00
    -13.938  0.2619E-01  0.2619E-01  0.1918E+00  0.1918E+00
    -13.834  0.2812E-01  0.2812E-01  0.1947E+00  0.1947E+00
    -13.730  0.1396E-01  0.1396E-01  0.1962E+00  0.1962E+00
    -13.626  0.2112E-01  0.2112E-01  0.1984E+00  0.1984E+00
    -13.522  0.2838E-01  0.2838E-01  0.2013E+00  0.2013E+00
    -13.418  0.3129E-01  0.3129E-01  0.2046E+00  0.2046E+00
    -13.314  0.1775E-01  0.1775E-01  0.2064E+00  0.2064E+00
    -13.210  0.2809E-01  0.2809E-01  0.2093E+00  0.2093E+00
    -13.106  0.1842E-01  0.1842E-01  0.2112E+00  0.2112E+00
    -13.002  0.1639E-01  0.1639E-01  0.2129E+00  0.2129E+00
    -12.898  0.1599E-01  0.1599E-01  0.2146E+00  0.2146E+00
    -12.794  0.2327E-01  0.2327E-01  0.2170E+00  0.2170E+00
    -12.690  0.2129E-01  0.2129E-01  0.2192E+00  0.2192E+00
    -12.586  0.2969E-01  0.2969E-01  0.2223E+00  0.2223E+00
    -12.482  0.2894E-01  0.2894E-01  0.2253E+00  0.2253E+00
    -12.378  0.4102E-01  0.4102E-01  0.2296E+00  0.2296E+00
    -12.274  0.2500E-01  0.2500E-01  0.2322E+00  0.2322E+00
    -12.170  0.2368E-01  0.2368E-01  0.2347E+00  0.2347E+00
    -12.066  0.2489E-01  0.2489E-01  0.2373E+00  0.2373E+00
    -11.962  0.2527E-01  0.2527E-01  0.2399E+00  0.2399E+00
    -11.858  0.5242E-01  0.5242E-01  0.2453E+00  0.2453E+00
    -11.754  0.4074E-01  0.4074E-01  0.2496E+00  0.2496E+00
    -11.650  0.2425E-01  0.2425E-01  0.2521E+00  0.2521E+00
    -11.547  0.2743E-01  0.2743E-01  0.2549E+00  0.2549E+00
    -11.443  0.3101E-01  0.3101E-01  0.2582E+00  0.2582E+00
    -11.339  0.3056E-01  0.3056E-01  0.2613E+00  0.2613E+00
    -11.235  0.3282E-01  0.3282E-01  0.2648E+00  0.2648E+00
    -11.131  0.3939E-01  0.3939E-01  0.2688E+00  0.2688E+00
    -11.027  0.2438E-01  0.2438E-01  0.2714E+00  0.2714E+00
    -10.923  0.2209E-01  0.2209E-01  0.2737E+00  0.2737E+00
    -10.819  0.2660E-01  0.2660E-01  0.2764E+00  0.2764E+00
    -10.715  0.3759E-01  0.3759E-01  0.2804E+00  0.2804E+00
    -10.611  0.4375E-01  0.4375E-01  0.2849E+00  0.2849E+00
    -10.507  0.3095E-01  0.3095E-01  0.2881E+00  0.2881E+00
    -10.403  0.2688E-01  0.2688E-01  0.2909E+00  0.2909E+00
    -10.299  0.2441E-01  0.2441E-01  0.2935E+00  0.2935E+00
    -10.195  0.3109E-01  0.3109E-01  0.2967E+00  0.2967E+00
    -10.091  0.3636E-01  0.3636E-01  0.3005E+00  0.3005E+00
     -9.987  0.4485E-01  0.4485E-01  0.3051E+00  0.3051E+00
     -9.883  0.3819E-01  0.3819E-01  0.3091E+00  0.3091E+00
     -9.779  0.5360E-01  0.5360E-01  0.3147E+00  0.3147E+00
     -9.675  0.5629E-01  0.5629E-01  0.3205E+00  0.3205E+00
     -9.571  0.5246E-01  0.5246E-01  0.3260E+00  0.3260E+00
     -9.467  0.5717E-01  0.5717E-01  0.3319E+00  0.3319E+00
     -9.363  0.6540E-01  0.6540E-01  0.3387E+00  0.3387E+00
     -9.259  0.5675E-01  0.5675E-01  0.3446E+00  0.3446E+00
     -9.155  0.5371E-01  0.5371E-01  0.3502E+00  0.3502E+00
     -9.051  0.8099E-01  0.8099E-01  0.3586E+00  0.3586E+00
     -8.947  0.6165E-01  0.6165E-01  0.3650E+00  0.3650E+00
     -8.843  0.6861E-01  0.6861E-01  0.3722E+00  0.3722E+00
     -8.739  0.8466E-01  0.8466E-01  0.3810E+00  0.3810E+00
     -8.635  0.8020E-01  0.8020E-01  0.3893E+00  0.3893E+00
     -8.531  0.7271E-01  0.7271E-01  0.3969E+00  0.3969E+00
     -8.427  0.7347E-01  0.7347E-01  0.4045E+00  0.4045E+00
     -8.323  0.6219E-01  0.6219E-01  0.4110E+00  0.4110E+00
     -8.219  0.6351E-01  0.6351E-01  0.4176E+00  0.4176E+00
     -8.116  0.7101E-01  0.7101E-01  0.4250E+00  0.4250E+00
     -8.012  0.7572E-01  0.7572E-01  0.4328E+00  0.4328E+00
     -7.908  0.6143E-01  0.6143E-01  0.4392E+00  0.4392E+00
     -7.804  0.3944E-01  0.3944E-01  0.4433E+00  0.4433E+00
     -7.700  0.5888E-01  0.5888E-01  0.4494E+00  0.4494E+00
     -7.596  0.7263E-01  0.7263E-01  0.4570E+00  0.4570E+00
     -7.492  0.4564E-01  0.4564E-01  0.4617E+00  0.4617E+00
     -7.388  0.3984E-01  0.3984E-01  0.4659E+00  0.4659E+00
     -7.284  0.4340E-01  0.4340E-01  0.4704E+00  0.4704E+00
     -7.180  0.5595E-01  0.5595E-01  0.4762E+00  0.4762E+00
     -7.076  0.5941E-01  0.5941E-01  0.4824E+00  0.4824E+00
     -6.972  0.5223E-01  0.5223E-01  0.4878E+00  0.4878E+00
     -6.868  0.3587E-01  0.3587E-01  0.4915E+00  0.4915E+00
     -6.764  0.3754E-01  0.3754E-01  0.4955E+00  0.4955E+00
     -6.660  0.5253E-01  0.5253E-01  0.5009E+00  0.5009E+00
     -6.556  0.6115E-01  0.6115E-01  0.5073E+00  0.5073E+00
     -6.452  0.2959E-01  0.2959E-01  0.5103E+00  0.5103E+00
     -6.348  0.3792E-01  0.3792E-01  0.5143E+00  0.5143E+00
     -6.244  0.4619E-01  0.4619E-01  0.5191E+00  0.5191E+00
     -6.140  0.5415E-01  0.5415E-01  0.5247E+00  0.5247E+00
     -6.036  0.5982E-01  0.5982E-01  0.5309E+00  0.5309E+00
     -5.932  0.5112E-01  0.5112E-01  0.5363E+00  0.5363E+00
     -5.828  0.3671E-01  0.3671E-01  0.5401E+00  0.5401E+00
     -5.724  0.3723E-01  0.3723E-01  0.5439E+00  0.5439E+00
     -5.620  0.5571E-01  0.5571E-01  0.5497E+00  0.5497E+00
     -5.516  0.5214E-01  0.5214E-01  0.5552E+00  0.5552E+00
     -5.412  0.2544E-01  0.2544E-01  0.5578E+00  0.5578E+00
     -5.308  0.1800E-01  0.1800E-01  0.5597E+00  0.5597E+00
     -5.204  0.2842E-01  0.2842E-01  0.5626E+00  0.5626E+00
     -5.100  0.2266E-01  0.2266E-01  0.5650E+00  0.5650E+00
     -4.996  0.2732E-01  0.2732E-01  0.5678E+00  0.5678E+00
     -4.892  0.3994E-01  0.3994E-01  0.5720E+00  0.5720E+00
     -4.788  0.3699E-01  0.3699E-01  0.5758E+00  0.5758E+00
     -4.684  0.4009E-01  0.4009E-01  0.5800E+00  0.5800E+00
     -4.581  0.2399E-01  0.2399E-01  0.5825E+00  0.5825E+00
     -4.477  0.3910E-01  0.3910E-01  0.5866E+00  0.5866E+00
     -4.373  0.5833E-01  0.5833E-01  0.5926E+00  0.5926E+00
     -4.269  0.2101E-01  0.2101E-01  0.5948E+00  0.5948E+00
     -4.165  0.1929E-01  0.1929E-01  0.5968E+00  0.5968E+00
     -4.061  0.1313E-01  0.1313E-01  0.5982E+00  0.5982E+00
     -3.957  0.1688E-01  0.1688E-01  0.5999E+00  0.5999E+00
     -3.853  0.2134E-01  0.2134E-01  0.6021E+00  0.6021E+00
     -3.749  0.1502E-01  0.1502E-01  0.6037E+00  0.6037E+00
     -3.645  0.1206E-01  0.1206E-01  0.6050E+00  0.6050E+00
     -3.541  0.5698E-02  0.5698E-02  0.6056E+00  0.6056E+00
     -3.437  0.1385E-01  0.1385E-01  0.6070E+00  0.6070E+00
     -3.333  0.1061E-01  0.1061E-01  0.6081E+00  0.6081E+00
     -3.229  0.1395E-01  0.1395E-01  0.6095E+00  0.6095E+00
     -3.125  0.8580E-02  0.8580E-02  0.6104E+00  0.6104E+00
     -3.021  0.2915E-02  0.2915E-02  0.6107E+00  0.6107E+00
     -2.917  0.3293E-02  0.3293E-02  0.6111E+00  0.6111E+00
     -2.813  0.7411E-02  0.7411E-02  0.6119E+00  0.6119E+00
     -2.709  0.6036E-02  0.6036E-02  0.6125E+00  0.6125E+00
     -2.605  0.1260E-02  0.1260E-02  0.6126E+00  0.6126E+00
     -2.501  0.3622E-02  0.3622E-02  0.6130E+00  0.6130E+00
     -2.397  0.3271E-02  0.3271E-02  0.6133E+00  0.6133E+00
     -2.293  0.2488E-02  0.2488E-02  0.6136E+00  0.6136E+00
     -2.189  0.4117E-02  0.4117E-02  0.6140E+00  0.6140E+00
     -2.085  0.1529E-02  0.1529E-02  0.6142E+00  0.6142E+00
     -1.981  0.5351E-02  0.5351E-02  0.6147E+00  0.6147E+00
     -1.877  0.8671E-02  0.8671E-02  0.6156E+00  0.6156E+00
     -1.773  0.3497E-02  0.3497E-02  0.6160E+00  0.6160E+00
     -1.669  0.5739E-02  0.5739E-02  0.6166E+00  0.6166E+00
     -1.565  0.1034E-01  0.1034E-01  0.6177E+00  0.6177E+00
     -1.461  0.1341E-01  0.1341E-01  0.6191E+00  0.6191E+00
     -1.357  0.1547E-01  0.1547E-01  0.6207E+00  0.6207E+00
     -1.253  0.1198E-01  0.1198E-01  0.6219E+00  0.6219E+00
     -1.149  0.1949E-01  0.1949E-01  0.6239E+00  0.6239E+00
     -1.046  0.1676E-01  0.1676E-01  0.6257E+00  0.6257E+00
     -0.942  0.3263E-02  0.3263E-02  0.6260E+00  0.6260E+00
     -0.838  0.1914E-01  0.1914E-01  0.6280E+00  0.6280E+00
     -0.734  0.4236E-01  0.4236E-01  0.6324E+00  0.6324E+00
     -0.630  0.2429E-01  0.2429E-01  0.6349E+00  0.6349E+00
     -0.526  0.3157E-01  0.3157E-01  0.6382E+00  0.6382E+00
     -0.422  0.5100E-01  0.5100E-01  0.6435E+00  0.6435E+00
     -0.318  0.3589E-01  0.3589E-01  0.6473E+00  0.6473E+00
     -0.214  0.2516E-01  0.2516E-01  0.6499E+00  0.6499E+00
     -0.110  0.1224E-01  0.1224E-01  0.6511E+00  0.6511E+00
     -0.006  0.2272E-01  0.2272E-01  0.6535E+00  0.6535E+00
      0.098  0.2923E-01  0.2923E-01  0.6565E+00  0.6565E+00
      0.202  0.2711E-01  0.2711E-01  0.6594E+00  0.6594E+00
      0.306  0.3738E-01  0.3738E-01  0.6633E+00  0.6633E+00
      0.410  0.1446E-01  0.1446E-01  0.6648E+00  0.6648E+00
      0.514  0.1905E-01  0.1905E-01  0.6667E+00  0.6667E+00
      0.618  0.2847E-01  0.2847E-01  0.6697E+00  0.6697E+00
      0.722  0.2432E-01  0.2432E-01  0.6722E+00  0.6722E+00
      0.826  0.2283E-01  0.2283E-01  0.6746E+00  0.6746E+00
      0.930  0.3094E-01  0.3094E-01  0.6778E+00  0.6778E+00
      1.034  0.3007E-01  0.3007E-01  0.6809E+00  0.6809E+00
      1.138  0.4599E-01  0.4599E-01  0.6857E+00  0.6857E+00
      1.242  0.2191E-01  0.2191E-01  0.6880E+00  0.6880E+00
      1.346  0.2885E-01  0.2885E-01  0.6910E+00  0.6910E+00
      1.450  0.4370E-01  0.4370E-01  0.6955E+00  0.6955E+00
      1.554  0.3702E-01  0.3702E-01  0.6994E+00  0.6994E+00
      1.658  0.4443E-01  0.4443E-01  0.7040E+00  0.7040E+00
      1.762  0.4251E-01  0.4252E-01  0.7084E+00  0.7084E+00
      1.866  0.4295E-01  0.4295E-01  0.7129E+00  0.7129E+00
      1.970  0.4951E-01  0.4951E-01  0.7180E+00  0.7180E+00
      2.074  0.5554E-01  0.5554E-01  0.7238E+00  0.7238E+00
      2.178  0.4416E-01  0.4416E-01  0.7284E+00  0.7284E+00
      2.282  0.6917E-01  0.6917E-01  0.7356E+00  0.7356E+00
      2.386  0.6697E-01  0.6697E-01  0.7426E+00  0.7426E+00
      2.489  0.8035E-01  0.8035E-01  0.7509E+00  0.7509E+00
      2.593  0.7284E-01  0.7284E-01  0.7585E+00  0.7585E+00
      2.697  0.5740E-01  0.5740E-01  0.7645E+00  0.7645E+00
      2.801  0.6934E-01  0.6934E-01  0.7717E+00  0.7717E+00
      2.905  0.7650E-01  0.7650E-01  0.7796E+00  0.7796E+00
      3.009  0.6684E-01  0.6684E-01  0.7866E+00  0.7866E+00
      3.113  0.8251E-01  0.8251E-01  0.7952E+00  0.7952E+00
      3.217  0.8066E-01  0.8066E-01  0.8035E+00  0.8035E+00
      3.321  0.6786E-01  0.6786E-01  0.8106E+00  0.8106E+00
      3.425  0.5470E-01  0.5470E-01  0.8163E+00  0.8163E+00
      3.529  0.8319E-01  0.8319E-01  0.8249E+00  0.8249E+00
      3.633  0.6917E-01  0.6917E-01  0.8321E+00  0.8321E+00
      3.737  0.6550E-01  0.6550E-01  0.8389E+00  0.8389E+00
      3.841  0.7914E-01  0.7914E-01  0.8472E+00  0.8472E+00
      3.945  0.7640E-01  0.7640E-01  0.8551E+00  0.8551E+00
      4.049  0.7451E-01  0.7451E-01  0.8629E+00  0.8629E+00
      4.153  0.6722E-01  0.6722E-01  0.8698E+00  0.8698E+00
      4.257  0.6372E-01  0.6373E-01  0.8765E+00  0.8765E+00
      4.361  0.3373E-01  0.3372E-01  0.8800E+00  0.8800E+00
      4.465  0.2683E-03  0.2681E-03  0.8800E+00  0.8800E+00
      4.569  0.2823E-08  0.2818E-08  0.8800E+00  0.8800E+00
      4.673  0.1135E-16  0.1135E-16  0.8800E+00  0.8800E+00
      4.777  0.0000E+00  0.0000E+00  0.8800E+00  0.8800E+00
      4.881  0.0000E+00  0.0000E+00  0.8800E+00  0.8800E+00
      4.985  0.0000E+00  0.0000E+00  0.8800E+00  0.8800E+00
      5.089  0.0000E+00  0.0000E+00  0.8800E+00  0.8800E+00
      5.193  0.0000E+00  0.0000E+00  0.8800E+00  0.8800E+00
      5.297  0.0000E+00  0.0000E+00  0.8800E+00  0.8800E+00
      5.401  0.0000E+00  0.0000E+00  0.8800E+00  0.8800E+00
      5.505  0.0000E+00  0.0000E+00  0.8800E+00  0.8800E+00
      5.609  0.0000E+00  0.0000E+00  0.8800E+00  0.8800E+00
      5.713  0.0000E+00  0.0000E+00  0.8800E+00  0.8800E+00
