       N       E                     dE             d eps       ncg     rms          rms(c)
DAV:   1     0.324618619487E+04    0.32462E+04   -0.13803E+05 11488   0.105E+03
DAV:   2    -0.257409972797E+03   -0.35036E+04   -0.32990E+04 15856   0.259E+02
DAV:   3    -0.870086443577E+03   -0.61268E+03   -0.60990E+03 13256   0.111E+02
DAV:   4    -0.892305090271E+03   -0.22219E+02   -0.22139E+02 13488   0.265E+01
DAV:   5    -0.892931235002E+03   -0.62614E+00   -0.62532E+00 14920   0.380E+00    0.520E+01
DAV:   6    -0.875105730293E+03    0.17826E+02   -0.22661E+01 12736   0.730E+00    0.338E+01
DAV:   7    -0.852335910915E+03    0.22770E+02   -0.33448E+01 12392   0.872E+00    0.204E+01
DAV:   8    -0.847452155295E+03    0.48838E+01   -0.24765E+01 12824   0.746E+00    0.826E+00
DAV:   9    -0.847297556327E+03    0.15460E+00   -0.12210E+00 12296   0.207E+00    0.299E+00
DAV:  10    -0.847223956707E+03    0.73600E-01   -0.38921E-01 12344   0.109E+00    0.815E-01
DAV:  11    -0.847213169192E+03    0.10788E-01   -0.64809E-02 12064   0.439E-01    0.305E-01
DAV:  12    -0.847211846096E+03    0.13231E-02   -0.69911E-03 13120   0.157E-01    0.153E-01
DAV:  13    -0.847211613539E+03    0.23256E-03   -0.24143E-03 12712   0.993E-02    0.708E-02
DAV:  14    -0.847211720695E+03   -0.10716E-03   -0.40450E-04 12384   0.377E-02    0.478E-02
DAV:  15    -0.847211756470E+03   -0.35776E-04   -0.67087E-05 12040   0.157E-02    0.214E-02
DAV:  16    -0.847211761215E+03   -0.47443E-05   -0.19822E-05 12416   0.880E-03    0.870E-03
DAV:  17    -0.847211761331E+03   -0.11655E-06   -0.58088E-06 12536   0.511E-03
   1 F= -.85499507E+03 E0= -.85499488E+03  d E =-.854995E+03  mag=     0.0002
       N       E                     dE             d eps       ncg     rms          rms(c)
DAV:   1    -0.847212141748E+03   -0.38053E-03   -0.16509E-02 11328   0.258E-01    0.325E-02
DAV:   2    -0.847212162792E+03   -0.21044E-04   -0.38721E-04 12936   0.375E-02    0.275E-02
DAV:   3    -0.847212148122E+03    0.14670E-04   -0.22290E-05 13160   0.101E-02    0.183E-02
DAV:   4    -0.847212141034E+03    0.70885E-05   -0.32571E-05 11128   0.118E-02    0.523E-03
DAV:   5    -0.847212141063E+03   -0.28995E-07   -0.76529E-06 10344   0.520E-03
   2 F= -.85499543E+03 E0= -.85499524E+03  d E =-.357964E-03  mag=    -0.0000
       N       E                     dE             d eps       ncg     rms          rms(c)
DAV:   1    -0.847212174568E+03   -0.33534E-04   -0.20380E-03 11200   0.905E-02    0.116E-02
DAV:   2    -0.847212177555E+03   -0.29875E-05   -0.46447E-05 12960   0.130E-02    0.947E-03
DAV:   3    -0.847212176060E+03    0.14956E-05   -0.23623E-06  8424   0.355E-03    0.631E-03
DAV:   4    -0.847212175599E+03    0.46060E-06   -0.48221E-06  9656   0.440E-03
   3 F= -.85499546E+03 E0= -.85499527E+03  d E =-.384507E-03  mag=    -0.0000
       N       E                     dE             d eps       ncg     rms          rms(c)
DAV:   1    -0.847212217855E+03   -0.41795E-04   -0.14550E-03 10896   0.780E-02    0.822E-03
DAV:   2    -0.847212219772E+03   -0.19171E-05   -0.27872E-05 11976   0.102E-02    0.713E-03
DAV:   3    -0.847212219273E+03    0.49965E-06   -0.10953E-06  8056   0.263E-03
   4 F= -.85499551E+03 E0= -.85499532E+03  d E =-.498042E-04  mag=     0.0000
       N       E                     dE             d eps       ncg     rms          rms(c)
DAV:   1    -0.847212239798E+03   -0.20026E-04   -0.87543E-03 10864   0.192E-01    0.203E-02
DAV:   2    -0.847212250561E+03   -0.10763E-04   -0.15386E-04 12456   0.236E-02    0.178E-02
DAV:   3    -0.847212247896E+03    0.26649E-05   -0.70003E-06 13744   0.604E-03    0.134E-02
DAV:   4    -0.847212246719E+03    0.11770E-05   -0.96149E-06 10768   0.683E-03    0.473E-03
DAV:   5    -0.847212246754E+03   -0.34699E-07   -0.23505E-06  7992   0.342E-03
   5 F= -.85499555E+03 E0= -.85499536E+03  d E =-.920961E-04  mag=    -0.0000
       N       E                     dE             d eps       ncg     rms          rms(c)
DAV:   1    -0.847212266747E+03   -0.20027E-04   -0.79831E-04 10864   0.566E-02    0.565E-03
DAV:   2    -0.847212267688E+03   -0.94166E-06   -0.13214E-05 12224   0.668E-03    0.486E-03
DAV:   3    -0.847212267533E+03    0.15549E-06   -0.34221E-07  6792   0.161E-03
   6 F= -.85499558E+03 E0= -.85499539E+03  d E =-.293328E-04  mag=     0.0000
       N       E                     dE             d eps       ncg     rms          rms(c)
DAV:   1    -0.847212297445E+03   -0.29757E-04   -0.70899E-03 10816   0.169E-01    0.163E-02
DAV:   2    -0.847212305361E+03   -0.79153E-05   -0.11105E-04 12256   0.194E-02    0.145E-02
DAV:   3    -0.847212303940E+03    0.14203E-05   -0.30637E-06 10896   0.443E-03    0.112E-02
DAV:   4    -0.847212303624E+03    0.31648E-06   -0.65944E-06 10448   0.551E-03
   7 F= -.85499564E+03 E0= -.85499545E+03  d E =-.909739E-04  mag=     0.0000
       N       E                     dE             d eps       ncg     rms          rms(c)
DAV:   1    -0.847212231724E+03    0.72216E-04   -0.28711E-02 10800   0.340E-01    0.322E-02
DAV:   2    -0.847212265747E+03   -0.34023E-04   -0.46443E-04 12160   0.397E-02    0.287E-02
DAV:   3    -0.847212260374E+03    0.53731E-05   -0.13529E-05 13544   0.897E-03    0.224E-02
DAV:   4    -0.847212258957E+03    0.14169E-05   -0.20936E-05 11072   0.101E-02    0.677E-03
DAV:   5    -0.847212259645E+03   -0.68769E-06   -0.55005E-06  9672   0.467E-03
   8 F= -.85499565E+03 E0= -.85499546E+03  d E =-.976001E-04  mag=     0.0000
       N       E                     dE             d eps       ncg     rms          rms(c)
DAV:   1    -0.847212296408E+03   -0.37451E-04   -0.71949E-03 10752   0.170E-01    0.157E-02
DAV:   2    -0.847212304042E+03   -0.76333E-05   -0.11564E-04 11904   0.199E-02    0.143E-02
DAV:   3    -0.847212302068E+03    0.19736E-05   -0.36737E-06 11064   0.467E-03    0.111E-02
DAV:   4    -0.847212300935E+03    0.11331E-05   -0.70260E-06 10528   0.561E-03    0.331E-03
DAV:   5    -0.847212301067E+03   -0.13236E-06   -0.15368E-06  8088   0.250E-03
   9 F= -.85499566E+03 E0= -.85499547E+03  d E =-.113684E-03  mag=     0.0000
       N       E                     dE             d eps       ncg     rms          rms(c)
DAV:   1    -0.847212337863E+03   -0.36929E-04   -0.14676E-03 10848   0.764E-02    0.764E-03
DAV:   2    -0.847212339650E+03   -0.17862E-05   -0.26999E-05 11488   0.975E-03    0.671E-03
DAV:   3    -0.847212339135E+03    0.51437E-06   -0.86049E-07  8320   0.237E-03
  10 F= -.85499571E+03 E0= -.85499552E+03  d E =-.457402E-04  mag=     0.0000
       N       E                     dE             d eps       ncg     rms          rms(c)
DAV:   1    -0.847212381161E+03   -0.41511E-04   -0.13077E-02 10784   0.228E-01    0.238E-02
DAV:   2    -0.847212396532E+03   -0.15371E-04   -0.22464E-04 11736   0.280E-02    0.210E-02
DAV:   3    -0.847212392942E+03    0.35900E-05   -0.83318E-06 13600   0.676E-03    0.159E-02
DAV:   4    -0.847212391862E+03    0.10797E-05   -0.11932E-05 10576   0.779E-03    0.523E-03
DAV:   5    -0.847212392062E+03   -0.19997E-06   -0.33891E-06  8816   0.382E-03
  11 F= -.85499578E+03 E0= -.85499560E+03  d E =-.121319E-03  mag=     0.0000
       N       E                     dE             d eps       ncg     rms          rms(c)
DAV:   1    -0.847212389653E+03    0.22088E-05   -0.95567E-04 10832   0.615E-02    0.662E-03
DAV:   2    -0.847212391058E+03   -0.14053E-05   -0.17805E-05 11968   0.788E-03    0.543E-03
DAV:   3    -0.847212390877E+03    0.18160E-06   -0.48120E-07  7296   0.189E-03
  12 F= -.85499579E+03 E0= -.85499560E+03  d E =-.126113E-03  mag=    -0.0000
       N       E                     dE             d eps       ncg     rms          rms(c)
DAV:   1    -0.847212425365E+03   -0.34307E-04   -0.21994E-03 10768   0.926E-02    0.977E-03
DAV:   2    -0.847212427781E+03   -0.24158E-05   -0.36690E-05 11728   0.112E-02    0.863E-03
DAV:   3    -0.847212427230E+03    0.55101E-06   -0.11701E-06  8624   0.253E-03
  13 F= -.85499583E+03 E0= -.85499565E+03  d E =-.433510E-04  mag=    -0.0000
       N       E                     dE             d eps       ncg     rms          rms(c)
DAV:   1    -0.847212437655E+03   -0.98742E-05   -0.19794E-02 10720   0.277E-01    0.284E-02
DAV:   2    -0.847212460212E+03   -0.22557E-04   -0.32996E-04 11472   0.335E-02    0.251E-02
DAV:   3    -0.847212455587E+03    0.46250E-05   -0.11581E-05 13584   0.753E-03    0.190E-02
DAV:   4    -0.847212454513E+03    0.10742E-05   -0.15632E-05 10664   0.893E-03    0.552E-03
DAV:   5    -0.847212454895E+03   -0.38161E-06   -0.44158E-06  9408   0.409E-03
  14 F= -.85499588E+03 E0= -.85499569E+03  d E =-.918962E-04  mag=    -0.0000
       N       E                     dE             d eps       ncg     rms          rms(c)
DAV:   1    -0.847212478989E+03   -0.24476E-04   -0.33850E-03 10816   0.110E-01    0.113E-02
DAV:   2    -0.847212482854E+03   -0.38647E-05   -0.54822E-05 11416   0.132E-02    0.982E-03
DAV:   3    -0.847212482291E+03    0.56288E-06   -0.14359E-06  9408   0.268E-03
  15 F= -.85499592E+03 E0= -.85499573E+03  d E =-.370981E-04  mag=    -0.0000
       N       E                     dE             d eps       ncg     rms          rms(c)
DAV:   1    -0.847212500550E+03   -0.17696E-04   -0.29909E-02 10752   0.328E-01    0.337E-02
DAV:   2    -0.847212531186E+03   -0.30636E-04   -0.46223E-04 11296   0.384E-02    0.297E-02
DAV:   3    -0.847212525172E+03    0.60140E-05   -0.14615E-05 13616   0.804E-03    0.221E-02
DAV:   4    -0.847212525665E+03   -0.49269E-06   -0.19675E-05 10520   0.963E-03    0.576E-03
DAV:   5    -0.847212526134E+03   -0.46880E-06   -0.54853E-06 10832   0.417E-03
  16 F= -.85499599E+03 E0= -.85499580E+03  d E =-.109871E-03  mag=     0.0000
       N       E                     dE             d eps       ncg     rms          rms(c)
DAV:   1    -0.847212328122E+03    0.19754E-03   -0.12122E-01 10704   0.660E-01    0.660E-02
DAV:   2    -0.847212459941E+03   -0.13182E-03   -0.19557E-03 11200   0.790E-02    0.581E-02
DAV:   3    -0.847212434254E+03    0.25688E-04   -0.61292E-05 13616   0.165E-02    0.437E-02
DAV:   4    -0.847212432881E+03    0.13721E-05   -0.82338E-05 11112   0.197E-02    0.122E-02
DAV:   5    -0.847212435054E+03   -0.21727E-05   -0.22106E-05 11688   0.846E-03    0.690E-03
DAV:   6    -0.847212435313E+03   -0.25860E-06   -0.26918E-06  8800   0.330E-03
  17 F= -.85499596E+03 E0= -.85499577E+03  d E =-.764239E-04  mag=    -0.0000
       N       E                     dE             d eps       ncg     rms          rms(c)
DAV:   1    -0.847212479741E+03   -0.44686E-04   -0.54403E-02 10720   0.442E-01    0.440E-02
DAV:   2    -0.847212536876E+03   -0.57136E-04   -0.86240E-04 11200   0.526E-02    0.391E-02
DAV:   3    -0.847212523942E+03    0.12934E-04   -0.27625E-05 13584   0.110E-02    0.292E-02
DAV:   4    -0.847212521154E+03    0.27877E-05   -0.37855E-05 10624   0.133E-02    0.809E-03
DAV:   5    -0.847212522136E+03   -0.98224E-06   -0.10389E-05 11600   0.568E-03    0.449E-03
DAV:   6    -0.847212522248E+03   -0.11193E-06   -0.10349E-06  6960   0.211E-03
  18 F= -.85499601E+03 E0= -.85499582E+03  d E =-.124951E-03  mag=     0.0000
       N       E                     dE             d eps       ncg     rms          rms(c)
DAV:   1    -0.847212580747E+03   -0.58611E-04   -0.77628E-03 10768   0.166E-01    0.170E-02
DAV:   2    -0.847212588769E+03   -0.80220E-05   -0.12422E-04 11024   0.200E-02    0.150E-02
DAV:   3    -0.847212586662E+03    0.21076E-05   -0.38859E-06 11432   0.430E-03    0.112E-02
DAV:   4    -0.847212586182E+03    0.47914E-06   -0.71157E-06 10160   0.566E-03
  19 F= -.85499608E+03 E0= -.85499589E+03  d E =-.769139E-04  mag=    -0.0000
       N       E                     dE             d eps       ncg     rms          rms(c)
DAV:   1    -0.847212618514E+03   -0.31852E-04   -0.58050E-02 10728   0.455E-01    0.472E-02
DAV:   2    -0.847212680838E+03   -0.62324E-04   -0.93812E-04 11104   0.548E-02    0.414E-02
DAV:   3    -0.847212667361E+03    0.13477E-04   -0.29091E-05 13544   0.116E-02    0.309E-02
DAV:   4    -0.847212666713E+03    0.64892E-06   -0.45216E-05 10640   0.146E-02    0.795E-03
DAV:   5    -0.847212667444E+03   -0.73115E-06   -0.12422E-05 11704   0.651E-03    0.478E-03
DAV:   6    -0.847212667615E+03   -0.17168E-06   -0.12082E-06  6992   0.220E-03
  20 F= -.85499620E+03 E0= -.85499601E+03  d E =-.193385E-03  mag=    -0.0000
       N       E                     dE             d eps       ncg     rms          rms(c)
DAV:   1    -0.847212657926E+03    0.95174E-05   -0.68849E-03 10752   0.157E-01    0.160E-02
DAV:   2    -0.847212665686E+03   -0.77595E-05   -0.11450E-04 11104   0.191E-02    0.140E-02
DAV:   3    -0.847212664172E+03    0.15140E-05   -0.33460E-06 11144   0.401E-03    0.105E-02
DAV:   4    -0.847212664292E+03   -0.12000E-06   -0.63184E-06 10064   0.535E-03
  21 F= -.85499621E+03 E0= -.85499602E+03  d E =-.201966E-03  mag=    -0.0000
       N       E                     dE             d eps       ncg     rms          rms(c)
DAV:   1    -0.847212721949E+03   -0.57777E-04   -0.14104E-02 10752   0.223E-01    0.235E-02
DAV:   2    -0.847212736720E+03   -0.14771E-04   -0.22249E-04 11056   0.267E-02    0.207E-02
DAV:   3    -0.847212733767E+03    0.29526E-05   -0.68412E-06 12768   0.567E-03    0.153E-02
DAV:   4    -0.847212734236E+03   -0.46851E-06   -0.10592E-05 10312   0.707E-03    0.390E-03
DAV:   5    -0.847212734368E+03   -0.13203E-06   -0.29507E-06  9280   0.322E-03
  22 F= -.85499629E+03 E0= -.85499611E+03  d E =-.829133E-04  mag=    -0.0000
       N       E                     dE             d eps       ncg     rms          rms(c)
DAV:   1    -0.847212765447E+03   -0.31211E-04   -0.12151E-02 10768   0.207E-01    0.212E-02
DAV:   2    -0.847212778565E+03   -0.13119E-04   -0.19452E-04 11040   0.249E-02    0.186E-02
DAV:   3    -0.847212776027E+03    0.25386E-05   -0.59271E-06 12240   0.528E-03    0.139E-02
DAV:   4    -0.847212776320E+03   -0.29316E-06   -0.93105E-06 10320   0.661E-03
  23 F= -.85499634E+03 E0= -.85499616E+03  d E =-.136758E-03  mag=    -0.0000
       N       E                     dE             d eps       ncg     rms          rms(c)
DAV:   1    -0.847212752687E+03    0.23340E-04   -0.48599E-02 10720   0.413E-01    0.431E-02
DAV:   2    -0.847212803902E+03   -0.51216E-04   -0.76674E-04 11008   0.495E-02    0.379E-02
DAV:   3    -0.847212793556E+03    0.10346E-04   -0.23625E-05 13528   0.105E-02    0.282E-02
DAV:   4    -0.847212794520E+03   -0.96375E-06   -0.35579E-05 10584   0.130E-02    0.717E-03
DAV:   5    -0.847212795042E+03   -0.52230E-06   -0.10131E-05 11680   0.588E-03    0.428E-03
DAV:   6    -0.847212795195E+03   -0.15230E-06   -0.10591E-06  7040   0.204E-03
  24 F= -.85499639E+03 E0= -.85499620E+03  d E =-.179169E-03  mag=    -0.0000
       N       E                     dE             d eps       ncg     rms          rms(c)
DAV:   1    -0.847212863772E+03   -0.68729E-04   -0.26538E-02 10808   0.301E-01    0.312E-02
DAV:   2    -0.847212891319E+03   -0.27547E-04   -0.41778E-04 10928   0.359E-02    0.272E-02
DAV:   3    -0.847212885603E+03    0.57157E-05   -0.12370E-05 13376   0.737E-03    0.202E-02
DAV:   4    -0.847212886118E+03   -0.51554E-06   -0.19122E-05 10352   0.926E-03    0.496E-03
DAV:   5    -0.847212886400E+03   -0.28161E-06   -0.51073E-06 11016   0.394E-03
  25 F= -.85499649E+03 E0= -.85499631E+03  d E =-.105899E-03  mag=     0.0000
       N       E                     dE             d eps       ncg     rms          rms(c)
DAV:   1    -0.847212822300E+03    0.63819E-04   -0.18612E-01 10768   0.796E-01    0.828E-02
DAV:   2    -0.847213013992E+03   -0.19169E-03   -0.29165E-03 10928   0.950E-02    0.722E-02
DAV:   3    -0.847212972830E+03    0.41163E-04   -0.87642E-05 13376   0.196E-02    0.534E-02
DAV:   4    -0.847212974439E+03   -0.16092E-05   -0.13511E-04 11640   0.245E-02    0.131E-02
DAV:   5    -0.847212976193E+03   -0.17538E-05   -0.34380E-05 11744   0.104E-02    0.731E-03
DAV:   6    -0.847212976844E+03   -0.65102E-06   -0.35776E-06  9776   0.360E-03
  26 F= -.85499662E+03 E0= -.85499643E+03  d E =-.234961E-03  mag=     0.0000
       N       E                     dE             d eps       ncg     rms          rms(c)
DAV:   1    -0.847213068964E+03   -0.92771E-04   -0.40786E-02 10800   0.374E-01    0.390E-02
DAV:   2    -0.847213111077E+03   -0.42114E-04   -0.64125E-04 10832   0.449E-02    0.340E-02
DAV:   3    -0.847213102285E+03    0.87919E-05   -0.19525E-05 13280   0.950E-03    0.250E-02
DAV:   4    -0.847213103548E+03   -0.12625E-05   -0.29264E-05 10552   0.116E-02    0.633E-03
DAV:   5    -0.847213103949E+03   -0.40132E-06   -0.84676E-06 11616   0.528E-03
  27 F= -.85499676E+03 E0= -.85499658E+03  d E =-.140625E-03  mag=     0.0000
       N       E                     dE             d eps       ncg     rms          rms(c)
DAV:   1    -0.847213075383E+03    0.28164E-04   -0.15037E-01 10768   0.718E-01    0.749E-02
DAV:   2    -0.847213230001E+03   -0.15462E-03   -0.23465E-03 10832   0.860E-02    0.654E-02
DAV:   3    -0.847213196976E+03    0.33025E-04   -0.71573E-05 13296   0.182E-02    0.482E-02
DAV:   4    -0.847213199575E+03   -0.25987E-05   -0.10803E-04 11392   0.223E-02    0.121E-02
DAV:   5    -0.847213200914E+03   -0.13389E-05   -0.30104E-05 11632   0.101E-02    0.676E-03
DAV:   6    -0.847213201557E+03   -0.64304E-06   -0.27412E-06  9392   0.316E-03
  28 F= -.85499689E+03 E0= -.85499670E+03  d E =-.263721E-03  mag=     0.0000
       N       E                     dE             d eps       ncg     rms          rms(c)
DAV:   1    -0.847213282871E+03   -0.81958E-04   -0.60608E-02 10784   0.454E-01    0.476E-02
DAV:   2    -0.847213346350E+03   -0.63479E-04   -0.95774E-04 10816   0.546E-02    0.415E-02
DAV:   3    -0.847213333060E+03    0.13290E-04   -0.28427E-05 13248   0.114E-02    0.306E-02
DAV:   4    -0.847213334482E+03   -0.14221E-05   -0.44234E-05 10640   0.142E-02    0.773E-03
DAV:   5    -0.847213335144E+03   -0.66181E-06   -0.12243E-05 11664   0.627E-03    0.438E-03
DAV:   6    -0.847213335389E+03   -0.24519E-06   -0.10814E-06  7072   0.206E-03
  29 F= -.85499704E+03 E0= -.85499685E+03  d E =-.150736E-03  mag=     0.0000
       N       E                     dE             d eps       ncg     rms          rms(c)
DAV:   1    -0.847213349451E+03   -0.14306E-04   -0.37884E-02 10800   0.359E-01    0.376E-02
DAV:   2    -0.847213388893E+03   -0.39442E-04   -0.59809E-04 10816   0.432E-02    0.328E-02
DAV:   3    -0.847213380427E+03    0.84654E-05   -0.17856E-05 13280   0.909E-03    0.242E-02
DAV:   4    -0.847213381162E+03   -0.73450E-06   -0.27664E-05 10544   0.112E-02    0.617E-03
DAV:   5    -0.847213381584E+03   -0.42222E-06   -0.77458E-06 11600   0.498E-03
  30 F= -.85499710E+03 E0= -.85499691E+03  d E =-.210184E-03  mag=    -0.0000
       N       E                     dE             d eps       ncg     rms          rms(c)
DAV:   1    -0.847213188163E+03    0.19300E-03   -0.15135E-01 10768   0.718E-01    0.754E-02
DAV:   2    -0.847213345565E+03   -0.15740E-03   -0.23784E-03 10800   0.862E-02    0.657E-02
DAV:   3    -0.847213312013E+03    0.33553E-04   -0.70957E-05 13264   0.181E-02    0.485E-02
DAV:   4    -0.847213314454E+03   -0.24415E-05   -0.11042E-04 11472   0.223E-02    0.122E-02
DAV:   5    -0.847213315973E+03   -0.15189E-05   -0.29746E-05 11696   0.989E-03    0.690E-03
DAV:   6    -0.847213316578E+03   -0.60496E-06   -0.28896E-06  9488   0.322E-03
  31 F= -.85499706E+03 E0= -.85499687E+03  d E =-.171413E-03  mag=    -0.0000
       N       E                     dE             d eps       ncg     rms          rms(c)
DAV:   1    -0.847213325861E+03   -0.98877E-05   -0.79902E-02 10752   0.522E-01    0.545E-02
DAV:   2    -0.847213405855E+03   -0.79994E-04   -0.12344E-03 10832   0.623E-02    0.480E-02
DAV:   3    -0.847213385848E+03    0.20007E-04   -0.37667E-05 13200   0.132E-02    0.353E-02
DAV:   4    -0.847213383861E+03    0.19861E-05   -0.59133E-05 10736   0.163E-02    0.886E-03
DAV:   5    -0.847213384672E+03   -0.81084E-06   -0.16416E-05 11600   0.719E-03    0.490E-03
DAV:   6    -0.847213384890E+03   -0.21733E-06   -0.13154E-06  7232   0.225E-03
  32 F= -.85499711E+03 E0= -.85499692E+03  d E =-.220660E-03  mag=    -0.0000
       N       E                     dE             d eps       ncg     rms          rms(c)
DAV:   1    -0.847213460093E+03   -0.75420E-04   -0.62275E-02 10768   0.459E-01    0.481E-02
DAV:   2    -0.847213521741E+03   -0.61649E-04   -0.95278E-04 10832   0.544E-02    0.422E-02
DAV:   3    -0.847213506940E+03    0.14801E-04   -0.28388E-05 13184   0.114E-02    0.310E-02
DAV:   4    -0.847213507087E+03   -0.14635E-06   -0.46315E-05 10624   0.143E-02    0.751E-03
DAV:   5    -0.847213507572E+03   -0.48516E-06   -0.12766E-05 11624   0.631E-03    0.415E-03
DAV:   6    -0.847213507810E+03   -0.23824E-06   -0.10054E-06  7056   0.199E-03
  33 F= -.85499725E+03 E0= -.85499706E+03  d E =-.143125E-03  mag=     0.0000
       N       E                     dE             d eps       ncg     rms          rms(c)
DAV:   1    -0.847213426455E+03    0.81117E-04   -0.21277E-01 10800   0.847E-01    0.891E-02
DAV:   2    -0.847213641695E+03   -0.21524E-03   -0.32982E-03 10832   0.101E-01    0.777E-02
DAV:   3    -0.847213593935E+03    0.47760E-04   -0.97012E-05 13248   0.211E-02    0.570E-02
DAV:   4    -0.847213598756E+03   -0.48212E-05   -0.15918E-04 11808   0.264E-02    0.139E-02
DAV:   5    -0.847213600008E+03   -0.12517E-05   -0.41506E-05 11720   0.117E-02    0.777E-03
DAV:   6    -0.847213600942E+03   -0.93445E-06   -0.37842E-06  9824   0.374E-03
  34 F= -.85499738E+03 E0= -.85499719E+03  d E =-.273122E-03  mag=    -0.0000
       N       E                     dE             d eps       ncg     rms          rms(c)
DAV:   1    -0.847213680625E+03   -0.80618E-04   -0.74955E-02 10768   0.511E-01    0.537E-02
DAV:   2    -0.847213758156E+03   -0.77530E-04   -0.11905E-03 10864   0.619E-02    0.472E-02
DAV:   3    -0.847213740466E+03    0.17690E-04   -0.38476E-05 13264   0.135E-02    0.346E-02
DAV:   4    -0.847213742049E+03   -0.15828E-05   -0.58003E-05 10872   0.164E-02    0.927E-03
DAV:   5    -0.847213742678E+03   -0.62933E-06   -0.17052E-05 11544   0.776E-03    0.519E-03
DAV:   6    -0.847213743132E+03   -0.45361E-06   -0.14908E-06  7568   0.241E-03
  35 F= -.85499754E+03 E0= -.85499736E+03  d E =-.163426E-03  mag=     0.0000
       N       E                     dE             d eps       ncg     rms          rms(c)
DAV:   1    -0.847213748190E+03   -0.55118E-05   -0.13331E-02 10800   0.215E-01    0.227E-02
DAV:   2    -0.847213762152E+03   -0.13962E-04   -0.21248E-04 10928   0.262E-02    0.199E-02
DAV:   3    -0.847213759210E+03    0.29418E-05   -0.68111E-06 12688   0.572E-03    0.145E-02
DAV:   4    -0.847213759885E+03   -0.67427E-06   -0.10303E-05 10416   0.693E-03    0.393E-03
DAV:   5    -0.847213759964E+03   -0.79737E-07   -0.30183E-06  9304   0.331E-03
  36 F= -.85499757E+03 E0= -.85499738E+03  d E =-.189092E-03  mag=    -0.0000
       N       E                     dE             d eps       ncg     rms          rms(c)
DAV:   1    -0.847213814215E+03   -0.54331E-04   -0.43738E-02 10736   0.388E-01    0.408E-02
DAV:   2    -0.847213861963E+03   -0.47748E-04   -0.70833E-04 10912   0.469E-02    0.356E-02
DAV:   3    -0.847213852131E+03    0.98325E-05   -0.20670E-05 13408   0.996E-03    0.265E-02
DAV:   4    -0.847213852725E+03   -0.59439E-06   -0.33532E-05 10672   0.124E-02    0.689E-03
DAV:   5    -0.847213853230E+03   -0.50484E-06   -0.94883E-06 11616   0.572E-03
  37 F= -.85499769E+03 E0= -.85499751E+03  d E =-.120241E-03  mag=    -0.0000
       N       E                     dE             d eps       ncg     rms          rms(c)
DAV:   1    -0.847213856539E+03   -0.38141E-05   -0.12045E-02 10736   0.203E-01    0.217E-02
DAV:   2    -0.847213870236E+03   -0.13697E-04   -0.19704E-04 11024   0.247E-02    0.187E-02
DAV:   3    -0.847213868006E+03    0.22304E-05   -0.55419E-06 12176   0.522E-03    0.139E-02
DAV:   4    -0.847213868940E+03   -0.93391E-06   -0.92151E-06 10384   0.654E-03
  38 F= -.85499772E+03 E0= -.85499754E+03  d E =-.149910E-03  mag=     0.0000
       N       E                     dE             d eps       ncg     rms          rms(c)
DAV:   1    -0.847213865751E+03    0.22550E-05   -0.26489E-03 10752   0.954E-02    0.111E-02
DAV:   2    -0.847213868722E+03   -0.29710E-05   -0.42270E-05 11248   0.115E-02    0.947E-03
DAV:   3    -0.847213868361E+03    0.36046E-06   -0.10653E-06  9200   0.247E-03
  39 F= -.85499772E+03 E0= -.85499754E+03  d E =-.155807E-03  mag=    -0.0000
       N       E                     dE             d eps       ncg     rms          rms(c)
DAV:   1    -0.847213911000E+03   -0.42279E-04   -0.50787E-02 10736   0.421E-01    0.447E-02
DAV:   2    -0.847213961760E+03   -0.50760E-04   -0.77526E-04 10960   0.497E-02    0.392E-02
DAV:   3    -0.847213950840E+03    0.10920E-04   -0.24546E-05 13392   0.106E-02    0.283E-02
DAV:   4    -0.847213952679E+03   -0.18385E-05   -0.33700E-05 10720   0.125E-02    0.719E-03
DAV:   5    -0.847213953183E+03   -0.50435E-06   -0.10305E-05 11584   0.566E-03    0.385E-03
DAV:   6    -0.847213953331E+03   -0.14773E-06   -0.92988E-07  6960   0.192E-03
  40 F= -.85499784E+03 E0= -.85499766E+03  d E =-.115813E-03  mag=    -0.0000
       N       E                     dE             d eps       ncg     rms          rms(c)
DAV:   1    -0.847213933226E+03    0.19957E-04   -0.36590E-02 10736   0.358E-01    0.374E-02
DAV:   2    -0.847213970978E+03   -0.37752E-04   -0.57513E-04 10960   0.428E-02    0.326E-02
DAV:   3    -0.847213962799E+03    0.81796E-05   -0.17989E-05 13376   0.911E-03    0.237E-02
DAV:   4    -0.847213963713E+03   -0.91439E-06   -0.24975E-05 10608   0.107E-02    0.622E-03
DAV:   5    -0.847213964097E+03   -0.38426E-06   -0.74960E-06 11560   0.484E-03
  41 F= -.85499788E+03 E0= -.85499769E+03  d E =-.152425E-03  mag=    -0.0000
       N       E                     dE             d eps       ncg     rms          rms(c)
DAV:   1    -0.847214006537E+03   -0.42824E-04   -0.47208E-02 10736   0.404E-01    0.426E-02
DAV:   2    -0.847214055964E+03   -0.49426E-04   -0.74601E-04 10880   0.485E-02    0.372E-02
DAV:   3    -0.847214045700E+03    0.10264E-04   -0.22804E-05 13296   0.102E-02    0.272E-02
DAV:   4    -0.847214047283E+03   -0.15837E-05   -0.32991E-05 10672   0.123E-02    0.688E-03
DAV:   5    -0.847214047690E+03   -0.40665E-06   -0.98900E-06 11632   0.554E-03
  42 F= -.85499798E+03 E0= -.85499780E+03  d E =-.106228E-03  mag=    -0.0000
       N       E                     dE             d eps       ncg     rms          rms(c)
DAV:   1    -0.847214052279E+03   -0.49956E-05   -0.20888E-02 10736   0.269E-01    0.284E-02
DAV:   2    -0.847214074549E+03   -0.22270E-04   -0.33184E-04 10928   0.324E-02    0.247E-02
DAV:   3    -0.847214070369E+03    0.41799E-05   -0.10073E-05 13056   0.680E-03    0.180E-02
DAV:   4    -0.847214071558E+03   -0.11892E-05   -0.14317E-05 10400   0.811E-03    0.460E-03
DAV:   5    -0.847214071718E+03   -0.15971E-06   -0.43328E-06 10720   0.370E-03
  43 F= -.85499802E+03 E0= -.85499783E+03  d E =-.145232E-03  mag=    -0.0000
       N       E                     dE             d eps       ncg     rms          rms(c)
DAV:   1    -0.847213971490E+03    0.10007E-03   -0.83323E-02 10736   0.537E-01    0.565E-02
DAV:   2    -0.847214058108E+03   -0.86619E-04   -0.13135E-03 10912   0.644E-02    0.494E-02
DAV:   3    -0.847214039476E+03    0.18632E-04   -0.40381E-05 13264   0.136E-02    0.360E-02
DAV:   4    -0.847214041511E+03   -0.20350E-05   -0.58185E-05 10736   0.163E-02    0.916E-03
DAV:   5    -0.847214042245E+03   -0.73345E-06   -0.17412E-05 11632   0.734E-03    0.487E-03
DAV:   6    -0.847214042569E+03   -0.32458E-06   -0.14522E-06  7840   0.232E-03
  44 F= -.85499802E+03 E0= -.85499783E+03  d E =-.145841E-03  mag=    -0.0000
       N       E                     dE             d eps       ncg     rms          rms(c)
DAV:   1    -0.847214053030E+03   -0.10785E-04   -0.24770E-02 10736   0.293E-01    0.308E-02
DAV:   2    -0.847214077795E+03   -0.24765E-04   -0.38378E-04 10848   0.349E-02    0.272E-02
DAV:   3    -0.847214071523E+03    0.62714E-05   -0.12046E-05 13168   0.741E-03    0.198E-02
DAV:   4    -0.847214071106E+03    0.41693E-06   -0.17636E-05 10416   0.893E-03    0.496E-03
DAV:   5    -0.847214071312E+03   -0.20557E-06   -0.53201E-06 10976   0.400E-03
  45 F= -.85499804E+03 E0= -.85499785E+03  d E =-.158354E-03  mag=     0.0000
       N       E                     dE             d eps       ncg     rms          rms(c)
DAV:   1    -0.847214103420E+03   -0.32314E-04   -0.50192E-02 10752   0.413E-01    0.435E-02
DAV:   2    -0.847214154845E+03   -0.51424E-04   -0.79021E-04 10880   0.494E-02    0.383E-02
DAV:   3    -0.847214142643E+03    0.12202E-04   -0.23189E-05 13072   0.103E-02    0.281E-02
DAV:   4    -0.847214142571E+03    0.71559E-07   -0.37002E-05 10560   0.128E-02    0.695E-03
DAV:   5    -0.847214143011E+03   -0.43954E-06   -0.10691E-05 11584   0.572E-03    0.376E-03
DAV:   6    -0.847214143192E+03   -0.18063E-06   -0.79532E-07  6976   0.173E-03
  46 F= -.85499814E+03 E0= -.85499796E+03  d E =-.106663E-03  mag=    -0.0000
       N       E                     dE             d eps       ncg     rms          rms(c)
DAV:   1    -0.847214066612E+03    0.76399E-04   -0.11687E-01 10768   0.631E-01    0.666E-02
DAV:   2    -0.847214189670E+03   -0.12306E-03   -0.18570E-03 10904   0.756E-02    0.582E-02
DAV:   3    -0.847214163662E+03    0.26008E-04   -0.53796E-05 13104   0.157E-02    0.427E-02
DAV:   4    -0.847214166248E+03   -0.25864E-05   -0.84670E-05 11096   0.193E-02    0.106E-02
DAV:   5    -0.847214167203E+03   -0.95450E-06   -0.24194E-05 11664   0.875E-03    0.579E-03
DAV:   6    -0.847214167659E+03   -0.45641E-06   -0.20964E-06  8976   0.272E-03
  47 F= -.85499822E+03 E0= -.85499804E+03  d E =-.183928E-03  mag=    -0.0000
       N       E                     dE             d eps       ncg     rms          rms(c)
DAV:   1    -0.847214203601E+03   -0.36398E-04   -0.66620E-02 10768   0.484E-01    0.510E-02
DAV:   2    -0.847214270600E+03   -0.66998E-04   -0.10393E-03 10912   0.579E-02    0.447E-02
DAV:   3    -0.847214255274E+03    0.15326E-04   -0.34206E-05 13264   0.127E-02    0.321E-02
DAV:   4    -0.847214257363E+03   -0.20886E-05   -0.44572E-05 10736   0.144E-02    0.860E-03
DAV:   5    -0.847214258049E+03   -0.68614E-06   -0.14056E-05 11512   0.660E-03    0.450E-03
DAV:   6    -0.847214258277E+03   -0.22792E-06   -0.13353E-06  7896   0.221E-03
  48 F= -.85499835E+03 E0= -.85499817E+03  d E =-.134360E-03  mag=    -0.0000
       N       E                     dE             d eps       ncg     rms          rms(c)
DAV:   1    -0.847214219152E+03    0.38897E-04   -0.49906E-02 10752   0.419E-01    0.441E-02
DAV:   2    -0.847214269135E+03   -0.49983E-04   -0.77723E-04 10912   0.501E-02    0.387E-02
DAV:   3    -0.847214257614E+03    0.11521E-04   -0.25673E-05 13280   0.110E-02    0.278E-02
DAV:   4    -0.847214259311E+03   -0.16972E-05   -0.33249E-05 10672   0.124E-02    0.746E-03
DAV:   5    -0.847214259810E+03   -0.49908E-06   -0.10577E-05 11488   0.572E-03    0.391E-03
DAV:   6    -0.847214259985E+03   -0.17481E-06   -0.96502E-07  7248   0.190E-03
  49 F= -.85499839E+03 E0= -.85499821E+03  d E =-.173745E-03  mag=    -0.0000
       N       E                     dE             d eps       ncg     rms          rms(c)
DAV:   1    -0.847214272619E+03   -0.12809E-04   -0.74925E-02 10768   0.505E-01    0.536E-02
DAV:   2    -0.847214351055E+03   -0.78436E-04   -0.11860E-03 10848   0.605E-02    0.467E-02
DAV:   3    -0.847214334603E+03    0.16451E-04   -0.34890E-05 13184   0.128E-02    0.341E-02
DAV:   4    -0.847214336593E+03   -0.19900E-05   -0.50581E-05 10768   0.150E-02    0.882E-03
DAV:   5    -0.847214337604E+03   -0.10105E-05   -0.14788E-05 11648   0.670E-03    0.477E-03
DAV:   6    -0.847214337826E+03   -0.22160E-06   -0.13955E-06  7808   0.227E-03
  50 F= -.85499851E+03 E0= -.85499832E+03  d E =-.112491E-03  mag=    -0.0000
       N       E                     dE             d eps       ncg     rms          rms(c)
DAV:   1    -0.847214322485E+03    0.15119E-04   -0.32559E-02 10784   0.333E-01    0.354E-02
DAV:   2    -0.847214356723E+03   -0.34238E-04   -0.51815E-04 10880   0.400E-02    0.307E-02
DAV:   3    -0.847214349741E+03    0.69820E-05   -0.15215E-05 13248   0.847E-03    0.224E-02
DAV:   4    -0.847214351049E+03   -0.13081E-05   -0.21785E-05 10528   0.988E-03    0.585E-03
DAV:   5    -0.847214351491E+03   -0.44235E-06   -0.64671E-06 11216   0.443E-03
  51 F= -.85499854E+03 E0= -.85499835E+03  d E =-.148844E-03  mag=    -0.0000
       N       E                     dE             d eps       ncg     rms          rms(c)
DAV:   1    -0.847214173946E+03    0.17710E-03   -0.13013E-01 10752   0.666E-01    0.708E-02
DAV:   2    -0.847214311266E+03   -0.13732E-03   -0.20613E-03 10848   0.798E-02    0.616E-02
DAV:   3    -0.847214283359E+03    0.27907E-04   -0.60666E-05 13216   0.169E-02    0.450E-02
DAV:   4    -0.847214286881E+03   -0.35222E-05   -0.87025E-05 11280   0.197E-02    0.116E-02
DAV:   5    -0.847214288621E+03   -0.17397E-05   -0.25112E-05 11696   0.881E-03    0.629E-03
DAV:   6    -0.847214288999E+03   -0.37787E-06   -0.25665E-06  9344   0.301E-03
  52 F= -.85499852E+03 E0= -.85499833E+03  d E =-.131539E-03  mag=    -0.0000
       N       E                     dE             d eps       ncg     rms          rms(c)
DAV:   1    -0.847214294476E+03   -0.58554E-05   -0.64978E-02 10736   0.471E-01    0.499E-02
DAV:   2    -0.847214360583E+03   -0.66107E-04   -0.10119E-03 10880   0.560E-02    0.438E-02
DAV:   3    -0.847214344870E+03    0.15714E-04   -0.30383E-05 13152   0.120E-02    0.319E-02
DAV:   4    -0.847214344562E+03    0.30800E-06   -0.44113E-05 10592   0.140E-02    0.818E-03
DAV:   5    -0.847214345413E+03   -0.85105E-06   -0.13045E-05 11536   0.623E-03    0.434E-03
DAV:   6    -0.847214345569E+03   -0.15605E-06   -0.11015E-06  7256   0.203E-03
  53 F= -.85499855E+03 E0= -.85499836E+03  d E =-.156193E-03  mag=     0.0000
       N       E                     dE             d eps       ncg     rms          rms(c)
DAV:   1    -0.847214366466E+03   -0.21053E-04   -0.64201E-02 10736   0.472E-01    0.501E-02
DAV:   2    -0.847214430711E+03   -0.64245E-04   -0.10025E-03 10832   0.566E-02    0.441E-02
DAV:   3    -0.847214414436E+03    0.16275E-04   -0.32247E-05 13296   0.123E-02    0.318E-02
DAV:   4    -0.847214414538E+03   -0.10231E-06   -0.46985E-05 10656   0.146E-02    0.809E-03
DAV:   5    -0.847214415055E+03   -0.51707E-06   -0.14629E-05 11584   0.678E-03    0.432E-03
DAV:   6    -0.847214415331E+03   -0.27609E-06   -0.10912E-06  6976   0.205E-03
  54 F= -.85499865E+03 E0= -.85499847E+03  d E =-.104847E-03  mag=     0.0000
       N       E                     dE             d eps       ncg     rms          rms(c)
DAV:   1    -0.847214402438E+03    0.12617E-04   -0.13954E-02 10800   0.220E-01    0.234E-02
DAV:   2    -0.847214416834E+03   -0.14396E-04   -0.22202E-04 10832   0.265E-02    0.204E-02
DAV:   3    -0.847214413659E+03    0.31758E-05   -0.70089E-06 12832   0.578E-03    0.147E-02
DAV:   4    -0.847214414305E+03   -0.64617E-06   -0.10139E-05 10368   0.683E-03    0.384E-03
DAV:   5    -0.847214414396E+03   -0.91633E-07   -0.31736E-06  9328   0.323E-03
  55 F= -.85499867E+03 E0= -.85499848E+03  d E =-.120181E-03  mag=     0.0000
       N       E                     dE             d eps       ncg     rms          rms(c)
DAV:   1    -0.847214444076E+03   -0.29771E-04   -0.50105E-02 10736   0.420E-01    0.443E-02
DAV:   2    -0.847214493462E+03   -0.49386E-04   -0.77191E-04 10864   0.501E-02    0.389E-02
DAV:   3    -0.847214481775E+03    0.11687E-04   -0.25840E-05 13184   0.113E-02    0.277E-02
DAV:   4    -0.847214483608E+03   -0.18327E-05   -0.33604E-05 10768   0.125E-02    0.749E-03
DAV:   5    -0.847214484078E+03   -0.47011E-06   -0.11210E-05 11504   0.610E-03    0.393E-03
DAV:   6    -0.847214484303E+03   -0.22487E-06   -0.92931E-07  6944   0.187E-03
  56 F= -.85499877E+03 E0= -.85499858E+03  d E =-.101085E-03  mag=     0.0000
       N       E                     dE             d eps       ncg     rms          rms(c)
DAV:   1    -0.847214481178E+03    0.28993E-05   -0.11554E-02 10752   0.202E-01    0.213E-02
DAV:   2    -0.847214492706E+03   -0.11528E-04   -0.17947E-04 10928   0.241E-02    0.186E-02
DAV:   3    -0.847214490127E+03    0.25787E-05   -0.59568E-06 12608   0.544E-03    0.132E-02
DAV:   4    -0.847214490739E+03   -0.61148E-06   -0.77900E-06 10336   0.601E-03
  57 F= -.85499879E+03 E0= -.85499860E+03  d E =-.122379E-03  mag=     0.0000
       N       E                     dE             d eps       ncg     rms          rms(c)
DAV:   1    -0.847214518609E+03   -0.28481E-04   -0.28337E-02 10720   0.315E-01    0.342E-02
DAV:   2    -0.847214551626E+03   -0.33017E-04   -0.48269E-04 11120   0.388E-02    0.299E-02
DAV:   3    -0.847214544847E+03    0.67781E-05   -0.14800E-05 13504   0.841E-03    0.222E-02
DAV:   4    -0.847214545244E+03   -0.39698E-06   -0.23503E-05 10576   0.105E-02    0.610E-03
DAV:   5    -0.847214545631E+03   -0.38677E-06   -0.67787E-06 11520   0.481E-03
  58 F= -.85499886E+03 E0= -.85499867E+03  d E =-.682959E-04  mag=     0.0000
       N       E                     dE             d eps       ncg     rms          rms(c)
DAV:   1    -0.847214545411E+03   -0.16659E-06   -0.24399E-04 10848   0.292E-02    0.377E-03
DAV:   2    -0.847214545767E+03   -0.35625E-06   -0.44776E-06  9808   0.380E-03
  59 F= -.85499886E+03 E0= -.85499867E+03  d E =-.696472E-04  mag=     0.0000
       N       E                     dE             d eps       ncg     rms          rms(c)
DAV:   1    -0.847214572774E+03   -0.27363E-04   -0.16479E-02 10720   0.245E-01    0.271E-02
DAV:   2    -0.847214587829E+03   -0.15055E-04   -0.25103E-04 11168   0.291E-02    0.239E-02
DAV:   3    -0.847214583640E+03    0.41884E-05   -0.10414E-05 13040   0.733E-03    0.160E-02
DAV:   4    -0.847214584819E+03   -0.11786E-05   -0.10803E-05 10992   0.710E-03    0.473E-03
DAV:   5    -0.847214584919E+03   -0.10008E-06   -0.42811E-06  9952   0.393E-03
  60 F= -.85499891E+03 E0= -.85499872E+03  d E =-.480964E-04  mag=     0.0000
