<?xml version="1.0" encoding="ISO-8859-1"?>
<modeling>
 <generator>
  <i name="program" type="string">vasp </i>
  <i name="version" type="string">6.4.2  </i>
  <i name="subversion" type="string">20Jul23 (build Jan 24 2024 13:44:02) complex                          parallel </i>
  <i name="platform" type="string">LinuxNV </i>
  <i name="date" type="string">2025 11 25 </i>
  <i name="time" type="string">12:18:14 </i>
 </generator>
 <incar>
  <i type="int" name="ISTART">     0</i>
  <i type="string" name="ALGO">Normal</i>
  <i type="logical" name="ADDGRID"> T  </i>
  <i type="int" name="ISPIN">     2</i>
  <i type="int" name="IMIX">     4</i>
  <i name="AMIX">      0.20000000</i>
  <i name="BMIX">      0.00010000</i>
  <i name="AMIX_MAG">      0.80000000</i>
  <i name="BMIX_MAG">      0.00010000</i>
  <i type="int" name="ICHARG">     2</i>
  <i type="int" name="NELM">   200</i>
  <i type="int" name="IBRION">     2</i>
  <i name="EDIFF">      0.00000100</i>
  <i name="EDIFFG">     -0.01000000</i>
  <i type="int" name="NSW">   300</i>
  <i type="int" name="ISIF">     2</i>
  <i type="int" name="ISYM">     0</i>
  <i name="ENCUT">    520.00000000</i>
  <i name="POTIM">      0.10000000</i>
  <v name="MAGMOM">      0.60000000      0.60000000      0.60000000      0.60000000      0.60000000      0.60000000      0.60000000      0.60000000      0.60000000      0.60000000      0.60000000      0.60000000      0.60000000      0.60000000      0.60000000      0.60000000      0.60000000      0.60000000      0.60000000      0.60000000
      0.60000000      0.60000000      0.60000000      0.60000000      0.60000000      0.60000000      0.60000000      0.60000000      0.60000000      0.60000000      0.60000000      0.60000000      0.60000000      0.60000000      0.60000000      0.60000000      0.60000000      0.60000000      0.60000000      0.60000000
      0.60000000      0.60000000      0.60000000      0.60000000      0.60000000      0.60000000      0.60000000      0.60000000      0.60000000      0.60000000      0.60000000      0.60000000      0.60000000      0.60000000      0.60000000      0.60000000      0.60000000      0.60000000      0.60000000      0.60000000
      0.60000000      0.60000000      0.60000000      0.60000000      0.60000000      0.60000000      0.60000000      0.60000000      0.60000000      0.60000000      0.60000000      0.60000000      0.60000000      0.60000000      0.60000000      0.60000000      0.60000000      0.60000000      0.60000000      0.60000000
      0.60000000      0.60000000      0.60000000      0.60000000      0.60000000      0.60000000      0.60000000      0.60000000      0.60000000      0.60000000      0.60000000      0.60000000      0.60000000      0.60000000      0.60000000      0.60000000      0.60000000      0.60000000</v>
  <i type="logical" name="LREAL"> F  </i>
  <i type="int" name="ISMEAR">     0</i>
  <i name="SIGMA">      0.05000000</i>
  <i type="logical" name="LWAVE"> F  </i>
  <i type="logical" name="LCHARG"> F  </i>
  <i type="logical" name="LASPH"> T  </i>
  <i type="int" name="IVDW">    12</i>
 </incar>
 <primitive_cell>
  <structure name="primitive_cell" >
   <crystal>
    <varray name="basis" >
     <v>      17.27103806       0.00000000       0.00000000 </v>
     <v>      -8.63551903      14.95715771       0.00000000 </v>
     <v>       0.00000000       0.00000000      15.00000000 </v>
    </varray>
    <i name="volume">   3874.88459904 </i>
    <varray name="rec_basis" >
     <v>       0.05790040       0.03342881      -0.00000000 </v>
     <v>       0.00000000       0.06685762       0.00000000 </v>
     <v>       0.00000000      -0.00000000       0.06666667 </v>
    </varray>
   </crystal>
   <varray name="positions" >
    <v>       0.99997706       0.00015966       0.50176559 </v>
    <v>       0.99982948       0.14292208       0.50004406 </v>
    <v>       0.00008452       0.28596941       0.49916851 </v>
    <v>       0.00040461       0.42888362       0.49919728 </v>
    <v>       0.00065014       0.57176110       0.50077014 </v>
    <v>       0.00123482       0.71487557       0.50258539 </v>
    <v>       0.00092129       0.85792794       0.50299624 </v>
    <v>       0.14327733       0.00074864       0.50189834 </v>
    <v>       0.14301375       0.14350480       0.50048842 </v>
    <v>       0.14280669       0.28615938       0.50011122 </v>
    <v>       0.14342829       0.42960910       0.49975249 </v>
    <v>       0.14367194       0.57195299       0.50001543 </v>
    <v>       0.14363924       0.71469661       0.50144797 </v>
    <v>       0.14338835       0.85776132       0.50227648 </v>
    <v>       0.28589864       0.00034142       0.50042333 </v>
    <v>       0.28595045       0.14314096       0.49968861 </v>
    <v>       0.28643732       0.28776211       0.50015216 </v>
    <v>       0.28567379       0.42948461       0.50213324 </v>
    <v>       0.28828117       0.57282417       0.50068153 </v>
    <v>       0.28648186       0.71552699       0.50012232 </v>
    <v>       0.28567964       0.85795379       0.50048304 </v>
    <v>       0.42879368       0.00013926       0.49877733 </v>
    <v>       0.42867485       0.14265595       0.49786803 </v>
    <v>       0.42722801       0.28243377       0.49493493 </v>
    <v>       0.42790562       0.85710836       0.49907840 </v>
    <v>       0.57111984       0.99971807       0.49798817 </v>
    <v>       0.57159681       0.14245678       0.49725949 </v>
    <v>       0.57256760       0.28588780       0.49612053 </v>
    <v>       0.57017514       0.85565000       0.49845431 </v>
    <v>       0.71337825       0.99906060       0.49854141 </v>
    <v>       0.71438029       0.14256332       0.49770345 </v>
    <v>       0.71465973       0.28558529       0.49742566 </v>
    <v>       0.71421478       0.42772938       0.49780657 </v>
    <v>       0.71791460       0.57343742       0.49854222 </v>
    <v>       0.71742631       0.71492585       0.49892406 </v>
    <v>       0.71231636       0.85608096       0.49925696 </v>
    <v>       0.85665639       0.99966349       0.50010891 </v>
    <v>       0.85680543       0.14255366       0.49879994 </v>
    <v>       0.85725751       0.28557336       0.49830318 </v>
    <v>       0.85775307       0.42864039       0.49893759 </v>
    <v>       0.85811089       0.57198214       0.50068201 </v>
    <v>       0.85927846       0.71525593       0.50180028 </v>
    <v>       0.85732030       0.85699720       0.50160362 </v>
    <v>       0.04772259       0.09554160       0.50080208 </v>
    <v>       0.04730840       0.23812113       0.49972475 </v>
    <v>       0.04779714       0.38137223       0.49921917 </v>
    <v>       0.04836174       0.52422296       0.49994218 </v>
    <v>       0.04842315       0.66710929       0.50180126 </v>
    <v>       0.04827280       0.81008520       0.50298536 </v>
    <v>       0.04800184       0.95288048       0.50245809 </v>
    <v>       0.19070620       0.09566917       0.50092675 </v>
    <v>       0.19056478       0.23878165       0.50012118 </v>
    <v>       0.19000193       0.38136231       0.50036554 </v>
    <v>       0.19186068       0.52510206       0.49985211 </v>
    <v>       0.19119903       0.66732252       0.50057242 </v>
    <v>       0.19082720       0.81012605       0.50153395 </v>
    <v>       0.19090098       0.95291869       0.50172819 </v>
    <v>       0.33357549       0.09564451       0.49927968 </v>
    <v>       0.33437919       0.23841188       0.49822194 </v>
    <v>       0.33106562       0.38071797       0.50252167 </v>
    <v>       0.33242815       0.52413040       0.50284071 </v>
    <v>       0.33743147       0.67107407       0.49994931 </v>
    <v>       0.33318019       0.81030065       0.49986675 </v>
    <v>       0.33340142       0.95286191       0.49990510 </v>
    <v>       0.47641243       0.09508462       0.49796327 </v>
    <v>       0.47577722       0.23766943       0.49599819 </v>
    <v>       0.47254059       0.80652243       0.49877459 </v>
    <v>       0.47612578       0.95245524       0.49853592 </v>
    <v>       0.61895514       0.09482722       0.49753394 </v>
    <v>       0.61953669       0.23777666       0.49683910 </v>
    <v>       0.62130260       0.37915893       0.49668533 </v>
    <v>       0.61887230       0.81102196       0.49873989 </v>
    <v>       0.61795829       0.95133265       0.49826356 </v>
    <v>       0.76160495       0.09478571       0.49830319 </v>
    <v>       0.76218317       0.23775017       0.49775908 </v>
    <v>       0.76249222       0.38079307       0.49803009 </v>
    <v>       0.76228647       0.52499963       0.49908180 </v>
    <v>       0.76399990       0.66745944       0.49987623 </v>
    <v>       0.76129837       0.80772439       0.50004018 </v>
    <v>       0.76106590       0.95163261       0.49932017 </v>
    <v>       0.90434392       0.09473985       0.49964625 </v>
    <v>       0.90467348       0.23791639       0.49869653 </v>
    <v>       0.90505308       0.38112080       0.49874757 </v>
    <v>       0.90543467       0.52420272       0.50022048 </v>
    <v>       0.90601180       0.66714031       0.50203151 </v>
    <v>       0.90562240       0.81010161       0.50246610 </v>
    <v>       0.90465481       0.95214733       0.50138239 </v>
    <v>       0.46338015       0.35485507       0.49127000 </v>
    <v>       0.40376115       0.41909038       0.50407237 </v>
    <v>       0.40531060       0.56061904       0.50584512 </v>
    <v>       0.64475418       0.67565038       0.49641729 </v>
    <v>       0.64523991       0.54001853       0.49663120 </v>
    <v>       0.58522787       0.41559377       0.49654469 </v>
    <v>       0.58001217       0.73834791       0.49881460 </v>
    <v>       0.46474895       0.53259552       0.37598401 </v>
    <v>       0.55649622       0.54996474       0.34250840 </v>
    <v>       0.42743837       0.71606393       0.49911876 </v>
    <v>       0.51892252       0.53338389       0.39533618 </v>
   </varray>
  </structure>
  <varray name="primitive_index" >
   <v type="int" >        1 </v>
   <v type="int" >        2 </v>
   <v type="int" >        3 </v>
   <v type="int" >        4 </v>
   <v type="int" >        5 </v>
   <v type="int" >        6 </v>
   <v type="int" >        7 </v>
   <v type="int" >        8 </v>
   <v type="int" >        9 </v>
   <v type="int" >       10 </v>
   <v type="int" >       11 </v>
   <v type="int" >       12 </v>
   <v type="int" >       13 </v>
   <v type="int" >       14 </v>
   <v type="int" >       15 </v>
   <v type="int" >       16 </v>
   <v type="int" >       17 </v>
   <v type="int" >       18 </v>
   <v type="int" >       19 </v>
   <v type="int" >       20 </v>
   <v type="int" >       21 </v>
   <v type="int" >       22 </v>
   <v type="int" >       23 </v>
   <v type="int" >       24 </v>
   <v type="int" >       25 </v>
   <v type="int" >       26 </v>
   <v type="int" >       27 </v>
   <v type="int" >       28 </v>
   <v type="int" >       29 </v>
   <v type="int" >       30 </v>
   <v type="int" >       31 </v>
   <v type="int" >       32 </v>
   <v type="int" >       33 </v>
   <v type="int" >       34 </v>
   <v type="int" >       35 </v>
   <v type="int" >       36 </v>
   <v type="int" >       37 </v>
   <v type="int" >       38 </v>
   <v type="int" >       39 </v>
   <v type="int" >       40 </v>
   <v type="int" >       41 </v>
   <v type="int" >       42 </v>
   <v type="int" >       43 </v>
   <v type="int" >       44 </v>
   <v type="int" >       45 </v>
   <v type="int" >       46 </v>
   <v type="int" >       47 </v>
   <v type="int" >       48 </v>
   <v type="int" >       49 </v>
   <v type="int" >       50 </v>
   <v type="int" >       51 </v>
   <v type="int" >       52 </v>
   <v type="int" >       53 </v>
   <v type="int" >       54 </v>
   <v type="int" >       55 </v>
   <v type="int" >       56 </v>
   <v type="int" >       57 </v>
   <v type="int" >       58 </v>
   <v type="int" >       59 </v>
   <v type="int" >       60 </v>
   <v type="int" >       61 </v>
   <v type="int" >       62 </v>
   <v type="int" >       63 </v>
   <v type="int" >       64 </v>
   <v type="int" >       65 </v>
   <v type="int" >       66 </v>
   <v type="int" >       67 </v>
   <v type="int" >       68 </v>
   <v type="int" >       69 </v>
   <v type="int" >       70 </v>
   <v type="int" >       71 </v>
   <v type="int" >       72 </v>
   <v type="int" >       73 </v>
   <v type="int" >       74 </v>
   <v type="int" >       75 </v>
   <v type="int" >       76 </v>
   <v type="int" >       77 </v>
   <v type="int" >       78 </v>
   <v type="int" >       79 </v>
   <v type="int" >       80 </v>
   <v type="int" >       81 </v>
   <v type="int" >       82 </v>
   <v type="int" >       83 </v>
   <v type="int" >       84 </v>
   <v type="int" >       85 </v>
   <v type="int" >       86 </v>
   <v type="int" >       87 </v>
   <v type="int" >       88 </v>
   <v type="int" >       89 </v>
   <v type="int" >       90 </v>
   <v type="int" >       91 </v>
   <v type="int" >       92 </v>
   <v type="int" >       93 </v>
   <v type="int" >       94 </v>
   <v type="int" >       95 </v>
   <v type="int" >       96 </v>
   <v type="int" >       97 </v>
   <v type="int" >       98 </v>
  </varray>
 </primitive_cell>
 <kpoints>
  <generation param="Gamma">
   <v type="int" name="divisions">       4        4        1 </v>
   <v name="usershift">      0.00000000       0.00000000       0.00000000 </v>
   <v name="genvec1">      0.25000000       0.00000000       0.00000000 </v>
   <v name="genvec2">      0.00000000       0.25000000       0.00000000 </v>
   <v name="genvec3">      0.00000000       0.00000000       1.00000000 </v>
   <v name="shift">      0.00000000       0.00000000       0.00000000 </v>
  </generation>
  <varray name="kpointlist" >
   <v>       0.00000000       0.00000000       0.00000000 </v>
   <v>       0.25000000       0.00000000       0.00000000 </v>
   <v>       0.00000000       0.25000000       0.00000000 </v>
   <v>      -0.25000000       0.25000000       0.00000000 </v>
   <v>       0.50000000       0.00000000       0.00000000 </v>
   <v>       0.00000000       0.50000000       0.00000000 </v>
   <v>       0.50000000       0.50000000       0.00000000 </v>
   <v>       0.25000000       0.25000000       0.00000000 </v>
   <v>      -0.25000000       0.50000000       0.00000000 </v>
   <v>       0.50000000       0.25000000       0.00000000 </v>
  </varray>
  <varray name="weights" >
   <v>       0.06250000 </v>
   <v>       0.12500000 </v>
   <v>       0.12500000 </v>
   <v>       0.12500000 </v>
   <v>       0.06250000 </v>
   <v>       0.06250000 </v>
   <v>       0.06250000 </v>
   <v>       0.12500000 </v>
   <v>       0.12500000 </v>
   <v>       0.12500000 </v>
  </varray>
 </kpoints>
 <parameters>
  <separator name="general" >
   <i type="string" name="SYSTEM">unknown system</i>
   <i type="logical" name="LCOMPAT"> F  </i>
  </separator>
  <separator name="electronic" >
   <i type="string" name="PREC">normal</i>
   <i name="ENMAX">    520.00000000</i>
   <i name="ENAUG">    644.87300000</i>
   <i name="EDIFF">      0.00000100</i>
   <i type="int" name="IALGO">    38</i>
   <i type="int" name="IWAVPR">    11</i>
   <i type="int" name="NBANDS">   264</i>
   <i type="int" name="NBANDSLOW">    -1</i>
   <i type="int" name="NBANDSHIGH">    -1</i>
   <i name="NELECT">    368.00000000</i>
   <i type="int" name="TURBO">     0</i>
   <i type="int" name="IRESTART">     0</i>
   <i type="int" name="NREBOOT">     0</i>
   <i type="int" name="NMIN">     0</i>
   <i name="EREF">      0.00000000</i>
   <separator name="electronic smearing" >
    <i type="int" name="ISMEAR">     0</i>
    <i name="SIGMA">      0.05000000</i>
    <i name="KSPACING">      0.50000000</i>
    <i type="logical" name="KGAMMA"> T  </i>
    <i type="logical" name="KBLOWUP"> T  </i>
   </separator>
   <separator name="electronic projectors" >
    <i type="logical" name="LREAL"> F  </i>
    <v name="ROPT">      0.00000000      0.00000000      0.00000000      0.00000000</v>
    <i type="int" name="LMAXPAW">  -100</i>
    <i type="int" name="LMAXMIX">     2</i>
    <i type="logical" name="NLSPLINE"> F  </i>
   </separator>
   <separator name="electronic startup" >
    <i type="int" name="ISTART">     0</i>
    <i type="int" name="ICHARG">     2</i>
    <i type="int" name="INIWAV">     1</i>
   </separator>
   <separator name="electronic spin" >
    <i type="int" name="ISPIN">     2</i>
    <i type="logical" name="LNONCOLLINEAR"> F  </i>
    <v name="MAGMOM">      0.60000000      0.60000000      0.60000000      0.60000000      0.60000000      0.60000000      0.60000000      0.60000000      0.60000000      0.60000000      0.60000000      0.60000000      0.60000000      0.60000000      0.60000000      0.60000000      0.60000000      0.60000000      0.60000000      0.60000000
      0.60000000      0.60000000      0.60000000      0.60000000      0.60000000      0.60000000      0.60000000      0.60000000      0.60000000      0.60000000      0.60000000      0.60000000      0.60000000      0.60000000      0.60000000      0.60000000      0.60000000      0.60000000      0.60000000      0.60000000
      0.60000000      0.60000000      0.60000000      0.60000000      0.60000000      0.60000000      0.60000000      0.60000000      0.60000000      0.60000000      0.60000000      0.60000000      0.60000000      0.60000000      0.60000000      0.60000000      0.60000000      0.60000000      0.60000000      0.60000000
      0.60000000      0.60000000      0.60000000      0.60000000      0.60000000      0.60000000      0.60000000      0.60000000      0.60000000      0.60000000      0.60000000      0.60000000      0.60000000      0.60000000      0.60000000      0.60000000      0.60000000      0.60000000      0.60000000      0.60000000
      0.60000000      0.60000000      0.60000000      0.60000000      0.60000000      0.60000000      0.60000000      0.60000000      0.60000000      0.60000000      0.60000000      0.60000000      0.60000000      0.60000000      0.60000000      0.60000000      0.60000000      0.60000000</v>
    <i name="NUPDOWN">     -1.00000000</i>
    <i type="logical" name="LSORBIT"> F  </i>
    <v name="SAXIS">      0.00000000      0.00000000      1.00000000</v>
    <i type="logical" name="LSPIRAL"> F  </i>
    <v name="QSPIRAL">      0.00000000      0.00000000      0.00000000</v>
    <i type="logical" name="LZEROZ"> F  </i>
   </separator>
   <separator name="electronic exchange-correlation" >
    <i type="logical" name="LASPH"> T  </i>
    <i type="logical" name="LMETAGGA"> F  </i>
   </separator>
   <separator name="electronic convergence" >
    <i type="int" name="NELM">   200</i>
    <i type="int" name="NELMDL">    -5</i>
    <i type="int" name="NELMIN">     2</i>
    <i name="ENINI">    520.00000000</i>
    <separator name="electronic convergence detail" >
     <i type="logical" name="LDIAG"> T  </i>
     <i type="logical" name="LSUBROT"> F  </i>
     <i name="WEIMIN">      0.00100000</i>
     <i name="EBREAK">      0.00000000</i>
     <i name="DEPER">      0.30000000</i>
     <i type="int" name="NRMM">     4</i>
     <i name="TIME">      0.40000000</i>
    </separator>
   </separator>
   <separator name="electronic mixer" >
    <i name="AMIX">      0.20000000</i>
    <i name="BMIX">      0.00010000</i>
    <i name="AMIN">      0.10000000</i>
    <i name="AMIX_MAG">      0.80000000</i>
    <i name="BMIX_MAG">      0.00010000</i>
    <separator name="electronic mixer details" >
     <i type="int" name="IMIX">     4</i>
     <i type="logical" name="MIXFIRST"> F  </i>
     <i type="int" name="MAXMIX">   -45</i>
     <i name="WC">    100.00000000</i>
     <i type="int" name="INIMIX">     1</i>
     <i type="int" name="MIXPRE">     1</i>
     <i type="int" name="MREMOVE">     5</i>
    </separator>
   </separator>
   <separator name="electronic dipolcorrection" >
    <i type="logical" name="LDIPOL"> F  </i>
    <i type="logical" name="LMONO"> F  </i>
    <i type="int" name="IDIPOL">     0</i>
    <i name="EPSILON">      1.00000000</i>
    <v name="DIPOL">   -100.00000000   -100.00000000   -100.00000000</v>
    <i name="EFIELD">      0.00000000</i>
   </separator>
  </separator>
  <separator name="grids" >
   <i type="int" name="NGX">    96</i>
   <i type="int" name="NGY">    96</i>
   <i type="int" name="NGZ">    84</i>
   <i type="int" name="NGXF">   192</i>
   <i type="int" name="NGYF">   192</i>
   <i type="int" name="NGZF">   168</i>
   <i type="logical" name="ADDGRID"> T  </i>
  </separator>
  <separator name="ionic" >
   <i type="int" name="NSW">   300</i>
   <i type="int" name="IBRION">     2</i>
   <i type="int" name="MDALGO">     0</i>
   <i type="int" name="ISIF">     2</i>
   <i name="PSTRESS">      0.00000000</i>
   <i name="EDIFFG">     -0.01000000</i>
   <i type="int" name="NFREE">     1</i>
   <i name="POTIM">      0.10000000</i>
   <i name="SMASS">     -3.00000000</i>
   <i name="SCALEE">      1.00000000</i>
  </separator>
  <separator name="ionic md" >
   <i name="TEBEG">      0.00010000</i>
   <i name="TEEND">      0.00010000</i>
   <i type="int" name="NBLOCK">     1</i>
   <i type="int" name="KBLOCK">   300</i>
   <i type="int" name="NPACO">   256</i>
   <i name="APACO">     10.00000000</i>
  </separator>
  <separator name="symmetry" >
   <i type="int" name="ISYM">     0</i>
   <i name="SYMPREC">      0.00001000</i>
  </separator>
  <separator name="dos" >
   <i type="int" name="LORBIT">     0</i>
   <v name="RWIGS">     -1.00000000     -1.00000000     -1.00000000     -1.00000000</v>
   <i type="int" name="NEDOS">   301</i>
   <i name="EMIN">     10.00000000</i>
   <i name="EMAX">    -10.00000000</i>
   <i name="EFERMI">      0.00000000</i>
  </separator>
  <separator name="writing" >
   <i type="int" name="NWRITE">     2</i>
   <i type="logical" name="LWAVE"> F  </i>
   <i type="logical" name="LDOWNSAMPLE"> F  </i>
   <i type="logical" name="LCHARG"> F  </i>
   <i type="logical" name="LPARD"> F  </i>
   <i type="logical" name="LVTOT"> F  </i>
   <i type="logical" name="LVHAR"> F  </i>
   <i type="logical" name="LELF"> F  </i>
   <i type="logical" name="LOPTICS"> F  </i>
   <v name="STM">      0.00000000      0.00000000      0.00000000      0.00000000      0.00000000      0.00000000      0.00000000</v>
  </separator>
  <separator name="performance" >
   <i type="int" name="NPAR">     2</i>
   <i type="int" name="NSIM">     4</i>
   <i type="int" name="NBLK">    -1</i>
   <i type="logical" name="LPLANE"> T  </i>
   <i type="logical" name="LSCALAPACK"> T  </i>
   <i type="logical" name="LSCAAWARE"> F  </i>
   <i type="logical" name="LSCALU"> F  </i>
   <i type="logical" name="LASYNC"> F  </i>
   <i type="logical" name="LORBITALREAL"> F  </i>
  </separator>
  <separator name="miscellaneous" >
   <i type="int" name="IDIOT">     3</i>
   <i type="int" name="PHON_NSTRUCT">    -1</i>
   <i type="logical" name="LMUSIC"> F  </i>
   <v name="POMASS">     12.01100000      1.00000000     14.00100000     16.00000000</v>
   <v name="DARWINR">      0.00000000      0.00000000      0.00000000      0.00000000</v>
   <v name="DARWINV">      1.00000000      1.00000000      1.00000000      1.00000000</v>
   <i type="logical" name="LCORR"> T  </i>
  </separator>
  <i type="logical" name="GGA_COMPAT"> T  </i>
  <i type="logical" name="LBERRY"> F  </i>
  <i type="int" name="ICORELEVEL">     0</i>
  <i type="logical" name="LDAU"> F  </i>
  <i type="int" name="I_CONSTRAINED_M">     0</i>
  <separator name="electronic exchange-correlation" >
   <i type="string" name="GGA">--</i>
   <i type="int" name="VOSKOWN">     0</i>
   <i type="logical" name="LHFCALC"> F  </i>
   <i type="string" name="PRECFOCK"></i>
   <i type="logical" name="LSYMGRAD"> F  </i>
   <i type="logical" name="LHFONE"> F  </i>
   <i type="logical" name="LRHFCALC"> F  </i>
   <i type="logical" name="LTHOMAS"> F  </i>
   <i type="logical" name="LMODELHF"> F  </i>
   <i type="logical" name="LFOCKACE"> F  </i>
   <i name="ENCUT4O">     -1.00000000</i>
   <i type="int" name="EXXOEP">     0</i>
   <i type="int" name="FOURORBIT">     0</i>
   <i name="AEXX">      0.00000000</i>
   <i name="HFALPHA">      0.00000000</i>
   <i name="MCALPHA">      0.00000000</i>
   <i name="ALDAX">      1.00000000</i>
   <i name="AGGAX">      1.00000000</i>
   <i name="ALDAC">      1.00000000</i>
   <i name="AGGAC">      1.00000000</i>
   <i type="int" name="NKREDX">     1</i>
   <i type="int" name="NKREDY">     1</i>
   <i type="int" name="NKREDZ">     1</i>
   <i type="logical" name="SHIFTRED"> F  </i>
   <i type="logical" name="ODDONLY"> F  </i>
   <i type="logical" name="EVENONLY"> F  </i>
   <i type="int" name="LMAXFOCK">     0</i>
   <i type="int" name="NMAXFOCKAE">     0</i>
   <i type="logical" name="LFOCKAEDFT"> F  </i>
   <i name="HFSCREEN">      0.00000000</i>
   <i name="HFSCREENC">      0.00000000</i>
   <i type="int" name="NBANDSGWLOW">     0</i>
  </separator>
  <separator name="vdW DFT" >
   <i type="logical" name="LUSE_VDW"> F  </i>
   <i type="int" name="IVDW_NL">     1</i>
   <i type="logical" name="LSPIN_VDW"> F  </i>
   <i name="Zab_VDW">     -0.84910000</i>
   <i name="PARAM1">      0.12340000</i>
   <i name="PARAM2">      1.00000000</i>
   <i name="PARAM3">      0.00000000</i>
  </separator>
  <separator name="model GW" >
   <i type="int" name="MODEL_GW">     0</i>
   <i name="MODEL_EPS0">     23.72378326</i>
   <i name="MODEL_ALPHA">      1.00000000</i>
  </separator>
  <separator name="linear response parameters" >
   <i type="logical" name="LEPSILON"> F  </i>
   <i type="logical" name="LRPA"> F  </i>
   <i type="logical" name="LNABLA"> F  </i>
   <i type="logical" name="LVEL"> F  </i>
   <i name="CSHIFT">      0.10000000</i>
   <i name="OMEGAMAX">     -1.00000000</i>
   <i name="DEG_THRESHOLD">      0.00200000</i>
   <i name="RTIME">     -0.10000000</i>
   <i name="WPLASMAI">      0.00000000</i>
   <v name="DFIELD">      0.00000000      0.00000000      0.00000000</v>
   <v name="WPLASMA">      0.00000000      0.00000000      0.00000000      0.00000000      0.00000000      0.00000000      0.00000000      0.00000000      0.00000000</v>
  </separator>
  <separator name="orbital magnetization" >
   <i type="logical" name="NUCIND"> F  </i>
   <v name="MAGPOS">      0.00000000      0.00000000      0.00000000</v>
   <i type="logical" name="LNICSALL"> T  </i>
   <i type="logical" name="ORBITALMAG"> F  </i>
   <i type="logical" name="LMAGBLOCH"> F  </i>
   <i type="logical" name="LCHIMAG"> F  </i>
   <i type="logical" name="LGAUGE"> T  </i>
   <i type="int" name="MAGATOM">     0</i>
   <v name="MAGDIPOL">      0.00000000      0.00000000      0.00000000</v>
   <v name="AVECCONST">      0.00000000      0.00000000      0.00000000</v>
  </separator>
  <separator name="response functions" >
   <i type="logical" name="LALL_IN_ONE"> F  </i>
   <i type="int" name="IALL_IN_ONE">    -1</i>
   <i type="int" name="NBANDS_WAVE">    -1</i>
   <i type="logical" name="LFINITE_TEMPERATURE"> F  </i>
   <i type="logical" name="LADDER"> F  </i>
   <i type="logical" name="LRPAFORCE"> F  </i>
   <i type="logical" name="LFXC"> F  </i>
   <i type="logical" name="LHARTREE"> T  </i>
   <i type="int" name="IBSE">     0</i>
   <v type="int" name="KPOINT">    -1     0     0     0</v>
   <i type="logical" name="LTCTC"> F  </i>
   <i type="logical" name="LTCTE"> F  </i>
   <i type="logical" name="LTETE"> F  </i>
   <i type="logical" name="LTRIPLET"> F  </i>
   <i type="logical" name="LFXCEPS"> F  </i>
   <i type="logical" name="LFXHEG"> F  </i>
   <i type="int" name="NATURALO">     2</i>
   <i type="logical" name="LHOLEGF"> F  </i>
   <i type="logical" name="L2ORDER"> F  </i>
   <i type="logical" name="LDMP1"> F  </i>
   <i type="logical" name="LMP2LT"> F  </i>
   <i type="logical" name="LSMP2LT"> F  </i>
   <i type="logical" name="LGWLF"> F  </i>
   <i name="ENCUTGW">     -1.60000002</i>
   <i name="ENCUTGWSOFT">     -1.60000002</i>
   <i name="ENCUTLF">     -1.00000000</i>
   <i type="logical" name="LESF_SPLINES"> F  </i>
   <i type="int" name="LMAXMP2">    -1</i>
   <i name="SCISSOR">      0.00000000</i>
   <i type="int" name="NOMEGA">     0</i>
   <i type="int" name="NOMEGAR">     0</i>
   <i type="int" name="NBANDSGW">    -1</i>
   <i type="int" name="NBANDSO">    -1</i>
   <i type="int" name="NBANDSV">    -1</i>
   <i type="int" name="NELMGW">     1</i>
   <i type="int" name="NELMHF">     1</i>
   <i type="int" name="DIM">     3</i>
   <i type="int" name="IESPILON">     4</i>
   <i type="int" name="ANTIRES">     0</i>
   <i name="OMEGAMAX">    -30.00000000</i>
   <i name="OMEGAMIN">    -30.00000000</i>
   <i name="OMEGATL">   -200.00000000</i>
   <i type="int" name="OMEGAGRID">     0</i>
   <i name="CSHIFT">     -0.10000000</i>
   <i type="logical" name="LSELFENERGY"> F  </i>
   <i type="logical" name="LSPECTRAL"> F  </i>
   <i type="logical" name="LSPECTRALGW"> F  </i>
   <i type="logical" name="LSINGLES"> F  </i>
   <i type="logical" name="LFERMIGW"> F  </i>
   <i type="logical" name="ODDONLYGW"> F  </i>
   <i type="logical" name="EVENONLYGW"> F  </i>
   <i type="int" name="NKREDLFX">     1</i>
   <i type="int" name="NKREDLFY">     1</i>
   <i type="int" name="NKREDLFZ">     1</i>
   <i type="int" name="MAXMEM">  2800</i>
   <i type="int" name="TELESCOPE">     0</i>
   <i type="int" name="NTAUPAR">    -1</i>
   <i type="int" name="NOMEGAPAR">    -1</i>
   <i name="DAMP_NEWTON">      0.80000001</i>
   <i name="LAMBDA">      1.00000000</i>
  </separator>
  <separator name="External order field" >
   <i name="OFIELD_KAPPA">      0.00000000</i>
   <v name="OFIELD_K">      0.00000000      0.00000000      0.00000000</v>
   <i name="OFIELD_Q6_NEAR">      0.00000000</i>
   <i name="OFIELD_Q6_FAR">      0.00000000</i>
   <i name="OFIELD_A">      0.00000000</i>
  </separator>
  <separator name="optional k-points parameters" >
   <i type="int" name="KPOINTS_OPT_MODE">     1</i>
   <i type="logical" name="LKPOINTS_OPT"> F  </i>
  </separator>
 </parameters>
 <atominfo>
  <atoms>      98 </atoms>
  <types>       4 </types>
  <array name="atoms" >
   <dimension dim="1">ion</dimension>
   <field type="string">element</field>
   <field type="int">atomtype</field>
   <set>
    <rc><c>C </c><c>   1</c></rc>
    <rc><c>C </c><c>   1</c></rc>
    <rc><c>C </c><c>   1</c></rc>
    <rc><c>C </c><c>   1</c></rc>
    <rc><c>C </c><c>   1</c></rc>
    <rc><c>C </c><c>   1</c></rc>
    <rc><c>C </c><c>   1</c></rc>
    <rc><c>C </c><c>   1</c></rc>
    <rc><c>C </c><c>   1</c></rc>
    <rc><c>C </c><c>   1</c></rc>
    <rc><c>C </c><c>   1</c></rc>
    <rc><c>C </c><c>   1</c></rc>
    <rc><c>C </c><c>   1</c></rc>
    <rc><c>C </c><c>   1</c></rc>
    <rc><c>C </c><c>   1</c></rc>
    <rc><c>C </c><c>   1</c></rc>
    <rc><c>C </c><c>   1</c></rc>
    <rc><c>C </c><c>   1</c></rc>
    <rc><c>C </c><c>   1</c></rc>
    <rc><c>C </c><c>   1</c></rc>
    <rc><c>C </c><c>   1</c></rc>
    <rc><c>C </c><c>   1</c></rc>
    <rc><c>C </c><c>   1</c></rc>
    <rc><c>C </c><c>   1</c></rc>
    <rc><c>C </c><c>   1</c></rc>
    <rc><c>C </c><c>   1</c></rc>
    <rc><c>C </c><c>   1</c></rc>
    <rc><c>C </c><c>   1</c></rc>
    <rc><c>C </c><c>   1</c></rc>
    <rc><c>C </c><c>   1</c></rc>
    <rc><c>C </c><c>   1</c></rc>
    <rc><c>C </c><c>   1</c></rc>
    <rc><c>C </c><c>   1</c></rc>
    <rc><c>C </c><c>   1</c></rc>
    <rc><c>C </c><c>   1</c></rc>
    <rc><c>C </c><c>   1</c></rc>
    <rc><c>C </c><c>   1</c></rc>
    <rc><c>C </c><c>   1</c></rc>
    <rc><c>C </c><c>   1</c></rc>
    <rc><c>C </c><c>   1</c></rc>
    <rc><c>C </c><c>   1</c></rc>
    <rc><c>C </c><c>   1</c></rc>
    <rc><c>C </c><c>   1</c></rc>
    <rc><c>C </c><c>   1</c></rc>
    <rc><c>C </c><c>   1</c></rc>
    <rc><c>C </c><c>   1</c></rc>
    <rc><c>C </c><c>   1</c></rc>
    <rc><c>C </c><c>   1</c></rc>
    <rc><c>C </c><c>   1</c></rc>
    <rc><c>C </c><c>   1</c></rc>
    <rc><c>C </c><c>   1</c></rc>
    <rc><c>C </c><c>   1</c></rc>
    <rc><c>C </c><c>   1</c></rc>
    <rc><c>C </c><c>   1</c></rc>
    <rc><c>C </c><c>   1</c></rc>
    <rc><c>C </c><c>   1</c></rc>
    <rc><c>C </c><c>   1</c></rc>
    <rc><c>C </c><c>   1</c></rc>
    <rc><c>C </c><c>   1</c></rc>
    <rc><c>C </c><c>   1</c></rc>
    <rc><c>C </c><c>   1</c></rc>
    <rc><c>C </c><c>   1</c></rc>
    <rc><c>C </c><c>   1</c></rc>
    <rc><c>C </c><c>   1</c></rc>
    <rc><c>C </c><c>   1</c></rc>
    <rc><c>C </c><c>   1</c></rc>
    <rc><c>C </c><c>   1</c></rc>
    <rc><c>C </c><c>   1</c></rc>
    <rc><c>C </c><c>   1</c></rc>
    <rc><c>C </c><c>   1</c></rc>
    <rc><c>C </c><c>   1</c></rc>
    <rc><c>C </c><c>   1</c></rc>
    <rc><c>C </c><c>   1</c></rc>
    <rc><c>C </c><c>   1</c></rc>
    <rc><c>C </c><c>   1</c></rc>
    <rc><c>C </c><c>   1</c></rc>
    <rc><c>C </c><c>   1</c></rc>
    <rc><c>C </c><c>   1</c></rc>
    <rc><c>C </c><c>   1</c></rc>
    <rc><c>C </c><c>   1</c></rc>
    <rc><c>C </c><c>   1</c></rc>
    <rc><c>C </c><c>   1</c></rc>
    <rc><c>C </c><c>   1</c></rc>
    <rc><c>C </c><c>   1</c></rc>
    <rc><c>C </c><c>   1</c></rc>
    <rc><c>C </c><c>   1</c></rc>
    <rc><c>C </c><c>   1</c></rc>
    <rc><c>H </c><c>   2</c></rc>
    <rc><c>H </c><c>   2</c></rc>
    <rc><c>H </c><c>   2</c></rc>
    <rc><c>H </c><c>   2</c></rc>
    <rc><c>H </c><c>   2</c></rc>
    <rc><c>H </c><c>   2</c></rc>
    <rc><c>H </c><c>   2</c></rc>
    <rc><c>H </c><c>   2</c></rc>
    <rc><c>H </c><c>   2</c></rc>
    <rc><c>N </c><c>   3</c></rc>
    <rc><c>O </c><c>   4</c></rc>
   </set>
  </array>
  <array name="atomtypes" >
   <dimension dim="1">type</dimension>
   <field type="int">atomspertype</field>
   <field type="string">element</field>
   <field>mass</field>
   <field>valence</field>
   <field type="string">pseudopotential</field>
   <set>
    <rc><c>  87</c><c>C </c><c>     12.01100000</c><c>      4.00000000</c><c>  PAW_PBE C 08Apr2002                   </c></rc>
    <rc><c>   9</c><c>H </c><c>      1.00000000</c><c>      1.00000000</c><c>  PAW_PBE H 15Jun2001                   </c></rc>
    <rc><c>   1</c><c>N </c><c>     14.00100000</c><c>      5.00000000</c><c>  PAW_PBE N 08Apr2002                   </c></rc>
    <rc><c>   1</c><c>O </c><c>     16.00000000</c><c>      6.00000000</c><c>  PAW_PBE O 08Apr2002                   </c></rc>
   </set>
  </array>
 </atominfo>
 <structure name="initialpos" >
  <crystal>
   <varray name="basis" >
    <v>      17.27103806       0.00000000       0.00000000 </v>
    <v>      -8.63551903      14.95715771       0.00000000 </v>
    <v>       0.00000000       0.00000000      15.00000000 </v>
   </varray>
   <i name="volume">   3874.88459904 </i>
   <varray name="rec_basis" >
    <v>       0.05790040       0.03342881      -0.00000000 </v>
    <v>       0.00000000       0.06685762       0.00000000 </v>
    <v>       0.00000000      -0.00000000       0.06666667 </v>
   </varray>
  </crystal>
  <varray name="positions" >
   <v>       0.99997706       0.00015966       0.50176559 </v>
   <v>       0.99982948       0.14292208       0.50004406 </v>
   <v>       0.00008452       0.28596941       0.49916851 </v>
   <v>       0.00040461       0.42888362       0.49919728 </v>
   <v>       0.00065014       0.57176110       0.50077014 </v>
   <v>       0.00123482       0.71487557       0.50258539 </v>
   <v>       0.00092129       0.85792794       0.50299624 </v>
   <v>       0.14327733       0.00074864       0.50189834 </v>
   <v>       0.14301375       0.14350480       0.50048842 </v>
   <v>       0.14280669       0.28615938       0.50011122 </v>
   <v>       0.14342829       0.42960910       0.49975249 </v>
   <v>       0.14367194       0.57195299       0.50001543 </v>
   <v>       0.14363924       0.71469661       0.50144797 </v>
   <v>       0.14338835       0.85776132       0.50227648 </v>
   <v>       0.28589864       0.00034142       0.50042333 </v>
   <v>       0.28595045       0.14314096       0.49968861 </v>
   <v>       0.28643732       0.28776211       0.50015216 </v>
   <v>       0.28567379       0.42948461       0.50213324 </v>
   <v>       0.28828117       0.57282417       0.50068153 </v>
   <v>       0.28648186       0.71552699       0.50012232 </v>
   <v>       0.28567964       0.85795379       0.50048304 </v>
   <v>       0.42879368       0.00013926       0.49877733 </v>
   <v>       0.42867485       0.14265595       0.49786803 </v>
   <v>       0.42722801       0.28243377       0.49493493 </v>
   <v>       0.42790562       0.85710836       0.49907840 </v>
   <v>       0.57111984       0.99971807       0.49798817 </v>
   <v>       0.57159681       0.14245678       0.49725949 </v>
   <v>       0.57256760       0.28588780       0.49612053 </v>
   <v>       0.57017514       0.85565000       0.49845431 </v>
   <v>       0.71337825       0.99906060       0.49854141 </v>
   <v>       0.71438029       0.14256332       0.49770345 </v>
   <v>       0.71465973       0.28558529       0.49742566 </v>
   <v>       0.71421478       0.42772938       0.49780657 </v>
   <v>       0.71791460       0.57343742       0.49854222 </v>
   <v>       0.71742631       0.71492585       0.49892406 </v>
   <v>       0.71231636       0.85608096       0.49925696 </v>
   <v>       0.85665639       0.99966349       0.50010891 </v>
   <v>       0.85680543       0.14255366       0.49879994 </v>
   <v>       0.85725751       0.28557336       0.49830318 </v>
   <v>       0.85775307       0.42864039       0.49893759 </v>
   <v>       0.85811089       0.57198214       0.50068201 </v>
   <v>       0.85927846       0.71525593       0.50180028 </v>
   <v>       0.85732030       0.85699720       0.50160362 </v>
   <v>       0.04772259       0.09554160       0.50080208 </v>
   <v>       0.04730840       0.23812113       0.49972475 </v>
   <v>       0.04779714       0.38137223       0.49921917 </v>
   <v>       0.04836174       0.52422296       0.49994218 </v>
   <v>       0.04842315       0.66710929       0.50180126 </v>
   <v>       0.04827280       0.81008520       0.50298536 </v>
   <v>       0.04800184       0.95288048       0.50245809 </v>
   <v>       0.19070620       0.09566917       0.50092675 </v>
   <v>       0.19056478       0.23878165       0.50012118 </v>
   <v>       0.19000193       0.38136231       0.50036554 </v>
   <v>       0.19186068       0.52510206       0.49985211 </v>
   <v>       0.19119903       0.66732252       0.50057242 </v>
   <v>       0.19082720       0.81012605       0.50153395 </v>
   <v>       0.19090098       0.95291869       0.50172819 </v>
   <v>       0.33357549       0.09564451       0.49927968 </v>
   <v>       0.33437919       0.23841188       0.49822194 </v>
   <v>       0.33106562       0.38071797       0.50252167 </v>
   <v>       0.33242815       0.52413040       0.50284071 </v>
   <v>       0.33743147       0.67107407       0.49994931 </v>
   <v>       0.33318019       0.81030065       0.49986675 </v>
   <v>       0.33340142       0.95286191       0.49990510 </v>
   <v>       0.47641243       0.09508462       0.49796327 </v>
   <v>       0.47577722       0.23766943       0.49599819 </v>
   <v>       0.47254059       0.80652243       0.49877459 </v>
   <v>       0.47612578       0.95245524       0.49853592 </v>
   <v>       0.61895514       0.09482722       0.49753394 </v>
   <v>       0.61953669       0.23777666       0.49683910 </v>
   <v>       0.62130260       0.37915893       0.49668533 </v>
   <v>       0.61887230       0.81102196       0.49873989 </v>
   <v>       0.61795829       0.95133265       0.49826356 </v>
   <v>       0.76160495       0.09478571       0.49830319 </v>
   <v>       0.76218317       0.23775017       0.49775908 </v>
   <v>       0.76249222       0.38079307       0.49803009 </v>
   <v>       0.76228647       0.52499963       0.49908180 </v>
   <v>       0.76399990       0.66745944       0.49987623 </v>
   <v>       0.76129837       0.80772439       0.50004018 </v>
   <v>       0.76106590       0.95163261       0.49932017 </v>
   <v>       0.90434392       0.09473985       0.49964625 </v>
   <v>       0.90467348       0.23791639       0.49869653 </v>
   <v>       0.90505308       0.38112080       0.49874757 </v>
   <v>       0.90543467       0.52420272       0.50022048 </v>
   <v>       0.90601180       0.66714031       0.50203151 </v>
   <v>       0.90562240       0.81010161       0.50246610 </v>
   <v>       0.90465481       0.95214733       0.50138239 </v>
   <v>       0.46338015       0.35485507       0.49127000 </v>
   <v>       0.40376115       0.41909038       0.50407237 </v>
   <v>       0.40531060       0.56061904       0.50584512 </v>
   <v>       0.64475418       0.67565038       0.49641729 </v>
   <v>       0.64523991       0.54001853       0.49663120 </v>
   <v>       0.58522787       0.41559377       0.49654469 </v>
   <v>       0.58001217       0.73834791       0.49881460 </v>
   <v>       0.46474895       0.53259552       0.37598401 </v>
   <v>       0.55649622       0.54996474       0.34250840 </v>
   <v>       0.42743837       0.71606393       0.49911876 </v>
   <v>       0.51892252       0.53338389       0.39533618 </v>
  </varray>
  <varray name="selective"  type="logical" >
   <v type="logical" >  T  T  T </v>
   <v type="logical" >  T  T  T </v>
   <v type="logical" >  T  T  T </v>
   <v type="logical" >  T  T  T </v>
   <v type="logical" >  T  T  T </v>
   <v type="logical" >  T  T  T </v>
   <v type="logical" >  T  T  T </v>
   <v type="logical" >  T  T  T </v>
   <v type="logical" >  T  T  T </v>
   <v type="logical" >  T  T  T </v>
   <v type="logical" >  T  T  T </v>
   <v type="logical" >  T  T  T </v>
   <v type="logical" >  T  T  T </v>
   <v type="logical" >  T  T  T </v>
   <v type="logical" >  T  T  T </v>
   <v type="logical" >  T  T  T </v>
   <v type="logical" >  T  T  T </v>
   <v type="logical" >  T  T  T </v>
   <v type="logical" >  T  T  T </v>
   <v type="logical" >  T  T  T </v>
   <v type="logical" >  T  T  T </v>
   <v type="logical" >  T  T  T </v>
   <v type="logical" >  T  T  T </v>
   <v type="logical" >  T  T  T </v>
   <v type="logical" >  T  T  T </v>
   <v type="logical" >  T  T  T </v>
   <v type="logical" >  T  T  T </v>
   <v type="logical" >  T  T  T </v>
   <v type="logical" >  T  T  T </v>
   <v type="logical" >  T  T  T </v>
   <v type="logical" >  T  T  T </v>
   <v type="logical" >  T  T  T </v>
   <v type="logical" >  T  T  T </v>
   <v type="logical" >  T  T  T </v>
   <v type="logical" >  T  T  T </v>
   <v type="logical" >  T  T  T </v>
   <v type="logical" >  T  T  T </v>
   <v type="logical" >  T  T  T </v>
   <v type="logical" >  T  T  T </v>
   <v type="logical" >  T  T  T </v>
   <v type="logical" >  T  T  T </v>
   <v type="logical" >  T  T  T </v>
   <v type="logical" >  T  T  T </v>
   <v type="logical" >  T  T  T </v>
   <v type="logical" >  T  T  T </v>
   <v type="logical" >  T  T  T </v>
   <v type="logical" >  T  T  T </v>
   <v type="logical" >  T  T  T </v>
   <v type="logical" >  T  T  T </v>
   <v type="logical" >  T  T  T </v>
   <v type="logical" >  T  T  T </v>
   <v type="logical" >  T  T  T </v>
   <v type="logical" >  T  T  T </v>
   <v type="logical" >  T  T  T </v>
   <v type="logical" >  T  T  T </v>
   <v type="logical" >  T  T  T </v>
   <v type="logical" >  T  T  T </v>
   <v type="logical" >  T  T  T </v>
   <v type="logical" >  T  T  T </v>
   <v type="logical" >  T  T  T </v>
   <v type="logical" >  T  T  T </v>
   <v type="logical" >  T  T  T </v>
   <v type="logical" >  T  T  T </v>
   <v type="logical" >  T  T  T </v>
   <v type="logical" >  T  T  T </v>
   <v type="logical" >  T  T  T </v>
   <v type="logical" >  T  T  T </v>
   <v type="logical" >  T  T  T </v>
   <v type="logical" >  T  T  T </v>
   <v type="logical" >  T  T  T </v>
   <v type="logical" >  T  T  T </v>
   <v type="logical" >  T  T  T </v>
   <v type="logical" >  T  T  T </v>
   <v type="logical" >  T  T  T </v>
   <v type="logical" >  T  T  T </v>
   <v type="logical" >  T  T  T </v>
   <v type="logical" >  T  T  T </v>
   <v type="logical" >  T  T  T </v>
   <v type="logical" >  T  T  T </v>
   <v type="logical" >  T  T  T </v>
   <v type="logical" >  T  T  T </v>
   <v type="logical" >  T  T  T </v>
   <v type="logical" >  T  T  T </v>
   <v type="logical" >  T  T  T </v>
   <v type="logical" >  T  T  T </v>
   <v type="logical" >  T  T  T </v>
   <v type="logical" >  T  T  T </v>
   <v type="logical" >  T  T  T </v>
   <v type="logical" >  T  T  T </v>
   <v type="logical" >  T  T  T </v>
   <v type="logical" >  T  T  T </v>
   <v type="logical" >  T  T  T </v>
   <v type="logical" >  T  T  T </v>
   <v type="logical" >  T  T  T </v>
   <v type="logical" >  T  T  T </v>
   <v type="logical" >  T  T  T </v>
   <v type="logical" >  T  T  T </v>
   <v type="logical" >  T  T  F </v>
  </varray>
  <nose>
   <v>      -3.00000000       0.00000000       0.00010000       0.00010000 </v>
  </nose>
 </structure>
 <calculation>
  <scstep>
   <time name="dav">   97.65   98.48</time>
   <time name="total">   99.12   99.98</time>
   <energy>
    <i name="alphaZ">    176.01131809 </i>
    <i name="ewald">  36341.02950509 </i>
    <i name="hartreedc"> -46434.89931348 </i>
    <i name="XCdc">   1220.18748486 </i>
    <i name="pawpsdc">  10007.03170968 </i>
    <i name="pawaedc"> -10059.36457306 </i>
    <i name="eentropy">     -0.04250179 </i>
    <i name="bandstr">  -1614.99794749 </i>
    <i name="atom">  13611.23051297 </i>
    <i name="e_fr_energy">   3246.18619487 </i>
    <i name="e_wo_entrp">   3246.22869665 </i>
    <i name="e_0_energy">   3246.20744576 </i>
   </energy>
  </scstep>
  <scstep>
   <time name="dav">  124.07  125.13</time>
   <time name="total">  124.09  125.14</time>
   <energy>
    <i name="e_fr_energy">   -257.40997280 </i>
    <i name="e_wo_entrp">   -257.39952633 </i>
    <i name="e_0_energy">   -257.40474956 </i>
   </energy>
  </scstep>
  <scstep>
   <time name="dav">  107.94  108.86</time>
   <time name="total">  107.95  108.87</time>
   <energy>
    <i name="e_fr_energy">   -870.08644358 </i>
    <i name="e_wo_entrp">   -870.07999547 </i>
    <i name="e_0_energy">   -870.08321952 </i>
   </energy>
  </scstep>
  <scstep>
   <time name="dav">  109.81  110.77</time>
   <time name="total">  109.82  110.78</time>
   <energy>
    <i name="e_fr_energy">   -892.30509027 </i>
    <i name="e_wo_entrp">   -892.29868377 </i>
    <i name="e_0_energy">   -892.30188702 </i>
   </energy>
  </scstep>
  <scstep>
   <time name="dav">  118.84  119.85</time>
   <time name="total">  119.77  120.79</time>
   <energy>
    <i name="e_fr_energy">   -892.93123500 </i>
    <i name="e_wo_entrp">   -892.92479011 </i>
    <i name="e_0_energy">   -892.92801255 </i>
   </energy>
  </scstep>
  <scstep>
   <time name="dav">  104.49  105.41</time>
   <time name="total">  106.90  107.84</time>
   <energy>
    <i name="e_fr_energy">   -875.10573029 </i>
    <i name="e_wo_entrp">   -875.10278929 </i>
    <i name="e_0_energy">   -875.10425979 </i>
   </energy>
  </scstep>
  <scstep>
   <time name="dav">  101.51  102.39</time>
   <time name="total">  103.76  104.65</time>
   <energy>
    <i name="e_fr_energy">   -852.33591092 </i>
    <i name="e_wo_entrp">   -852.33409933 </i>
    <i name="e_0_energy">   -852.33500512 </i>
   </energy>
  </scstep>
  <scstep>
   <time name="dav">  103.89  104.80</time>
   <time name="total">  106.24  107.16</time>
   <energy>
    <i name="e_fr_energy">   -847.45215530 </i>
    <i name="e_wo_entrp">   -847.45176455 </i>
    <i name="e_0_energy">   -847.45195992 </i>
   </energy>
  </scstep>
  <scstep>
   <time name="dav">  100.93  101.79</time>
   <time name="total">  103.27  104.15</time>
   <energy>
    <i name="e_fr_energy">   -847.29755633 </i>
    <i name="e_wo_entrp">   -847.29717244 </i>
    <i name="e_0_energy">   -847.29736438 </i>
   </energy>
  </scstep>
  <scstep>
   <time name="dav">  101.18  102.04</time>
   <time name="total">  103.49  104.38</time>
   <energy>
    <i name="e_fr_energy">   -847.22395671 </i>
    <i name="e_wo_entrp">   -847.22358683 </i>
    <i name="e_0_energy">   -847.22377177 </i>
   </energy>
  </scstep>
  <scstep>
   <time name="dav">   99.33  100.20</time>
   <time name="total">  101.63  102.54</time>
   <energy>
    <i name="e_fr_energy">   -847.21316919 </i>
    <i name="e_wo_entrp">   -847.21279486 </i>
    <i name="e_0_energy">   -847.21298203 </i>
   </energy>
  </scstep>
  <scstep>
   <time name="dav">  106.06  106.99</time>
   <time name="total">  108.35  109.29</time>
   <energy>
    <i name="e_fr_energy">   -847.21184610 </i>
    <i name="e_wo_entrp">   -847.21146889 </i>
    <i name="e_0_energy">   -847.21165749 </i>
   </energy>
  </scstep>
  <scstep>
   <time name="dav">  103.42  104.31</time>
   <time name="total">  105.73  106.63</time>
   <energy>
    <i name="e_fr_energy">   -847.21161354 </i>
    <i name="e_wo_entrp">   -847.21123575 </i>
    <i name="e_0_energy">   -847.21142464 </i>
   </energy>
  </scstep>
  <scstep>
   <time name="dav">  101.29  102.16</time>
   <time name="total">  103.57  104.48</time>
   <energy>
    <i name="e_fr_energy">   -847.21172069 </i>
    <i name="e_wo_entrp">   -847.21134223 </i>
    <i name="e_0_energy">   -847.21153146 </i>
   </energy>
  </scstep>
  <scstep>
   <time name="dav">   99.16  100.01</time>
   <time name="total">  101.47  102.33</time>
   <energy>
    <i name="e_fr_energy">   -847.21175647 </i>
    <i name="e_wo_entrp">   -847.21137820 </i>
    <i name="e_0_energy">   -847.21156733 </i>
   </energy>
  </scstep>
  <scstep>
   <time name="dav">  101.62  102.50</time>
   <time name="total">  103.95  104.84</time>
   <energy>
    <i name="e_fr_energy">   -847.21176121 </i>
    <i name="e_wo_entrp">   -847.21138314 </i>
    <i name="e_0_energy">   -847.21157218 </i>
   </energy>
  </scstep>
  <scstep>
   <time name="dav">  102.48  103.37</time>
   <time name="total">  103.91  104.83</time>
   <energy>
    <i name="alphaZ">    176.01131809 </i>
    <i name="ewald">  36341.02950509 </i>
    <i name="hartreedc"> -47980.64726866 </i>
    <i name="XCdc">   1270.81299804 </i>
    <i name="pawpsdc">  37331.20451047 </i>
    <i name="pawaedc"> -37394.41589454 </i>
    <i name="eentropy">     -0.00037820 </i>
    <i name="bandstr">  -4202.43706458 </i>
    <i name="atom">  13611.23051297 </i>
    <i name="e_fr_energy">   -847.21176133 </i>
    <i name="e_wo_entrp">   -847.21138313 </i>
    <i name="e_0_energy">   -847.21157223 </i>
   </energy>
  </scstep>
  <structure>
   <crystal>
    <varray name="basis" >
     <v>      17.27103806       0.00000000       0.00000000 </v>
     <v>      -8.63551903      14.95715771       0.00000000 </v>
     <v>       0.00000000       0.00000000      15.00000000 </v>
    </varray>
    <i name="volume">   3874.88459904 </i>
    <varray name="rec_basis" >
     <v>       0.05790040       0.03342881      -0.00000000 </v>
     <v>       0.00000000       0.06685762       0.00000000 </v>
     <v>       0.00000000      -0.00000000       0.06666667 </v>
    </varray>
   </crystal>
   <varray name="positions" >
    <v>       0.99997706       0.00015966       0.50176559 </v>
    <v>       0.99982948       0.14292208       0.50004406 </v>
    <v>       0.00008452       0.28596941       0.49916851 </v>
    <v>       0.00040461       0.42888362       0.49919728 </v>
    <v>       0.00065014       0.57176110       0.50077014 </v>
    <v>       0.00123482       0.71487557       0.50258539 </v>
    <v>       0.00092129       0.85792794       0.50299624 </v>
    <v>       0.14327733       0.00074864       0.50189834 </v>
    <v>       0.14301375       0.14350480       0.50048842 </v>
    <v>       0.14280669       0.28615938       0.50011122 </v>
    <v>       0.14342829       0.42960910       0.49975249 </v>
    <v>       0.14367194       0.57195299       0.50001543 </v>
    <v>       0.14363924       0.71469661       0.50144797 </v>
    <v>       0.14338835       0.85776132       0.50227648 </v>
    <v>       0.28589864       0.00034142       0.50042333 </v>
    <v>       0.28595045       0.14314096       0.49968861 </v>
    <v>       0.28643732       0.28776211       0.50015216 </v>
    <v>       0.28567379       0.42948461       0.50213324 </v>
    <v>       0.28828117       0.57282417       0.50068153 </v>
    <v>       0.28648186       0.71552699       0.50012232 </v>
    <v>       0.28567964       0.85795379       0.50048304 </v>
    <v>       0.42879368       0.00013926       0.49877733 </v>
    <v>       0.42867485       0.14265595       0.49786803 </v>
    <v>       0.42722801       0.28243377       0.49493493 </v>
    <v>       0.42790562       0.85710836       0.49907840 </v>
    <v>       0.57111984       0.99971807       0.49798817 </v>
    <v>       0.57159681       0.14245678       0.49725949 </v>
    <v>       0.57256760       0.28588780       0.49612053 </v>
    <v>       0.57017514       0.85565000       0.49845431 </v>
    <v>       0.71337825       0.99906060       0.49854141 </v>
    <v>       0.71438029       0.14256332       0.49770345 </v>
    <v>       0.71465973       0.28558529       0.49742566 </v>
    <v>       0.71421478       0.42772938       0.49780657 </v>
    <v>       0.71791460       0.57343742       0.49854222 </v>
    <v>       0.71742631       0.71492585       0.49892406 </v>
    <v>       0.71231636       0.85608096       0.49925696 </v>
    <v>       0.85665639       0.99966349       0.50010891 </v>
    <v>       0.85680543       0.14255366       0.49879994 </v>
    <v>       0.85725751       0.28557336       0.49830318 </v>
    <v>       0.85775307       0.42864039       0.49893759 </v>
    <v>       0.85811089       0.57198214       0.50068201 </v>
    <v>       0.85927846       0.71525593       0.50180028 </v>
    <v>       0.85732030       0.85699720       0.50160362 </v>
    <v>       0.04772259       0.09554160       0.50080208 </v>
    <v>       0.04730840       0.23812113       0.49972475 </v>
    <v>       0.04779714       0.38137223       0.49921917 </v>
    <v>       0.04836174       0.52422296       0.49994218 </v>
    <v>       0.04842315       0.66710929       0.50180126 </v>
    <v>       0.04827280       0.81008520       0.50298536 </v>
    <v>       0.04800184       0.95288048       0.50245809 </v>
    <v>       0.19070620       0.09566917       0.50092675 </v>
    <v>       0.19056478       0.23878165       0.50012118 </v>
    <v>       0.19000193       0.38136231       0.50036554 </v>
    <v>       0.19186068       0.52510206       0.49985211 </v>
    <v>       0.19119903       0.66732252       0.50057242 </v>
    <v>       0.19082720       0.81012605       0.50153395 </v>
    <v>       0.19090098       0.95291869       0.50172819 </v>
    <v>       0.33357549       0.09564451       0.49927968 </v>
    <v>       0.33437919       0.23841188       0.49822194 </v>
    <v>       0.33106562       0.38071797       0.50252167 </v>
    <v>       0.33242815       0.52413040       0.50284071 </v>
    <v>       0.33743147       0.67107407       0.49994931 </v>
    <v>       0.33318019       0.81030065       0.49986675 </v>
    <v>       0.33340142       0.95286191       0.49990510 </v>
    <v>       0.47641243       0.09508462       0.49796327 </v>
    <v>       0.47577722       0.23766943       0.49599819 </v>
    <v>       0.47254059       0.80652243       0.49877459 </v>
    <v>       0.47612578       0.95245524       0.49853592 </v>
    <v>       0.61895514       0.09482722       0.49753394 </v>
    <v>       0.61953669       0.23777666       0.49683910 </v>
    <v>       0.62130260       0.37915893       0.49668533 </v>
    <v>       0.61887230       0.81102196       0.49873989 </v>
    <v>       0.61795829       0.95133265       0.49826356 </v>
    <v>       0.76160495       0.09478571       0.49830319 </v>
    <v>       0.76218317       0.23775017       0.49775908 </v>
    <v>       0.76249222       0.38079307       0.49803009 </v>
    <v>       0.76228647       0.52499963       0.49908180 </v>
    <v>       0.76399990       0.66745944       0.49987623 </v>
    <v>       0.76129837       0.80772439       0.50004018 </v>
    <v>       0.76106590       0.95163261       0.49932017 </v>
    <v>       0.90434392       0.09473985       0.49964625 </v>
    <v>       0.90467348       0.23791639       0.49869653 </v>
    <v>       0.90505308       0.38112080       0.49874757 </v>
    <v>       0.90543467       0.52420272       0.50022048 </v>
    <v>       0.90601180       0.66714031       0.50203151 </v>
    <v>       0.90562240       0.81010161       0.50246610 </v>
    <v>       0.90465481       0.95214733       0.50138239 </v>
    <v>       0.46338015       0.35485507       0.49127000 </v>
    <v>       0.40376115       0.41909038       0.50407237 </v>
    <v>       0.40531060       0.56061904       0.50584512 </v>
    <v>       0.64475418       0.67565038       0.49641729 </v>
    <v>       0.64523991       0.54001853       0.49663120 </v>
    <v>       0.58522787       0.41559377       0.49654469 </v>
    <v>       0.58001217       0.73834791       0.49881460 </v>
    <v>       0.46474895       0.53259552       0.37598401 </v>
    <v>       0.55649622       0.54996474       0.34250840 </v>
    <v>       0.42743837       0.71606393       0.49911876 </v>
    <v>       0.51892252       0.53338389       0.39533618 </v>
   </varray>
  </structure>
  <varray name="forces" >
   <v>      -0.00076349       0.00429040      -0.01133921 </v>
   <v>      -0.02324214      -0.00916625       0.00070352 </v>
   <v>       0.01370195      -0.00666702       0.00140464 </v>
   <v>       0.00446220      -0.00971135       0.00502770 </v>
   <v>      -0.01717904       0.01354431      -0.00286952 </v>
   <v>       0.00231442       0.01264314      -0.00114430 </v>
   <v>       0.01091456      -0.03389858      -0.00757676 </v>
   <v>       0.00504333       0.00856617       0.00021604 </v>
   <v>       0.01489529      -0.01592499       0.00921965 </v>
   <v>       0.00576924       0.00306759      -0.00278479 </v>
   <v>       0.00251365      -0.00299466       0.00208200 </v>
   <v>       0.01347334       0.01772710      -0.00006970 </v>
   <v>       0.00936287      -0.00713591      -0.00494356 </v>
   <v>      -0.00097910       0.00208092       0.00494589 </v>
   <v>      -0.01046843      -0.02253997      -0.00760178 </v>
   <v>       0.01153486       0.01005531       0.00665057 </v>
   <v>      -0.02174220      -0.00112184      -0.00045074 </v>
   <v>      -0.00963653      -0.01144196      -0.00398599 </v>
   <v>       0.01968703      -0.01334931       0.00907469 </v>
   <v>       0.02242814       0.01603807       0.00519762 </v>
   <v>      -0.02751195       0.00396964      -0.00166418 </v>
   <v>       0.00906667       0.01098892       0.00227124 </v>
   <v>      -0.03383043       0.03049046       0.00240057 </v>
   <v>      -0.00890223       0.01752700       0.01841092 </v>
   <v>       0.01515135      -0.05560667      -0.00453668 </v>
   <v>      -0.03511071       0.00540498       0.00357238 </v>
   <v>      -0.01363076      -0.03637937      -0.00008279 </v>
   <v>       0.02445864      -0.01861017      -0.00743962 </v>
   <v>       0.01954783       0.03364748      -0.00146181 </v>
   <v>       0.00782655      -0.03471811       0.00047396 </v>
   <v>       0.03524188       0.02017619       0.00227875 </v>
   <v>      -0.01059484       0.01322089       0.00123360 </v>
   <v>      -0.00974499      -0.00911191       0.00270362 </v>
   <v>       0.02279353      -0.01512113       0.00322289 </v>
   <v>      -0.00498301       0.01912160      -0.00158030 </v>
   <v>      -0.03331086      -0.00567921       0.00498468 </v>
   <v>       0.02230132       0.00307108       0.00019875 </v>
   <v>      -0.01515374       0.00291238       0.00098136 </v>
   <v>      -0.00383519      -0.01868465      -0.00081338 </v>
   <v>       0.01287552      -0.00295456       0.00408791 </v>
   <v>      -0.01388575       0.00292072      -0.00940114 </v>
   <v>      -0.00060269       0.00494508       0.00040999 </v>
   <v>      -0.00715205      -0.03833362      -0.00800713 </v>
   <v>       0.00066332       0.01290686       0.00215769 </v>
   <v>       0.01548800      -0.00610201      -0.00403660 </v>
   <v>      -0.00073697       0.01520626       0.00274665 </v>
   <v>       0.00363489      -0.00248534      -0.00035319 </v>
   <v>       0.01085519       0.00026999      -0.00482631 </v>
   <v>      -0.00975852      -0.00126047      -0.01398128 </v>
   <v>       0.01092891       0.01732884       0.00113829 </v>
   <v>      -0.03733269      -0.01605735       0.00036721 </v>
   <v>      -0.01420336       0.01933129      -0.00384125 </v>
   <v>       0.00544183       0.00479737       0.00095766 </v>
   <v>       0.00553344      -0.00251069       0.00562718 </v>
   <v>      -0.04424373      -0.01545755       0.00342123 </v>
   <v>       0.00819598       0.01020235       0.00283588 </v>
   <v>       0.00300069      -0.00455221      -0.00169091 </v>
   <v>       0.01020064       0.01978382      -0.00375836 </v>
   <v>       0.00189000      -0.00604831       0.00301045 </v>
   <v>      -0.00366382       0.01038835       0.00456745 </v>
   <v>       0.00062617       0.00440052      -0.00763965 </v>
   <v>      -0.00109908       0.01161159       0.00263659 </v>
   <v>       0.02365051      -0.00485439       0.00134930 </v>
   <v>      -0.01196149      -0.01389168       0.00350149 </v>
   <v>       0.05169872      -0.01181338      -0.00006547 </v>
   <v>       0.00865368      -0.01478224       0.00327846 </v>
   <v>      -0.03849018       0.01919573       0.00640861 </v>
   <v>       0.01503463       0.03330556       0.00265249 </v>
   <v>      -0.03682812      -0.00781266       0.00602918 </v>
   <v>      -0.01772244       0.04345336      -0.00640325 </v>
   <v>       0.01123385       0.01838498      -0.00610521 </v>
   <v>       0.00064441      -0.01820993       0.00203661 </v>
   <v>       0.02337792      -0.04425270      -0.00431882 </v>
   <v>      -0.01970375       0.01215276       0.00083181 </v>
   <v>       0.01738040       0.00152893       0.00169353 </v>
   <v>      -0.00792354      -0.02181681      -0.00539248 </v>
   <v>      -0.00125910       0.00270415      -0.00258288 </v>
   <v>      -0.01329355       0.00653153      -0.00093702 </v>
   <v>       0.01910698      -0.00175317      -0.00291426 </v>
   <v>      -0.01357878      -0.02260156      -0.00301595 </v>
   <v>       0.02857757      -0.00893650       0.00356118 </v>
   <v>      -0.01000507       0.00743159      -0.00194347 </v>
   <v>      -0.01148491       0.02357733       0.00252716 </v>
   <v>       0.01488486      -0.00747228       0.00067988 </v>
   <v>       0.00327132      -0.00573124      -0.01321413 </v>
   <v>      -0.00881428       0.02328594      -0.00743219 </v>
   <v>      -0.02406718       0.02327192      -0.00467302 </v>
   <v>      -0.00356957       0.00550840      -0.00401534 </v>
   <v>       0.00087588       0.00427470      -0.00336200 </v>
   <v>       0.00553414       0.00551837      -0.00314227 </v>
   <v>      -0.00043373      -0.00021373      -0.00115270 </v>
   <v>       0.00102223       0.00273701      -0.00301212 </v>
   <v>       0.00037364      -0.00012277      -0.00533875 </v>
   <v>       0.00392197       0.00853065       0.00180188 </v>
   <v>      -0.00173025       0.00408154       0.00453476 </v>
   <v>       0.00770506       0.00771450       0.01015408 </v>
   <v>      -0.00379531      -0.02362443       0.00204158 </v>
   <v>       0.01918856      -0.00431099       0.02260109 </v>
  </varray>
  <varray name="stress" >
   <v>       2.58628634      -1.51481116      -0.01913860 </v>
   <v>      -1.51481024      -0.55894970      -0.00828779 </v>
   <v>      -0.01913830      -0.00828778      -0.32074921 </v>
  </varray>
  <energy>
   <i name="e_fr_energy">   -854.99507284 </i>
   <i name="e_wo_entrp">   -854.99469464 </i>
   <i name="e_0_energy">   -854.99488374 </i>
  </energy>
  <time name="totalsc"> 1949.39 1966.29</time>
 </calculation>
 <calculation>
  <scstep>
   <time name="dav">   93.88   94.69</time>
   <time name="total">   96.19   97.02</time>
   <energy>
    <i name="alphaZ">    176.01131809 </i>
    <i name="ewald">  36341.01325531 </i>
    <i name="hartreedc"> -47980.60332412 </i>
    <i name="XCdc">   1270.81284222 </i>
    <i name="pawpsdc">  37331.51994094 </i>
    <i name="pawaedc"> -37394.73114572 </i>
    <i name="eentropy">     -0.00037549 </i>
    <i name="bandstr">  -4202.46516594 </i>
    <i name="atom">  13611.23051297 </i>
    <i name="e_fr_energy">   -847.21214175 </i>
    <i name="e_wo_entrp">   -847.21176626 </i>
    <i name="e_0_energy">   -847.21195400 </i>
   </energy>
  </scstep>
  <scstep>
   <time name="dav">  104.33  105.24</time>
   <time name="total">  106.66  107.59</time>
   <energy>
    <i name="e_fr_energy">   -847.21216279 </i>
    <i name="e_wo_entrp">   -847.21178721 </i>
    <i name="e_0_energy">   -847.21197500 </i>
   </energy>
  </scstep>
  <scstep>
   <time name="dav">  106.08  107.00</time>
   <time name="total">  108.36  109.30</time>
   <energy>
    <i name="e_fr_energy">   -847.21214812 </i>
    <i name="e_wo_entrp">   -847.21177253 </i>
    <i name="e_0_energy">   -847.21196033 </i>
   </energy>
  </scstep>
  <scstep>
   <time name="dav">   93.28   94.10</time>
   <time name="total">   95.60   96.44</time>
   <energy>
    <i name="e_fr_energy">   -847.21214103 </i>
    <i name="e_wo_entrp">   -847.21176534 </i>
    <i name="e_0_energy">   -847.21195319 </i>
   </energy>
  </scstep>
  <scstep>
   <time name="dav">   88.33   89.08</time>
   <time name="total">   89.78   90.55</time>
   <energy>
    <i name="alphaZ">    176.01131809 </i>
    <i name="ewald">  36341.01325531 </i>
    <i name="hartreedc"> -47980.59287919 </i>
    <i name="XCdc">   1270.81290729 </i>
    <i name="pawpsdc">  37331.03995012 </i>
    <i name="pawaedc"> -37394.25120966 </i>
    <i name="eentropy">     -0.00037575 </i>
    <i name="bandstr">  -4202.47562023 </i>
    <i name="atom">  13611.23051297 </i>
    <i name="e_fr_energy">   -847.21214106 </i>
    <i name="e_wo_entrp">   -847.21176531 </i>
    <i name="e_0_energy">   -847.21195319 </i>
   </energy>
  </scstep>
  <structure>
   <crystal>
    <varray name="basis" >
     <v>      17.27103806       0.00000000       0.00000000 </v>
     <v>      -8.63551903      14.95715771       0.00000000 </v>
     <v>       0.00000000       0.00000000      15.00000000 </v>
    </varray>
    <i name="volume">   3874.88459904 </i>
    <varray name="rec_basis" >
     <v>       0.05790040       0.03342881      -0.00000000 </v>
     <v>       0.00000000       0.06685762       0.00000000 </v>
     <v>       0.00000000      -0.00000000       0.06666667 </v>
    </varray>
   </crystal>
   <varray name="positions" >
    <v>       0.99997802       0.00016242       0.50175829 </v>
    <v>       0.99981354       0.14291616       0.50004451 </v>
    <v>       0.00009003       0.28596511       0.49916941 </v>
    <v>       0.00040397       0.42887736       0.49920051 </v>
    <v>       0.00064491       0.57176983       0.50076829 </v>
    <v>       0.00124019       0.71488373       0.50258465 </v>
    <v>       0.00091645       0.85790607       0.50299137 </v>
    <v>       0.14328291       0.00075416       0.50189848 </v>
    <v>       0.14301693       0.14349453       0.50049435 </v>
    <v>       0.14281091       0.28616135       0.50010943 </v>
    <v>       0.14342873       0.42960717       0.49975383 </v>
    <v>       0.14368519       0.57196443       0.50001538 </v>
    <v>       0.14364217       0.71469200       0.50144479 </v>
    <v>       0.14338848       0.85776266       0.50227966 </v>
    <v>       0.28588552       0.00032688       0.50041844 </v>
    <v>       0.28596014       0.14314745       0.49969289 </v>
    <v>       0.28642481       0.28776139       0.50015187 </v>
    <v>       0.28566471       0.42947723       0.50213068 </v>
    <v>       0.28828786       0.57281556       0.50068737 </v>
    <v>       0.28649956       0.71553734       0.50012566 </v>
    <v>       0.28566555       0.85795635       0.50048197 </v>
    <v>       0.42880229       0.00014635       0.49877879 </v>
    <v>       0.42866579       0.14267562       0.49786958 </v>
    <v>       0.42722868       0.28244508       0.49494677 </v>
    <v>       0.42789614       0.85707249       0.49907548 </v>
    <v>       0.57110197       0.99972156       0.49799047 </v>
    <v>       0.57157746       0.14243331       0.49725943 </v>
    <v>       0.57257527       0.28587580       0.49611575 </v>
    <v>       0.57019691       0.85567171       0.49845337 </v>
    <v>       0.71337142       0.99903820       0.49854172 </v>
    <v>       0.71440649       0.14257633       0.49770492 </v>
    <v>       0.71465807       0.28559381       0.49742646 </v>
    <v>       0.71420640       0.42772351       0.49780831 </v>
    <v>       0.71792246       0.57342767       0.49854430 </v>
    <v>       0.71742969       0.71493818       0.49892304 </v>
    <v>       0.71229592       0.85607730       0.49926017 </v>
    <v>       0.85666984       0.99966547       0.50010904 </v>
    <v>       0.85679790       0.14255554       0.49880057 </v>
    <v>       0.85724935       0.28556131       0.49830265 </v>
    <v>       0.85775931       0.42863849       0.49894022 </v>
    <v>       0.85810407       0.57198403       0.50067596 </v>
    <v>       0.85927971       0.71525912       0.50180054 </v>
    <v>       0.85730394       0.85697247       0.50159847 </v>
    <v>       0.04772712       0.09554992       0.50080347 </v>
    <v>       0.04731508       0.23811719       0.49972215 </v>
    <v>       0.04780163       0.38138204       0.49922094 </v>
    <v>       0.04836297       0.52422135       0.49994196 </v>
    <v>       0.04842930       0.66710947       0.50179816 </v>
    <v>       0.04826694       0.81008439       0.50297637 </v>
    <v>       0.04801354       0.95289166       0.50245882 </v>
    <v>       0.19068017       0.09565882       0.50092699 </v>
    <v>       0.19056308       0.23879412       0.50011871 </v>
    <v>       0.19000651       0.38136541       0.50036615 </v>
    <v>       0.19186296       0.52510044       0.49985573 </v>
    <v>       0.19116933       0.66731254       0.50057462 </v>
    <v>       0.19083507       0.81013263       0.50153577 </v>
    <v>       0.19090119       0.95291575       0.50172711 </v>
    <v>       0.33358757       0.09565727       0.49927726 </v>
    <v>       0.33437830       0.23840798       0.49822387 </v>
    <v>       0.33106692       0.38072467       0.50252461 </v>
    <v>       0.33242992       0.52413323       0.50283579 </v>
    <v>       0.33743460       0.67108156       0.49995101 </v>
    <v>       0.33319184       0.81029752       0.49986762 </v>
    <v>       0.33339026       0.95285295       0.49990736 </v>
    <v>       0.47643750       0.09507700       0.49796323 </v>
    <v>       0.47577729       0.23765990       0.49600030 </v>
    <v>       0.47252527       0.80653481       0.49877871 </v>
    <v>       0.47614492       0.95247672       0.49853762 </v>
    <v>       0.61893205       0.09482218       0.49753782 </v>
    <v>       0.61954080       0.23780469       0.49683498 </v>
    <v>       0.62131481       0.37917079       0.49668140 </v>
    <v>       0.61886679       0.81101021       0.49874120 </v>
    <v>       0.61795708       0.95130410       0.49826078 </v>
    <v>       0.76159786       0.09479355       0.49830372 </v>
    <v>       0.76219337       0.23775115       0.49776017 </v>
    <v>       0.76248075       0.38077900       0.49802662 </v>
    <v>       0.76228664       0.52500137       0.49908014 </v>
    <v>       0.76399458       0.66746365       0.49987563 </v>
    <v>       0.76130848       0.80772326       0.50003831 </v>
    <v>       0.76105103       0.95161803       0.49931823 </v>
    <v>       0.90435700       0.09473408       0.49964854 </v>
    <v>       0.90467029       0.23792118       0.49869528 </v>
    <v>       0.90505427       0.38113601       0.49874919 </v>
    <v>       0.90544057       0.52419790       0.50022092 </v>
    <v>       0.90601178       0.66713662       0.50202301 </v>
    <v>       0.90562499       0.81011663       0.50246132 </v>
    <v>       0.90464887       0.95216235       0.50137938 </v>
    <v>       0.46337994       0.35485863       0.49126741 </v>
    <v>       0.40376301       0.41909314       0.50407020 </v>
    <v>       0.40531547       0.56062260       0.50584310 </v>
    <v>       0.64475387       0.67565025       0.49641655 </v>
    <v>       0.64524136       0.54002030       0.49662926 </v>
    <v>       0.58522804       0.41559369       0.49654125 </v>
    <v>       0.58001711       0.73835341       0.49881576 </v>
    <v>       0.46474930       0.53259815       0.37598693 </v>
    <v>       0.55650301       0.54996972       0.34251493 </v>
    <v>       0.42742863       0.71604869       0.49912007 </v>
    <v>       0.51893185       0.53338111       0.39533618 </v>
   </varray>
  </structure>
  <varray name="forces" >
   <v>      -0.00139677       0.00634337      -0.00967154 </v>
   <v>      -0.00412904      -0.00324384       0.00073723 </v>
   <v>       0.01032267      -0.00072838       0.00102359 </v>
   <v>       0.00036249       0.00124388       0.00472332 </v>
   <v>      -0.00237749       0.00450911      -0.00276211 </v>
   <v>       0.00450117       0.00174270      -0.00281738 </v>
   <v>       0.00386921      -0.00471214      -0.00774660 </v>
   <v>      -0.00041258       0.00108074       0.00026340 </v>
   <v>      -0.00048989      -0.00222308       0.00783211 </v>
   <v>       0.00162399       0.00368798      -0.00277868 </v>
   <v>       0.00102945       0.00210922       0.00226099 </v>
   <v>       0.00341465       0.00242964       0.00035652 </v>
   <v>       0.00079557      -0.00180982      -0.00414751 </v>
   <v>      -0.00116579       0.00044450       0.00375952 </v>
   <v>      -0.00216881      -0.00790975      -0.00686720 </v>
   <v>      -0.00126108       0.00095047       0.00577465 </v>
   <v>      -0.01312831       0.00248451      -0.00022093 </v>
   <v>      -0.00382515      -0.00299995      -0.00337796 </v>
   <v>       0.00857569      -0.00597681       0.00768276 </v>
   <v>      -0.00039673       0.00355717       0.00516423 </v>
   <v>      -0.00521542      -0.00029928      -0.00103556 </v>
   <v>       0.00674234       0.00129343       0.00244283 </v>
   <v>      -0.00128183       0.00837107       0.00209707 </v>
   <v>       0.00043286       0.00812004       0.01689075 </v>
   <v>       0.00573761      -0.01237977      -0.00348730 </v>
   <v>      -0.00791652      -0.00036403       0.00342062 </v>
   <v>      -0.00329964      -0.00446142      -0.00014454 </v>
   <v>       0.00957061       0.00064201      -0.00714024 </v>
   <v>       0.00480153       0.00441890      -0.00104047 </v>
   <v>       0.00188518      -0.01997225      -0.00001683 </v>
   <v>       0.00396871       0.00750361       0.00231359 </v>
   <v>      -0.00446896       0.00462394       0.00052944 </v>
   <v>      -0.00056370      -0.00398715       0.00170924 </v>
   <v>       0.00662129      -0.00373330       0.00258451 </v>
   <v>      -0.00463604       0.00486317      -0.00175032 </v>
   <v>      -0.01173748      -0.00976964       0.00419579 </v>
   <v>       0.00597725      -0.00241931      -0.00005898 </v>
   <v>      -0.00453495      -0.00088314       0.00104389 </v>
   <v>      -0.00262022       0.00182865      -0.00057615 </v>
   <v>       0.00242062      -0.00217752       0.00354148 </v>
   <v>      -0.00082417      -0.00267708      -0.00890252 </v>
   <v>      -0.00400554       0.00518777      -0.00084313 </v>
   <v>      -0.00618515      -0.00567139      -0.00751734 </v>
   <v>      -0.00129322       0.00535174       0.00190907 </v>
   <v>       0.00496458      -0.00337947      -0.00344705 </v>
   <v>       0.00349401       0.00136249       0.00280171 </v>
   <v>       0.00234264       0.00161615      -0.00017827 </v>
   <v>       0.00123370       0.00667200      -0.00452827 </v>
   <v>      -0.00178640      -0.00273010      -0.01196796 </v>
   <v>       0.00744228      -0.00003833       0.00012747 </v>
   <v>      -0.00932734      -0.00358511       0.00092699 </v>
   <v>      -0.00520030       0.00595874      -0.00299011 </v>
   <v>       0.00098974       0.00062777       0.00051945 </v>
   <v>       0.00865650      -0.00028170       0.00557082 </v>
   <v>      -0.01015958       0.00104563       0.00281135 </v>
   <v>      -0.00078645       0.00343157       0.00256278 </v>
   <v>       0.00004467      -0.00437217      -0.00151223 </v>
   <v>      -0.00001310       0.00693660      -0.00290960 </v>
   <v>      -0.00325925       0.00092358       0.00416936 </v>
   <v>      -0.00419430       0.00421192       0.00346909 </v>
   <v>       0.00599469      -0.00062528      -0.00646906 </v>
   <v>       0.00070712       0.00098612       0.00334430 </v>
   <v>       0.00516783      -0.00483725       0.00108371 </v>
   <v>      -0.00840339      -0.00495548       0.00250099 </v>
   <v>       0.00845323      -0.00250709       0.00018356 </v>
   <v>      -0.00137521       0.00265566       0.00335675 </v>
   <v>      -0.00816841      -0.00062664       0.00504909 </v>
   <v>       0.00206750       0.00247814       0.00254758 </v>
   <v>      -0.00980731      -0.00027333       0.00563877 </v>
   <v>      -0.00491165       0.01023671      -0.00578935 </v>
   <v>       0.00226944       0.00272520      -0.00590815 </v>
   <v>      -0.00575691      -0.00900566       0.00209990 </v>
   <v>       0.00783565      -0.01382779      -0.00371209 </v>
   <v>      -0.00536470      -0.00163071       0.00102137 </v>
   <v>       0.00723272       0.00305197       0.00159932 </v>
   <v>      -0.00288619      -0.00776189      -0.00403336 </v>
   <v>       0.00366806      -0.00280842      -0.00226069 </v>
   <v>      -0.00427640       0.00305462      -0.00058257 </v>
   <v>       0.00097885       0.00225880      -0.00275794 </v>
   <v>      -0.00396739      -0.01360801      -0.00215664 </v>
   <v>       0.00383528      -0.00292774       0.00298641 </v>
   <v>      -0.00122683       0.00034971      -0.00151544 </v>
   <v>      -0.00339569       0.00404804       0.00261433 </v>
   <v>      -0.00036472      -0.00099331       0.00030659 </v>
   <v>       0.00100944       0.00062341      -0.01180983 </v>
   <v>      -0.00273221       0.00392157      -0.00718143 </v>
   <v>      -0.00867845       0.00140222      -0.00493794 </v>
   <v>      -0.00373332       0.00852321      -0.00358615 </v>
   <v>       0.00013216       0.00434590      -0.00312939 </v>
   <v>       0.00442941       0.00430913      -0.00340055 </v>
   <v>       0.00042391       0.00185284      -0.00103550 </v>
   <v>       0.00450952       0.00285872      -0.00269327 </v>
   <v>       0.00088735       0.00008794      -0.00533153 </v>
   <v>       0.00268709       0.00048676       0.00190158 </v>
   <v>       0.00623933       0.00428667       0.00657127 </v>
   <v>       0.01058846       0.00924485       0.00497189 </v>
   <v>       0.00036613      -0.00452173       0.00225732 </v>
   <v>       0.00780577      -0.00566601       0.02347737 </v>
  </varray>
  <varray name="stress" >
   <v>       2.59276945      -1.51160033      -0.02079266 </v>
   <v>      -1.51159941      -0.56468997      -0.00901381 </v>
   <v>      -0.02079236      -0.00901380      -0.31440024 </v>
  </varray>
  <energy>
   <i name="e_fr_energy">   -854.99543081 </i>
   <i name="e_wo_entrp">   -854.99505505 </i>
   <i name="e_0_energy">   -854.99524293 </i>
  </energy>
  <time name="totalsc">  632.62  638.14</time>
 </calculation>
 <calculation>
  <scstep>
   <time name="dav">   93.46   94.27</time>
[...]
       <r>   -13.9378     7.8565    57.5355 </r>
       <r>   -13.8339     8.4347    58.4124 </r>
       <r>   -13.7299     4.1893    58.8480 </r>
       <r>   -13.6259     6.3352    59.5066 </r>
       <r>   -13.5220     8.5155    60.3920 </r>
       <r>   -13.4180     9.3868    61.3679 </r>
       <r>   -13.3140     5.3245    61.9215 </r>
       <r>   -13.2101     8.4277    62.7978 </r>
       <r>   -13.1061     5.5273    63.3724 </r>
       <r>   -13.0021     4.9169    63.8837 </r>
       <r>   -12.8981     4.7969    64.3824 </r>
       <r>   -12.7942     6.9813    65.1082 </r>
       <r>   -12.6902     6.3862    65.7722 </r>
       <r>   -12.5862     8.9063    66.6982 </r>
       <r>   -12.4823     8.6825    67.6009 </r>
       <r>   -12.3783    12.3060    68.8804 </r>
       <r>   -12.2743     7.4995    69.6601 </r>
       <r>   -12.1703     7.1051    70.3988 </r>
       <r>   -12.0664     7.4662    71.1751 </r>
       <r>   -11.9624     7.5805    71.9632 </r>
       <r>   -11.8584    15.7265    73.5983 </r>
       <r>   -11.7545    12.2226    74.8691 </r>
       <r>   -11.6505     7.2745    75.6254 </r>
       <r>   -11.5465     8.2291    76.4810 </r>
       <r>   -11.4426     9.3037    77.4483 </r>
       <r>   -11.3386     9.1672    78.4015 </r>
       <r>   -11.2346     9.8472    79.4253 </r>
       <r>   -11.1306    11.8179    80.6540 </r>
       <r>   -11.0267     7.3139    81.4144 </r>
       <r>   -10.9227     6.6276    82.1035 </r>
       <r>   -10.8187     7.9815    82.9333 </r>
       <r>   -10.7148    11.2755    84.1056 </r>
       <r>   -10.6108    13.1261    85.4704 </r>
       <r>   -10.5068     9.2840    86.4356 </r>
       <r>   -10.4029     8.0637    87.2740 </r>
       <r>   -10.2989     7.3232    88.0354 </r>
       <r>   -10.1949     9.3256    89.0050 </r>
       <r>   -10.0909    10.9067    90.1390 </r>
       <r>    -9.9870    13.4543    91.5378 </r>
       <r>    -9.8830    11.4582    92.7291 </r>
       <r>    -9.7790    16.0798    94.4009 </r>
       <r>    -9.6751    16.8860    96.1566 </r>
       <r>    -9.5711    15.7387    97.7929 </r>
       <r>    -9.4671    17.1522    99.5763 </r>
       <r>    -9.3631    19.6188   101.6160 </r>
       <r>    -9.2592    17.0259   103.3862 </r>
       <r>    -9.1552    16.1126   105.0615 </r>
       <r>    -9.0512    24.2973   107.5877 </r>
       <r>    -8.9473    18.4958   109.5107 </r>
       <r>    -8.8433    20.5840   111.6508 </r>
       <r>    -8.7393    25.3987   114.2915 </r>
       <r>    -8.6354    24.0609   116.7931 </r>
       <r>    -8.5314    21.8127   119.0610 </r>
       <r>    -8.4274    22.0424   121.3528 </r>
       <r>    -8.3234    18.6558   123.2924 </r>
       <r>    -8.2195    19.0535   125.2734 </r>
       <r>    -8.1155    21.3030   127.4883 </r>
       <r>    -8.0115    22.7147   129.8499 </r>
       <r>    -7.9076    18.4278   131.7659 </r>
       <r>    -7.8036    11.8327   132.9961 </r>
       <r>    -7.6996    17.6638   134.8326 </r>
       <r>    -7.5957    21.7897   137.0981 </r>
       <r>    -7.4917    13.6924   138.5217 </r>
       <r>    -7.3877    11.9514   139.7643 </r>
       <r>    -7.2837    13.0201   141.1180 </r>
       <r>    -7.1798    16.7858   142.8632 </r>
       <r>    -7.0758    17.8218   144.7162 </r>
       <r>    -6.9718    15.6688   146.3453 </r>
       <r>    -6.8679    10.7619   147.4642 </r>
       <r>    -6.7639    11.2613   148.6350 </r>
       <r>    -6.6599    15.7594   150.2735 </r>
       <r>    -6.5559    18.3447   152.1808 </r>
       <r>    -6.4520     8.8783   153.1039 </r>
       <r>    -6.3480    11.3760   154.2867 </r>
       <r>    -6.2440    13.8570   155.7274 </r>
       <r>    -6.1401    16.2447   157.4164 </r>
       <r>    -6.0361    17.9472   159.2824 </r>
       <r>    -5.9321    15.3348   160.8767 </r>
       <r>    -5.8282    11.0122   162.0217 </r>
       <r>    -5.7242    11.1676   163.1828 </r>
       <r>    -5.6202    16.7133   164.9205 </r>
       <r>    -5.5162    15.6425   166.5468 </r>
       <r>    -5.4123     7.6317   167.3403 </r>
       <r>    -5.3083     5.3990   167.9016 </r>
       <r>    -5.2043     8.5251   168.7880 </r>
       <r>    -5.1004     6.7990   169.4949 </r>
       <r>    -4.9964     8.1952   170.3469 </r>
       <r>    -4.8924    11.9829   171.5928 </r>
       <r>    -4.7885    11.0981   172.7467 </r>
       <r>    -4.6845    12.0271   173.9971 </r>
       <r>    -4.5805     7.1967   174.7454 </r>
       <r>    -4.4765    11.7307   175.9650 </r>
       <r>    -4.3726    17.4982   177.7843 </r>
       <r>    -4.2686     6.3034   178.4397 </r>
       <r>    -4.1646     5.7865   179.0413 </r>
       <r>    -4.0607     3.9401   179.4510 </r>
       <r>    -3.9567     5.0633   179.9774 </r>
       <r>    -3.8527     6.4024   180.6431 </r>
       <r>    -3.7488     4.5065   181.1116 </r>
       <r>    -3.6448     3.6177   181.4877 </r>
       <r>    -3.5408     1.7093   181.6655 </r>
       <r>    -3.4368     4.1563   182.0976 </r>
       <r>    -3.3329     3.1831   182.4285 </r>
       <r>    -3.2289     4.1839   182.8635 </r>
       <r>    -3.1249     2.5740   183.1312 </r>
       <r>    -3.0210     0.8746   183.2221 </r>
       <r>    -2.9170     0.9878   183.3248 </r>
       <r>    -2.8130     2.2232   183.5560 </r>
       <r>    -2.7090     1.8107   183.7442 </r>
       <r>    -2.6051     0.3781   183.7835 </r>
       <r>    -2.5011     1.0865   183.8965 </r>
       <r>    -2.3971     0.9813   183.9985 </r>
       <r>    -2.2932     0.7465   184.0762 </r>
       <r>    -2.1892     1.2350   184.2046 </r>
       <r>    -2.0852     0.4586   184.2522 </r>
       <r>    -1.9813     1.6052   184.4191 </r>
       <r>    -1.8773     2.6013   184.6896 </r>
       <r>    -1.7733     1.0490   184.7987 </r>
       <r>    -1.6693     1.7216   184.9777 </r>
       <r>    -1.5654     3.1013   185.3001 </r>
       <r>    -1.4614     4.0226   185.7183 </r>
       <r>    -1.3574     4.6421   186.2010 </r>
       <r>    -1.2535     3.5952   186.5748 </r>
       <r>    -1.1495     5.8457   187.1826 </r>
       <r>    -1.0455     5.0276   187.7053 </r>
       <r>    -0.9416     0.9788   187.8070 </r>
       <r>    -0.8376     5.7429   188.4041 </r>
       <r>    -0.7336    12.7074   189.7253 </r>
       <r>    -0.6296     7.2875   190.4830 </r>
       <r>    -0.5257     9.4709   191.4677 </r>
       <r>    -0.4217    15.3012   193.0586 </r>
       <r>    -0.3177    10.7659   194.1779 </r>
       <r>    -0.2138     7.5479   194.9627 </r>
       <r>    -0.1098     3.6726   195.3445 </r>
       <r>    -0.0058     6.8153   196.0531 </r>
       <r>     0.0982     8.7682   196.9647 </r>
       <r>     0.2021     8.1328   197.8103 </r>
       <r>     0.3061    11.2153   198.9764 </r>
       <r>     0.4101     4.3392   199.4275 </r>
       <r>     0.5140     5.7163   200.0218 </r>
       <r>     0.6180     8.5399   200.9097 </r>
       <r>     0.7220     7.2965   201.6683 </r>
       <r>     0.8259     6.8480   202.3803 </r>
       <r>     0.9299     9.2812   203.3453 </r>
       <r>     1.0339     9.0224   204.2834 </r>
       <r>     1.1379    13.7979   205.7179 </r>
       <r>     1.2418     6.5725   206.4013 </r>
       <r>     1.3458     8.6557   207.3012 </r>
       <r>     1.4498    13.1104   208.6643 </r>
       <r>     1.5537    11.1063   209.8190 </r>
       <r>     1.6577    13.3278   211.2047 </r>
       <r>     1.7617    12.7545   212.5308 </r>
       <r>     1.8656    12.8848   213.8705 </r>
       <r>     1.9696    14.8537   215.4148 </r>
       <r>     2.0736    16.6609   217.1470 </r>
       <r>     2.1776    13.2467   218.5243 </r>
       <r>     2.2815    20.7499   220.6817 </r>
       <r>     2.3855    20.0918   222.7706 </r>
       <r>     2.4895    24.1041   225.2767 </r>
       <r>     2.5934    21.8526   227.5488 </r>
       <r>     2.6974    17.2192   229.3390 </r>
       <r>     2.8014    20.8018   231.5018 </r>
       <r>     2.9054    22.9487   233.8878 </r>
       <r>     3.0093    20.0526   235.9727 </r>
       <r>     3.1133    24.7518   238.5461 </r>
       <r>     3.2173    24.1975   241.0619 </r>
       <r>     3.3212    20.3589   243.1787 </r>
       <r>     3.4252    16.4108   244.8849 </r>
       <r>     3.5292    24.9559   247.4796 </r>
       <r>     3.6331    20.7497   249.6369 </r>
       <r>     3.7371    19.6500   251.6799 </r>
       <r>     3.8411    23.7431   254.1485 </r>
       <r>     3.9451    22.9188   256.5314 </r>
       <r>     4.0490    22.3534   258.8555 </r>
       <r>     4.1530    20.1651   260.9521 </r>
       <r>     4.2570    19.1179   262.9398 </r>
       <r>     4.3609    10.1172   263.9916 </r>
       <r>     4.4649     0.0804   264.0000 </r>
       <r>     4.5689     0.0000   264.0000 </r>
       <r>     4.6728     0.0000   264.0000 </r>
       <r>     4.7768     0.0000   264.0000 </r>
       <r>     4.8808     0.0000   264.0000 </r>
       <r>     4.9848     0.0000   264.0000 </r>
       <r>     5.0887     0.0000   264.0000 </r>
       <r>     5.1927     0.0000   264.0000 </r>
       <r>     5.2967     0.0000   264.0000 </r>
       <r>     5.4006     0.0000   264.0000 </r>
       <r>     5.5046     0.0000   264.0000 </r>
       <r>     5.6086     0.0000   264.0000 </r>
       <r>     5.7126     0.0000   264.0000 </r>
      </set>
     </set>
    </array>
   </total>
  </dos>
 </calculation>
 <structure name="finalpos" >
  <crystal>
   <varray name="basis" >
    <v>      17.27103806       0.00000000       0.00000000 </v>
    <v>      -8.63551903      14.95715771       0.00000000 </v>
    <v>       0.00000000       0.00000000      15.00000000 </v>
   </varray>
   <i name="volume">   3874.88459904 </i>
   <varray name="rec_basis" >
    <v>       0.05790040       0.03342881      -0.00000000 </v>
    <v>       0.00000000       0.06685762       0.00000000 </v>
    <v>       0.00000000      -0.00000000       0.06666667 </v>
   </varray>
  </crystal>
  <varray name="positions" >
   <v>       0.99987187       0.00013338       0.50060976 </v>
   <v>       0.99968132       0.14286632       0.50003682 </v>
   <v>      -0.00000612       0.28592036       0.49974978 </v>
   <v>       0.00030690       0.42885334       0.49973729 </v>
   <v>       0.00055300       0.57175411       0.50015256 </v>
   <v>       0.00113046       0.71485269       0.50068680 </v>
   <v>       0.00080160       0.85787121       0.50089563 </v>
   <v>       0.14316807       0.00072269       0.50117192 </v>
   <v>       0.14289877       0.14347124       0.50059015 </v>
   <v>       0.14270406       0.28614143       0.50057039 </v>
   <v>       0.14334268       0.42959281       0.50049646 </v>
   <v>       0.14361702       0.57193944       0.50054958 </v>
   <v>       0.14353527       0.71465771       0.50102613 </v>
   <v>       0.14327441       0.85772770       0.50127429 </v>
   <v>       0.28576973       0.00029352       0.50043014 </v>
   <v>       0.28585019       0.14313812       0.50009636 </v>
   <v>       0.28630938       0.28775152       0.50058675 </v>
   <v>       0.28558353       0.42946479       0.50217816 </v>
   <v>       0.28821545       0.57277290       0.50124422 </v>
   <v>       0.28639968       0.71549603       0.50077205 </v>
   <v>       0.28556065       0.85791592       0.50066573 </v>
   <v>       0.42869923       0.00010933       0.49930476 </v>
   <v>       0.42857773       0.14267414       0.49830976 </v>
   <v>       0.42714527       0.28247550       0.49597891 </v>
   <v>       0.42778108       0.85699918       0.49983828 </v>
   <v>       0.57098263       0.99967210       0.49858716 </v>
   <v>       0.57146242       0.14239773       0.49765993 </v>
   <v>       0.57249157       0.28585973       0.49584878 </v>
   <v>       0.57005286       0.85559143       0.49913994 </v>
   <v>       0.71322362       0.99893339       0.49871883 </v>
   <v>       0.71429827       0.14254011       0.49803905 </v>
   <v>       0.71455171       0.28555442       0.49738205 </v>
   <v>       0.71410891       0.42768060       0.49670704 </v>
   <v>       0.71782102       0.57337151       0.49746367 </v>
   <v>       0.71729943       0.71489127       0.49811544 </v>
   <v>       0.71211997       0.85598403       0.49905961 </v>
   <v>       0.85653644       0.99960144       0.49951518 </v>
   <v>       0.85665200       0.14250008       0.49900269 </v>
   <v>       0.85715266       0.28553037       0.49867354 </v>
   <v>       0.85765583       0.42860735       0.49866473 </v>
   <v>       0.85800443       0.57194853       0.49892298 </v>
   <v>       0.85917290       0.71524008       0.49951149 </v>
   <v>       0.85717035       0.85692526       0.49987568 </v>
   <v>       0.04761022       0.09551905       0.50047267 </v>
   <v>       0.04720809       0.23806947       0.50012534 </v>
   <v>       0.04770584       0.38134726       0.49996022 </v>
   <v>       0.04828491       0.52421032       0.50019584 </v>
   <v>       0.04833126       0.66709311       0.50073550 </v>
   <v>       0.04814495       0.81004432       0.50110256 </v>
   <v>       0.04790958       0.95285721       0.50105439 </v>
   <v>       0.19055134       0.09562699       0.50087341 </v>
   <v>       0.19045197       0.23878223       0.50051813 </v>
   <v>       0.18991266       0.38134823       0.50089221 </v>
   <v>       0.19180167       0.52507690       0.50062194 </v>
   <v>       0.19106243       0.66727977       0.50087641 </v>
   <v>       0.19073599       0.81010678       0.50111880 </v>
   <v>       0.19078279       0.95287690       0.50111759 </v>
   <v>       0.33349367       0.09565340       0.49963424 </v>
   <v>       0.33427247       0.23840419       0.49894986 </v>
   <v>       0.33098007       0.38072824       0.50246811 </v>
   <v>       0.33237966       0.52411180       0.50273472 </v>
   <v>       0.33732961       0.67103141       0.50070071 </v>
   <v>       0.33308701       0.81024130       0.50045459 </v>
   <v>       0.33327233       0.95281404       0.50018197 </v>
   <v>       0.47634031       0.09504634       0.49839850 </v>
   <v>       0.47567770       0.23766346       0.49643493 </v>
   <v>       0.47239440       0.80646889       0.49966175 </v>
   <v>       0.47603535       0.95242214       0.49921803 </v>
   <v>       0.61881060       0.09478952       0.49800541 </v>
   <v>       0.61943454       0.23778103       0.49690111 </v>
   <v>       0.62122680       0.37915597       0.49533820 </v>
   <v>       0.61870030       0.81091218       0.49918876 </v>
   <v>       0.61781871       0.95121064       0.49874135 </v>
   <v>       0.76144833       0.09471874       0.49853811 </v>
   <v>       0.76210265       0.23771371       0.49800069 </v>
   <v>       0.76237228       0.38073302       0.49758645 </v>
   <v>       0.76219737       0.52495764       0.49760771 </v>
   <v>       0.76387080       0.66741441       0.49835903 </v>
   <v>       0.76117291       0.80766918       0.49906279 </v>
   <v>       0.76089395       0.95151625       0.49905931 </v>
   <v>       0.90422336       0.09468089       0.49952360 </v>
   <v>       0.90455843       0.23787830       0.49912177 </v>
   <v>       0.90495443       0.38111413       0.49904728 </v>
   <v>       0.90534906       0.52417332       0.49928536 </v>
   <v>       0.90590100       0.66710682       0.49978744 </v>
   <v>       0.90551037       0.81009584       0.50017625 </v>
   <v>       0.90452836       0.95211967       0.50010340 </v>
   <v>       0.46329296       0.35491451       0.49267054 </v>
   <v>       0.40369349       0.41913755       0.50351949 </v>
   <v>       0.40529585       0.56062823       0.50524083 </v>
   <v>       0.64459836       0.67562659       0.49655132 </v>
   <v>       0.64513372       0.53994439       0.49643023 </v>
   <v>       0.58514119       0.41556730       0.49399875 </v>
   <v>       0.57988234       0.73825810       0.49951984 </v>
   <v>       0.46834100       0.53419843       0.37666114 </v>
   <v>       0.56119999       0.55358947       0.34452509 </v>
   <v>       0.42731913       0.71598881       0.49998645 </v>
   <v>       0.52091576       0.53152511       0.39533618 </v>
  </varray>
  <varray name="selective"  type="logical" >
   <v type="logical" >  T  T  T </v>
   <v type="logical" >  T  T  T </v>
   <v type="logical" >  T  T  T </v>
   <v type="logical" >  T  T  T </v>
   <v type="logical" >  T  T  T </v>
   <v type="logical" >  T  T  T </v>
   <v type="logical" >  T  T  T </v>
   <v type="logical" >  T  T  T </v>
   <v type="logical" >  T  T  T </v>
   <v type="logical" >  T  T  T </v>
   <v type="logical" >  T  T  T </v>
   <v type="logical" >  T  T  T </v>
   <v type="logical" >  T  T  T </v>
   <v type="logical" >  T  T  T </v>
   <v type="logical" >  T  T  T </v>
   <v type="logical" >  T  T  T </v>
   <v type="logical" >  T  T  T </v>
   <v type="logical" >  T  T  T </v>
   <v type="logical" >  T  T  T </v>
   <v type="logical" >  T  T  T </v>
   <v type="logical" >  T  T  T </v>
   <v type="logical" >  T  T  T </v>
   <v type="logical" >  T  T  T </v>
   <v type="logical" >  T  T  T </v>
   <v type="logical" >  T  T  T </v>
   <v type="logical" >  T  T  T </v>
   <v type="logical" >  T  T  T </v>
   <v type="logical" >  T  T  T </v>
   <v type="logical" >  T  T  T </v>
   <v type="logical" >  T  T  T </v>
   <v type="logical" >  T  T  T </v>
   <v type="logical" >  T  T  T </v>
   <v type="logical" >  T  T  T </v>
   <v type="logical" >  T  T  T </v>
   <v type="logical" >  T  T  T </v>
   <v type="logical" >  T  T  T </v>
   <v type="logical" >  T  T  T </v>
   <v type="logical" >  T  T  T </v>
   <v type="logical" >  T  T  T </v>
   <v type="logical" >  T  T  T </v>
   <v type="logical" >  T  T  T </v>
   <v type="logical" >  T  T  T </v>
   <v type="logical" >  T  T  T </v>
   <v type="logical" >  T  T  T </v>
   <v type="logical" >  T  T  T </v>
   <v type="logical" >  T  T  T </v>
   <v type="logical" >  T  T  T </v>
   <v type="logical" >  T  T  T </v>
   <v type="logical" >  T  T  T </v>
   <v type="logical" >  T  T  T </v>
   <v type="logical" >  T  T  T </v>
   <v type="logical" >  T  T  T </v>
   <v type="logical" >  T  T  T </v>
   <v type="logical" >  T  T  T </v>
   <v type="logical" >  T  T  T </v>
   <v type="logical" >  T  T  T </v>
   <v type="logical" >  T  T  T </v>
   <v type="logical" >  T  T  T </v>
   <v type="logical" >  T  T  T </v>
   <v type="logical" >  T  T  T </v>
   <v type="logical" >  T  T  T </v>
   <v type="logical" >  T  T  T </v>
   <v type="logical" >  T  T  T </v>
   <v type="logical" >  T  T  T </v>
   <v type="logical" >  T  T  T </v>
   <v type="logical" >  T  T  T </v>
   <v type="logical" >  T  T  T </v>
   <v type="logical" >  T  T  T </v>
   <v type="logical" >  T  T  T </v>
   <v type="logical" >  T  T  T </v>
   <v type="logical" >  T  T  T </v>
   <v type="logical" >  T  T  T </v>
   <v type="logical" >  T  T  T </v>
   <v type="logical" >  T  T  T </v>
   <v type="logical" >  T  T  T </v>
   <v type="logical" >  T  T  T </v>
   <v type="logical" >  T  T  T </v>
   <v type="logical" >  T  T  T </v>
   <v type="logical" >  T  T  T </v>
   <v type="logical" >  T  T  T </v>
   <v type="logical" >  T  T  T </v>
   <v type="logical" >  T  T  T </v>
   <v type="logical" >  T  T  T </v>
   <v type="logical" >  T  T  T </v>
   <v type="logical" >  T  T  T </v>
   <v type="logical" >  T  T  T </v>
   <v type="logical" >  T  T  T </v>
   <v type="logical" >  T  T  T </v>
   <v type="logical" >  T  T  T </v>
   <v type="logical" >  T  T  T </v>
   <v type="logical" >  T  T  T </v>
   <v type="logical" >  T  T  T </v>
   <v type="logical" >  T  T  T </v>
   <v type="logical" >  T  T  T </v>
   <v type="logical" >  T  T  T </v>
   <v type="logical" >  T  T  T </v>
   <v type="logical" >  T  T  T </v>
   <v type="logical" >  T  T  F </v>
  </varray>
  <nose>
   <v>      -3.00000000       0.00000000       0.00010000       0.00010000 </v>
  </nose>
 </structure>
</modeling>
