unknown system                          
            1
    17.271038    0.000000    0.000000
    -8.635519   14.957158    0.000000
     0.000000    0.000000   15.000000
   C    H    N    O 
    87     9     1     1
Direct configuration=     1
   0.99997706  0.00015966  0.50176559
   0.99982948  0.14292208  0.50004406
   0.00008452  0.28596941  0.49916851
   0.00040461  0.42888362  0.49919728
   0.00065014  0.57176110  0.50077014
   0.00123482  0.71487557  0.50258539
   0.00092129  0.85792794  0.50299624
   0.14327733  0.00074864  0.50189834
   0.14301375  0.14350480  0.50048842
   0.14280669  0.28615938  0.50011122
   0.14342829  0.42960910  0.49975249
   0.14367194  0.57195299  0.50001543
   0.14363924  0.71469661  0.50144797
   0.14338835  0.85776132  0.50227648
   0.28589864  0.00034142  0.50042333
   0.28595045  0.14314096  0.49968861
   0.28643732  0.28776211  0.50015216
   0.28567379  0.42948461  0.50213324
   0.28828117  0.57282417  0.50068153
   0.28648186  0.71552699  0.50012232
   0.28567964  0.85795379  0.50048304
   0.42879368  0.00013926  0.49877733
   0.42867485  0.14265595  0.49786803
   0.42722801  0.28243377  0.49493493
   0.42790562  0.85710836  0.49907840
   0.57111984  0.99971807  0.49798817
   0.57159681  0.14245678  0.49725949
   0.57256760  0.28588780  0.49612053
   0.57017514  0.85565000  0.49845431
   0.71337825  0.99906060  0.49854141
   0.71438029  0.14256332  0.49770345
   0.71465973  0.28558529  0.49742566
   0.71421478  0.42772938  0.49780657
   0.71791460  0.57343742  0.49854222
   0.71742631  0.71492585  0.49892406
   0.71231636  0.85608096  0.49925696
   0.85665639  0.99966349  0.50010891
   0.85680543  0.14255366  0.49879994
   0.85725751  0.28557336  0.49830318
   0.85775307  0.42864039  0.49893759
   0.85811089  0.57198214  0.50068201
   0.85927846  0.71525593  0.50180028
   0.85732030  0.85699720  0.50160362
   0.04772259  0.09554160  0.50080208
   0.04730840  0.23812113  0.49972475
   0.04779714  0.38137223  0.49921917
   0.04836174  0.52422296  0.49994218
   0.04842315  0.66710929  0.50180126
   0.04827280  0.81008520  0.50298536
   0.04800184  0.95288048  0.50245809
   0.19070620  0.09566917  0.50092675
   0.19056478  0.23878165  0.50012118
   0.19000193  0.38136231  0.50036554
   0.19186068  0.52510206  0.49985211
   0.19119903  0.66732252  0.50057242
   0.19082720  0.81012605  0.50153395
   0.19090098  0.95291869  0.50172819
   0.33357549  0.09564451  0.49927968
   0.33437919  0.23841188  0.49822194
   0.33106562  0.38071797  0.50252167
   0.33242815  0.52413040  0.50284071
   0.33743147  0.67107407  0.49994931
   0.33318019  0.81030065  0.49986675
   0.33340142  0.95286191  0.49990510
   0.47641243  0.09508462  0.49796327
   0.47577722  0.23766943  0.49599819
   0.47254059  0.80652243  0.49877459
   0.47612578  0.95245524  0.49853592
   0.61895514  0.09482722  0.49753394
   0.61953669  0.23777666  0.49683910
   0.62130260  0.37915893  0.49668533
   0.61887230  0.81102196  0.49873989
   0.61795829  0.95133265  0.49826356
   0.76160495  0.09478571  0.49830319
   0.76218317  0.23775017  0.49775908
   0.76249222  0.38079307  0.49803009
   0.76228647  0.52499963  0.49908180
   0.76399990  0.66745944  0.49987623
   0.76129837  0.80772439  0.50004018
   0.76106590  0.95163261  0.49932017
   0.90434392  0.09473985  0.49964625
   0.90467348  0.23791639  0.49869653
   0.90505308  0.38112080  0.49874757
   0.90543467  0.52420272  0.50022048
   0.90601180  0.66714031  0.50203151
   0.90562240  0.81010161  0.50246610
   0.90465481  0.95214733  0.50138239
   0.46338015  0.35485507  0.49127000
   0.40376115  0.41909038  0.50407237
   0.40531060  0.56061904  0.50584512
   0.64475418  0.67565038  0.49641729
   0.64523991  0.54001853  0.49663120
   0.58522787  0.41559377  0.49654469
   0.58001217  0.73834791  0.49881460
   0.46474895  0.53259552  0.37598401
   0.55649622  0.54996474  0.34250840
   0.42743837  0.71606393  0.49911876
   0.51892252  0.53338389  0.39533618
Direct configuration=     2
   0.99997802  0.00016242  0.50175829
   0.99981354  0.14291616  0.50004451
   0.00009003  0.28596511  0.49916941
   0.00040397  0.42887736  0.49920051
   0.00064491  0.57176983  0.50076829
   0.00124019  0.71488373  0.50258465
   0.00091645  0.85790607  0.50299137
   0.14328291  0.00075416  0.50189848
   0.14301693  0.14349453  0.50049435
   0.14281091  0.28616135  0.50010943
   0.14342873  0.42960717  0.49975383
   0.14368519  0.57196443  0.50001538
   0.14364217  0.71469200  0.50144479
   0.14338848  0.85776266  0.50227966
   0.28588552  0.00032688  0.50041844
   0.28596014  0.14314745  0.49969289
   0.28642481  0.28776139  0.50015187
   0.28566471  0.42947723  0.50213068
   0.28828786  0.57281556  0.50068737
   0.28649956  0.71553734  0.50012566
   0.28566555  0.85795635  0.50048197
   0.42880229  0.00014635  0.49877879
   0.42866579  0.14267562  0.49786958
   0.42722868  0.28244508  0.49494677
   0.42789614  0.85707249  0.49907548
   0.57110197  0.99972156  0.49799047
   0.57157746  0.14243331  0.49725943
   0.57257527  0.28587580  0.49611575
   0.57019691  0.85567171  0.49845337
   0.71337142  0.99903820  0.49854172
   0.71440649  0.14257633  0.49770492
   0.71465807  0.28559381  0.49742646
   0.71420640  0.42772351  0.49780831
   0.71792246  0.57342767  0.49854430
   0.71742969  0.71493818  0.49892304
   0.71229592  0.85607730  0.49926017
   0.85666984  0.99966547  0.50010904
   0.85679790  0.14255554  0.49880057
   0.85724935  0.28556131  0.49830265
   0.85775931  0.42863849  0.49894022
   0.85810407  0.57198403  0.50067596
   0.85927971  0.71525912  0.50180054
   0.85730394  0.85697247  0.50159847
   0.04772712  0.09554992  0.50080347
   0.04731508  0.23811719  0.49972215
   0.04780163  0.38138204  0.49922094
   0.04836297  0.52422135  0.49994196
   0.04842930  0.66710947  0.50179816
   0.04826694  0.81008439  0.50297637
   0.04801354  0.95289166  0.50245882
   0.19068017  0.09565882  0.50092699
   0.19056308  0.23879412  0.50011871
   0.19000651  0.38136541  0.50036615
   0.19186296  0.52510044  0.49985573
   0.19116933  0.66731254  0.50057462
   0.19083507  0.81013263  0.50153577
   0.19090119  0.95291575  0.50172711
   0.33358757  0.09565727  0.49927726
   0.33437830  0.23840798  0.49822387
   0.33106692  0.38072467  0.50252461
   0.33242992  0.52413323  0.50283579
   0.33743460  0.67108156  0.49995101
   0.33319184  0.81029752  0.49986762
   0.33339026  0.95285295  0.49990736
   0.47643750  0.09507700  0.49796323
   0.47577729  0.23765990  0.49600030
   0.47252527  0.80653481  0.49877871
   0.47614492  0.95247672  0.49853762
   0.61893205  0.09482218  0.49753782
   0.61954080  0.23780469  0.49683498
   0.62131481  0.37917079  0.49668140
   0.61886679  0.81101021  0.49874120
   0.61795708  0.95130410  0.49826078
   0.76159786  0.09479355  0.49830372
   0.76219337  0.23775115  0.49776017
   0.76248075  0.38077900  0.49802662
   0.76228664  0.52500137  0.49908014
   0.76399458  0.66746365  0.49987563
   0.76130848  0.80772326  0.50003831
   0.76105103  0.95161803  0.49931823
   0.90435700  0.09473408  0.49964854
   0.90467029  0.23792118  0.49869528
   0.90505427  0.38113601  0.49874919
   0.90544057  0.52419790  0.50022092
   0.90601178  0.66713662  0.50202301
   0.90562499  0.81011663  0.50246132
   0.90464887  0.95216235  0.50137938
   0.46337994  0.35485863  0.49126741
   0.40376301  0.41909314  0.50407020
   0.40531547  0.56062260  0.50584310
   0.64475387  0.67565025  0.49641655
   0.64524136  0.54002030  0.49662926
   0.58522804  0.41559369  0.49654125
   0.58001711  0.73835341  0.49881576
   0.46474930  0.53259815  0.37598693
   0.55650301  0.54996972  0.34251493
   0.42742863  0.71604869  0.49912007
   0.51893185  0.53338111  0.39533618
Direct configuration=     3
   0.99997836  0.00016340  0.50175572
   0.99980791  0.14291407  0.50004467
   0.00009197  0.28596359  0.49916973
   0.00040375  0.42887514  0.49920165
   0.00064306  0.57177292  0.50076764
   0.00124209  0.71488661  0.50258439
   0.00091475  0.85789835  0.50298965
   0.14328488  0.00075611  0.50189853
   0.14301806  0.14349090  0.50049645
   0.14281239  0.28616205  0.50010880
   0.14342889  0.42960648  0.49975431
   0.14368987  0.57196847  0.50001537
   0.14364321  0.71469038  0.50144367
   0.14338852  0.85776314  0.50228079
   0.28588088  0.00032174  0.50041671
   0.28596356  0.14314974  0.49969440
   0.28642039  0.28776113  0.50015176
   0.28566151  0.42947462  0.50212977
   0.28829022  0.57281251  0.50068943
   0.28650582  0.71554099  0.50012684
   0.28566057  0.85795726  0.50048159
   0.42880533  0.00014885  0.49877931
   0.42866259  0.14268256  0.49787012
   0.42722893  0.28244907  0.49495095
   0.42789280  0.85705982  0.49907445
   0.57109566  0.99972279  0.49799128
   0.57157062  0.14242502  0.49725942
   0.57257797  0.28587156  0.49611405
   0.57020460  0.85567937  0.49845304
   0.71336901  0.99903029  0.49854182
   0.71441574  0.14258093  0.49770543
   0.71465749  0.28559683  0.49742674
   0.71420344  0.42772143  0.49780892
   0.71792524  0.57342422  0.49854503
   0.71743089  0.71494254  0.49892268
   0.71228869  0.85607600  0.49926130
   0.85667459  0.99966617  0.50010908
   0.85679524  0.14255620  0.49880079
   0.85724646  0.28555705  0.49830247
   0.85776152  0.42863782  0.49894115
   0.85810167  0.57198469  0.50067383
   0.85928016  0.71526025  0.50180063
   0.85729816  0.85696373  0.50159665
   0.04772872  0.09555286  0.50080396
   0.04731745  0.23811580  0.49972123
   0.04780322  0.38138550  0.49922156
   0.04836341  0.52422079  0.49994188
   0.04843147  0.66710953  0.50179706
   0.04826487  0.81008410  0.50297319
   0.04801767  0.95289561  0.50245908
   0.19067097  0.09565516  0.50092707
   0.19056248  0.23879852  0.50011783
   0.19000814  0.38136650  0.50036637
   0.19186377  0.52509987  0.49985701
   0.19115883  0.66730902  0.50057540
   0.19083785  0.81013496  0.50153642
   0.19090126  0.95291472  0.50172672
   0.33359184  0.09566178  0.49927641
   0.33437798  0.23840660  0.49822456
   0.33106738  0.38072704  0.50252565
   0.33243055  0.52413424  0.50283406
   0.33743571  0.67108421  0.49995161
   0.33319595  0.81029641  0.49986793
   0.33338632  0.95284978  0.49990815
   0.47644636  0.09507430  0.49796322
   0.47577731  0.23765653  0.49600104
   0.47251986  0.80653919  0.49878017
   0.47615168  0.95248431  0.49853823
   0.61892389  0.09482040  0.49753919
   0.61954226  0.23781460  0.49683353
   0.62131912  0.37917498  0.49668002
   0.61886484  0.81100606  0.49874166
   0.61795665  0.95129402  0.49825980
   0.76159536  0.09479632  0.49830391
   0.76219698  0.23775150  0.49776055
   0.76247670  0.38077402  0.49802540
   0.76228670  0.52500199  0.49907956
   0.76399270  0.66746514  0.49987542
   0.76131205  0.80772286  0.50003764
   0.76104577  0.95161287  0.49931755
   0.90436163  0.09473205  0.49964935
   0.90466916  0.23792288  0.49869484
   0.90505469  0.38114138  0.49874977
   0.90544266  0.52419620  0.50022108
   0.90601177  0.66713531  0.50202001
   0.90562590  0.81012194  0.50245963
   0.90464678  0.95216765  0.50137832
   0.46337986  0.35485988  0.49126650
   0.40376367  0.41909411  0.50406944
   0.40531719  0.56062386  0.50584239
   0.64475376  0.67565020  0.49641629
   0.64524188  0.54002092  0.49662857
   0.58522810  0.41559366  0.49654004
   0.58001886  0.73835536  0.49881617
   0.46474942  0.53259908  0.37598796
   0.55650541  0.54997148  0.34251724
   0.42742519  0.71604331  0.49912054
   0.51893515  0.53338012  0.39533618
Direct configuration=     4
   0.99997990  0.00016853  0.50174865
   0.99980737  0.14291270  0.50004523
   0.00009856  0.28596408  0.49917044
   0.00040478  0.42887797  0.49920518
   0.00064464  0.57177478  0.50076556
   0.00124509  0.71488602  0.50258197
   0.00091697  0.85789990  0.50298373
   0.14328359  0.00075563  0.50189873
   0.14301583  0.14349170  0.50050215
   0.14281429  0.28616501  0.50010668
   0.14343057  0.42960898  0.49975604
   0.14369023  0.57196761  0.50001570
   0.14364223  0.71468999  0.50144065
   0.14338770  0.85776315  0.50228344
   0.28587903  0.00031832  0.50041161
   0.28596028  0.14314882  0.49969863
   0.28641429  0.28776368  0.50015163
   0.28565949  0.42947383  0.50212730
   0.28829254  0.57280924  0.50069502
   0.28650223  0.71554148  0.50013075
   0.28566007  0.85795625  0.50048090
   0.42880893  0.00014808  0.49878119
   0.42866792  0.14268500  0.49787166
   0.42723292  0.28245362  0.49496352
   0.42789418  0.85705806  0.49907197
   0.57109409  0.99972151  0.49799384
   0.57157126  0.14242740  0.49725928
   0.57258396  0.28587554  0.49610867
   0.57020461  0.85567751  0.49845231
   0.71336309  0.99901778  0.49854172
   0.71441529  0.14258441  0.49770719
   0.71465647  0.28559875  0.49742701
   0.71420344  0.42771929  0.49781005
   0.71792677  0.57342341  0.49854688
   0.71742847  0.71494377  0.49892132
   0.71228017  0.85606784  0.49926435
   0.85667453  0.99966337  0.50010899
   0.85679320  0.14255480  0.49880159
   0.85724744  0.28556210  0.49830206
   0.85776070  0.42863631  0.49894374
   0.85810157  0.57198166  0.50066715
   0.85927900  0.71526424  0.50179978
   0.85729497  0.85696518  0.50159102
   0.04772898  0.09555566  0.50080536
   0.04731810  0.23811369  0.49971871
   0.04780549  0.38138412  0.49922369
   0.04836575  0.52422274  0.49994176
   0.04843394  0.66711575  0.50179367
   0.04826375  0.81008176  0.50296444
   0.04802045  0.95289247  0.50245900
   0.19066880  0.09565461  0.50092786
   0.19056148  0.23880066  0.50011569
   0.19000796  0.38136623  0.50036668
   0.19187002  0.52510003  0.49986122
   0.19115918  0.66731272  0.50057742
   0.19083666  0.81013633  0.50153832
   0.19089917  0.95291143  0.50172560
   0.33359176  0.09566472  0.49927433
   0.33437604  0.23840855  0.49822791
   0.33106563  0.38072915  0.50252809
   0.33243467  0.52413284  0.50282934
   0.33743590  0.67108306  0.49995426
   0.33319470  0.81029283  0.49986870
   0.33338027  0.95284761  0.49990987
   0.47644513  0.09507401  0.49796339
   0.47577745  0.23766171  0.49600359
   0.47251720  0.80653517  0.49878376
   0.47614919  0.95248064  0.49854014
   0.61892222  0.09482156  0.49754340
   0.61954199  0.23781651  0.49682923
   0.62131880  0.37917421  0.49667556
   0.61885736  0.81100079  0.49874326
   0.61795687  0.95128894  0.49825707
   0.76159205  0.09479249  0.49830471
   0.76220141  0.23775411  0.49776174
   0.76247388  0.38077063  0.49802256
   0.76228836  0.52499890  0.49907789
   0.76399205  0.66746682  0.49987504
   0.76131111  0.80772528  0.50003557
   0.76104031  0.95160410  0.49931605
   0.90435974  0.09473084  0.49965152
   0.90466926  0.23792194  0.49869375
   0.90505351  0.38114104  0.49875176
   0.90544025  0.52419654  0.50022124
   0.90601289  0.66713687  0.50201127
   0.90562488  0.81012159  0.50245423
   0.90464199  0.95216479  0.50137452
   0.46338088  0.35486692  0.49126383
   0.40376533  0.41909744  0.50406709
   0.40532150  0.56062694  0.50583975
   0.64475506  0.67565198  0.49641552
   0.64524649  0.54002313  0.49662657
   0.58522880  0.41559377  0.49653597
   0.58001994  0.73835432  0.49881763
   0.46475648  0.53260238  0.37599340
   0.55651643  0.54997876  0.34252032
   0.42742611  0.71604335  0.49912227
   0.51893632  0.53337553  0.39533618
Direct configuration=     5
   0.99998374  0.00018123  0.50173113
   0.99980603  0.14290928  0.50004662
   0.00011487  0.28596530  0.49917218
   0.00040733  0.42888496  0.49921392
   0.00064856  0.57177941  0.50076039
   0.00125253  0.71488455  0.50257597
   0.00092247  0.85790373  0.50296907
   0.14328039  0.00075443  0.50189923
   0.14301030  0.14349368  0.50051629
   0.14281897  0.28617235  0.50010142
   0.14343475  0.42961515  0.49976035
   0.14369112  0.57196549  0.50001652
   0.14363980  0.71468902  0.50143316
   0.14338568  0.85776318  0.50229003
   0.28587444  0.00030985  0.50039896
   0.28595214  0.14314653  0.49970913
   0.28639917  0.28777001  0.50015129
   0.28565447  0.42947187  0.50212117
   0.28829827  0.57280112  0.50070887
   0.28649334  0.71554268  0.50014043
   0.28565881  0.85795375  0.50047919
   0.42881785  0.00014617  0.49878584
   0.42868113  0.14269103  0.49787546
   0.42724282  0.28246490  0.49499465
   0.42789762  0.85705369  0.49906581
   0.57109020  0.99971833  0.49800019
   0.57157284  0.14243332  0.49725896
   0.57259882  0.28588540  0.49609533
   0.57020463  0.85567289  0.49845050
   0.71334843  0.99898677  0.49854146
   0.71441416  0.14259302  0.49771153
   0.71465395  0.28560350  0.49742770
   0.71420345  0.42771399  0.49781285
   0.71793058  0.57342139  0.49855147
   0.71742248  0.71494683  0.49891794
   0.71225904  0.85604762  0.49927191
   0.85667436  0.99965642  0.50010875
   0.85678812  0.14255133  0.49880356
   0.85724986  0.28557461  0.49830105
   0.85775867  0.42863257  0.49895017
   0.85810135  0.57197415  0.50065059
   0.85927613  0.71527413  0.50179767
   0.85728707  0.85696878  0.50157707
   0.04772961  0.09556259  0.50080883
   0.04731971  0.23810845  0.49971244
   0.04781113  0.38138068  0.49922896
   0.04837157  0.52422759  0.49994148
   0.04844006  0.66713118  0.50178526
   0.04826098  0.81007596  0.50294275
   0.04802732  0.95288468  0.50245882
   0.19066342  0.09565324  0.50092982
   0.19055900  0.23880597  0.50011040
   0.19000752  0.38136556  0.50036745
   0.19188552  0.52510044  0.49987166
   0.19116003  0.66732190  0.50058243
   0.19083370  0.81013975  0.50154301
   0.19089400  0.95290327  0.50172281
   0.33359156  0.09567200  0.49926920
   0.33437121  0.23841339  0.49823622
   0.33106128  0.38073439  0.50253415
   0.33244490  0.52412938  0.50281764
   0.33743638  0.67108020  0.49996082
   0.33319159  0.81028397  0.49987060
   0.33336527  0.95284222  0.49991414
   0.47644208  0.09507329  0.49796382
   0.47577779  0.23767454  0.49600991
   0.47251061  0.80652522  0.49879268
   0.47614302  0.95247155  0.49854487
   0.61891807  0.09482445  0.49755383
   0.61954132  0.23782125  0.49681857
   0.62131802  0.37917230  0.49666451
   0.61883883  0.81098771  0.49874722
   0.61795743  0.95127637  0.49825031
   0.76158387  0.09478302  0.49830670
   0.76221239  0.23776058  0.49776469
   0.76246687  0.38076221  0.49801552
   0.76229246  0.52499125  0.49907377
   0.76399043  0.66747099  0.49987408
   0.76130877  0.80773130  0.50003043
   0.76102678  0.95158235  0.49931233
   0.90435506  0.09472784  0.49965688
   0.90466950  0.23791961  0.49869105
   0.90505058  0.38114020  0.49875669
   0.90543428  0.52419738  0.50022166
   0.90601565  0.66714074  0.50198962
   0.90562233  0.81012075  0.50244082
   0.90463014  0.95215769  0.50136511
   0.46338342  0.35488435  0.49125720
   0.40376943  0.41910571  0.50406127
   0.40533218  0.56063458  0.50583321
   0.64475830  0.67565639  0.49641361
   0.64525791  0.54002862  0.49662161
   0.58523052  0.41559404  0.49652589
   0.58002263  0.73835176  0.49882125
   0.46477398  0.53261057  0.37600690
   0.55654375  0.54999682  0.34252796
   0.42742841  0.71604345  0.49912657
   0.51893922  0.53336416  0.39533618
Direct configuration=     6
   0.99998379  0.00018094  0.50172560
   0.99980480  0.14290884  0.50004708
   0.00011610  0.28596403  0.49917255
   0.00040826  0.42888518  0.49921703
   0.00064951  0.57178173  0.50075852
   0.00125186  0.71488477  0.50257241
   0.00092231  0.85790278  0.50296325
   0.14328040  0.00075334  0.50189937
   0.14301003  0.14349555  0.50052080
   0.14281874  0.28617317  0.50009936
   0.14343647  0.42961602  0.49976217
   0.14369414  0.57196634  0.50001724
   0.14364007  0.71469161  0.50143079
   0.14338408  0.85776221  0.50229164
   0.28587332  0.00031049  0.50039477
   0.28595087  0.14314787  0.49971240
   0.28639759  0.28777173  0.50015137
   0.28565450  0.42947245  0.50211909
   0.28830206  0.57280074  0.50071338
   0.28649184  0.71554116  0.50014401
   0.28565783  0.85795209  0.50047910
   0.42881557  0.00014421  0.49878771
   0.42868187  0.14269286  0.49787667
   0.42724286  0.28246940  0.49500532
   0.42789641  0.85705137  0.49906429
   0.57109078  0.99971677  0.49800251
   0.57157284  0.14243545  0.49725894
   0.57259936  0.28588759  0.49609042
   0.57020060  0.85566842  0.49845005
   0.71334651  0.99898185  0.49854104
   0.71441359  0.14259299  0.49771336
   0.71465377  0.28560247  0.49742740
   0.71420349  0.42771269  0.49781305
   0.71793377  0.57342214  0.49855287
   0.71742244  0.71494784  0.49891672
   0.71225366  0.85604199  0.49927411
   0.85667054  0.99965350  0.50010849
   0.85678577  0.14254979  0.49880429
   0.85725235  0.28557609  0.49830085
   0.85775705  0.42863188  0.49895229
   0.85810208  0.57197488  0.50064461
   0.85927611  0.71527527  0.50179592
   0.85728563  0.85696923  0.50157192
   0.04772886  0.09556305  0.50080995
   0.04732123  0.23810762  0.49971046
   0.04781273  0.38138182  0.49923105
   0.04837292  0.52422920  0.49994149
   0.04844091  0.66713151  0.50178198
   0.04826088  0.81007542  0.50293573
   0.04802705  0.95288549  0.50245779
   0.19066133  0.09565330  0.50093115
   0.19055699  0.23880642  0.50010897
   0.19000699  0.38136641  0.50036743
   0.19188817  0.52510133  0.49987567
   0.19115926  0.66732186  0.50058404
   0.19083313  0.81013960  0.50154449
   0.19089270  0.95290249  0.50172178
   0.33359198  0.09567231  0.49926765
   0.33437016  0.23841606  0.49824031
   0.33106075  0.38073624  0.50253575
   0.33244831  0.52412855  0.50281383
   0.33743552  0.67107869  0.49996382
   0.33319132  0.81028355  0.49987113
   0.33336585  0.95284171  0.49991504
   0.47644232  0.09507330  0.49796404
   0.47578115  0.23767856  0.49601270
   0.47251105  0.80652361  0.49879518
   0.47614234  0.95246876  0.49854646
   0.61891753  0.09482514  0.49755757
   0.61954200  0.23782142  0.49681473
   0.62131921  0.37917342  0.49666043
   0.61883392  0.81098362  0.49874882
   0.61795486  0.95127365  0.49824823
   0.76157973  0.09477811  0.49830749
   0.76221314  0.23776334  0.49776575
   0.76246668  0.38076177  0.49801368
   0.76229275  0.52498921  0.49907230
   0.76398906  0.66747150  0.49987380
   0.76130553  0.80773086  0.50002859
   0.76102378  0.95157537  0.49931145
   0.90435322  0.09472607  0.49965866
   0.90467117  0.23792069  0.49869028
   0.90505197  0.38114238  0.49875875
   0.90543490  0.52419688  0.50022139
   0.90601562  0.66714132  0.50198206
   0.90562201  0.81012284  0.50243564
   0.90463081  0.95215795  0.50136108
   0.46338397  0.35488993  0.49125517
   0.40376943  0.41910806  0.50405913
   0.40533618  0.56063704  0.50583044
   0.64475803  0.67565743  0.49641285
   0.64526122  0.54002999  0.49661983
   0.58523113  0.41559408  0.49652188
   0.58002187  0.73834847  0.49882277
   0.46477928  0.53261389  0.37601121
   0.55655322  0.55000352  0.34253231
   0.42742739  0.71604166  0.49912852
   0.51894347  0.53336008  0.39533618
Direct configuration=     7
   0.99998394  0.00018008  0.50170902
   0.99980108  0.14290752  0.50004846
   0.00011981  0.28596021  0.49917367
   0.00041104  0.42888582  0.49922636
   0.00065235  0.57178869  0.50075294
   0.00124986  0.71488544  0.50256172
   0.00092183  0.85789993  0.50294579
   0.14328046  0.00075006  0.50189978
   0.14300921  0.14350119  0.50053430
   0.14281802  0.28617564  0.50009315
   0.14344166  0.42961860  0.49976764
   0.14370319  0.57196889  0.50001941
   0.14364086  0.71469940  0.50142367
   0.14337928  0.85775929  0.50229649
   0.28586995  0.00031241  0.50038219
   0.28594709  0.14315191  0.49972224
   0.28639283  0.28777688  0.50015160
   0.28565456  0.42947417  0.50211284
   0.28831342  0.57279961  0.50072692
   0.28648737  0.71553660  0.50015474
   0.28565487  0.85794712  0.50047884
   0.42880875  0.00013833  0.49879333
   0.42868412  0.14269835  0.49788028
   0.42724299  0.28248290  0.49503732
   0.42789277  0.85704440  0.49905972
   0.57109252  0.99971210  0.49800946
   0.57157285  0.14244184  0.49725888
   0.57260099  0.28589414  0.49607568
   0.57018851  0.85565500  0.49844869
   0.71334075  0.99896708  0.49853980
   0.71441186  0.14259290  0.49771884
   0.71465323  0.28559939  0.49742649
   0.71420360  0.42770879  0.49781365
   0.71794333  0.57342439  0.49855705
   0.71742233  0.71495087  0.49891305
   0.71223754  0.85602510  0.49928071
   0.85665908  0.99964476  0.50010773
   0.85677872  0.14254518  0.49880647
   0.85725981  0.28558054  0.49830024
   0.85775219  0.42862983  0.49895866
   0.85810427  0.57197705  0.50062669
   0.85927607  0.71527869  0.50179065
   0.85728133  0.85697058  0.50155647
   0.04772662  0.09556442  0.50081329
   0.04732576  0.23810511  0.49970454
   0.04781755  0.38138525  0.49923731
   0.04837697  0.52423403  0.49994154
   0.04844346  0.66713250  0.50177213
   0.04826056  0.81007380  0.50291467
   0.04802622  0.95288793  0.50245470
   0.19065505  0.09565346  0.50093517
   0.19055096  0.23880776  0.50010470
   0.19000538  0.38136896  0.50036736
   0.19189612  0.52510402  0.49988769
   0.19115693  0.66732176  0.50058885
   0.19083140  0.81013916  0.50154892
   0.19088880  0.95290014  0.50171869
   0.33359323  0.09567324  0.49926300
   0.33436698  0.23842407  0.49825257
   0.33105915  0.38074177  0.50254055
   0.33245856  0.52412607  0.50280240
   0.33743297  0.67107417  0.49997284
   0.33319051  0.81028228  0.49987270
   0.33336758  0.95284019  0.49991774
   0.47644301  0.09507334  0.49796472
   0.47579121  0.23769061  0.49602105
   0.47251237  0.80651879  0.49880266
   0.47614030  0.95246038  0.49855124
   0.61891591  0.09482719  0.49756878
   0.61954404  0.23782194  0.49680319
   0.62132275  0.37917677  0.49664816
   0.61881921  0.81097135  0.49875361
   0.61794716  0.95126549  0.49824198
   0.76156732  0.09476340  0.49830986
   0.76221537  0.23777160  0.49776892
   0.76246608  0.38076047  0.49800816
   0.76229360  0.52498307  0.49906789
   0.76398493  0.66747304  0.49987296
   0.76129580  0.80772953  0.50002308
   0.76101479  0.95155443  0.49930879
   0.90434770  0.09472077  0.49966402
   0.90467618  0.23792394  0.49868797
   0.90505615  0.38114893  0.49876492
   0.90543676  0.52419537  0.50022058
   0.90601552  0.66714305  0.50195939
   0.90562103  0.81012914  0.50242010
   0.90463279  0.95215873  0.50134898
   0.46338561  0.35490664  0.49124909
   0.40376945  0.41911511  0.50405271
   0.40534816  0.56064441  0.50582213
   0.64475723  0.67566057  0.49641057
   0.64527114  0.54003410  0.49661449
   0.58523298  0.41559421  0.49650984
   0.58001960  0.73833862  0.49882732
   0.46479520  0.53262387  0.37602415
   0.55658162  0.55002363  0.34254536
   0.42742434  0.71603628  0.49913440
   0.51895621  0.53334782  0.39533618
Direct configuration=     8
   0.99998424  0.00017836  0.50167586
   0.99979365  0.14290488  0.50005123
   0.00012721  0.28595258  0.49917592
   0.00041661  0.42888709  0.49924501
   0.00065803  0.57180262  0.50074176
   0.00124585  0.71488676  0.50254034
   0.00092087  0.85789422  0.50291087
   0.14328057  0.00074351  0.50190059
   0.14300757  0.14351245  0.50056131
   0.14281659  0.28618057  0.50008075
   0.14345203  0.42962378  0.49977858
   0.14372131  0.57197397  0.50002374
   0.14364245  0.71471497  0.50140945
   0.14336967  0.85775346  0.50230619
   0.28586322  0.00031625  0.50035704
   0.28593951  0.14315999  0.49974190
   0.28638333  0.28778717  0.50015206
   0.28565469  0.42947763  0.50210034
   0.28833614  0.57279734  0.50075399
   0.28647841  0.71552748  0.50017620
   0.28564897  0.85793717  0.50047832
   0.42879511  0.00012657  0.49880456
   0.42868860  0.14270931  0.49788751
   0.42724324  0.28250992  0.49510132
   0.42788551  0.85703046  0.49905059
   0.57109600  0.99970277  0.49802337
   0.57157287  0.14245463  0.49725877
   0.57260426  0.28590725  0.49604619
   0.57016434  0.85562815  0.49844596
   0.71332923  0.99893755  0.49853732
   0.71440840  0.14259272  0.49772982
   0.71465216  0.28559323  0.49742468
   0.71420382  0.42770098  0.49781485
   0.71796247  0.57342888  0.49856542
   0.71742209  0.71495692  0.49890572
   0.71220530  0.85599133  0.49929391
   0.85663615  0.99962726  0.50010620
   0.85676461  0.14253594  0.49881084
   0.85727473  0.28558943  0.49829901
   0.85774248  0.42862572  0.49897141
   0.85810864  0.57198140  0.50059084
   0.85927598  0.71528552  0.50178010
   0.85727273  0.85697328  0.50152558
   0.04772213  0.09556716  0.50081998
   0.04733483  0.23810009  0.49969268
   0.04782717  0.38139211  0.49924984
   0.04838508  0.52424370  0.49994163
   0.04844855  0.66713448  0.50175243
   0.04825993  0.81007055  0.50287255
   0.04802457  0.95289280  0.50244852
   0.19064249  0.09565379  0.50094319
   0.19053889  0.23881045  0.50009617
   0.19000218  0.38137405  0.50036722
   0.19191202  0.52510939  0.49991173
   0.19115228  0.66732157  0.50059847
   0.19082793  0.81013827  0.50155777
   0.19088102  0.95289544  0.50171251
   0.33359572  0.09567512  0.49925372
   0.33436064  0.23844010  0.49827709
   0.33105594  0.38075283  0.50255015
   0.33247906  0.52412112  0.50277954
   0.33742786  0.67106513  0.49999087
   0.33318888  0.81027974  0.49987585
   0.33337105  0.95283713  0.49992315
   0.47644439  0.09507340  0.49796608
   0.47581133  0.23771471  0.49603777
   0.47251502  0.80650914  0.49881762
   0.47613622  0.95244362  0.49856079
   0.61891266  0.09483131  0.49759121
   0.61954812  0.23782298  0.49678012
   0.62132984  0.37918349  0.49662363
   0.61878979  0.81094680  0.49876319
   0.61793176  0.95124917  0.49822949
   0.76154249  0.09473398  0.49831461
   0.76221983  0.23778812  0.49777526
   0.76246489  0.38075787  0.49799713
   0.76229532  0.52497078  0.49905908
   0.76397668  0.66747613  0.49987127
   0.76127635  0.80772687  0.50001204
   0.76099679  0.95151253  0.49930347
   0.90433667  0.09471016  0.49967474
   0.90468619  0.23793042  0.49868334
   0.90506449  0.38116201  0.49877727
   0.90544049  0.52419234  0.50021897
   0.90601533  0.66714651  0.50191404
   0.90561908  0.81014172  0.50238902
   0.90463677  0.95216029  0.50132479
   0.46338889  0.35494007  0.49123694
   0.40376948  0.41912923  0.50403987
   0.40537214  0.56065915  0.50580552
   0.64475561  0.67566684  0.49640602