  95  95   0   0
  0.4078826E+02  0.1727104E-08  0.1727104E-08  0.1500000E-08  0.0000000E+00
  1.000000000000000E-004
  CAR 
 unknown system                          
      5.97262994    -30.90176040  301     -2.70651478      1.00000000
    -30.902  0.0000E+00  0.0000E+00  0.0000E+00  0.0000E+00
    -30.779  0.0000E+00  0.0000E+00  0.0000E+00  0.0000E+00
    -30.656  0.0000E+00  0.0000E+00  0.0000E+00  0.0000E+00
    -30.533  0.0000E+00  0.0000E+00  0.0000E+00  0.0000E+00
    -30.410  0.0000E+00  0.0000E+00  0.0000E+00  0.0000E+00
    -30.287  0.0000E+00  0.0000E+00  0.0000E+00  0.0000E+00
    -30.164  0.0000E+00  0.0000E+00  0.0000E+00  0.0000E+00
    -30.041  0.0000E+00  0.0000E+00  0.0000E+00  0.0000E+00
    -29.918  0.0000E+00  0.0000E+00  0.0000E+00  0.0000E+00
    -29.796  0.0000E+00  0.0000E+00  0.0000E+00  0.0000E+00
    -29.673  0.0000E+00  0.0000E+00  0.0000E+00  0.0000E+00
    -29.550  0.0000E+00  0.0000E+00  0.0000E+00  0.0000E+00
    -29.427  0.5204E-10  0.5204E-10  0.6397E-11  0.6397E-11
    -29.304  0.1185E-03  0.1185E-03  0.1456E-04  0.1456E-04
    -29.181  0.1753E-01  0.1753E-01  0.2170E-02  0.2170E-02
    -29.058  0.1486E-01  0.1486E-01  0.3997E-02  0.3997E-02
    -28.935  0.2747E-04  0.2747E-04  0.4000E-02  0.4000E-02
    -28.812  0.1460E-11  0.1460E-11  0.4000E-02  0.4000E-02
    -28.689  0.0000E+00  0.0000E+00  0.4000E-02  0.4000E-02
    -28.566  0.0000E+00  0.0000E+00  0.4000E-02  0.4000E-02
    -28.443  0.0000E+00  0.0000E+00  0.4000E-02  0.4000E-02
    -28.321  0.0000E+00  0.0000E+00  0.4000E-02  0.4000E-02
    -28.198  0.0000E+00  0.0000E+00  0.4000E-02  0.4000E-02
    -28.075  0.0000E+00  0.0000E+00  0.4000E-02  0.4000E-02
    -27.952  0.0000E+00  0.0000E+00  0.4000E-02  0.4000E-02
    -27.829  0.0000E+00  0.0000E+00  0.4000E-02  0.4000E-02
    -27.706  0.0000E+00  0.0000E+00  0.4000E-02  0.4000E-02
    -27.583  0.0000E+00  0.0000E+00  0.4000E-02  0.4000E-02
    -27.460  0.0000E+00  0.0000E+00  0.4000E-02  0.4000E-02
    -27.337  0.0000E+00  0.0000E+00  0.4000E-02  0.4000E-02
    -27.214  0.0000E+00  0.0000E+00  0.4000E-02  0.4000E-02
    -27.091  0.0000E+00  0.0000E+00  0.4000E-02  0.4000E-02
    -26.968  0.0000E+00  0.0000E+00  0.4000E-02  0.4000E-02
    -26.846  0.0000E+00  0.0000E+00  0.4000E-02  0.4000E-02
    -26.723  0.0000E+00  0.0000E+00  0.4000E-02  0.4000E-02
    -26.600  0.0000E+00  0.0000E+00  0.4000E-02  0.4000E-02
    -26.477  0.0000E+00  0.0000E+00  0.4000E-02  0.4000E-02
    -26.354  0.0000E+00  0.0000E+00  0.4000E-02  0.4000E-02
    -26.231  0.0000E+00  0.0000E+00  0.4000E-02  0.4000E-02
    -26.108  0.0000E+00  0.0000E+00  0.4000E-02  0.4000E-02
    -25.985  0.0000E+00  0.0000E+00  0.4000E-02  0.4000E-02
    -25.862  0.0000E+00  0.0000E+00  0.4000E-02  0.4000E-02
    -25.739  0.0000E+00  0.0000E+00  0.4000E-02  0.4000E-02
    -25.616  0.0000E+00  0.0000E+00  0.4000E-02  0.4000E-02
    -25.494  0.0000E+00  0.0000E+00  0.4000E-02  0.4000E-02
    -25.371  0.0000E+00  0.0000E+00  0.4000E-02  0.4000E-02
    -25.248  0.0000E+00  0.0000E+00  0.4000E-02  0.4000E-02
    -25.125  0.0000E+00  0.0000E+00  0.4000E-02  0.4000E-02
    -25.002  0.0000E+00  0.0000E+00  0.4000E-02  0.4000E-02
    -24.879  0.0000E+00  0.0000E+00  0.4000E-02  0.4000E-02
    -24.756  0.0000E+00  0.0000E+00  0.4000E-02  0.4000E-02
    -24.633  0.0000E+00  0.0000E+00  0.4000E-02  0.4000E-02
    -24.510  0.0000E+00  0.0000E+00  0.4000E-02  0.4000E-02
    -24.387  0.0000E+00  0.0000E+00  0.4000E-02  0.4000E-02
    -24.264  0.0000E+00  0.0000E+00  0.4000E-02  0.4000E-02
    -24.141  0.0000E+00  0.0000E+00  0.4000E-02  0.4000E-02
    -24.019  0.0000E+00  0.0000E+00  0.4000E-02  0.4000E-02
    -23.896  0.0000E+00  0.0000E+00  0.4000E-02  0.4000E-02
    -23.773  0.0000E+00  0.0000E+00  0.4000E-02  0.4000E-02
    -23.650  0.0000E+00  0.0000E+00  0.4000E-02  0.4000E-02
    -23.527  0.0000E+00  0.0000E+00  0.4000E-02  0.4000E-02
    -23.404  0.0000E+00  0.0000E+00  0.4000E-02  0.4000E-02
    -23.281  0.0000E+00  0.0000E+00  0.4000E-02  0.4000E-02
    -23.158  0.0000E+00  0.0000E+00  0.4000E-02  0.4000E-02
    -23.035  0.0000E+00  0.0000E+00  0.4000E-02  0.4000E-02
    -22.912  0.0000E+00  0.0000E+00  0.4000E-02  0.4000E-02
    -22.789  0.0000E+00  0.0000E+00  0.4000E-02  0.4000E-02
    -22.666  0.4987E-12  0.4987E-12  0.4000E-02  0.4000E-02
    -22.544  0.8220E-05  0.8220E-05  0.4001E-02  0.4001E-02
    -22.421  0.7465E-02  0.7465E-02  0.4919E-02  0.4919E-02
    -22.298  0.2333E-01  0.2333E-01  0.7786E-02  0.7786E-02
    -22.175  0.1746E-02  0.1746E-02  0.8000E-02  0.8000E-02
    -22.052  0.4230E-02  0.4230E-02  0.8520E-02  0.8520E-02
    -21.929  0.3902E-02  0.3902E-02  0.9000E-02  0.9000E-02
    -21.806  0.2602E-03  0.2602E-03  0.9032E-02  0.9032E-02
    -21.683  0.1124E-01  0.1124E-01  0.1041E-01  0.1041E-01
    -21.560  0.6275E-02  0.6275E-02  0.1118E-01  0.1118E-01
    -21.437  0.4388E-02  0.4388E-02  0.1172E-01  0.1172E-01
    -21.314  0.4081E-02  0.4081E-02  0.1223E-01  0.1223E-01
    -21.192  0.5070E-02  0.5070E-02  0.1285E-01  0.1285E-01
    -21.069  0.7332E-02  0.7332E-02  0.1375E-01  0.1375E-01
    -20.946  0.5038E-02  0.5038E-02  0.1437E-01  0.1437E-01
    -20.823  0.7482E-02  0.7482E-02  0.1529E-01  0.1529E-01
    -20.700  0.7651E-02  0.7651E-02  0.1623E-01  0.1623E-01
    -20.577  0.5176E-02  0.5176E-02  0.1687E-01  0.1687E-01
    -20.454  0.7059E-02  0.7059E-02  0.1773E-01  0.1773E-01
    -20.331  0.9020E-02  0.9020E-02  0.1884E-01  0.1884E-01
    -20.208  0.5079E-02  0.5079E-02  0.1947E-01  0.1947E-01
    -20.085  0.5292E-03  0.5292E-03  0.1953E-01  0.1953E-01
    -19.962  0.1146E-01  0.1146E-01  0.2094E-01  0.2094E-01
    -19.839  0.3089E-02  0.3089E-02  0.2132E-01  0.2132E-01
    -19.717  0.8342E-02  0.8342E-02  0.2234E-01  0.2234E-01
    -19.594  0.1179E-01  0.1179E-01  0.2379E-01  0.2379E-01
    -19.471  0.8079E-02  0.8079E-02  0.2479E-01  0.2479E-01
    -19.348  0.5265E-02  0.5265E-02  0.2543E-01  0.2543E-01
    -19.225  0.3280E-02  0.3280E-02  0.2584E-01  0.2584E-01
    -19.102  0.5782E-02  0.5782E-02  0.2655E-01  0.2655E-01
    -18.979  0.3544E-02  0.3544E-02  0.2698E-01  0.2698E-01
    -18.856  0.6201E-02  0.6201E-02  0.2775E-01  0.2775E-01
    -18.733  0.1788E-01  0.1788E-01  0.2994E-01  0.2994E-01
    -18.610  0.7290E-02  0.7290E-02  0.3084E-01  0.3084E-01
    -18.487  0.2325E-02  0.2325E-02  0.3112E-01  0.3112E-01
    -18.364  0.1027E-01  0.1027E-01  0.3239E-01  0.3239E-01
    -18.242  0.6188E-02  0.6188E-02  0.3315E-01  0.3315E-01
    -18.119  0.2298E-02  0.2298E-02  0.3343E-01  0.3343E-01
    -17.996  0.6989E-02  0.6989E-02  0.3429E-01  0.3429E-01
    -17.873  0.6664E-02  0.6664E-02  0.3511E-01  0.3511E-01
    -17.750  0.8070E-02  0.8070E-02  0.3610E-01  0.3610E-01
    -17.627  0.1305E-01  0.1305E-01  0.3770E-01  0.3770E-01
    -17.504  0.1170E-01  0.1170E-01  0.3914E-01  0.3914E-01
    -17.381  0.9934E-02  0.9934E-02  0.4036E-01  0.4036E-01
    -17.258  0.4083E-02  0.4083E-02  0.4086E-01  0.4086E-01
    -17.135  0.8336E-02  0.8336E-02  0.4189E-01  0.4189E-01
    -17.012  0.4782E-02  0.4782E-02  0.4248E-01  0.4248E-01
    -16.889  0.4469E-02  0.4469E-02  0.4303E-01  0.4303E-01
    -16.767  0.6387E-02  0.6387E-02  0.4381E-01  0.4381E-01
    -16.644  0.1459E-01  0.1459E-01  0.4560E-01  0.4560E-01
    -16.521  0.1426E-01  0.1426E-01  0.4736E-01  0.4736E-01
    -16.398  0.4534E-02  0.4534E-02  0.4791E-01  0.4791E-01
    -16.275  0.6985E-03  0.6985E-03  0.4800E-01  0.4800E-01
    -16.152  0.2241E-06  0.2241E-06  0.4800E-01  0.4800E-01
    -16.029  0.8335E-03  0.8335E-03  0.4810E-01  0.4810E-01
    -15.906  0.5426E-02  0.5426E-02  0.4877E-01  0.4877E-01
    -15.783  0.4269E-02  0.4269E-02  0.4929E-01  0.4929E-01
    -15.660  0.6675E-02  0.6675E-02  0.5011E-01  0.5011E-01
    -15.537  0.6613E-02  0.6613E-02  0.5093E-01  0.5093E-01
    -15.415  0.6353E-02  0.6353E-02  0.5171E-01  0.5171E-01
    -15.292  0.1323E-01  0.1323E-01  0.5333E-01  0.5333E-01
    -15.169  0.9866E-02  0.9866E-02  0.5455E-01  0.5455E-01
    -15.046  0.5224E-02  0.5224E-02  0.5519E-01  0.5519E-01
    -14.923  0.7634E-02  0.7634E-02  0.5613E-01  0.5613E-01
    -14.800  0.1107E-01  0.1107E-01  0.5749E-01  0.5749E-01
    -14.677  0.7643E-02  0.7643E-02  0.5843E-01  0.5843E-01
    -14.554  0.1272E-01  0.1272E-01  0.5999E-01  0.5999E-01
    -14.431  0.1049E-01  0.1049E-01  0.6128E-01  0.6128E-01
    -14.308  0.5838E-02  0.5838E-02  0.6200E-01  0.6200E-01
    -14.185  0.5013E-02  0.5013E-02  0.6262E-01  0.6262E-01
    -14.062  0.3470E-02  0.3470E-02  0.6304E-01  0.6304E-01
    -13.940  0.4651E-02  0.4651E-02  0.6361E-01  0.6361E-01
    -13.817  0.1100E-01  0.1100E-01  0.6497E-01  0.6497E-01
    -13.694  0.1115E-01  0.1115E-01  0.6634E-01  0.6634E-01
    -13.571  0.8047E-02  0.8047E-02  0.6732E-01  0.6732E-01
    -13.448  0.5691E-02  0.5691E-02  0.6802E-01  0.6802E-01
    -13.325  0.3931E-02  0.3931E-02  0.6851E-01  0.6851E-01
    -13.202  0.4101E-02  0.4101E-02  0.6901E-01  0.6901E-01
    -13.079  0.5090E-02  0.5090E-02  0.6964E-01  0.6964E-01
    -12.956  0.7428E-02  0.7428E-02  0.7055E-01  0.7055E-01
    -12.833  0.1196E-01  0.1196E-01  0.7202E-01  0.7202E-01
    -12.710  0.1684E-01  0.1684E-01  0.7409E-01  0.7409E-01
    -12.587  0.5475E-02  0.5475E-02  0.7476E-01  0.7476E-01
    -12.465  0.8879E-02  0.8879E-02  0.7585E-01  0.7585E-01
    -12.342  0.1042E-01  0.1042E-01  0.7714E-01  0.7714E-01
    -12.219  0.5448E-02  0.5448E-02  0.7781E-01  0.7781E-01
    -12.096  0.4133E-02  0.4133E-02  0.7831E-01  0.7831E-01
    -11.973  0.1016E-01  0.1016E-01  0.7956E-01  0.7956E-01
    -11.850  0.9955E-02  0.9955E-02  0.8079E-01  0.8079E-01
    -11.727  0.1356E-01  0.1356E-01  0.8245E-01  0.8245E-01
    -11.604  0.1041E-01  0.1041E-01  0.8373E-01  0.8373E-01
    -11.481  0.1448E-01  0.1448E-01  0.8551E-01  0.8551E-01
    -11.358  0.8948E-02  0.8948E-02  0.8661E-01  0.8661E-01
    -11.235  0.1235E-01  0.1235E-01  0.8813E-01  0.8813E-01
    -11.113  0.9879E-02  0.9879E-02  0.8934E-01  0.8934E-01
    -10.990  0.8217E-02  0.8217E-02  0.9035E-01  0.9035E-01
    -10.867  0.7254E-02  0.7254E-02  0.9124E-01  0.9124E-01
    -10.744  0.4507E-02  0.4507E-02  0.9180E-01  0.9180E-01
    -10.621  0.9111E-02  0.9111E-02  0.9292E-01  0.9292E-01
    -10.498  0.1382E-01  0.1382E-01  0.9462E-01  0.9462E-01
    -10.375  0.1471E-01  0.1471E-01  0.9643E-01  0.9643E-01
    -10.252  0.1684E-01  0.1684E-01  0.9849E-01  0.9849E-01
    -10.129  0.2149E-01  0.2149E-01  0.1011E+00  0.1011E+00
    -10.006  0.1708E-01  0.1708E-01  0.1032E+00  0.1032E+00
     -9.883  0.1745E-01  0.1745E-01  0.1054E+00  0.1054E+00
     -9.760  0.2286E-01  0.2286E-01  0.1082E+00  0.1082E+00
     -9.638  0.2707E-01  0.2707E-01  0.1115E+00  0.1115E+00
     -9.515  0.2005E-01  0.2005E-01  0.1140E+00  0.1140E+00
     -9.392  0.1877E-01  0.1877E-01  0.1163E+00  0.1163E+00
     -9.269  0.2107E-01  0.2107E-01  0.1189E+00  0.1189E+00
     -9.146  0.2198E-01  0.2198E-01  0.1216E+00  0.1216E+00
     -9.023  0.2258E-01  0.2258E-01  0.1244E+00  0.1244E+00
     -8.900  0.2054E-01  0.2054E-01  0.1269E+00  0.1269E+00
     -8.777  0.2883E-01  0.2883E-01  0.1304E+00  0.1304E+00
     -8.654  0.8130E-02  0.8130E-02  0.1314E+00  0.1314E+00
     -8.531  0.1254E-01  0.1254E-01  0.1330E+00  0.1330E+00
     -8.408  0.2357E-01  0.2357E-01  0.1359E+00  0.1359E+00
     -8.285  0.2243E-01  0.2243E-01  0.1386E+00  0.1386E+00
     -8.163  0.1895E-01  0.1895E-01  0.1409E+00  0.1409E+00
     -8.040  0.1412E-01  0.1412E-01  0.1427E+00  0.1427E+00
     -7.917  0.8696E-02  0.8696E-02  0.1438E+00  0.1438E+00
     -7.794  0.1404E-01  0.1404E-01  0.1455E+00  0.1455E+00
     -7.671  0.8587E-02  0.8587E-02  0.1465E+00  0.1465E+00
     -7.548  0.1415E-01  0.1415E-01  0.1483E+00  0.1483E+00
     -7.425  0.2897E-01  0.2897E-01  0.1518E+00  0.1518E+00
     -7.302  0.1663E-01  0.1663E-01  0.1539E+00  0.1539E+00
     -7.179  0.2129E-01  0.2129E-01  0.1565E+00  0.1565E+00
     -7.056  0.1246E-01  0.1246E-01  0.1580E+00  0.1580E+00
     -6.933  0.1636E-01  0.1636E-01  0.1600E+00  0.1600E+00
     -6.810  0.6811E-02  0.6811E-02  0.1609E+00  0.1609E+00
     -6.688  0.1106E-01  0.1106E-01  0.1622E+00  0.1622E+00
     -6.565  0.1491E-01  0.1491E-01  0.1641E+00  0.1641E+00
     -6.442  0.9224E-02  0.9224E-02  0.1652E+00  0.1652E+00
     -6.319  0.2409E-01  0.2409E-01  0.1682E+00  0.1682E+00
     -6.196  0.1261E-01  0.1261E-01  0.1697E+00  0.1697E+00
     -6.073  0.1601E-01  0.1601E-01  0.1717E+00  0.1717E+00
     -5.950  0.1048E-01  0.1048E-01  0.1730E+00  0.1730E+00
     -5.827  0.7561E-02  0.7561E-02  0.1739E+00  0.1739E+00
     -5.704  0.1000E-01  0.1000E-01  0.1751E+00  0.1751E+00
     -5.581  0.4710E-02  0.4710E-02  0.1757E+00  0.1757E+00
     -5.458  0.1320E-02  0.1320E-02  0.1759E+00  0.1759E+00
     -5.336  0.6481E-02  0.6481E-02  0.1767E+00  0.1767E+00
     -5.213  0.1927E-01  0.1927E-01  0.1790E+00  0.1790E+00
     -5.090  0.1630E-01  0.1630E-01  0.1810E+00  0.1810E+00
     -4.967  0.1245E-01  0.1245E-01  0.1826E+00  0.1826E+00
     -4.844  0.9600E-02  0.9600E-02  0.1837E+00  0.1837E+00
     -4.721  0.2698E-02  0.2698E-02  0.1841E+00  0.1841E+00
     -4.598  0.2733E-02  0.2733E-02  0.1844E+00  0.1844E+00
     -4.475  0.1160E-01  0.1160E-01  0.1858E+00  0.1858E+00
     -4.352  0.1477E-01  0.1477E-01  0.1877E+00  0.1877E+00
     -4.229  0.1336E-01  0.1336E-01  0.1893E+00  0.1893E+00
     -4.106  0.8980E-02  0.8980E-02  0.1904E+00  0.1904E+00
     -3.983  0.2301E-01  0.2301E-01  0.1932E+00  0.1932E+00
     -3.861  0.6264E-02  0.6264E-02  0.1940E+00  0.1940E+00
     -3.738  0.1833E-02  0.1833E-02  0.1942E+00  0.1942E+00
     -3.615  0.1831E-02  0.1831E-02  0.1945E+00  0.1945E+00
     -3.492  0.3759E-02  0.3759E-02  0.1949E+00  0.1949E+00
     -3.369  0.2462E-02  0.2462E-02  0.1952E+00  0.1952E+00
     -3.246  0.8836E-03  0.8836E-03  0.1953E+00  0.1953E+00
     -3.123  0.1414E-02  0.1414E-02  0.1955E+00  0.1955E+00
     -3.000  0.1066E-02  0.1066E-02  0.1956E+00  0.1956E+00
     -2.877  0.1951E-02  0.1951E-02  0.1959E+00  0.1959E+00
     -2.754  0.1053E-02  0.1053E-02  0.1960E+00  0.1960E+00
     -2.631  0.8588E-05  0.8588E-05  0.1960E+00  0.1960E+00
     -2.508  0.2003E-02  0.2003E-02  0.1962E+00  0.1962E+00
     -2.386  0.2048E-02  0.2048E-02  0.1965E+00  0.1965E+00
     -2.263  0.1355E-04  0.1355E-04  0.1965E+00  0.1965E+00
     -2.140  0.1536E-02  0.1536E-02  0.1967E+00  0.1967E+00
     -2.017  0.2447E-02  0.2447E-02  0.1970E+00  0.1970E+00
     -1.894  0.2394E-02  0.2394E-02  0.1973E+00  0.1973E+00
     -1.771  0.4848E-02  0.4848E-02  0.1979E+00  0.1979E+00
     -1.648  0.9745E-03  0.9745E-03  0.1980E+00  0.1980E+00
     -1.525  0.3867E-03  0.3867E-03  0.1980E+00  0.1980E+00
     -1.402  0.6417E-02  0.6417E-02  0.1988E+00  0.1988E+00
     -1.279  0.4609E-02  0.4609E-02  0.1994E+00  0.1994E+00
     -1.156  0.5821E-02  0.5821E-02  0.2001E+00  0.2001E+00
     -1.034  0.1716E-01  0.1716E-01  0.2022E+00  0.2022E+00
     -0.911  0.5946E-02  0.5946E-02  0.2030E+00  0.2030E+00
     -0.788  0.6576E-02  0.6576E-02  0.2038E+00  0.2038E+00
     -0.665  0.1384E-01  0.1384E-01  0.2055E+00  0.2055E+00
     -0.542  0.4902E-02  0.4902E-02  0.2061E+00  0.2061E+00
     -0.419  0.5339E-02  0.5339E-02  0.2067E+00  0.2067E+00
     -0.296  0.8109E-02  0.8109E-02  0.2077E+00  0.2077E+00
     -0.173  0.9015E-02  0.9015E-02  0.2088E+00  0.2088E+00
     -0.050  0.1196E-01  0.1196E-01  0.2103E+00  0.2103E+00
      0.073  0.1119E-01  0.1119E-01  0.2117E+00  0.2117E+00
      0.196  0.2622E-02  0.2622E-02  0.2120E+00  0.2120E+00
      0.319  0.1441E-02  0.1441E-02  0.2122E+00  0.2122E+00
      0.441  0.6883E-02  0.6883E-02  0.2130E+00  0.2130E+00
      0.564  0.7705E-02  0.7705E-02  0.2140E+00  0.2140E+00
      0.687  0.5353E-02  0.5353E-02  0.2146E+00  0.2146E+00
      0.810  0.4310E-02  0.4310E-02  0.2152E+00  0.2152E+00
      0.933  0.8436E-02  0.8436E-02  0.2162E+00  0.2162E+00
      1.056  0.1161E-01  0.1161E-01  0.2176E+00  0.2176E+00
      1.179  0.2797E-02  0.2797E-02  0.2180E+00  0.2180E+00
      1.302  0.1567E-01  0.1567E-01  0.2199E+00  0.2199E+00
      1.425  0.2111E-01  0.2111E-01  0.2225E+00  0.2225E+00
      1.548  0.8316E-02  0.8316E-02  0.2235E+00  0.2235E+00
      1.671  0.6887E-02  0.6887E-02  0.2244E+00  0.2244E+00
      1.794  0.7568E-02  0.7568E-02  0.2253E+00  0.2253E+00
      1.916  0.1347E-01  0.1347E-01  0.2269E+00  0.2269E+00
      2.039  0.2907E-01  0.2907E-01  0.2305E+00  0.2305E+00
      2.162  0.7012E-02  0.7012E-02  0.2314E+00  0.2314E+00
      2.285  0.1466E-01  0.1467E-01  0.2332E+00  0.2332E+00
      2.408  0.2219E-01  0.2219E-01  0.2359E+00  0.2359E+00
      2.531  0.1737E-01  0.1737E-01  0.2380E+00  0.2380E+00
      2.654  0.9102E-02  0.9102E-02  0.2392E+00  0.2392E+00
      2.777  0.1828E-01  0.1828E-01  0.2414E+00  0.2414E+00
      2.900  0.4019E-01  0.4019E-01  0.2463E+00  0.2463E+00
      3.023  0.4210E-01  0.4210E-01  0.2515E+00  0.2515E+00
      3.146  0.7643E-02  0.7642E-02  0.2525E+00  0.2525E+00
      3.269  0.1423E-01  0.1423E-01  0.2542E+00  0.2542E+00
      3.391  0.1993E-01  0.1993E-01  0.2567E+00  0.2567E+00
      3.514  0.2515E-01  0.2515E-01  0.2598E+00  0.2598E+00
      3.637  0.1221E-01  0.1221E-01  0.2613E+00  0.2613E+00
      3.760  0.2102E-01  0.2102E-01  0.2638E+00  0.2638E+00
      3.883  0.3009E-01  0.3009E-01  0.2675E+00  0.2675E+00
      4.006  0.3065E-01  0.3065E-01  0.2713E+00  0.2713E+00
      4.129  0.1356E-01  0.1356E-01  0.2730E+00  0.2730E+00
      4.252  0.9970E-02  0.9970E-02  0.2742E+00  0.2742E+00
      4.375  0.6508E-02  0.6508E-02  0.2750E+00  0.2750E+00
      4.498  0.4971E-04  0.4965E-04  0.2750E+00  0.2750E+00
      4.621  0.1946E-10  0.1941E-10  0.2750E+00  0.2750E+00
      4.743  0.0000E+00  0.0000E+00  0.2750E+00  0.2750E+00
      4.866  0.0000E+00  0.0000E+00  0.2750E+00  0.2750E+00
      4.989  0.0000E+00  0.0000E+00  0.2750E+00  0.2750E+00
      5.112  0.0000E+00  0.0000E+00  0.2750E+00  0.2750E+00
      5.235  0.0000E+00  0.0000E+00  0.2750E+00  0.2750E+00
      5.358  0.0000E+00  0.0000E+00  0.2750E+00  0.2750E+00
      5.481  0.0000E+00  0.0000E+00  0.2750E+00  0.2750E+00
      5.604  0.0000E+00  0.0000E+00  0.2750E+00  0.2750E+00
      5.727  0.0000E+00  0.0000E+00  0.2750E+00  0.2750E+00
      5.850  0.0000E+00  0.0000E+00  0.2750E+00  0.2750E+00
      5.973  0.0000E+00  0.0000E+00  0.2750E+00  0.2750E+00
