       N       E                     dE             d eps       ncg     rms          rms(c)
DAV:   1     0.364358878514E+04    0.36436E+04   -0.14934E+05  4740   0.109E+03
DAV:   2    -0.178880917226E+03   -0.38225E+04   -0.36079E+04  6600   0.270E+02
DAV:   3    -0.851678931787E+03   -0.67280E+03   -0.66958E+03  5470   0.118E+02
DAV:   4    -0.874143163469E+03   -0.22464E+02   -0.22358E+02  5480   0.270E+01
DAV:   5    -0.874839640288E+03   -0.69648E+00   -0.69549E+00  6260   0.403E+00    0.519E+01
DAV:   6    -0.857758024927E+03    0.17082E+02   -0.21246E+01  5360   0.837E+00    0.336E+01
DAV:   7    -0.837328493692E+03    0.20430E+02   -0.32751E+01  5180   0.928E+00    0.203E+01
DAV:   8    -0.832669673718E+03    0.46588E+01   -0.20797E+01  5230   0.694E+00    0.812E+00
DAV:   9    -0.832762873293E+03   -0.93200E-01   -0.98380E-01  5190   0.189E+00    0.354E+00
DAV:  10    -0.832605039914E+03    0.15783E+00   -0.45490E-01  5100   0.121E+00    0.109E+00
DAV:  11    -0.832589842834E+03    0.15197E-01   -0.10498E-01  5040   0.607E-01    0.276E-01
DAV:  12    -0.832590236095E+03   -0.39326E-03   -0.11289E-02  5330   0.248E-01    0.128E-01
DAV:  13    -0.832590430206E+03   -0.19411E-03   -0.15514E-03  5200   0.806E-02    0.961E-02
DAV:  14    -0.832590472272E+03   -0.42066E-04   -0.27820E-04  5280   0.378E-02    0.569E-02
DAV:  15    -0.832590531604E+03   -0.59332E-04   -0.13959E-04  4820   0.249E-02    0.252E-02
DAV:  16    -0.832590532292E+03   -0.68812E-06   -0.33535E-05  4320   0.154E-02
   1 F= -.84026430E+03 E0= -.84026430E+03  d E =-.840264E+03  mag=     0.0001
       N       E                     dE             d eps       ncg     rms          rms(c)
DAV:   1    -0.832591831228E+03   -0.12996E-02   -0.86981E-02  4800   0.327E-01    0.740E-02
DAV:   2    -0.832591909448E+03   -0.78220E-04   -0.16028E-03  4690   0.434E-02    0.443E-02
DAV:   3    -0.832591892294E+03    0.17154E-04   -0.85293E-05  4190   0.121E-02    0.259E-02
DAV:   4    -0.832591895648E+03   -0.33541E-05   -0.14756E-05  3440   0.535E-03
   2 F= -.84026559E+03 E0= -.84026559E+03  d E =-.128478E-02  mag=     0.0000
       N       E                     dE             d eps       ncg     rms          rms(c)
DAV:   1    -0.832593264151E+03   -0.13719E-02   -0.22759E-01  4640   0.548E-01    0.111E-01
DAV:   2    -0.832593488835E+03   -0.22468E-03   -0.38815E-03  4630   0.702E-02    0.647E-02
DAV:   3    -0.832593466631E+03    0.22203E-04   -0.13432E-04  4490   0.157E-02    0.426E-02
DAV:   4    -0.832593481567E+03   -0.14935E-04   -0.37971E-05  3620   0.908E-03    0.186E-02
DAV:   5    -0.832593495620E+03   -0.14053E-04   -0.20496E-05  3570   0.551E-03    0.595E-03
DAV:   6    -0.832593495541E+03    0.78704E-07   -0.48346E-06  3250   0.365E-03
   3 F= -.84026704E+03 E0= -.84026704E+03  d E =-.145281E-02  mag=    -0.0000
       N       E                     dE             d eps       ncg     rms          rms(c)
DAV:   1    -0.832595305468E+03   -0.18098E-02   -0.28308E-01  4640   0.653E-01    0.103E-01
DAV:   2    -0.832595632132E+03   -0.32666E-03   -0.44130E-03  4640   0.819E-02    0.664E-02
DAV:   3    -0.832595613090E+03    0.19042E-04   -0.75630E-05  4360   0.137E-02    0.503E-02
DAV:   4    -0.832595644578E+03   -0.31488E-04   -0.11682E-04  4220   0.160E-02    0.120E-02
DAV:   5    -0.832595649914E+03   -0.53362E-05   -0.17145E-05  3500   0.572E-03
   4 F= -.84026900E+03 E0= -.84026900E+03  d E =-.195805E-02  mag=     0.0000
       N       E                     dE             d eps       ncg     rms          rms(c)
DAV:   1    -0.832597898753E+03   -0.22542E-02   -0.33547E-01  4640   0.745E-01    0.106E-01
DAV:   2    -0.832598346182E+03   -0.44743E-03   -0.54460E-03  4640   0.940E-02    0.805E-02
DAV:   3    -0.832598314927E+03    0.31255E-04   -0.92976E-05  4570   0.156E-02    0.628E-02
DAV:   4    -0.832598362363E+03   -0.47436E-04   -0.30050E-04  4240   0.247E-02    0.237E-02
DAV:   5    -0.832598357701E+03    0.46620E-05   -0.38536E-05  3750   0.956E-03
   5 F= -.84027147E+03 E0= -.84027147E+03  d E =-.247288E-02  mag=    -0.0000
       N       E                     dE             d eps       ncg     rms          rms(c)
DAV:   1    -0.832600253769E+03   -0.18914E-02   -0.48699E-01  4620   0.892E-01    0.126E-01
DAV:   2    -0.832600911206E+03   -0.65744E-03   -0.79145E-03  4630   0.112E-01    0.946E-02
DAV:   3    -0.832600866415E+03    0.44791E-04   -0.12911E-04  4780   0.182E-02    0.740E-02
DAV:   4    -0.832600932856E+03   -0.66442E-04   -0.47247E-04  4300   0.304E-02    0.285E-02
DAV:   5    -0.832600924665E+03    0.81913E-05   -0.54951E-05  3960   0.110E-02
   6 F= -.84027376E+03 E0= -.84027376E+03  d E =-.229215E-02  mag=    -0.0000
       N       E                     dE             d eps       ncg     rms          rms(c)
DAV:   1    -0.832602939566E+03   -0.20067E-02   -0.73497E-01  4590   0.106E+00    0.164E-01
DAV:   2    -0.832603924252E+03   -0.98469E-03   -0.12329E-02  4640   0.134E-01    0.108E-01
DAV:   3    -0.832603874441E+03    0.49812E-04   -0.18090E-04  4850   0.209E-02    0.835E-02
DAV:   4    -0.832603951325E+03   -0.76884E-04   -0.47762E-04  4330   0.307E-02    0.225E-02
DAV:   5    -0.832603955461E+03   -0.41358E-05   -0.56128E-05  4000   0.104E-02
   7 F= -.84027649E+03 E0= -.84027649E+03  d E =-.272565E-02  mag=    -0.0000
       N       E                     dE             d eps       ncg     rms          rms(c)
DAV:   1    -0.832605948362E+03   -0.19970E-02   -0.11791E+00  4580   0.133E+00    0.230E-01
DAV:   2    -0.832607601910E+03   -0.16535E-02   -0.21634E-02  4650   0.169E-01    0.138E-01
DAV:   3    -0.832607529731E+03    0.72178E-04   -0.36627E-04  4980   0.284E-02    0.103E-01
DAV:   4    -0.832607603778E+03   -0.74047E-04   -0.46231E-04  4370   0.307E-02    0.257E-02
DAV:   5    -0.832607632731E+03   -0.28953E-04   -0.80298E-05  4240   0.116E-02    0.172E-02
DAV:   6    -0.832607629678E+03    0.30527E-05   -0.34591E-05  3690   0.101E-02
   8 F= -.84027981E+03 E0= -.84027981E+03  d E =-.331895E-02  mag=     0.0000
       N       E                     dE             d eps       ncg     rms          rms(c)
DAV:   1    -0.832610057121E+03   -0.24244E-02   -0.13902E+00  4560   0.150E+00    0.234E-01
DAV:   2    -0.832612080411E+03   -0.20233E-02   -0.24852E-02  4670   0.192E-01    0.152E-01
DAV:   3    -0.832611996770E+03    0.83641E-04   -0.35837E-04  5250   0.300E-02    0.117E-01
DAV:   4    -0.832612132459E+03   -0.13569E-03   -0.90653E-04  4450   0.428E-02    0.307E-02
DAV:   5    -0.832612139411E+03   -0.69525E-05   -0.11151E-04  4710   0.148E-02    0.269E-02
DAV:   6    -0.832612129482E+03    0.99297E-05   -0.11259E-04  4010   0.154E-02    0.104E-02
DAV:   7    -0.832612129061E+03    0.42048E-06   -0.84279E-06  3500   0.469E-03
   9 F= -.84028391E+03 E0= -.84028391E+03  d E =-.410351E-02  mag=    -0.0000
       N       E                     dE             d eps       ncg     rms          rms(c)
DAV:   1    -0.832614819606E+03   -0.26901E-02   -0.16045E+00  4560   0.172E+00    0.240E-01
DAV:   2    -0.832617235038E+03   -0.24154E-02   -0.28190E-02  4670   0.222E-01    0.176E-01
DAV:   3    -0.832617100927E+03    0.13411E-03   -0.43302E-04  5370   0.345E-02    0.138E-01
DAV:   4    -0.832617314517E+03   -0.21359E-03   -0.17203E-03  4500   0.582E-02    0.532E-02
DAV:   5    -0.832617287363E+03    0.27154E-04   -0.19452E-04  4910   0.204E-02    0.426E-02
DAV:   6    -0.832617277011E+03    0.10352E-04   -0.37047E-04  4130   0.243E-02    0.166E-02
DAV:   7    -0.832617273205E+03    0.38066E-05   -0.30443E-05  3600   0.798E-03
  10 F= -.84028861E+03 E0= -.84028861E+03  d E =-.469564E-02  mag=    -0.0000
       N       E                     dE             d eps       ncg     rms          rms(c)
DAV:   1    -0.832618462851E+03   -0.11858E-02   -0.27126E+00  4560   0.222E+00    0.346E-01
DAV:   2    -0.832622792261E+03   -0.43294E-02   -0.52754E-02  4650   0.291E-01    0.220E-01
DAV:   3    -0.832622616140E+03    0.17612E-03   -0.76442E-04  5380   0.433E-02    0.170E-01
DAV:   4    -0.832622855879E+03   -0.23974E-03   -0.18326E-03  4570   0.603E-02    0.443E-02
DAV:   5    -0.832622873215E+03   -0.17336E-04   -0.22040E-04  4960   0.211E-02    0.380E-02
DAV:   6    -0.832622854457E+03    0.18758E-04   -0.23205E-04  4110   0.207E-02    0.151E-02
DAV:   7    -0.832622853607E+03    0.84930E-06   -0.16554E-05  3720   0.632E-03
  11 F= -.84029364E+03 E0= -.84029364E+03  d E =-.502874E-02  mag=    -0.0000
       N       E                     dE             d eps       ncg     rms          rms(c)
DAV:   1    -0.832622016783E+03    0.83767E-03   -0.42004E+00  4560   0.282E+00    0.456E-01
DAV:   2    -0.832628970311E+03   -0.69535E-02   -0.86801E-02  4630   0.373E-01    0.278E-01
DAV:   3    -0.832628672261E+03    0.29805E-03   -0.13865E-03  5360   0.567E-02    0.212E-01
DAV:   4    -0.832628928409E+03   -0.25615E-03   -0.24670E-03  4870   0.699E-02    0.531E-02
DAV:   5    -0.832628980665E+03   -0.52256E-04   -0.29978E-04  4920   0.246E-02    0.419E-02
DAV:   6    -0.832628961839E+03    0.18826E-04   -0.29268E-04  4180   0.235E-02    0.185E-02
DAV:   7    -0.832628960166E+03    0.16726E-05   -0.21891E-05  3850   0.736E-03
  12 F= -.84029908E+03 E0= -.84029908E+03  d E =-.544041E-02  mag=    -0.0000
       N       E                     dE             d eps       ncg     rms          rms(c)
DAV:   1    -0.832628024554E+03    0.93728E-03   -0.44564E+00  4540   0.323E+00    0.432E-01
DAV:   2    -0.832636037892E+03   -0.80133E-02   -0.91319E-02  4650   0.435E-01    0.316E-01
DAV:   3    -0.832635579442E+03    0.45845E-03   -0.13774E-03  5480   0.626E-02    0.250E-01
DAV:   4    -0.832636146206E+03   -0.56676E-03   -0.61866E-03  4830   0.111E-01    0.105E-01
DAV:   5    -0.832636062459E+03    0.83747E-04   -0.59252E-04  4920   0.365E-02    0.928E-02
DAV:   6    -0.832635927045E+03    0.13541E-03   -0.15471E-03  4320   0.483E-02    0.251E-02
DAV:   7    -0.832635928706E+03   -0.16612E-05   -0.79886E-05  4120   0.131E-02
  13 F= -.84030530E+03 E0= -.84030530E+03  d E =-.621866E-02  mag=    -0.0000
       N       E                     dE             d eps       ncg     rms          rms(c)
DAV:   1    -0.832626893230E+03    0.90338E-02   -0.90314E+00  4540   0.441E+00    0.709E-01
DAV:   2    -0.832642949384E+03   -0.16056E-01   -0.20606E-01  4650   0.602E-01    0.413E-01
DAV:   3    -0.832642248057E+03    0.70133E-03   -0.41119E-03  5400   0.959E-02    0.308E-01
DAV:   4    -0.832642392252E+03   -0.14419E-03   -0.36670E-03  4930   0.948E-02    0.877E-02
DAV:   5    -0.832642599308E+03   -0.20706E-03   -0.68816E-04  4880   0.381E-02    0.525E-02
DAV:   6    -0.832642576882E+03    0.22426E-04   -0.37254E-04  4580   0.302E-02    0.240E-02
DAV:   7    -0.832642578125E+03   -0.12432E-05   -0.36541E-05  3960   0.106E-02
  14 F= -.84031108E+03 E0= -.84031108E+03  d E =-.578576E-02  mag=    -0.0000
       N       E                     dE             d eps       ncg     rms          rms(c)
DAV:   1    -0.832644908719E+03   -0.23318E-02   -0.11753E-01  4740   0.640E-01    0.897E-02
DAV:   2    -0.832645118868E+03   -0.21015E-03   -0.32711E-03  4990   0.993E-02    0.749E-02
DAV:   3    -0.832645051001E+03    0.67867E-04   -0.18787E-04  5420   0.249E-02    0.506E-02
DAV:   4    -0.832645020824E+03    0.30177E-04   -0.67649E-05  4500   0.159E-02    0.273E-02
DAV:   5    -0.832645017082E+03    0.37427E-05   -0.32003E-05  3640   0.114E-02
  15 F= -.84031351E+03 E0= -.84031351E+03  d E =-.242855E-02  mag=     0.0000
       N       E                     dE             d eps       ncg     rms          rms(c)
DAV:   1    -0.832643830210E+03    0.11906E-02   -0.12194E-01  4660   0.662E-01    0.937E-02
DAV:   2    -0.832644049346E+03   -0.21914E-03   -0.34176E-03  4920   0.102E-01    0.788E-02
DAV:   3    -0.832643977461E+03    0.71885E-04   -0.21083E-04  5360   0.254E-02    0.513E-02
DAV:   4    -0.832643954314E+03    0.23147E-04   -0.80422E-05  4200   0.161E-02    0.278E-02
DAV:   5    -0.832643953833E+03    0.48155E-06   -0.25048E-05  3420   0.105E-02
  16 F= -.84031243E+03 E0= -.84031243E+03  d E =0.108254E-02  mag=     0.0000
       N       E                     dE             d eps       ncg     rms          rms(c)
DAV:   1    -0.832644680714E+03   -0.72640E-03   -0.66712E-03  4620   0.148E-01    0.211E-02
DAV:   2    -0.832644692134E+03   -0.11420E-04   -0.19210E-04  4990   0.235E-02    0.176E-02
DAV:   3    -0.832644687835E+03    0.42995E-05   -0.94618E-06  3410   0.595E-03
  17 F= -.84031316E+03 E0= -.84031316E+03  d E =-.734958E-03  mag=     0.0000
       N       E                     dE             d eps       ncg     rms          rms(c)
DAV:   1    -0.832645503635E+03   -0.81150E-03   -0.20820E-02  4700   0.259E-01    0.408E-02
DAV:   2    -0.832645533781E+03   -0.30146E-04   -0.53860E-04  5150   0.390E-02    0.329E-02
DAV:   3    -0.832645521141E+03    0.12640E-04   -0.32042E-05  3970   0.106E-02    0.220E-02
DAV:   4    -0.832645517008E+03    0.41331E-05   -0.14627E-05  3280   0.776E-03
  18 F= -.84031399E+03 E0= -.84031399E+03  d E =-.829836E-03  mag=    -0.0000
       N       E                     dE             d eps       ncg     rms          rms(c)
DAV:   1    -0.832645760146E+03   -0.23900E-03   -0.31220E-02  4650   0.313E-01    0.459E-02
DAV:   2    -0.832645811436E+03   -0.51290E-04   -0.79998E-04  5100   0.469E-02    0.352E-02
DAV:   3    -0.832645798284E+03    0.13152E-04   -0.43627E-05  4175   0.120E-02    0.232E-02
DAV:   4    -0.832645794881E+03    0.34030E-05   -0.14488E-05  3240   0.774E-03
  19 F= -.84031427E+03 E0= -.84031427E+03  d E =-.275962E-03  mag=     0.0000
       N       E                     dE             d eps       ncg     rms          rms(c)
DAV:   1    -0.832645816471E+03   -0.18187E-04   -0.49468E-05  4060   0.142E-02    0.369E-03
DAV:   2    -0.832645816544E+03   -0.73138E-07   -0.29892E-06  2420   0.335E-03
  20 F= -.84031429E+03 E0= -.84031429E+03  d E =-.210350E-04  mag=     0.0000
       N       E                     dE             d eps       ncg     rms          rms(c)
DAV:   1    -0.832645855941E+03   -0.39470E-04   -0.13974E-04  4240   0.228E-02    0.325E-03
DAV:   2    -0.832645856137E+03   -0.19627E-06   -0.34882E-06  2400   0.353E-03
  21 F= -.84031433E+03 E0= -.84031433E+03  d E =-.383792E-04  mag=     0.0000
       N       E                     dE             d eps       ncg     rms          rms(c)
DAV:   1    -0.832645910720E+03   -0.54779E-04   -0.30558E-04  4380   0.338E-02    0.489E-03
DAV:   2    -0.832645911118E+03   -0.39741E-06   -0.74018E-06  2600   0.504E-03
  22 F= -.84031438E+03 E0= -.84031438E+03  d E =-.531358E-04  mag=     0.0000
       N       E                     dE             d eps       ncg     rms          rms(c)
DAV:   1    -0.832645977046E+03   -0.66325E-04   -0.51524E-04  4460   0.436E-02    0.695E-03
DAV:   2    -0.832645977615E+03   -0.56987E-06   -0.11862E-05  2980   0.631E-03
  23 F= -.84031445E+03 E0= -.84031445E+03  d E =-.641080E-04  mag=     0.0000
       N       E                     dE             d eps       ncg     rms          rms(c)
DAV:   1    -0.832646051275E+03   -0.74230E-04   -0.75380E-04  4460   0.523E-02    0.872E-03
DAV:   2    -0.832646052080E+03   -0.80514E-06   -0.17065E-05  3200   0.748E-03
  24 F= -.84031452E+03 E0= -.84031452E+03  d E =-.715635E-04  mag=     0.0000
       N       E                     dE             d eps       ncg     rms          rms(c)
DAV:   1    -0.832646132044E+03   -0.80769E-04   -0.10097E-03  4460   0.600E-02    0.103E-02
DAV:   2    -0.832646133107E+03   -0.10636E-05   -0.22561E-05  3540   0.848E-03
  25 F= -.84031459E+03 E0= -.84031459E+03  d E =-.776126E-04  mag=     0.0000
       N       E                     dE             d eps       ncg     rms          rms(c)
DAV:   1    -0.832646228914E+03   -0.96870E-04   -0.15853E-03  4460   0.744E-02    0.123E-02
DAV:   2    -0.832646230654E+03   -0.17395E-05   -0.34951E-05  3960   0.104E-02
  26 F= -.84031469E+03 E0= -.84031469E+03  d E =-.932752E-04  mag=     0.0000
       N       E                     dE             d eps       ncg     rms          rms(c)
DAV:   1    -0.832646349661E+03   -0.12075E-03   -0.24391E-03  4500   0.914E-02    0.150E-02
DAV:   2    -0.832646352315E+03   -0.26537E-05   -0.52645E-05  4140   0.125E-02
  27 F= -.84031480E+03 E0= -.84031480E+03  d E =-.116371E-03  mag=     0.0000
       N       E                     dE             d eps       ncg     rms          rms(c)
DAV:   1    -0.832646505944E+03   -0.15628E-03   -0.37481E-03  4560   0.112E-01    0.183E-02
DAV:   2    -0.832646510049E+03   -0.41052E-05   -0.79080E-05  4440   0.151E-02
  28 F= -.84031496E+03 E0= -.84031496E+03  d E =-.151535E-03  mag=     0.0000
       N       E                     dE             d eps       ncg     rms          rms(c)
DAV:   1    -0.832646710110E+03   -0.20417E-03   -0.58646E-03  4530   0.140E-01    0.226E-02
DAV:   2    -0.832646716750E+03   -0.66398E-05   -0.12478E-04  4570   0.189E-02    0.175E-02
DAV:   3    -0.832646717972E+03   -0.12221E-05   -0.24421E-06  2710   0.345E-03
  29 F= -.84031516E+03 E0= -.84031516E+03  d E =-.200649E-03  mag=     0.0000
       N       E                     dE             d eps       ncg     rms          rms(c)
DAV:   1    -0.832646971201E+03   -0.25445E-03   -0.91091E-03  4540   0.175E-01    0.197E-02
DAV:   2    -0.832646985945E+03   -0.14744E-04   -0.19280E-04  4510   0.231E-02    0.133E-02
DAV:   3    -0.832646985887E+03    0.57909E-07   -0.23917E-06  2540   0.320E-03
  30 F= -.84031542E+03 E0= -.84031542E+03  d E =-.259072E-03  mag=     0.0000
       N       E                     dE             d eps       ncg     rms          rms(c)
DAV:   1    -0.832647283303E+03   -0.29736E-03   -0.14295E-02  4530   0.218E-01    0.243E-02
DAV:   2    -0.832647307273E+03   -0.23970E-04   -0.30960E-04  4540   0.292E-02    0.168E-02
DAV:   3    -0.832647306658E+03    0.61482E-06   -0.40043E-06  3090   0.414E-03
  31 F= -.84031573E+03 E0= -.84031573E+03  d E =-.309779E-03  mag=     0.0000
       N       E                     dE             d eps       ncg     rms          rms(c)
DAV:   1    -0.832647658054E+03   -0.35078E-03   -0.21761E-02  4500   0.268E-01    0.304E-02
DAV:   2    -0.832647693704E+03   -0.35649E-04   -0.46697E-04  4540   0.357E-02    0.209E-02
DAV:   3    -0.832647692931E+03    0.77286E-06   -0.63084E-06  3390   0.503E-03
  32 F= -.84031610E+03 E0= -.84031610E+03  d E =-.372010E-03  mag=     0.0000
       N       E                     dE             d eps       ncg     rms          rms(c)
DAV:   1    -0.832648119609E+03   -0.42591E-03   -0.32627E-02  4520   0.325E-01    0.374E-02
DAV:   2    -0.832648171986E+03   -0.52376E-04   -0.69594E-04  4520   0.432E-02    0.256E-02
DAV:   3    -0.832648171117E+03    0.86860E-06   -0.93734E-06  3825   0.604E-03
  33 F= -.84031656E+03 E0= -.84031656E+03  d E =-.458845E-03  mag=     0.0000
       N       E                     dE             d eps       ncg     rms          rms(c)
DAV:   1    -0.832648707453E+03   -0.53547E-03   -0.48910E-02  4510   0.396E-01    0.460E-02
DAV:   2    -0.832648784793E+03   -0.77340E-04   -0.10388E-03  4520   0.525E-02    0.313E-02
DAV:   3    -0.832648783793E+03    0.99956E-06   -0.14108E-05  3895   0.731E-03
  34 F= -.84031714E+03 E0= -.84031714E+03  d E =-.586693E-03  mag=     0.0000
       N       E                     dE             d eps       ncg     rms          rms(c)
DAV:   1    -0.832649447961E+03   -0.66317E-03   -0.74216E-02  4510   0.483E-01    0.569E-02
DAV:   2    -0.832649565242E+03   -0.11728E-03   -0.15788E-03  4480   0.641E-02    0.387E-02
DAV:   3    -0.832649564192E+03    0.10504E-05   -0.21987E-05  4235   0.895E-03
  35 F= -.84031789E+03 E0= -.84031789E+03  d E =-.745001E-03  mag=     0.0000
       N       E                     dE             d eps       ncg     rms          rms(c)
DAV:   1    -0.832650352104E+03   -0.78686E-03   -0.11358E-01  4510   0.592E-01    0.709E-02
DAV:   2    -0.832650533748E+03   -0.18164E-03   -0.24170E-03  4470   0.782E-02    0.478E-02
DAV:   3    -0.832650531656E+03    0.20923E-05   -0.33605E-05  4520   0.108E-02
  36 F= -.84031881E+03 E0= -.84031881E+03  d E =-.921447E-03  mag=     0.0000
       N       E                     dE             d eps       ncg     rms          rms(c)
DAV:   1    -0.832651473996E+03   -0.94025E-03   -0.17279E-01  4520   0.722E-01    0.878E-02
DAV:   2    -0.832651756907E+03   -0.28291E-03   -0.36877E-03  4450   0.953E-02    0.588E-02
DAV:   3    -0.832651753548E+03    0.33595E-05   -0.50450E-05  4930   0.130E-02
  37 F= -.84031997E+03 E0= -.84031997E+03  d E =-.116384E-02  mag=     0.0000
       N       E                     dE             d eps       ncg     rms          rms(c)
DAV:   1    -0.832652847428E+03   -0.10905E-02   -0.26480E-01  4500   0.885E-01    0.109E-01
DAV:   2    -0.832653294303E+03   -0.44688E-03   -0.56823E-03  4450   0.117E-01    0.725E-02
DAV:   3    -0.832653287658E+03    0.66450E-05   -0.76584E-05  5090   0.157E-02
  38 F= -.84032143E+03 E0= -.84032143E+03  d E =-.145957E-02  mag=     0.0000
       N       E                     dE             d eps       ncg     rms          rms(c)
DAV:   1    -0.832654449328E+03   -0.11550E-02   -0.40725E-01  4500   0.108E+00    0.136E-01
DAV:   2    -0.832655149224E+03   -0.69990E-03   -0.87279E-03  4450   0.142E-01    0.898E-02
DAV:   3    -0.832655138427E+03    0.10797E-04   -0.11595E-04  5190   0.190E-02    0.690E-02
DAV:   4    -0.832655236642E+03   -0.98215E-04   -0.16613E-04  4430   0.227E-02    0.141E-02
DAV:   5    -0.832655239902E+03   -0.32591E-05   -0.26093E-05  4140   0.855E-03
  39 F= -.84032328E+03 E0= -.84032328E+03  d E =-.185069E-02  mag=     0.0000
       N       E                     dE             d eps       ncg     rms          rms(c)
DAV:   1    -0.832656323661E+03   -0.10870E-02   -0.63995E-01  4540   0.134E+00    0.163E-01
DAV:   2    -0.832657545069E+03   -0.12214E-02   -0.14493E-02  4620   0.182E-01    0.107E-01
DAV:   3    -0.832657508666E+03    0.36404E-04   -0.17867E-04  5360   0.238E-02    0.834E-02
DAV:   4    -0.832657624739E+03   -0.11607E-03   -0.37707E-04  4470   0.322E-02    0.216E-02
DAV:   5    -0.832657625407E+03   -0.66851E-06   -0.50071E-05  4560   0.116E-02
  40 F= -.84032554E+03 E0= -.84032554E+03  d E =-.225318E-02  mag=     0.0000
       N       E                     dE             d eps       ncg     rms          rms(c)
DAV:   1    -0.832658404472E+03   -0.77973E-03   -0.99750E-01  4540   0.167E+00    0.204E-01
DAV:   2    -0.832660368220E+03   -0.19637E-02   -0.22899E-02  4620   0.228E-01    0.133E-01
DAV:   3    -0.832660313179E+03    0.55041E-04   -0.27703E-04  5400   0.294E-02    0.104E-01
DAV:   4    -0.832660475518E+03   -0.16234E-03   -0.61450E-04  4490   0.403E-02    0.282E-02
DAV:   5    -0.832660474813E+03    0.70516E-06   -0.78598E-05  4900   0.144E-02
  41 F= -.84032822E+03 E0= -.84032822E+03  d E =-.268419E-02  mag=     0.0000
       N       E                     dE             d eps       ncg     rms          rms(c)
DAV:   1    -0.832660985175E+03   -0.50966E-03   -0.13721E+00  4540   0.195E+00    0.243E-01
DAV:   2    -0.832663696370E+03   -0.27112E-02   -0.31500E-02  4600   0.265E-01    0.159E-01
DAV:   3    -0.832663619333E+03    0.77037E-04   -0.39381E-04  5370   0.349E-02    0.124E-01
DAV:   4    -0.832663816802E+03   -0.19747E-03   -0.88866E-04  4530   0.479E-02    0.341E-02
DAV:   5    -0.832663816055E+03    0.74774E-06   -0.11278E-04  4950   0.172E-02    0.295E-02
DAV:   6    -0.832663804814E+03    0.11241E-04   -0.14708E-04  4100   0.173E-02    0.104E-02
DAV:   7    -0.832663804982E+03   -0.16893E-06   -0.10318E-05  3660   0.518E-03
  42 F= -.84033134E+03 E0= -.84033134E+03  d E =-.312010E-02  mag=     0.0000
       N       E                     dE             d eps       ncg     rms          rms(c)
DAV:   1    -0.832664212839E+03   -0.40803E-03   -0.16025E+00  4540   0.214E+00    0.259E-01
DAV:   2    -0.832667315011E+03   -0.31022E-02   -0.36065E-02  4620   0.287E-01    0.174E-01
DAV:   3    -0.832667208505E+03    0.10651E-03   -0.46802E-04  5380   0.388E-02    0.136E-01
DAV:   4    -0.832667421113E+03   -0.21261E-03   -0.10866E-03  4610   0.548E-02    0.376E-02
DAV:   5    -0.832667417019E+03    0.40945E-05   -0.14159E-04  5000   0.198E-02    0.318E-02
DAV:   6    -0.832667405487E+03    0.11531E-04   -0.18629E-04  4140   0.195E-02    0.122E-02
DAV:   7    -0.832667405234E+03    0.25337E-06   -0.12567E-05  3700   0.571E-03
  43 F= -.84033469E+03 E0= -.84033469E+03  d E =-.335103E-02  mag=     0.0000
       N       E                     dE             d eps       ncg     rms          rms(c)
DAV:   1    -0.832666778208E+03    0.62728E-03   -0.20740E+00  4540   0.253E+00    0.292E-01
DAV:   2    -0.832670788623E+03   -0.40104E-02   -0.47387E-02  4610   0.343E-01    0.194E-01
DAV:   3    -0.832670649856E+03    0.13877E-03   -0.64189E-04  5420   0.473E-02    0.149E-01
DAV:   4    -0.832670864436E+03   -0.21458E-03   -0.11190E-03  4890   0.615E-02    0.365E-02
DAV:   5    -0.832670878911E+03   -0.14475E-04   -0.17204E-04  5000   0.224E-02    0.291E-02
DAV:   6    -0.832670870261E+03    0.86499E-05   -0.12646E-04  4160   0.180E-02    0.118E-02
DAV:   7    -0.832670871024E+03   -0.76288E-06   -0.11031E-05  3760   0.567E-03
  44 F= -.84033790E+03 E0= -.84033790E+03  d E =-.320381E-02  mag=     0.0000
       N       E                     dE             d eps       ncg     rms          rms(c)
DAV:   1    -0.832668077891E+03    0.27924E-02   -0.29502E+00  4520   0.320E+00    0.329E-01
DAV:   2    -0.832673905652E+03   -0.58278E-02   -0.68634E-02  4580   0.440E-01    0.223E-01
DAV:   3    -0.832673699678E+03    0.20597E-03   -0.93233E-04  5350   0.605E-02    0.172E-01
DAV:   4    -0.832673935003E+03   -0.23533E-03   -0.13988E-03  5050   0.760E-02    0.426E-02
DAV:   5    -0.832673965878E+03   -0.30875E-04   -0.24659E-04  5020   0.281E-02    0.306E-02
DAV:   6    -0.832673959941E+03    0.59365E-05   -0.12355E-04  4220   0.190E-02    0.126E-02
DAV:   7    -0.832673961645E+03   -0.17035E-05   -0.11654E-05  3720   0.608E-03
  45 F= -.84034072E+03 E0= -.84034072E+03  d E =-.282169E-02  mag=    -0.0000
       N       E                     dE             d eps       ncg     rms          rms(c)
DAV:   1    -0.832666610295E+03    0.73496E-02   -0.47769E+00  4520   0.421E+00    0.390E-01
DAV:   2    -0.832676460662E+03   -0.98504E-02   -0.11298E-01  4540   0.583E-01    0.273E-01
DAV:   3    -0.832676098729E+03    0.36193E-03   -0.14818E-03  5440   0.787E-02    0.212E-01
DAV:   4    -0.832676334437E+03   -0.23571E-03   -0.22675E-03  5170   0.102E-01    0.551E-02
DAV:   5    -0.832676370704E+03   -0.36266E-04   -0.41896E-04  4960   0.378E-02    0.378E-02
DAV:   6    -0.832676373384E+03   -0.26806E-05   -0.19381E-04  4280   0.243E-02    0.153E-02
DAV:   7    -0.832676376147E+03   -0.27626E-05   -0.16570E-05  3780   0.734E-03
  46 F= -.84034285E+03 E0= -.84034285E+03  d E =-.213178E-02  mag=    -0.0000
       N       E                     dE             d eps       ncg     rms          rms(c)
DAV:   1    -0.832661494144E+03    0.14879E-01   -0.78794E+00  4520   0.542E+00    0.500E-01
DAV:   2    -0.832678212908E+03   -0.16719E-01   -0.19001E-01  4570   0.757E-01    0.346E-01
DAV:   3    -0.832677574869E+03    0.63804E-03   -0.25653E-03  5480   0.103E-01    0.267E-01
DAV:   4    -0.832677625474E+03   -0.50605E-04   -0.29967E-03  5230   0.123E-01    0.717E-02
DAV:   5    -0.832677760707E+03   -0.13523E-03   -0.68862E-04  4900   0.467E-02    0.440E-02
DAV:   6    -0.832677758609E+03    0.20981E-05   -0.17479E-04  4480   0.275E-02    0.180E-02
DAV:   7    -0.832677767516E+03   -0.89071E-05   -0.23270E-05  4000   0.903E-03
  47 F= -.84034402E+03 E0= -.84034402E+03  d E =-.116619E-02  mag=    -0.0000
       N       E                     dE             d eps       ncg     rms          rms(c)
DAV:   1    -0.832642404443E+03    0.35354E-01   -0.11469E+01  4460   0.660E+00    0.614E-01
DAV:   2    -0.832668100107E+03   -0.25696E-01   -0.29083E-01  4670   0.947E-01    0.457E-01
DAV:   3    -0.832666790577E+03    0.13095E-02   -0.46023E-03  5600   0.136E-01    0.363E-01
DAV:   4    -0.832666041946E+03    0.74863E-03   -0.62624E-03  4780   0.175E-01    0.116E-01
DAV:   5    -0.832666285774E+03   -0.24383E-03   -0.15169E-03  4900   0.686E-02    0.733E-02
DAV:   6    -0.832666280199E+03    0.55752E-05   -0.49271E-04  4780   0.465E-02    0.278E-02
DAV:   7    -0.832666298952E+03   -0.18753E-04   -0.57337E-05  4760   0.149E-02    0.188E-02
DAV:   8    -0.832666300133E+03   -0.11805E-05   -0.23871E-05  3840   0.121E-02
  48 F= -.84033208E+03 E0= -.84033208E+03  d E =0.119377E-01  mag=    -0.0000
       N       E                     dE             d eps       ncg     rms          rms(c)
DAV:   1    -0.832679088718E+03   -0.12790E-01   -0.15483E+00  4490   0.231E+00    0.278E-01
DAV:   2    -0.832682212960E+03   -0.31242E-02   -0.41717E-02  5200   0.343E-01    0.247E-01
DAV:   3    -0.832681623647E+03    0.58931E-03   -0.13095E-03  5760   0.665E-02    0.197E-01
DAV:   4    -0.832680952825E+03    0.67082E-03   -0.14541E-03  4860   0.755E-02    0.824E-02
DAV:   5    -0.832680947492E+03    0.53335E-05   -0.55608E-04  4860   0.395E-02    0.319E-02
DAV:   6    -0.832680949155E+03   -0.16630E-05   -0.61468E-05  4600   0.143E-02
  49 F= -.84034684E+03 E0= -.84034684E+03  d E =-.147659E-01  mag=    -0.0000
       N       E                     dE             d eps       ncg     rms          rms(c)
DAV:   1    -0.832681734616E+03   -0.78712E-03   -0.81649E-03  4520   0.169E-01    0.213E-02
DAV:   2    -0.832681746652E+03   -0.12036E-04   -0.21804E-04  5200   0.254E-02    0.209E-02
DAV:   3    -0.832681742001E+03    0.46510E-05   -0.58956E-06  2860   0.489E-03
  50 F= -.84034762E+03 E0= -.84034762E+03  d E =-.780071E-03  mag=    -0.0000
       N       E                     dE             d eps       ncg     rms          rms(c)
DAV:   1    -0.832682442203E+03   -0.69555E-03   -0.23036E-02  4560   0.284E-01    0.364E-02
DAV:   2    -0.832682481852E+03   -0.39650E-04   -0.56927E-04  5100   0.407E-02    0.333E-02
DAV:   3    -0.832682472335E+03    0.95174E-05   -0.16954E-05  3740   0.806E-03
  51 F= -.84034833E+03 E0= -.84034833E+03  d E =-.706463E-03  mag=    -0.0000
       N       E                     dE             d eps       ncg     rms          rms(c)
DAV:   1    -0.832682417489E+03    0.64363E-04   -0.27227E-02  4520   0.310E-01    0.413E-02
DAV:   2    -0.832682464919E+03   -0.47429E-04   -0.65723E-04  4980   0.440E-02    0.368E-02
DAV:   3    -0.832682455201E+03    0.97172E-05   -0.19574E-05  3900   0.870E-03
  52 F= -.84034828E+03 E0= -.84034828E+03  d E =0.489994E-04  mag=    -0.0000
       N       E                     dE             d eps       ncg     rms          rms(c)
DAV:   1    -0.832682499205E+03   -0.34286E-04   -0.24025E-04  4440   0.292E-02    0.877E-03
DAV:   2    -0.832682500265E+03   -0.10605E-05   -0.17805E-05  3150   0.725E-03
  53 F= -.84034833E+03 E0= -.84034833E+03  d E =-.449781E-04  mag=    -0.0000
       N       E                     dE             d eps       ncg     rms          rms(c)
DAV:   1    -0.832682592685E+03   -0.93480E-04   -0.45270E-04  4520   0.390E-02    0.557E-03
DAV:   2    -0.832682593327E+03   -0.64168E-06   -0.11523E-05  2720   0.585E-03
  54 F= -.84034842E+03 E0= -.84034842E+03  d E =-.928998E-04  mag=    -0.0000
       N       E                     dE             d eps       ncg     rms          rms(c)
DAV:   1    -0.832682704472E+03   -0.11179E-03   -0.92744E-04  4620   0.556E-02    0.880E-03
DAV:   2    -0.832682705566E+03   -0.10936E-05   -0.22838E-05  3150   0.828E-03
  55 F= -.84034853E+03 E0= -.84034853E+03  d E =-.111836E-03  mag=    -0.0000
       N       E                     dE             d eps       ncg     rms          rms(c)
DAV:   1    -0.832682812091E+03   -0.10762E-03   -0.14108E-03  4480   0.682E-02    0.127E-02
DAV:   2    -0.832682813391E+03   -0.13001E-05   -0.34292E-05  3700   0.101E-02
  56 F= -.84034864E+03 E0= -.84034864E+03  d E =-.106803E-03  mag=    -0.0000
       N       E                     dE             d eps       ncg     rms          rms(c)
DAV:   1    -0.832682898955E+03   -0.86864E-04   -0.17870E-03  4430   0.758E-02    0.155E-02
DAV:   2    -0.832682900385E+03   -0.14294E-05   -0.41277E-05  4140   0.109E-02
  57 F= -.84034872E+03 E0= -.84034872E+03  d E =-.848278E-04  mag=    -0.0000
       N       E                     dE             d eps       ncg     rms          rms(c)
DAV:   1    -0.832682966033E+03   -0.67078E-04   -0.19723E-03  4470   0.781E-02    0.168E-02
DAV:   2    -0.832682967474E+03   -0.14410E-05   -0.43057E-05  3980   0.110E-02
  58 F= -.84034879E+03 E0= -.84034879E+03  d E =-.631941E-04  mag=    -0.0000
       N       E                     dE             d eps       ncg     rms          rms(c)
DAV:   1    -0.832683038480E+03   -0.72446E-04   -0.25200E-03  4450   0.854E-02    0.181E-02
DAV:   2    -0.832683040730E+03   -0.22507E-05   -0.54566E-05  4100   0.119E-02
  59 F= -.84034885E+03 E0= -.84034885E+03  d E =-.665972E-04  mag=    -0.0000
       N       E                     dE             d eps       ncg     rms          rms(c)
DAV:   1    -0.832683150021E+03   -0.11154E-03   -0.35538E-03  4480   0.984E-02    0.203E-02
DAV:   2    -0.832683153485E+03   -0.34632E-05   -0.74800E-05  4160   0.134E-02
  60 F= -.84034895E+03 E0= -.84034895E+03  d E =-.102202E-03  mag=    -0.0000
       N       E                     dE             d eps       ncg     rms          rms(c)
DAV:   1    -0.832683341480E+03   -0.19146E-03   -0.60362E-03  4500   0.129E-01    0.244E-02
DAV:   2    -0.832683348518E+03   -0.70382E-05   -0.12749E-04  4420   0.175E-02    0.184E-02
DAV:   3    -0.832683349227E+03   -0.70930E-06   -0.26832E-06  2810   0.337E-03
  61 F= -.84034913E+03 E0= -.84034913E+03  d E =-.180049E-03  mag=    -0.0000
       N       E                     dE             d eps       ncg     rms          rms(c)
DAV:   1    -0.832683640498E+03   -0.29198E-03   -0.10652E-02  4500   0.176E-01    0.227E-02
DAV:   2    -0.832683657671E+03   -0.17173E-04   -0.23129E-04  4440   0.239E-02    0.150E-02
DAV:   3    -0.832683657651E+03    0.19820E-07   -0.29378E-06  2780   0.340E-03
  62 F= -.84034942E+03 E0= -.84034942E+03  d E =-.286312E-03  mag=    -0.0000
       N       E                     dE             d eps       ncg     rms          rms(c)
DAV:   1    -0.832684028733E+03   -0.37106E-03   -0.19036E-02  4480   0.239E-01    0.297E-02
DAV:   2    -0.832684061090E+03   -0.32357E-04   -0.42517E-04  4440   0.328E-02    0.201E-02
DAV:   3    -0.832684060591E+03    0.49849E-06   -0.57296E-06  3210   0.468E-03
  63 F= -.84034979E+03 E0= -.84034979E+03  d E =-.373385E-03  mag=    -0.0000
       N       E                     dE             d eps       ncg     rms          rms(c)
DAV:   1    -0.832684463849E+03   -0.40276E-03   -0.31900E-02  4500   0.310E-01    0.388E-02
DAV:   2    -0.832684518158E+03   -0.54309E-04   -0.71285E-04  4440   0.425E-02    0.264E-02
DAV:   3    -0.832684517391E+03    0.76710E-06   -0.99231E-06  3640   0.608E-03
  64 F= -.84035021E+03 E0= -.84035021E+03  d E =-.419100E-03  mag=    -0.0000
       N       E                     dE             d eps       ncg     rms          rms(c)
DAV:   1    -0.832684952930E+03   -0.43477E-03   -0.49770E-02  4500   0.383E-01    0.486E-02
DAV:   2    -0.832685036325E+03   -0.83394E-04   -0.10950E-03  4440   0.522E-02    0.327E-02
DAV:   3    -0.832685035925E+03    0.40013E-06   -0.14786E-05  3700   0.730E-03
  65 F= -.84035069E+03 E0= -.84035069E+03  d E =-.472758E-03  mag=    -0.0000
       N       E                     dE             d eps       ncg     rms          rms(c)
DAV:   1    -0.832685590881E+03   -0.55456E-03   -0.73585E-02  4500   0.460E-01    0.593E-02
DAV:   2    -0.832685712180E+03   -0.12130E-03   -0.15981E-03  4420   0.624E-02    0.391E-02
DAV:   3    -0.832685712658E+03   -0.47842E-06   -0.21298E-05  3760   0.859E-03
  66 F= -.84035131E+03 E0= -.84035131E+03  d E =-.623556E-03  mag=    -0.0000
       N       E                     dE             d eps       ncg     rms          rms(c)
DAV:   1    -0.832686389655E+03   -0.67748E-03   -0.10604E-01  4500   0.548E-01    0.718E-02
DAV:   2    -0.832686564965E+03   -0.17531E-03   -0.23075E-03  4420   0.744E-02    0.474E-02
DAV:   3    -0.832686565304E+03   -0.33906E-06   -0.33192E-05  4180   0.105E-02
  67 F= -.84035210E+03 E0= -.84035210E+03  d E =-.791936E-03  mag=    -0.0000
       N       E                     dE             d eps       ncg     rms          rms(c)
DAV:   1    -0.832687257296E+03   -0.69233E-03   -0.14732E-01  4500   0.635E-01    0.864E-02
DAV:   2    -0.832687498407E+03   -0.24111E-03   -0.31797E-03  4420   0.859E-02    0.577E-02
DAV:   3    -0.832687496338E+03    0.20684E-05   -0.48776E-05  4480   0.124E-02
  68 F= -.84035296E+03 E0= -.84035296E+03  d E =-.857472E-03  mag=    -0.0000
       N       E                     dE             d eps       ncg     rms          rms(c)
DAV:   1    -0.832688287460E+03   -0.78905E-03   -0.17260E-01  4500   0.666E-01    0.959E-02
DAV:   2    -0.832688559245E+03   -0.27178E-03   -0.35936E-03  4420   0.888E-02    0.638E-02
DAV:   3    -0.832688556105E+03    0.31400E-05   -0.54150E-05  4500   0.127E-02
  69 F= -.84035392E+03 E0= -.84035392E+03  d E =-.964593E-03  mag=    -0.0000
       N       E                     dE             d eps       ncg     rms          rms(c)
DAV:   1    -0.832689495119E+03   -0.93587E-03   -0.19461E-01  4500   0.700E-01    0.102E-01
DAV:   2    -0.832689803042E+03   -0.30792E-03   -0.40156E-03  4400   0.930E-02    0.681E-02
DAV:   3    -0.832689797357E+03    0.56848E-05   -0.63090E-05  4700   0.136E-02
  70 F= -.84035505E+03 E0= -.84035505E+03  d E =-.112574E-02  mag=    -0.0000
       N       E                     dE             d eps       ncg     rms          rms(c)
DAV:   1    -0.832690653738E+03   -0.85070E-03   -0.22381E-01  4520   0.753E-01    0.109E-01
DAV:   2    -0.832691004783E+03   -0.35104E-03   -0.45566E-03  4400   0.992E-02    0.729E-02
DAV:   3    -0.832690997773E+03    0.70102E-05   -0.72216E-05  4680   0.146E-02
  71 F= -.84035612E+03 E0= -.84035612E+03  d E =-.107151E-02  mag=    -0.0000
       N       E                     dE             d eps       ncg     rms          rms(c)
DAV:   1    -0.832691849241E+03   -0.84446E-03   -0.28655E-01  4500   0.895E-01    0.120E-01
DAV:   2    -0.832692318801E+03   -0.46956E-03   -0.60283E-03  4420   0.120E-01    0.801E-02
DAV:   3    -0.832692309267E+03    0.95338E-05   -0.98609E-05  4820   0.177E-02
  72 F= -.84035730E+03 E0= -.84035730E+03  d E =-.118010E-02  mag=    -0.0000
       N       E                     dE             d eps       ncg     rms          rms(c)
DAV:   1    -0.832692720105E+03   -0.40130E-03   -0.41534E-01  4480   0.115E+00    0.138E-01
DAV:   2    -0.832693453442E+03   -0.73334E-03   -0.91201E-03  4400   0.156E-01    0.936E-02
DAV:   3    -0.832693438152E+03    0.15290E-04   -0.13832E-04  5120   0.222E-02    0.712E-02
DAV:   4    -0.832693511531E+03   -0.73379E-04   -0.16923E-04  4430   0.261E-02    0.164E-02
DAV:   5    -0.832693522481E+03   -0.10950E-04   -0.35552E-05  4400   0.103E-02    0.113E-02
DAV:   6    -0.832693521375E+03    0.11059E-05   -0.14048E-05  3500   0.732E-03
  73 F= -.84035837E+03 E0= -.84035837E+03  d E =-.107166E-02  mag=    -0.0000
       N       E                     dE             d eps       ncg     rms          rms(c)
DAV:   1    -0.832693476946E+03    0.45535E-04   -0.63208E-01  4520   0.149E+00    0.148E-01
DAV:   2    -0.832694747732E+03   -0.12708E-02   -0.14933E-02  4640   0.208E-01    0.101E-01
DAV:   3    -0.832694704187E+03    0.43545E-04   -0.19348E-04  5240   0.279E-02    0.786E-02
DAV:   4    -0.832694772956E+03   -0.68769E-04   -0.31251E-04  4550   0.366E-02    0.207E-02
DAV:   5    -0.832694782033E+03   -0.90774E-05   -0.58289E-05  4940   0.137E-02
  74 F= -.84035948E+03 E0= -.84035948E+03  d E =-.110988E-02  mag=    -0.0000
       N       E                     dE             d eps       ncg     rms          rms(c)
DAV:   1    -0.832693667605E+03    0.11054E-02   -0.10346E+00  4520   0.194E+00    0.185E-01
DAV:   2    -0.832695846074E+03   -0.21785E-02   -0.25067E-02  4660   0.272E-01    0.125E-01
DAV:   3    -0.832695789044E+03    0.57030E-04   -0.30364E-04  5340   0.355E-02    0.973E-02
DAV:   4    -0.832695885585E+03   -0.96541E-04   -0.44946E-04  4570   0.456E-02    0.249E-02
DAV:   5    -0.832695900895E+03   -0.15310E-04   -0.89411E-05  5000   0.172E-02    0.184E-02
DAV:   6    -0.832695901223E+03   -0.32804E-06   -0.42048E-05  3740   0.121E-02
  75 F= -.84036046E+03 E0= -.84036046E+03  d E =-.977456E-03  mag=    -0.0000
       N       E                     dE             d eps       ncg     rms          rms(c)
DAV:   1    -0.832693619218E+03    0.22817E-02   -0.15479E+00  4520   0.239E+00    0.223E-01
DAV:   2    -0.832696912324E+03   -0.32931E-02   -0.37632E-02  4640   0.334E-01    0.152E-01
DAV:   3    -0.832696818657E+03    0.93667E-04   -0.46642E-04  5480   0.437E-02    0.118E-01
DAV:   4    -0.832696911444E+03   -0.92787E-04   -0.62846E-04  4630   0.547E-02    0.302E-02
DAV:   5    -0.832696937195E+03   -0.25751E-04   -0.13747E-04  4980   0.211E-02    0.209E-02
DAV:   6    -0.832696936626E+03    0.56889E-06   -0.44403E-05  3940   0.129E-02
  76 F= -.84036136E+03 E0= -.84036136E+03  d E =-.900357E-03  mag=    -0.0000
       N       E                     dE             d eps       ncg     rms          rms(c)
DAV:   1    -0.832693885449E+03    0.30517E-02   -0.20016E+00  4520   0.272E+00    0.256E-01
DAV:   2    -0.832698160430E+03   -0.42750E-02   -0.48830E-02  4640   0.381E-01    0.175E-01
DAV:   3    -0.832698034531E+03    0.12590E-03   -0.62146E-04  5480   0.503E-02    0.136E-01
DAV:   4    -0.832698150664E+03   -0.11613E-03   -0.87557E-04  4670   0.642E-02    0.362E-02
DAV:   5    -0.832698180297E+03   -0.29633E-04   -0.18630E-04  5020   0.245E-02    0.259E-02
DAV:   6    -0.832698179998E+03    0.29910E-06   -0.80809E-05  4200   0.162E-02
  77 F= -.84036242E+03 E0= -.84036242E+03  d E =-.105635E-02  mag=    -0.0000
       N       E                     dE             d eps       ncg     rms          rms(c)
DAV:   1    -0.832694075387E+03    0.41049E-02   -0.25691E+00  4500   0.303E+00    0.304E-01
DAV:   2    -0.832699512141E+03   -0.54368E-02   -0.62676E-02  4660   0.426E-01    0.209E-01
DAV:   3    -0.832699314032E+03    0.19811E-03   -0.87876E-04  5400   0.585E-02    0.163E-01
DAV:   4    -0.832699393841E+03   -0.79809E-04   -0.11721E-03  4670   0.711E-02    0.448E-02
DAV:   5    -0.832699449626E+03   -0.55785E-04   -0.26665E-04  5120   0.279E-02    0.307E-02
DAV:   6    -0.832699443731E+03    0.58946E-05   -0.10026E-04  4280   0.181E-02    0.125E-02
DAV:   7    -0.832699446174E+03   -0.24433E-05   -0.11673E-05  3700   0.612E-03
  78 F= -.84036350E+03 E0= -.84036350E+03  d E =-.108769E-02  mag=    -0.0000
       N       E                     dE             d eps       ncg     rms          rms(c)
DAV:   1    -0.832700533358E+03   -0.10896E-02   -0.49373E-02  4460   0.428E-01    0.484E-02
DAV:   2    -0.832700635248E+03   -0.10189E-03   -0.13417E-03  5200   0.640E-02    0.440E-02
DAV:   3    -0.832700618527E+03    0.16720E-04   -0.37701E-05  4420   0.118E-02    0.361E-02
DAV:   4    -0.832700597628E+03    0.20899E-04   -0.68859E-05  4440   0.165E-02    0.135E-02
DAV:   5    -0.832700598288E+03   -0.65927E-06   -0.14527E-05  3140   0.663E-03
  79 F= -.84036463E+03 E0= -.84036463E+03  d E =-.112282E-02  mag=    -0.0000
       N       E                     dE             d eps       ncg     rms          rms(c)
DAV:   1    -0.832700213903E+03    0.38372E-03   -0.69180E-02  4400   0.506E-01    0.560E-02
DAV:   2    -0.832700364734E+03   -0.15083E-03   -0.18831E-03  5040   0.754E-02    0.475E-02
DAV:   3    -0.832700347845E+03    0.16889E-04   -0.46790E-05  4780   0.131E-02    0.385E-02
DAV:   4    -0.832700335094E+03    0.12751E-04   -0.79023E-05  4300   0.177E-02    0.141E-02
DAV:   5    -0.832700337058E+03   -0.19643E-05   -0.15781E-05  3420   0.708E-03
  80 F= -.84036432E+03 E0= -.84036432E+03  d E =0.306232E-03  mag=    -0.0000
       N       E                     dE             d eps       ncg     rms          rms(c)
DAV:   1    -0.832700658548E+03   -0.32345E-03   -0.26508E-03  4420   0.969E-02    0.115E-02
DAV:   2    -0.832700663790E+03   -0.52424E-05   -0.73360E-05  4580   0.147E-02
  81 F= -.84036465E+03 E0= -.84036465E+03  d E =-.327234E-03  mag=    -0.0000
       N       E                     dE             d eps       ncg     rms          rms(c)
DAV:   1    -0.832701069340E+03   -0.41079E-03   -0.90521E-03  4400   0.179E-01    0.268E-02
DAV:   2    -0.832701082979E+03   -0.13640E-04   -0.23556E-04  5340   0.266E-02    0.233E-02
DAV:   3    -0.832701077303E+03    0.56769E-05   -0.86969E-06  3160   0.602E-03
  82 F= -.84036506E+03 E0= -.84036506E+03  d E =-.412608E-03  mag=    -0.0000
       N       E                     dE             d eps       ncg     rms          rms(c)
DAV:   1    -0.832701292340E+03   -0.20936E-03   -0.14811E-02  4420   0.227E-01    0.295E-02
DAV:   2    -0.832701319406E+03   -0.27067E-04   -0.35609E-04  5260   0.321E-02    0.244E-02
DAV:   3    -0.832701315540E+03    0.38667E-05   -0.85727E-06  3440   0.591E-03
  83 F= -.84036529E+03 E0= -.84036529E+03  d E =-.233560E-03  mag=    -0.0000
       N       E                     dE             d eps       ncg     rms          rms(c)
DAV:   1    -0.832701336859E+03   -0.17452E-04   -0.17049E-02  4440   0.239E-01    0.306E-02
DAV:   2    -0.832701367753E+03   -0.30894E-04   -0.39993E-04  5100   0.333E-02    0.237E-02
DAV:   3    -0.832701365159E+03    0.25938E-05   -0.82365E-06  3540   0.572E-03
  84 F= -.84036533E+03 E0= -.84036533E+03  d E =-.385947E-04  mag=    -0.0000
       N       E                     dE             d eps       ncg     rms          rms(c)
DAV:   1    -0.832701442052E+03   -0.74300E-04   -0.16855E-02  4480   0.228E-01    0.296E-02
DAV:   2    -0.832701470596E+03   -0.28544E-04   -0.37486E-04  4620   0.311E-02    0.209E-02
DAV:   3    -0.832701470129E+03    0.46749E-06   -0.57080E-06  3440   0.465E-03
  85 F= -.84036542E+03 E0= -.84036542E+03  d E =-.868715E-04  mag=    -0.0000
       N       E                     dE             d eps       ncg     rms          rms(c)
DAV:   1    -0.832701782391E+03   -0.31180E-03   -0.18496E-02  4500   0.237E-01    0.296E-02
DAV:   2    -0.832701813576E+03   -0.31184E-04   -0.40720E-04  4420   0.322E-02    0.199E-02
DAV:   3    -0.832701813614E+03   -0.38111E-07   -0.51275E-06  3100   0.444E-03
  86 F= -.84036574E+03 E0= -.84036574E+03  d E =-.318701E-03  mag=    -0.0000
       N       E                     dE             d eps       ncg     rms          rms(c)
DAV:   1    -0.832702348298E+03   -0.53472E-03   -0.28968E-02  4480   0.306E-01    0.364E-02
DAV:   2    -0.832702401044E+03   -0.52745E-04   -0.67159E-04  4420   0.425E-02    0.254E-02
DAV:   3    -0.832702399809E+03    0.12348E-05   -0.98999E-06  3610   0.622E-03
  87 F= -.84036629E+03 E0= -.84036629E+03  d E =-.551826E-03  mag=    -0.0000
       N       E                     dE             d eps       ncg     rms          rms(c)
DAV:   1    -0.832702873932E+03   -0.47289E-03   -0.45746E-02  4480   0.391E-01    0.467E-02
DAV:   2    -0.832702958669E+03   -0.84737E-04   -0.10818E-03  4700   0.546E-02    0.340E-02
DAV:   3    -0.832702955711E+03    0.29578E-05   -0.17913E-05  4060   0.833E-03
  88 F= -.84036680E+03 E0= -.84036680E+03  d E =-.511413E-03  mag=    -0.0000
       N       E                     dE             d eps       ncg     rms          rms(c)
DAV:   1    -0.832703234529E+03   -0.27586E-03   -0.62063E-02  4480   0.445E-01    0.552E-02
DAV:   2    -0.832703344350E+03   -0.10982E-03   -0.14153E-03  4490   0.610E-02    0.388E-02
DAV:   3    -0.832703342773E+03    0.15772E-05   -0.21013E-05  4240   0.891E-03
  89 F= -.84036714E+03 E0= -.84036714E+03  d E =-.336640E-03  mag=    -0.0000
       N       E                     dE             d eps       ncg     rms          rms(c)
DAV:   1    -0.832703833398E+03   -0.48905E-03   -0.74650E-02  4500   0.471E-01    0.602E-02
DAV:   2    -0.832703959443E+03   -0.12604E-03   -0.16334E-03  4420   0.632E-02    0.400E-02
DAV:   3    -0.832703959827E+03   -0.38369E-06   -0.21947E-05  4000   0.878E-03
  90 F= -.84036771E+03 E0= -.84036771E+03  d E =-.568369E-03  mag=    -0.0000
       N       E                     dE             d eps       ncg     rms          rms(c)
DAV:   1    -0.832704700940E+03   -0.74150E-03   -0.10283E-01  4480   0.555E-01    0.707E-02
DAV:   2    -0.832704882986E+03   -0.18205E-03   -0.23249E-03  4420   0.757E-02    0.480E-02
DAV:   3    -0.832704878972E+03    0.40138E-05   -0.38457E-05  4560   0.114E-02
  91 F= -.84036858E+03 E0= -.84036858E+03  d E =-.875324E-03  mag=    -0.0000
       N       E                     dE             d eps       ncg     rms          rms(c)
DAV:   1    -0.832705273793E+03   -0.39081E-03   -0.13839E-01  4480   0.643E-01    0.845E-02
DAV:   2    -0.832705518370E+03   -0.24458E-03   -0.31444E-03  4550   0.875E-02    0.591E-02
DAV:   3    -0.832705510889E+03    0.74812E-05   -0.55301E-05  4820   0.135E-02
  92 F= -.84036917E+03 E0= -.84036917E+03  d E =-.588338E-03  mag=    -0.0000
       N       E                     dE             d eps       ncg     rms          rms(c)
DAV:   1    -0.832705598865E+03   -0.80494E-04   -0.52312E-04  4560   0.453E-02    0.121E-02
DAV:   2    -0.832705601970E+03   -0.31053E-05   -0.33038E-05  3980   0.981E-03
  93 F= -.84036926E+03 E0= -.84036926E+03  d E =-.897117E-04  mag=    -0.0000
       N       E                     dE             d eps       ncg     rms          rms(c)
DAV:   1    -0.832705697402E+03   -0.98538E-04   -0.12925E-03  4440   0.720E-02    0.109E-02
DAV:   2    -0.832705699685E+03   -0.22826E-05   -0.34666E-05  3940   0.108E-02
  94 F= -.84036935E+03 E0= -.84036935E+03  d E =-.949069E-04  mag=    -0.0000
       N       E                     dE             d eps       ncg     rms          rms(c)
DAV:   1    -0.832705773497E+03   -0.76094E-04   -0.22682E-03  4460   0.954E-02    0.150E-02
DAV:   2    -0.832705776638E+03   -0.31416E-05   -0.59501E-05  4760   0.142E-02
  95 F= -.84036943E+03 E0= -.84036943E+03  d E =-.730290E-04  mag=    -0.0000
       N       E                     dE             d eps       ncg     rms          rms(c)
DAV:   1    -0.832705808812E+03   -0.35315E-04   -0.27434E-03  4400   0.105E-01    0.183E-02
DAV:   2    -0.832705811992E+03   -0.31801E-05   -0.70477E-05  4960   0.154E-02
  96 F= -.84036946E+03 E0= -.84036946E+03  d E =-.309947E-04  mag=    -0.0000
       N       E                     dE             d eps       ncg     rms          rms(c)
DAV:   1    -0.832705831666E+03   -0.22854E-04   -0.25969E-03  4470   0.101E-01    0.185E-02
DAV:   2    -0.832705834682E+03   -0.30158E-05   -0.63778E-05  4590   0.143E-02
  97 F= -.84036948E+03 E0= -.84036948E+03  d E =-.185440E-04  mag=    -0.0000
       N       E                     dE             d eps       ncg     rms          rms(c)
DAV:   1    -0.832705891231E+03   -0.59565E-04   -0.26408E-03  4410   0.977E-02    0.171E-02
DAV:   2    -0.832705894923E+03   -0.36918E-05   -0.62432E-05  4100   0.135E-02
  98 F= -.84036953E+03 E0= -.84036953E+03  d E =-.565428E-04  mag=    -0.0000
       N       E                     dE             d eps       ncg     rms          rms(c)
DAV:   1    -0.832706027512E+03   -0.13628E-03   -0.43225E-03  4440   0.121E-01    0.185E-02
DAV:   2    -0.832706034665E+03   -0.71535E-05   -0.10225E-04  4380   0.166E-02    0.140E-02
DAV:   3    -0.832706035260E+03   -0.59447E-06   -0.14687E-06  2520   0.270E-03
  99 F= -.84036967E+03 E0= -.84036967E+03  d E =-.136542E-03  mag=    -0.0000
       N       E                     dE             d eps       ncg     rms          rms(c)
DAV:   1    -0.832706244132E+03   -0.20947E-03   -0.84132E-03  4480   0.165E-01    0.190E-02
DAV:   2    -0.832706260138E+03   -0.16006E-04   -0.19615E-04  4570   0.226E-02    0.129E-02
DAV:   3    -0.832706259633E+03    0.50476E-06   -0.26411E-06  2770   0.322E-03
 100 F= -.84036989E+03 E0= -.84036989E+03  d E =-.219044E-03  mag=    -0.0000
       N       E                     dE             d eps       ncg     rms          rms(c)
DAV:   1    -0.832706499234E+03   -0.23910E-03   -0.16686E-02  4480   0.229E-01    0.274E-02
DAV:   2    -0.832706530680E+03   -0.31446E-04   -0.38880E-04  4750   0.315E-02    0.192E-02
DAV:   3    -0.832706529394E+03    0.12866E-05   -0.55480E-06  3200   0.456E-03
 101 F= -.84037015E+03 E0= -.84037015E+03  d E =-.260159E-03  mag=    -0.0000
       N       E                     dE             d eps       ncg     rms          rms(c)
DAV:   1    -0.832706794836E+03   -0.26416E-03   -0.30832E-02  4500   0.307E-01    0.376E-02
DAV:   2    -0.832706850951E+03   -0.56114E-04   -0.70085E-04  4460   0.417E-02    0.255E-02
DAV:   3    -0.832706849699E+03    0.12523E-05   -0.96587E-06  3780   0.581E-03
 102 F= -.84037045E+03 E0= -.84037045E+03  d E =-.302395E-03  mag=    -0.0000
       N       E                     dE             d eps       ncg     rms          rms(c)
DAV:   1    -0.832707226305E+03   -0.37535E-03   -0.51785E-02  4520   0.397E-01    0.484E-02
DAV:   2    -0.832707319608E+03   -0.93303E-04   -0.11583E-03  4420   0.535E-02    0.321E-02
DAV:   3    -0.832707318773E+03    0.83433E-06   -0.14305E-05  3920   0.708E-03
 103 F= -.84037089E+03 E0= -.84037089E+03  d E =-.440077E-03  mag=    -0.0000
       N       E                     dE             d eps       ncg     rms          rms(c)
DAV:   1    -0.832707824832E+03   -0.50522E-03   -0.84001E-02  4500   0.511E-01    0.610E-02
DAV:   2    -0.832707978933E+03   -0.15410E-03   -0.18960E-03  4420   0.692E-02    0.406E-02
DAV:   3    -0.832707977536E+03    0.13964E-05   -0.23834E-05  4180   0.923E-03
 104 F= -.84037151E+03 E0= -.84037151E+03  d E =-.616297E-03  mag=    -0.0000
       N       E                     dE             d eps       ncg     rms          rms(c)
DAV:   1    -0.832708468179E+03   -0.48925E-03   -0.12768E-01  4500   0.629E-01    0.761E-02
DAV:   2    -0.832708700366E+03   -0.23219E-03   -0.28760E-03  4440   0.852E-02    0.511E-02
DAV:   3    -0.832708698636E+03    0.17306E-05   -0.38312E-05  4680   0.116E-02
 105 F= -.84037217E+03 E0= -.84037217E+03  d E =-.663983E-03  mag=    -0.0000
       N       E                     dE             d eps       ncg     rms          rms(c)
DAV:   1    -0.832709272266E+03   -0.57190E-03   -0.16902E-01  4520   0.708E-01    0.893E-02
DAV:   2    -0.832709566614E+03   -0.29435E-03   -0.37081E-03  4420   0.947E-02    0.594E-02
DAV:   3    -0.832709565854E+03    0.76005E-06   -0.50371E-05  4620   0.130E-02
 106 F= -.84037298E+03 E0= -.84037298E+03  d E =-.804195E-03  mag=    -0.0000
       N       E                     dE             d eps       ncg     rms          rms(c)
DAV:   1    -0.832710208184E+03   -0.64157E-03   -0.21571E-01  4500   0.793E-01    0.102E-01
DAV:   2    -0.832710581652E+03   -0.37347E-03   -0.47440E-03  4420   0.106E-01    0.686E-02
DAV:   3    -0.832710576933E+03    0.47195E-05   -0.73061E-05  4900   0.153E-02
 107 F= -.84037392E+03 E0= -.84037392E+03  d E =-.946065E-03  mag=    -0.0000
       N       E                     dE             d eps       ncg     rms          rms(c)
DAV:   1    -0.832711187561E+03   -0.60591E-03   -0.23891E-01  4500   0.830E-01    0.110E-01
DAV:   2    -0.832711586602E+03   -0.39904E-03   -0.51566E-03  4420   0.110E-01    0.737E-02
DAV:   3    -0.832711583074E+03    0.35282E-05   -0.75640E-05  4980   0.156E-02
 108 F= -.84037485E+03 E0= -.84037485E+03  d E =-.926221E-03  mag=     0.0000
       N       E                     dE             d eps       ncg     rms          rms(c)
DAV:   1    -0.832712161678E+03   -0.57508E-03   -0.26754E-01  4480   0.919E-01    0.113E-01
DAV:   2    -0.832712633334E+03   -0.47166E-03   -0.59736E-03  4420   0.123E-01    0.760E-02
DAV:   3    -0.832712629447E+03    0.38875E-05   -0.86758E-05  5020   0.173E-02
 109 F= -.84037580E+03 E0= -.84037580E+03  d E =-.949339E-03  mag=    -0.0000
       N       E                     dE             d eps       ncg     rms          rms(c)
DAV:   1    -0.832712960073E+03   -0.32674E-03   -0.34360E-01  4480   0.109E+00    0.122E-01
DAV:   2    -0.832713607860E+03   -0.64779E-03   -0.79262E-03  4440   0.148E-01    0.816E-02
DAV:   3    -0.832713603287E+03    0.45729E-05   -0.10356E-04  5230   0.199E-02    0.628E-02
DAV:   4    -0.832713676392E+03   -0.73105E-04   -0.12791E-04  4410   0.235E-02    0.139E-02
DAV:   5    -0.832713681006E+03   -0.46140E-05   -0.26741E-05  4260   0.914E-03
 110 F= -.84037676E+03 E0= -.84037676E+03  d E =-.962697E-03  mag=    -0.0000
       N       E                     dE             d eps       ncg     rms          rms(c)
DAV:   1    -0.832713220336E+03    0.45606E-03   -0.56522E-01  4520   0.145E+00    0.138E-01
DAV:   2    -0.832714452407E+03   -0.12321E-02   -0.14174E-02  4540   0.203E-01    0.921E-02
DAV:   3    -0.832714425059E+03    0.27348E-04   -0.16557E-04  5460   0.261E-02    0.724E-02
DAV:   4    -0.832714484653E+03   -0.59594E-04   -0.23675E-04  4420   0.328E-02    0.187E-02
DAV:   5    -0.832714492225E+03   -0.75715E-05   -0.50622E-05  4900   0.126E-02
 111 F= -.84037750E+03 E0= -.84037750E+03  d E =-.741371E-03  mag=    -0.0000
       N       E                     dE             d eps       ncg     rms          rms(c)
DAV:   1    -0.832713302184E+03    0.11825E-02   -0.86843E-01  4520   0.182E+00    0.166E-01
DAV:   2    -0.832715238932E+03   -0.19367E-02   -0.22041E-02  4600   0.257E-01    0.110E-01
DAV:   3    -0.832715201923E+03    0.37009E-04   -0.24608E-04  5560   0.322E-02    0.864E-02
DAV:   4    -0.832715285728E+03   -0.83805E-04   -0.30322E-04  4460   0.396E-02    0.226E-02
DAV:   5    -0.832715297980E+03   -0.12252E-04   -0.72710E-05  4980   0.154E-02    0.155E-02
DAV:   6    -0.832715296770E+03    0.12098E-05   -0.25478E-05  3600   0.951E-03
 112 F= -.84037823E+03 E0= -.84037823E+03  d E =-.723837E-03  mag=    -0.0000
       N       E                     dE             d eps       ncg     rms          rms(c)
DAV:   1    -0.832713287012E+03    0.20110E-02   -0.12444E+00  4520   0.218E+00    0.196E-01
DAV:   2    -0.832716073261E+03   -0.27862E-02   -0.31449E-02  4570   0.307E-01    0.129E-01
DAV:   3    -0.832716015770E+03    0.57490E-04   -0.34922E-04  5540   0.384E-02    0.102E-01
DAV:   4    -0.832716110798E+03   -0.95028E-04   -0.42942E-04  4570   0.474E-02    0.259E-02
DAV:   5    -0.832716127097E+03   -0.16298E-04   -0.10340E-04  4960   0.185E-02    0.175E-02
DAV:   6    -0.832716125764E+03    0.13326E-05   -0.29247E-05  3740   0.108E-02
 113 F= -.84037899E+03 E0= -.84037899E+03  d E =-.767012E-03  mag=    -0.0000
       N       E                     dE             d eps       ncg     rms          rms(c)
DAV:   1    -0.832713206242E+03    0.29209E-02   -0.17120E+00  4500   0.256E+00    0.232E-01
DAV:   2    -0.832717057485E+03   -0.38512E-02   -0.43506E-02  4600   0.362E-01    0.154E-01
DAV:   3    -0.832716968201E+03    0.89284E-04   -0.50282E-04  5640   0.459E-02    0.121E-01
DAV:   4    -0.832717089346E+03   -0.12115E-03   -0.63459E-04  4610   0.571E-02    0.328E-02
DAV:   5    -0.832717114467E+03   -0.25120E-04   -0.15112E-04  5020   0.224E-02    0.224E-02
DAV:   6    -0.832717112934E+03    0.15329E-05   -0.52459E-05  3980   0.138E-02
 114 F= -.84037985E+03 E0= -.84037985E+03  d E =-.852384E-03  mag=    -0.0000
       N       E                     dE             d eps       ncg     rms          rms(c)
DAV:   1    -0.832717629480E+03   -0.51501E-03   -0.23469E-02  4440   0.317E-01    0.359E-02
DAV:   2    -0.832717672766E+03   -0.43286E-04   -0.61434E-04  5380   0.471E-02    0.305E-02
DAV:   3    -0.832717661929E+03    0.10837E-04   -0.25769E-05  3780   0.101E-02    0.229E-02
DAV:   4    -0.832717654520E+03    0.74083E-05   -0.34191E-05  4040   0.119E-02
 115 F= -.84038039E+03 E0= -.84038039E+03  d E =-.546195E-03  mag=     0.0000
       N       E                     dE             d eps       ncg     rms          rms(c)
DAV:   1    -0.832717563306E+03    0.98623E-04   -0.35891E-02  4440   0.380E-01    0.444E-02
DAV:   2    -0.832717631001E+03   -0.67695E-04   -0.89858E-04  5360   0.553E-02    0.352E-02
DAV:   3    -0.832717620057E+03    0.10944E-04   -0.29036E-05  4160   0.109E-02    0.267E-02
DAV:   4    -0.832717615463E+03    0.45935E-05   -0.38843E-05  4220   0.130E-02
 116 F= -.84038034E+03 E0= -.84038034E+03  d E =0.474741E-04  mag=    -0.0000
       N       E                     dE             d eps       ncg     rms          rms(c)
DAV:   1    -0.832717776413E+03   -0.15636E-03   -0.10886E-03  4460   0.685E-02    0.871E-03
DAV:   2    -0.832717778084E+03   -0.16709E-05   -0.32053E-05  3540   0.108E-02
 117 F= -.84038050E+03 E0= -.84038050E+03  d E =-.157966E-03  mag=    -0.0000
       N       E                     dE             d eps       ncg     rms          rms(c)
DAV:   1    -0.832717982438E+03   -0.20603E-03   -0.35143E-03  4420   0.123E-01    0.166E-02
DAV:   2    -0.832717987341E+03   -0.49031E-05   -0.91680E-05  5560   0.182E-02
 118 F= -.84038070E+03 E0= -.84038070E+03  d E =-.200635E-03  mag=    -0.0000
       N       E                     dE             d eps       ncg     rms          rms(c)
DAV:   1    -0.832718106308E+03   -0.12387E-03   -0.55545E-03  4410   0.154E-01    0.249E-02
DAV:   2    -0.832718112207E+03   -0.58986E-05   -0.13862E-04  5560   0.224E-02    0.208E-02
DAV:   3    -0.832718106991E+03    0.52154E-05   -0.10029E-05  2590   0.687E-03
 119 F= -.84038081E+03 E0= -.84038081E+03  d E =-.108273E-03  mag=    -0.0000
       N       E                     dE             d eps       ncg     rms          rms(c)
DAV:   1    -0.832718133481E+03   -0.21274E-04   -0.53940E-03  4420   0.148E-01    0.183E-02
DAV:   2    -0.832718143389E+03   -0.99079E-05   -0.12789E-04  5290   0.206E-02    0.145E-02
DAV:   3    -0.832718142391E+03    0.99732E-06   -0.26809E-06  2440   0.364E-03
 120 F= -.84038083E+03 E0= -.84038083E+03  d E =-.236253E-04  mag=    -0.0000
       N       E                     dE             d eps       ncg     rms          rms(c)
DAV:   1    -0.832718158428E+03   -0.15039E-04   -0.39067E-05  4070   0.133E-02    0.316E-03
DAV:   2    -0.832718158443E+03   -0.15018E-07   -0.23666E-06  2320   0.303E-03
 121 F= -.84038085E+03 E0= -.84038085E+03  d E =-.161341E-04  mag=    -0.0000
       N       E                     dE             d eps       ncg     rms          rms(c)
DAV:   1    -0.832718187389E+03   -0.28962E-04   -0.95495E-05  4220   0.203E-02    0.293E-03
DAV:   2    -0.832718187519E+03   -0.13001E-06   -0.25559E-06  2290   0.319E-03
 122 F= -.84038088E+03 E0= -.84038088E+03  d E =-.291724E-04  mag=    -0.0000
       N       E                     dE             d eps       ncg     rms          rms(c)
DAV:   1    -0.832718225176E+03   -0.37787E-04   -0.20242E-04  4400   0.294E-02    0.439E-03
DAV:   2    -0.832718225431E+03   -0.25404E-06   -0.50169E-06  2370   0.447E-03
 123 F= -.84038092E+03 E0= -.84038092E+03  d E =-.379557E-04  mag=    -0.0000
       N       E                     dE             d eps       ncg     rms          rms(c)
DAV:   1    -0.832718266400E+03   -0.41224E-04   -0.32709E-04  4520   0.372E-02    0.600E-03
DAV:   2    -0.832718266752E+03   -0.35139E-06   -0.77045E-06  2490   0.554E-03
 124 F= -.84038096E+03 E0= -.84038096E+03  d E =-.412421E-04  mag=    -0.0000
       N       E                     dE             d eps       ncg     rms          rms(c)
DAV:   1    -0.832718306274E+03   -0.39873E-04   -0.45387E-04  4450   0.435E-02    0.721E-03
DAV:   2    -0.832718306788E+03   -0.51389E-06   -0.10667E-05  2640   0.643E-03
 125 F= -.84038100E+03 E0= -.84038100E+03  d E =-.396742E-04  mag=    -0.0000
       N       E                     dE             d eps       ncg     rms          rms(c)
DAV:   1    -0.832718343578E+03   -0.37304E-04   -0.57306E-04  4420   0.483E-02    0.820E-03
DAV:   2    -0.832718344249E+03   -0.67115E-06   -0.13481E-05  2980   0.707E-03
 126 F= -.84038104E+03 E0= -.84038104E+03  d E =-.366407E-04  mag=    -0.0000
       N       E                     dE             d eps       ncg     rms          rms(c)
DAV:   1    -0.832718381872E+03   -0.38294E-04   -0.82778E-04  4410   0.569E-02    0.944E-03
DAV:   2    -0.832718382953E+03   -0.10814E-05   -0.19585E-05  3260   0.823E-03
 127 F= -.84038107E+03 E0= -.84038107E+03  d E =-.370460E-04  mag=    -0.0000
       N       E                     dE             d eps       ncg     rms          rms(c)
DAV:   1    -0.832718426021E+03   -0.44149E-04   -0.11364E-03  4420   0.647E-02    0.108E-02
DAV:   2    -0.832718427547E+03   -0.15262E-05   -0.26782E-05  3480   0.921E-03
 128 F= -.84038111E+03 E0= -.84038111E+03  d E =-.417466E-04  mag=    -0.0000
       N       E                     dE             d eps       ncg     rms          rms(c)
DAV:   1    -0.832718485348E+03   -0.59327E-04   -0.15589E-03  4420   0.735E-02    0.122E-02
DAV:   2    -0.832718487513E+03   -0.21644E-05   -0.36216E-05  3650   0.103E-02
 129 F= -.84038117E+03 E0= -.84038117E+03  d E =-.556806E-04  mag=    -0.0000
       N       E                     dE             d eps       ncg     rms          rms(c)
DAV:   1    -0.832718570217E+03   -0.84869E-04   -0.22227E-03  4420   0.866E-02    0.141E-02
DAV:   2    -0.832718573464E+03   -0.32470E-05   -0.51254E-05  3800   0.120E-02
 130 F= -.84038125E+03 E0= -.84038125E+03  d E =-.798532E-04  mag=    -0.0000
       N       E                     dE             d eps       ncg     rms          rms(c)
DAV:   1    -0.832718686635E+03   -0.11642E-03   -0.33554E-03  4420   0.107E-01    0.170E-02
DAV:   2    -0.832718691734E+03   -0.50990E-05   -0.78335E-05  4260   0.149E-02
 131 F= -.84038136E+03 E0= -.84038136E+03  d E =-.109994E-03  mag=    -0.0000
       N       E                     dE             d eps       ncg     rms          rms(c)
DAV:   1    -0.832718829109E+03   -0.14247E-03   -0.52256E-03  4500   0.136E-01    0.212E-02
DAV:   2    -0.832718836971E+03   -0.78628E-05   -0.12215E-04  4600   0.188E-02    0.164E-02
DAV:   3    -0.832718837638E+03   -0.66678E-06   -0.22904E-06  2630   0.336E-03
 132 F= -.84038150E+03 E0= -.84038149E+03  d E =-.135143E-03  mag=    -0.0000
       N       E                     dE             d eps       ncg     rms          rms(c)
DAV:   1    -0.832718987683E+03   -0.15071E-03   -0.79385E-03  4480   0.168E-01    0.185E-02
DAV:   2    -0.832719002695E+03   -0.15011E-04   -0.18342E-04  4560   0.228E-02    0.123E-02
DAV:   3    -0.832719002612E+03    0.82597E-07   -0.21360E-06  2440   0.310E-03
 133 F= -.84038165E+03 E0= -.84038165E+03  d E =-.151728E-03  mag=    -0.0000
       N       E                     dE             d eps       ncg     rms          rms(c)
DAV:   1    -0.832719161779E+03   -0.15908E-03   -0.11917E-02  4480   0.204E-01    0.218E-02
DAV:   2    -0.832719185159E+03   -0.23379E-04   -0.28056E-04  4500   0.278E-02    0.145E-02
DAV:   3    -0.832719184762E+03    0.39701E-06   -0.29651E-06  2760   0.363E-03
 134 F= -.84038181E+03 E0= -.84038181E+03  d E =-.166993E-03  mag=     0.0000
       N       E                     dE             d eps       ncg     rms          rms(c)
DAV:   1    -0.832719380455E+03   -0.19530E-03   -0.17387E-02  4480   0.244E-01    0.261E-02
DAV:   2    -0.832719414397E+03   -0.33943E-04   -0.40694E-04  4440   0.332E-02    0.170E-02
DAV:   3    -0.832719413993E+03    0.40419E-06   -0.39775E-06  2920   0.414E-03
 135 F= -.84038203E+03 E0= -.84038203E+03  d E =-.213030E-03  mag=     0.0000
       N       E                     dE             d eps       ncg     rms          rms(c)
DAV:   1    -0.832719650098E+03   -0.23570E-03   -0.26037E-02  4480   0.301E-01    0.316E-02
DAV:   2    -0.832719701776E+03   -0.51679E-04   -0.61516E-04  4440   0.411E-02    0.206E-02
DAV:   3    -0.832719701074E+03    0.70246E-06   -0.63870E-06  3400   0.518E-03
 136 F= -.84038230E+03 E0= -.84038230E+03  d E =-.270405E-03  mag=     0.0000
       N       E                     dE             d eps       ncg     rms          rms(c)
DAV:   1    -0.832719944863E+03   -0.24309E-03   -0.39320E-02  4480   0.372E-01    0.391E-02
DAV:   2    -0.832720022794E+03   -0.77931E-04   -0.93195E-04  4440   0.507E-02    0.257E-02
DAV:   3    -0.832720021814E+03    0.97993E-06   -0.10262E-05  3780   0.647E-03
 137 F= -.84038260E+03 E0= -.84038260E+03  d E =-.301573E-03  mag=     0.0000
       N       E                     dE             d eps       ncg     rms          rms(c)
DAV:   1    -0.832720278195E+03   -0.25540E-03   -0.56834E-02  4480   0.444E-01    0.474E-02
DAV:   2    -0.832720389227E+03   -0.11103E-03   -0.13366E-03  4440   0.603E-02    0.309E-02
DAV:   3    -0.832720388288E+03    0.93899E-06   -0.14537E-05  3960   0.757E-03
 138 F= -.84038294E+03 E0= -.84038294E+03  d E =-.338729E-03  mag=    -0.0000
       N       E                     dE             d eps       ncg     rms          rms(c)
DAV:   1    -0.832720701022E+03   -0.31180E-03   -0.79418E-02  4480   0.525E-01    0.565E-02
DAV:   2    -0.832720854321E+03   -0.15330E-03   -0.18613E-03  4440   0.715E-02    0.370E-02
DAV:   3    -0.832720853122E+03    0.11993E-05   -0.21249E-05  4220   0.913E-03
 139 F= -.84038336E+03 E0= -.84038336E+03  d E =-.426053E-03  mag=    -0.0000
       N       E                     dE             d eps       ncg     rms          rms(c)
DAV:   1    -0.832721169426E+03   -0.31511E-03   -0.11584E-01  4480   0.635E-01    0.689E-02
DAV:   2    -0.832721391133E+03   -0.22171E-03   -0.27073E-03  4420   0.866E-02    0.455E-02
DAV:   3    -0.832721389416E+03    0.17170E-05   -0.32758E-05  4620   0.113E-02
 140 F= -.84038385E+03 E0= -.84038385E+03  d E =-.486906E-03  mag=    -0.0000
       N       E                     dE             d eps       ncg     rms          rms(c)
DAV:   1    -0.832721732317E+03   -0.34118E-03   -0.16101E-01  4480   0.747E-01    0.818E-02
DAV:   2    -0.832722038077E+03   -0.30576E-03   -0.37455E-03  4420   0.102E-01    0.542E-02
DAV:   3    -0.832722036454E+03    0.16229E-05   -0.45541E-05  4700   0.132E-02
 141 F= -.84038444E+03 E0= -.84038444E+03  d E =-.592060E-03  mag=    -0.0000
       N       E                     dE             d eps       ncg     rms          rms(c)
DAV:   1    -0.832722334384E+03   -0.29631E-03   -0.22957E-01  4480   0.895E-01    0.980E-02
DAV:   2    -0.832722771699E+03   -0.43732E-03   -0.53407E-03  4430   0.122E-01    0.654E-02
DAV:   3    -0.832722768413E+03    0.32859E-05   -0.68385E-05  4980   0.161E-02
 142 F= -.84038511E+03 E0= -.84038511E+03  d E =-.666205E-03  mag=    -0.0000
       N       E                     dE             d eps       ncg     rms          rms(c)
DAV:   1    -0.832723082972E+03   -0.31127E-03   -0.30084E-01  4480   0.101E+00    0.115E-01
DAV:   2    -0.832723638292E+03   -0.55532E-03   -0.68596E-03  4410   0.137E-01    0.769E-02
DAV:   3    -0.832723633453E+03    0.48391E-05   -0.93302E-05  4980   0.187E-02
 143 F= -.84038588E+03 E0= -.84038588E+03  d E =-.768295E-03  mag=    -0.0000
       N       E                     dE             d eps       ncg     rms          rms(c)
DAV:   1    -0.832723912511E+03   -0.27422E-03   -0.41020E-01  4480   0.117E+00    0.137E-01
DAV:   2    -0.832724651772E+03   -0.73926E-03   -0.91913E-03  4400   0.158E-01    0.922E-02
DAV:   3    -0.832724643675E+03    0.80964E-05   -0.13459E-04  5020   0.222E-02    0.701E-02
DAV:   4    -0.832724726589E+03   -0.82914E-04   -0.15558E-04  4410   0.255E-02    0.159E-02
DAV:   5    -0.832724734001E+03   -0.74115E-05   -0.33156E-05  4340   0.101E-02
 144 F= -.84038685E+03 E0= -.84038685E+03  d E =-.976078E-03  mag=     0.0000
       N       E                     dE             d eps       ncg     rms          rms(c)
DAV:   1    -0.832724790027E+03   -0.63438E-04   -0.53169E-01  4500   0.133E+00    0.148E-01
DAV:   2    -0.832725833588E+03   -0.10436E-02   -0.12512E-02  4570   0.184E-01    0.100E-01
DAV:   3    -0.832725800950E+03    0.32637E-04   -0.17837E-04  5040   0.262E-02    0.775E-02
DAV:   4    -0.832725875784E+03   -0.74833E-04   -0.29787E-04  4470   0.340E-02    0.206E-02
DAV:   5    -0.832725881536E+03   -0.57523E-05   -0.52334E-05  4860   0.128E-02
 145 F= -.84038788E+03 E0= -.84038788E+03  d E =-.102251E-02  mag=    -0.0000
       N       E                     dE             d eps       ncg     rms          rms(c)
DAV:   1    -0.832725799579E+03    0.76205E-04   -0.70350E-01  4500   0.151E+00    0.173E-01
DAV:   2    -0.832727175581E+03   -0.13760E-02   -0.16500E-02  4570   0.209E-01    0.117E-01
DAV:   3    -0.832727130204E+03    0.45376E-04   -0.23938E-04  5220   0.299E-02    0.903E-02
DAV:   4    -0.832727220469E+03   -0.90264E-04   -0.40576E-04  4490   0.390E-02    0.237E-02
DAV:   5    -0.832727228518E+03   -0.80497E-05   -0.70139E-05  4920   0.148E-02
 146 F= -.84038905E+03 E0= -.84038905E+03  d E =-.117860E-02  mag=    -0.0000
       N       E                     dE             d eps       ncg     rms          rms(c)
DAV:   1    -0.832726682050E+03    0.53842E-03   -0.89813E-01  4500   0.173E+00    0.194E-01
DAV:   2    -0.832728482164E+03   -0.18001E-02   -0.21346E-02  4570   0.241E-01    0.132E-01
DAV:   3    -0.832728420621E+03    0.61543E-04   -0.31329E-04  5300   0.347E-02    0.102E-01
DAV:   4    -0.832728521768E+03   -0.10115E-03   -0.52811E-04  4570   0.450E-02    0.281E-02
DAV:   5    -0.832728532872E+03   -0.11104E-04   -0.93313E-05  5020   0.172E-02    0.215E-02
DAV:   6    -0.832728530323E+03    0.25489E-05   -0.64117E-05  3900   0.142E-02
 147 F= -.84039018E+03 E0= -.84039018E+03  d E =-.112948E-02  mag=    -0.0000
       N       E                     dE             d eps       ncg     rms          rms(c)
DAV:   1    -0.832728700661E+03   -0.16779E-03   -0.71853E-03  4420   0.178E-01    0.201E-02
DAV:   2    -0.832728714913E+03   -0.14252E-04   -0.19627E-04  5580   0.268E-02    0.170E-02
DAV:   3    -0.832728711555E+03    0.33575E-05   -0.73389E-06  2560   0.584E-03
 148 F= -.84039036E+03 E0= -.84039036E+03  d E =-.177130E-03  mag=    -0.0000
       N       E                     dE             d eps       ncg     rms          rms(c)
DAV:   1    -0.832728615188E+03    0.99725E-04   -0.13467E-02  4400   0.244E-01    0.273E-02
DAV:   2    -0.832728641839E+03   -0.26651E-04   -0.33989E-04  5500   0.354E-02    0.227E-02
DAV:   3    -0.832728637515E+03    0.43242E-05   -0.89642E-06  2780   0.665E-03
 149 F= -.84039028E+03 E0= -.84039028E+03  d E =0.788891E-04  mag=    -0.0000
       N       E                     dE             d eps       ncg     rms          rms(c)
DAV:   1    -0.832728672386E+03   -0.30547E-04   -0.33641E-04  4460   0.388E-02    0.648E-03
DAV:   2    -0.832728673096E+03   -0.71054E-06   -0.15525E-05  2780   0.756E-03
 150 F= -.84039032E+03 E0= -.84039032E+03  d E =-.362490E-04  mag=    -0.0000
       N       E                     dE             d eps       ncg     rms          rms(c)
DAV:   1    -0.832728722540E+03   -0.50154E-04   -0.91650E-04  4440   0.637E-02    0.796E-03
DAV:   2    -0.832728723796E+03   -0.12560E-05   -0.23497E-05  3640   0.958E-03
 151 F= -.84039037E+03 E0= -.84039037E+03  d E =-.518261E-04  mag=    -0.0000
       N       E                     dE             d eps       ncg     rms          rms(c)
DAV:   1    -0.832728749549E+03   -0.27009E-04   -0.16082E-03  4450   0.844E-02    0.123E-02
DAV:   2    -0.832728751683E+03   -0.21337E-05   -0.41043E-05  4860   0.125E-02
 152 F= -.84039040E+03 E0= -.84039040E+03  d E =-.289105E-04  mag=    -0.0000
       N       E                     dE             d eps       ncg     rms          rms(c)
DAV:   1    -0.832728742675E+03    0.68739E-05   -0.19530E-03  4410   0.923E-02    0.147E-02
DAV:   2    -0.832728745121E+03   -0.24460E-05   -0.47892E-05  4540   0.134E-02
 153 F= -.84039039E+03 E0= -.84039039E+03  d E =0.652576E-05  mag=    -0.0000
       N       E                     dE             d eps       ncg     rms          rms(c)
DAV:   1    -0.832728746520E+03   -0.38444E-05   -0.89144E-06  2340   0.670E-03    0.800E-03
DAV:   2    -0.832728746390E+03    0.13004E-06   -0.14602E-06  2320   0.255E-03
 154 F= -.84039039E+03 E0= -.84039039E+03  d E =-.103739E-05  mag=    -0.0000
       N       E                     dE             d eps       ncg     rms          rms(c)
DAV:   1    -0.832728751951E+03   -0.54313E-05   -0.23774E-05  3500   0.103E-02    0.198E-03
DAV:   2    -0.832728752052E+03   -0.10053E-06   -0.11393E-06  2320   0.221E-03
 155 F= -.84039040E+03 E0= -.84039040E+03  d E =-.518427E-05  mag=    -0.0000
       N       E                     dE             d eps       ncg     rms          rms(c)
DAV:   1    -0.832728760024E+03   -0.80732E-05   -0.43349E-05  3920   0.138E-02    0.197E-03
DAV:   2    -0.832728760121E+03   -0.97134E-07   -0.13010E-06  2290   0.238E-03
 156 F= -.84039041E+03 E0= -.84039041E+03  d E =-.733024E-05  mag=    -0.0000
       N       E                     dE             d eps       ncg     rms          rms(c)
DAV:   1    -0.832728769708E+03   -0.96839E-05   -0.71973E-05  4140   0.178E-02    0.261E-03
DAV:   2    -0.832728769838E+03   -0.12982E-06   -0.19187E-06  2290   0.284E-03
 157 F= -.84039041E+03 E0= -.84039041E+03  d E =-.869809E-05  mag=    -0.0000
       N       E                     dE             d eps       ncg     rms          rms(c)
DAV:   1    -0.832728780421E+03   -0.10712E-04   -0.10344E-04  4220   0.212E-02    0.324E-03
DAV:   2    -0.832728780593E+03   -0.17253E-06   -0.26588E-06  2290   0.331E-03
 158 F= -.84039042E+03 E0= -.84039042E+03  d E =-.944312E-05  mag=    -0.0000
       N       E                     dE             d eps       ncg     rms          rms(c)
DAV:   1    -0.832728791915E+03   -0.11495E-04   -0.13577E-04  4200   0.241E-02    0.377E-03
DAV:   2    -0.832728792135E+03   -0.21975E-06   -0.34017E-06  2290   0.372E-03
 159 F= -.84039043E+03 E0= -.84039043E+03  d E =-.991660E-05  mag=    -0.0000
       N       E                     dE             d eps       ncg     rms          rms(c)
DAV:   1    -0.832728805658E+03   -0.13743E-04   -0.20690E-04  4260   0.293E-02    0.444E-03
DAV:   2    -0.832728805994E+03   -0.33603E-06   -0.50390E-06  2325   0.443E-03
 160 F= -.84039045E+03 E0= -.84039045E+03  d E =-.116957E-04  mag=    -0.0000
       N       E                     dE             d eps       ncg     rms          rms(c)
DAV:   1    -0.832728822612E+03   -0.16954E-04   -0.30465E-04  4265   0.349E-02    0.532E-03
DAV:   2    -0.832728823084E+03   -0.47176E-06   -0.71824E-06  2390   0.519E-03
 161 F= -.84039046E+03 E0= -.84039046E+03  d E =-.143028E-04  mag=     0.0000
       N       E                     dE             d eps       ncg     rms          rms(c)
DAV:   1    -0.832728844771E+03   -0.22160E-04   -0.44361E-04  4320   0.413E-02    0.631E-03
DAV:   2    -0.832728845440E+03   -0.66880E-06   -0.10190E-05  2650   0.599E-03
 162 F= -.84039048E+03 E0= -.84039048E+03  d E =-.189445E-04  mag=    -0.0000
       N       E                     dE             d eps       ncg     rms          rms(c)
DAV:   1    -0.832728874292E+03   -0.29521E-04   -0.65517E-04  4300   0.494E-02    0.758E-03
DAV:   2    -0.832728875243E+03   -0.95063E-06   -0.14764E-05  2890   0.709E-03
 163 F= -.84039050E+03 E0= -.84039050E+03  d E =-.257482E-04  mag=    -0.0000
       N       E                     dE             d eps       ncg     rms          rms(c)
DAV:   1    -0.832728913279E+03   -0.38986E-04   -0.98472E-04  4370   0.602E-02    0.923E-03
DAV:   2    -0.832728914685E+03   -0.14068E-05   -0.21964E-05  3225   0.851E-03
 164 F= -.84039054E+03 E0= -.84039054E+03  d E =-.346926E-04  mag=    -0.0000
       N       E                     dE             d eps       ncg     rms          rms(c)
[...]
DAV:   1    -0.832736124056E+03   -0.25167E-04   -0.37422E-04  4320   0.383E-02    0.460E-03
DAV:   2    -0.832736124741E+03   -0.68502E-06   -0.95506E-06  2780   0.569E-03
 185 F= -.84039697E+03 E0= -.84039697E+03  d E =-.239992E-04  mag=    -0.0000
       N       E                     dE             d eps       ncg     rms          rms(c)
DAV:   1    -0.832736161201E+03   -0.37146E-04   -0.81789E-04  4360   0.560E-02    0.717E-03
DAV:   2    -0.832736162565E+03   -0.13639E-05   -0.20389E-05  3260   0.807E-03
 186 F= -.84039701E+03 E0= -.84039701E+03  d E =-.352503E-04  mag=    -0.0000
       N       E                     dE             d eps       ncg     rms          rms(c)
DAV:   1    -0.832736210943E+03   -0.49742E-04   -0.14152E-03  4430   0.727E-02    0.995E-03
DAV:   2    -0.832736213171E+03   -0.22276E-05   -0.34599E-05  3680   0.102E-02
 187 F= -.84039706E+03 E0= -.84039706E+03  d E =-.469985E-04  mag=    -0.0000
       N       E                     dE             d eps       ncg     rms          rms(c)
DAV:   1    -0.832736275745E+03   -0.64802E-04   -0.21421E-03  4400   0.884E-02    0.127E-02
DAV:   2    -0.832736278982E+03   -0.32370E-05   -0.51602E-05  3860   0.123E-02
 188 F= -.84039712E+03 E0= -.84039712E+03  d E =-.610911E-04  mag=    -0.0000
       N       E                     dE             d eps       ncg     rms          rms(c)
DAV:   1    -0.832736355168E+03   -0.79423E-04   -0.29172E-03  4410   0.102E-01    0.155E-02
DAV:   2    -0.832736359274E+03   -0.41068E-05   -0.69619E-05  4140   0.142E-02
 189 F= -.84039719E+03 E0= -.84039719E+03  d E =-.741230E-04  mag=    -0.0000
       N       E                     dE             d eps       ncg     rms          rms(c)
DAV:   1    -0.832736460661E+03   -0.10549E-03   -0.48081E-03  4410   0.130E-01    0.198E-02
DAV:   2    -0.832736467290E+03   -0.66281E-05   -0.11456E-04  4600   0.181E-02    0.153E-02
DAV:   3    -0.832736468555E+03   -0.12654E-05   -0.15091E-06  2660   0.282E-03
 190 F= -.84039729E+03 E0= -.84039729E+03  d E =-.100673E-03  mag=     0.0000
       N       E                     dE             d eps       ncg     rms          rms(c)
DAV:   1    -0.832736604403E+03   -0.13711E-03   -0.78026E-03  4460   0.163E-01    0.181E-02
DAV:   2    -0.832736618418E+03   -0.14015E-04   -0.17853E-04  4440   0.221E-02    0.116E-02
DAV:   3    -0.832736618452E+03   -0.33702E-07   -0.19192E-06  2470   0.288E-03
 191 F= -.84039743E+03 E0= -.84039743E+03  d E =-.137784E-03  mag=    -0.0000
       N       E                     dE             d eps       ncg     rms          rms(c)
DAV:   1    -0.832736785508E+03   -0.16709E-03   -0.12991E-02  4500   0.208E-01    0.232E-02
DAV:   2    -0.832736809221E+03   -0.23713E-04   -0.30285E-04  4440   0.286E-02    0.152E-02
DAV:   3    -0.832736808946E+03    0.27438E-06   -0.30345E-06  2950   0.359E-03
 192 F= -.84039760E+03 E0= -.84039760E+03  d E =-.174349E-03  mag=    -0.0000
       N       E                     dE             d eps       ncg     rms          rms(c)
DAV:   1    -0.832737015832E+03   -0.20661E-03   -0.20236E-02  4480   0.257E-01    0.295E-02
DAV:   2    -0.832737051445E+03   -0.35613E-04   -0.46388E-04  4420   0.352E-02    0.192E-02
DAV:   3    -0.832737051206E+03    0.23875E-06   -0.50303E-06  3160   0.445E-03
 193 F= -.84039783E+03 E0= -.84039783E+03  d E =-.221252E-03  mag=     0.0000
       N       E                     dE             d eps       ncg     rms          rms(c)
DAV:   1    -0.832737294739E+03   -0.24329E-03   -0.31030E-02  4480   0.315E-01    0.371E-02
DAV:   2    -0.832737348300E+03   -0.53561E-04   -0.70515E-04  4420   0.430E-02    0.243E-02
DAV:   3    -0.832737348005E+03    0.29508E-06   -0.83035E-06  3440   0.555E-03
 194 F= -.84039810E+03 E0= -.84039809E+03  d E =-.269872E-03  mag=     0.0000
       N       E                     dE             d eps       ncg     rms          rms(c)
DAV:   1    -0.832737621392E+03   -0.27309E-03   -0.44418E-02  4480   0.374E-01    0.451E-02
DAV:   2    -0.832737696556E+03   -0.75164E-04   -0.99840E-04  4420   0.509E-02    0.298E-02
DAV:   3    -0.832737696352E+03    0.20368E-06   -0.12374E-05  3460   0.670E-03
 195 F= -.84039841E+03 E0= -.84039841E+03  d E =-.315935E-03  mag=     0.0000
       N       E                     dE             d eps       ncg     rms          rms(c)
DAV:   1    -0.832737996232E+03   -0.29968E-03   -0.59684E-02  4480   0.431E-01    0.531E-02
DAV:   2    -0.832738096428E+03   -0.10020E-03   -0.13316E-03  4400   0.584E-02    0.354E-02
DAV:   3    -0.832738096168E+03    0.26016E-06   -0.17272E-05  3800   0.785E-03
 196 F= -.84039877E+03 E0= -.84039877E+03  d E =-.361664E-03  mag=     0.0000
       N       E                     dE             d eps       ncg     rms          rms(c)
DAV:   1    -0.832738400101E+03   -0.30367E-03   -0.78913E-02  4480   0.501E-01    0.608E-02
DAV:   2    -0.832738535865E+03   -0.13576E-03   -0.17743E-03  4400   0.679E-02    0.407E-02
DAV:   3    -0.832738535767E+03    0.97774E-07   -0.22675E-05  3880   0.912E-03
 197 F= -.84039917E+03 E0= -.84039917E+03  d E =-.400606E-03  mag=     0.0000
       N       E                     dE             d eps       ncg     rms          rms(c)
DAV:   1    -0.832738792237E+03   -0.25637E-03   -0.10153E-01  4480   0.585E-01    0.674E-02
DAV:   2    -0.832738975975E+03   -0.18374E-03   -0.23331E-03  4400   0.795E-02    0.452E-02
DAV:   3    -0.832738976368E+03   -0.39317E-06   -0.28560E-05  4120   0.105E-02
 198 F= -.84039958E+03 E0= -.84039958E+03  d E =-.401862E-03  mag=    -0.0000
       N       E                     dE             d eps       ncg     rms          rms(c)
DAV:   1    -0.832739133128E+03   -0.15715E-03   -0.13833E-01  4480   0.695E-01    0.763E-02
DAV:   2    -0.832739393245E+03   -0.26012E-03   -0.32192E-03  4400   0.945E-02    0.510E-02
DAV:   3    -0.832739393023E+03    0.22252E-06   -0.40493E-05  4500   0.125E-02
 199 F= -.84039996E+03 E0= -.84039996E+03  d E =-.383630E-03  mag=    -0.0000
       N       E                     dE             d eps       ncg     rms          rms(c)
DAV:   1    -0.832739398715E+03   -0.54697E-05   -0.19296E-01  4480   0.835E-01    0.880E-02
DAV:   2    -0.832739773853E+03   -0.37514E-03   -0.45513E-03  4400   0.114E-01    0.598E-02
DAV:   3    -0.832739772459E+03    0.13935E-05   -0.57244E-05  4720   0.150E-02
 200 F= -.84040031E+03 E0= -.84040031E+03  d E =-.351986E-03  mag=     0.0000
       N       E                     dE             d eps       ncg     rms          rms(c)
DAV:   1    -0.832739617813E+03    0.15604E-03   -0.26232E-01  4480   0.993E-01    0.999E-02
DAV:   2    -0.832740140555E+03   -0.52274E-03   -0.62504E-03  4400   0.137E-01    0.691E-02
DAV:   3    -0.832740138429E+03    0.21268E-05   -0.76851E-05  5060   0.178E-02
 201 F= -.84040065E+03 E0= -.84040065E+03  d E =-.343315E-03  mag=     0.0000
       N       E                     dE             d eps       ncg     rms          rms(c)
DAV:   1    -0.832739777630E+03    0.36293E-03   -0.38008E-01  4480   0.120E+00    0.120E-01
DAV:   2    -0.832740534755E+03   -0.75712E-03   -0.90319E-03  4400   0.165E-01    0.829E-02
DAV:   3    -0.832740528616E+03    0.61380E-05   -0.12039E-04  5260   0.220E-02    0.643E-02
DAV:   4    -0.832740589131E+03   -0.60515E-04   -0.12518E-04  4400   0.252E-02    0.158E-02
DAV:   5    -0.832740598067E+03   -0.89354E-05   -0.33653E-05  4440   0.104E-02
 202 F= -.84040109E+03 E0= -.84040109E+03  d E =-.438217E-03  mag=    -0.0000
       N       E                     dE             d eps       ncg     rms          rms(c)
DAV:   1    -0.832739907720E+03    0.68141E-03   -0.51533E-01  4500   0.140E+00    0.135E-01
DAV:   2    -0.832741038048E+03   -0.11303E-02   -0.13087E-02  4560   0.200E-01    0.917E-02
DAV:   3    -0.832741014069E+03    0.23979E-04   -0.16831E-04  5520   0.266E-02    0.720E-02
DAV:   4    -0.832741065519E+03   -0.51450E-04   -0.21625E-04  4420   0.330E-02    0.189E-02
DAV:   5    -0.832741074582E+03   -0.90626E-05   -0.50285E-05  4880   0.132E-02
 203 F= -.84040152E+03 E0= -.84040152E+03  d E =-.432493E-03  mag=    -0.0000
       N       E                     dE             d eps       ncg     rms          rms(c)
DAV:   1    -0.832741226295E+03   -0.16078E-03   -0.62590E-03  4440   0.162E-01    0.197E-02
DAV:   2    -0.832741237247E+03   -0.10952E-04   -0.16682E-04  5340   0.244E-02    0.166E-02
DAV:   3    -0.832741234144E+03    0.31031E-05   -0.64530E-06  2600   0.570E-03
 204 F= -.84040169E+03 E0= -.84040169E+03  d E =-.163509E-03  mag=     0.0000
       N       E                     dE             d eps       ncg     rms          rms(c)
DAV:   1    -0.832741223146E+03    0.14101E-04   -0.10701E-02  4400   0.211E-01    0.260E-02
DAV:   2    -0.832741242462E+03   -0.19316E-04   -0.26607E-04  5500   0.307E-02    0.214E-02
DAV:   3    -0.832741238434E+03    0.40280E-05   -0.73765E-06  2760   0.616E-03
 205 F= -.84040170E+03 E0= -.84040170E+03  d E =-.757916E-05  mag=     0.0000
       N       E                     dE             d eps       ncg     rms          rms(c)
DAV:   1    -0.832741282773E+03   -0.40311E-04   -0.33314E-04  4440   0.379E-02    0.575E-03
DAV:   2    -0.832741283560E+03   -0.78658E-06   -0.14331E-05  2830   0.724E-03
 206 F= -.84040174E+03 E0= -.84040174E+03  d E =-.436744E-04  mag=    -0.0000
       N       E                     dE             d eps       ncg     rms          rms(c)
DAV:   1    -0.832741354895E+03   -0.72122E-04   -0.96912E-04  4560   0.639E-02    0.867E-03
DAV:   2    -0.832741356065E+03   -0.11693E-05   -0.24661E-05  3640   0.957E-03
 207 F= -.84040181E+03 E0= -.84040181E+03  d E =-.692866E-04  mag=     0.0000
       N       E                     dE             d eps       ncg     rms          rms(c)
DAV:   1    -0.832741416924E+03   -0.62028E-04   -0.17169E-03  4420   0.844E-02    0.132E-02
DAV:   2    -0.832741418796E+03   -0.18721E-05   -0.42656E-05  4760   0.124E-02
 208 F= -.84040187E+03 E0= -.84040187E+03  d E =-.580290E-04  mag=     0.0000
       N       E                     dE             d eps       ncg     rms          rms(c)
DAV:   1    -0.832741460809E+03   -0.43885E-04   -0.20764E-03  4450   0.905E-02    0.158E-02
DAV:   2    -0.832741462924E+03   -0.21154E-05   -0.49803E-05  4480   0.130E-02
 209 F= -.84040191E+03 E0= -.84040191E+03  d E =-.385902E-04  mag=     0.0000
       N       E                     dE             d eps       ncg     rms          rms(c)
DAV:   1    -0.832741512527E+03   -0.51719E-04   -0.21821E-03  4420   0.879E-02    0.161E-02
DAV:   2    -0.832741515018E+03   -0.24905E-05   -0.50236E-05  4060   0.123E-02
 210 F= -.84040195E+03 E0= -.84040195E+03  d E =-.466667E-04  mag=    -0.0000
       N       E                     dE             d eps       ncg     rms          rms(c)
DAV:   1    -0.832741593960E+03   -0.81432E-04   -0.25363E-03  4420   0.915E-02    0.161E-02
DAV:   2    -0.832741597438E+03   -0.34784E-05   -0.58209E-05  3820   0.127E-02
 211 F= -.84040203E+03 E0= -.84040203E+03  d E =-.772292E-04  mag=     0.0000
       N       E                     dE             d eps       ncg     rms          rms(c)
DAV:   1    -0.832741713963E+03   -0.12000E-03   -0.40717E-03  4400   0.118E-01    0.188E-02
DAV:   2    -0.832741720297E+03   -0.63341E-05   -0.97156E-05  4520   0.167E-02
 212 F= -.84040215E+03 E0= -.84040215E+03  d E =-.117535E-03  mag=     0.0000
       N       E                     dE             d eps       ncg     rms          rms(c)
DAV:   1    -0.832741846612E+03   -0.13265E-03   -0.65849E-03  4460   0.153E-01    0.244E-02
DAV:   2    -0.832741856293E+03   -0.96806E-05   -0.15622E-04  4840   0.215E-02    0.192E-02
DAV:   3    -0.832741856613E+03   -0.31971E-06   -0.36129E-06  2700   0.418E-03
 213 F= -.84040228E+03 E0= -.84040228E+03  d E =-.131204E-03  mag=     0.0000
       N       E                     dE             d eps       ncg     rms          rms(c)
DAV:   1    -0.832741970009E+03   -0.11372E-03   -0.94361E-03  4460   0.181E-01    0.213E-02
DAV:   2    -0.832741987186E+03   -0.17177E-04   -0.21607E-04  4780   0.247E-02    0.149E-02
DAV:   3    -0.832741986919E+03    0.26631E-06   -0.30517E-06  2880   0.371E-03
 214 F= -.84040240E+03 E0= -.84040240E+03  d E =-.123913E-03  mag=     0.0000
       N       E                     dE             d eps       ncg     rms          rms(c)
DAV:   1    -0.832742127142E+03   -0.13996E-03   -0.12031E-02  4460   0.201E-01    0.229E-02
DAV:   2    -0.832742149805E+03   -0.22664E-04   -0.27824E-04  4550   0.275E-02    0.155E-02
DAV:   3    -0.832742149584E+03    0.22166E-06   -0.31358E-06  2900   0.370E-03
 215 F= -.84040256E+03 E0= -.84040256E+03  d E =-.153425E-03  mag=     0.0000
       N       E                     dE             d eps       ncg     rms          rms(c)
DAV:   1    -0.832742337263E+03   -0.18746E-03   -0.16554E-02  4460   0.241E-01    0.263E-02
DAV:   2    -0.832742369195E+03   -0.31932E-04   -0.38813E-04  4480   0.330E-02    0.176E-02
DAV:   3    -0.832742368833E+03    0.36244E-06   -0.44789E-06  3020   0.442E-03
 216 F= -.84040276E+03 E0= -.84040276E+03  d E =-.206738E-03  mag=    -0.0000
       N       E                     dE             d eps       ncg     rms          rms(c)
DAV:   1    -0.832742534741E+03   -0.16555E-03   -0.23635E-02  4480   0.292E-01    0.313E-02
DAV:   2    -0.832742581132E+03   -0.46391E-04   -0.56073E-04  4720   0.402E-02    0.214E-02
DAV:   3    -0.832742580346E+03    0.78534E-06   -0.68106E-06  3420   0.548E-03
 217 F= -.84040296E+03 E0= -.84040296E+03  d E =-.196786E-03  mag=     0.0000
       N       E                     dE             d eps       ncg     rms          rms(c)
DAV:   1    -0.832742739549E+03   -0.15842E-03   -0.30922E-02  4480   0.332E-01    0.349E-02
DAV:   2    -0.832742801604E+03   -0.62055E-04   -0.73522E-04  4580   0.454E-02    0.234E-02
DAV:   3    -0.832742801139E+03    0.46538E-06   -0.77447E-06  3520   0.576E-03
 218 F= -.84040317E+03 E0= -.84040317E+03  d E =-.209710E-03  mag=     0.0000
       N       E                     dE             d eps       ncg     rms          rms(c)
DAV:   1    -0.832742962440E+03   -0.16084E-03   -0.43265E-02  4480   0.397E-01    0.407E-02
DAV:   2    -0.832743051329E+03   -0.88889E-04   -0.10415E-03  4530   0.546E-02    0.278E-02
DAV:   3    -0.832743049839E+03    0.14898E-05   -0.12445E-05  4020   0.720E-03
 219 F= -.84040341E+03 E0= -.84040341E+03  d E =-.242054E-03  mag=     0.0000
       N       E                     dE             d eps       ncg     rms          rms(c)
DAV:   1    -0.832743156476E+03   -0.10515E-03   -0.58108E-02  4480   0.460E-01    0.478E-02
DAV:   2    -0.832743275910E+03   -0.11943E-03   -0.14025E-03  4560   0.635E-02    0.328E-02
DAV:   3    -0.832743274118E+03    0.17916E-05   -0.16331E-05  4160   0.835E-03
 220 F= -.84040363E+03 E0= -.84040363E+03  d E =-.218897E-03  mag=     0.0000
       N       E                     dE             d eps       ncg     rms          rms(c)
DAV:   1    -0.832743372505E+03   -0.96595E-04   -0.75045E-02  4480   0.532E-01    0.541E-02
DAV:   2    -0.832743529276E+03   -0.15677E-03   -0.18344E-03  4450   0.736E-02    0.370E-02
DAV:   3    -0.832743527434E+03    0.18423E-05   -0.21594E-05  4460   0.961E-03
 221 F= -.84040388E+03 E0= -.84040388E+03  d E =-.246364E-03  mag=    -0.0000
       N       E                     dE             d eps       ncg     rms          rms(c)
DAV:   1    -0.832743594424E+03   -0.65148E-04   -0.94902E-02  4480   0.595E-01    0.623E-02
DAV:   2    -0.832743788093E+03   -0.19367E-03   -0.22969E-03  4580   0.825E-02    0.427E-02
DAV:   3    -0.832743786105E+03    0.19885E-05   -0.29038E-05  4560   0.111E-02
 222 F= -.84040413E+03 E0= -.84040413E+03  d E =-.252530E-03  mag=     0.0000
       N       E                     dE             d eps       ncg     rms          rms(c)
DAV:   1    -0.832743810976E+03   -0.22883E-04   -0.12939E-01  4460   0.686E-01    0.741E-02
DAV:   2    -0.832744067320E+03   -0.25634E-03   -0.30726E-03  4460   0.947E-02    0.521E-02
DAV:   3    -0.832744062272E+03    0.50484E-05   -0.45974E-05  4940   0.135E-02
 223 F= -.84040440E+03 E0= -.84040440E+03  d E =-.270710E-03  mag=     0.0000
       N       E                     dE             d eps       ncg     rms          rms(c)
DAV:   1    -0.832744127512E+03   -0.60191E-04   -0.15893E-01  4460   0.767E-01    0.855E-02
DAV:   2    -0.832744436339E+03   -0.30883E-03   -0.37887E-03  4550   0.107E-01    0.612E-02
DAV:   3    -0.832744429887E+03    0.64519E-05   -0.62555E-05  5160   0.159E-02
 224 F= -.84040474E+03 E0= -.84040474E+03  d E =-.342983E-03  mag=     0.0000
       N       E                     dE             d eps       ncg     rms          rms(c)
DAV:   1    -0.832744493681E+03   -0.57342E-04   -0.20974E-01  4480   0.864E-01    0.101E-01
DAV:   2    -0.832744892078E+03   -0.39840E-03   -0.49508E-03  4630   0.122E-01    0.713E-02
DAV:   3    -0.832744884417E+03    0.76612E-05   -0.84347E-05  5280   0.182E-02
 225 F= -.84040515E+03 E0= -.84040515E+03  d E =-.411592E-03  mag=    -0.0000
       N       E                     dE             d eps       ncg     rms          rms(c)
DAV:   1    -0.832744729578E+03    0.16250E-03   -0.32200E-01  4480   0.104E+00    0.127E-01
DAV:   2    -0.832745332402E+03   -0.60282E-03   -0.75610E-03  4600   0.147E-01    0.912E-02
DAV:   3    -0.832745304797E+03    0.27605E-04   -0.15100E-04  5500   0.237E-02    0.695E-02
DAV:   4    -0.832745338079E+03   -0.33282E-04   -0.16284E-04  4530   0.260E-02    0.216E-02
DAV:   5    -0.832745350865E+03   -0.12785E-04   -0.43390E-05  4240   0.113E-02    0.125E-02
DAV:   6    -0.832745349907E+03    0.95789E-06   -0.10385E-05  3420   0.666E-03
 226 F= -.84040559E+03 E0= -.84040559E+03  d E =-.436502E-03  mag=    -0.0000
       N       E                     dE             d eps       ncg     rms          rms(c)
DAV:   1    -0.832745603987E+03   -0.25312E-03   -0.12271E-02  4540   0.221E-01    0.266E-02
DAV:   2    -0.832745628042E+03   -0.24054E-04   -0.34425E-04  5380   0.343E-02    0.235E-02
DAV:   3    -0.832745622052E+03    0.59897E-05   -0.11748E-05  2960   0.726E-03
 227 F= -.84040585E+03 E0= -.84040585E+03  d E =-.259251E-03  mag=    -0.0000
       N       E                     dE             d eps       ncg     rms          rms(c)
DAV:   1    -0.832745475176E+03    0.15287E-03   -0.15036E-02  4440   0.250E-01    0.336E-02
DAV:   2    -0.832745501140E+03   -0.25964E-04   -0.38388E-04  5660   0.371E-02    0.288E-02
DAV:   3    -0.832745492802E+03    0.83382E-05   -0.13884E-05  3220   0.816E-03
 228 F= -.84040570E+03 E0= -.84040570E+03  d E =0.145907E-03  mag=     0.0000
       N       E                     dE             d eps       ncg     rms          rms(c)
DAV:   1    -0.832745569826E+03   -0.68686E-04   -0.82006E-04  4440   0.568E-02    0.787E-03
DAV:   2    -0.832745572361E+03   -0.25351E-05   -0.37969E-05  3720   0.112E-02
 229 F= -.84040579E+03 E0= -.84040579E+03  d E =-.816771E-04  mag=     0.0000
       N       E                     dE             d eps       ncg     rms          rms(c)
DAV:   1    -0.832745673870E+03   -0.10404E-03   -0.21915E-03  4510   0.922E-02    0.128E-02
DAV:   2    -0.832745676594E+03   -0.27237E-05   -0.60492E-05  4940   0.143E-02
 230 F= -.84040589E+03 E0= -.84040589E+03  d E =-.107923E-03  mag=     0.0000
       N       E                     dE             d eps       ncg     rms          rms(c)
DAV:   1    -0.832745711522E+03   -0.37651E-04   -0.33891E-03  4540   0.115E-01    0.198E-02
DAV:   2    -0.832745714535E+03   -0.30138E-05   -0.88233E-05  5460   0.174E-02
 231 F= -.84040593E+03 E0= -.84040593E+03  d E =-.416770E-04  mag=     0.0000
       N       E                     dE             d eps       ncg     rms          rms(c)
DAV:   1    -0.832745712376E+03   -0.85427E-06   -0.98002E-06  2610   0.676E-03    0.113E-02
DAV:   2    -0.832745711594E+03    0.78139E-06   -0.27731E-06  2320   0.331E-03
 232 F= -.84040593E+03 E0= -.84040593E+03  d E =0.308038E-05  mag=     0.0000
