<?xml version="1.0" encoding="ISO-8859-1"?>
<modeling>
 <generator>
  <i name="program" type="string">vasp </i>
  <i name="version" type="string">6.4.2  </i>
  <i name="subversion" type="string">20Jul23 (build Aug 26 2025 15:10:52) complex                          parallel </i>
  <i name="platform" type="string">LinuxIFC </i>
  <i name="date" type="string">2025 12 07 </i>
  <i name="time" type="string">12:58:30 </i>
 </generator>
 <incar>
  <i type="int" name="ISTART">     0</i>
  <i type="string" name="ALGO">Normal</i>
  <i type="logical" name="ADDGRID"> T  </i>
  <i type="int" name="ISPIN">     2</i>
  <i type="int" name="IMIX">     4</i>
  <i name="AMIX">      0.20000000</i>
  <i name="BMIX">      0.00010000</i>
  <i name="AMIX_MAG">      0.80000000</i>
  <i name="BMIX_MAG">      0.00010000</i>
  <i type="int" name="ICHARG">     2</i>
  <i type="int" name="NELM">   200</i>
  <i type="int" name="IBRION">     3</i>
  <i name="EDIFF">      0.00001000</i>
  <i name="EDIFFG">     -0.03000000</i>
  <i type="int" name="NSW">  1000</i>
  <i type="int" name="ISIF">     2</i>
  <i type="int" name="ISYM">     0</i>
  <i name="ENCUT">    520.00000000</i>
  <i name="POTIM">      0.00000000</i>
  <v name="MAGMOM">      0.60000000      0.60000000      0.60000000      0.60000000      0.60000000      0.60000000      0.60000000      0.60000000      0.60000000      0.60000000      0.60000000      0.60000000      0.60000000      0.60000000      0.60000000      0.60000000      0.60000000      0.60000000      0.60000000      0.60000000
      0.60000000      0.60000000      0.60000000      0.60000000      0.60000000      0.60000000      0.60000000      0.60000000      0.60000000      0.60000000      0.60000000      0.60000000      0.60000000      0.60000000      0.60000000      0.60000000      0.60000000      0.60000000      0.60000000      0.60000000
      0.60000000      0.60000000      0.60000000      0.60000000      0.60000000      0.60000000      0.60000000      0.60000000      0.60000000      0.60000000      0.60000000      0.60000000      0.60000000      0.60000000      0.60000000      0.60000000      0.60000000      0.60000000      0.60000000      0.60000000
      0.60000000      0.60000000      0.60000000      0.60000000      0.60000000      0.60000000      0.60000000      0.60000000      0.60000000      0.60000000      0.60000000      0.60000000      0.60000000      0.60000000      0.60000000      0.60000000      0.60000000      0.60000000      0.60000000      0.60000000
      0.60000000      0.60000000      0.60000000      0.60000000      0.60000000      0.60000000      0.60000000      0.60000000      0.60000000      0.60000000      0.60000000      0.60000000      0.60000000      0.60000000      0.60000000</v>
  <i type="string" name="LREAL">Auto</i>
  <i type="int" name="ISMEAR">     0</i>
  <i name="SIGMA">      0.05000000</i>
  <i type="logical" name="LWAVE"> F  </i>
  <i type="logical" name="LCHARG"> F  </i>
  <i type="logical" name="LASPH"> T  </i>
  <i type="int" name="IVDW">    12</i>
  <i name="SPRING">     -5.00000000</i>
 </incar>
 <primitive_cell>
  <structure name="primitive_cell" >
   <crystal>
    <varray name="basis" >
     <v>      17.27103806       0.00000000       0.00000000 </v>
     <v>      -8.63551903      14.95715771       0.00000000 </v>
     <v>       0.00000000       0.00000000      15.00000000 </v>
    </varray>
    <i name="volume">   3874.88459904 </i>
    <varray name="rec_basis" >
     <v>       0.05790040       0.03342881       0.00000000 </v>
     <v>       0.00000000       0.06685762       0.00000000 </v>
     <v>       0.00000000       0.00000000       0.06666667 </v>
    </varray>
   </crystal>
   <varray name="positions" >
    <v>       0.00207091       0.00121672       0.50383562 </v>
    <v>       0.00067815       0.14297364       0.50232598 </v>
    <v>       0.00062778       0.28609061       0.50265544 </v>
    <v>       0.00121728       0.42927119       0.50419336 </v>
    <v>       0.00159067       0.57242437       0.50560962 </v>
    <v>       0.00268650       0.71560086       0.50656637 </v>
    <v>       0.00384908       0.85953238       0.50596329 </v>
    <v>       0.14603465       0.00296878       0.49975762 </v>
    <v>       0.14464005       0.14480557       0.49404780 </v>
    <v>       0.14236245       0.28589135       0.49049122 </v>
    <v>       0.14342550       0.42955065       0.49119683 </v>
    <v>       0.14465171       0.57228078       0.49633789 </v>
    <v>       0.14494024       0.71557690       0.50082704 </v>
    <v>       0.14560988       0.85931537       0.50254099 </v>
    <v>       0.28843663       0.00310384       0.49738501 </v>
    <v>       0.28874760       0.14703489       0.48953922 </v>
    <v>       0.28641539       0.29133369       0.47497846 </v>
    <v>       0.28253395       0.42468590       0.46666781 </v>
    <v>       0.28790279       0.57226861       0.47367830 </v>
    <v>       0.28691530       0.71578943       0.48984961 </v>
    <v>       0.28732540       0.85924890       0.49768063 </v>
    <v>       0.43053715       0.00183887       0.49760379 </v>
    <v>       0.43176187       0.14639354       0.49360689 </v>
    <v>       0.43002944       0.28545011       0.47574163 </v>
    <v>       0.42899738       0.85784685       0.49330511 </v>
    <v>       0.57234544       0.99958850       0.49947806 </v>
    <v>       0.57329792       0.14346011       0.49990547 </v>
    <v>       0.57767515       0.29023911       0.49502441 </v>
    <v>       0.57036686       0.85444959       0.49563880 </v>
    <v>       0.71437539       0.99795349       0.50389083 </v>
    <v>       0.71546011       0.14229871       0.50520949 </v>
    <v>       0.71632157       0.28596337       0.50466429 </v>
    <v>       0.71279394       0.42600458       0.50268286 </v>
    <v>       0.71975333       0.57662732       0.50285812 </v>
    <v>       0.71453881       0.85419988       0.50342715 </v>
    <v>       0.85781362       0.99929492       0.50590055 </v>
    <v>       0.85763733       0.14229596       0.50674041 </v>
    <v>       0.85829465       0.28580091       0.50753527 </v>
    <v>       0.85870663       0.42919778       0.50723728 </v>
    <v>       0.85801484       0.57212707       0.50705479 </v>
    <v>       0.86175433       0.71676571       0.50714929 </v>
    <v>       0.86013483       0.85771686       0.50649279 </v>
    <v>       0.04938641       0.09645429       0.50043871 </v>
    <v>       0.04753238       0.23803953       0.49937477 </v>
    <v>       0.04840709       0.38161855       0.50021871 </v>
    <v>       0.04932291       0.52467460       0.50274574 </v>
    <v>       0.04977902       0.66785278       0.50480245 </v>
    <v>       0.05052977       0.81122462       0.50543613 </v>
    <v>       0.05069314       0.95458172       0.50348206 </v>
    <v>       0.19328357       0.09808583       0.49433773 </v>
    <v>       0.19094046       0.23969104       0.48668785 </v>
    <v>       0.18902666       0.38061450       0.48412762 </v>
    <v>       0.19239886       0.52492050       0.48841065 </v>
    <v>       0.19198108       0.66781569       0.49552246 </v>
    <v>       0.19256739       0.81125071       0.50044780 </v>
    <v>       0.19332447       0.95489333       0.50000445 </v>
    <v>       0.33632275       0.09906508       0.49337274 </v>
    <v>       0.33615077       0.24271164       0.47928721 </v>
    <v>       0.32740078       0.52002785       0.45444486 </v>
    <v>       0.33731412       0.67096178       0.47984308 </v>
    <v>       0.33426645       0.81090840       0.49360793 </v>
    <v>       0.33525264       0.95462935       0.49775917 </v>
    <v>       0.47834289       0.09719128       0.49755958 </v>
    <v>       0.48026887       0.24208194       0.48830268 </v>
    <v>       0.47286553       0.80633885       0.48952023 </v>
    <v>       0.47739331       0.95326122       0.49704281 </v>
    <v>       0.62017457       0.09494411       0.50201193 </v>
    <v>       0.62162403       0.23891518       0.50026782 </v>
    <v>       0.62066255       0.81044877       0.49881881 </v>
    <v>       0.61892012       0.95033678       0.49987081 </v>
    <v>       0.76236756       0.09396536       0.50595548 </v>
    <v>       0.76340587       0.23769126       0.50665396 </v>
    <v>       0.76358517       0.38114593       0.50542025 </v>
    <v>       0.76136109       0.52459737       0.50462395 </v>
    <v>       0.76684591       0.67225190       0.50538256 </v>
    <v>       0.76402721       0.80562044       0.50531609 </v>
    <v>       0.76211957       0.95019731       0.50483833 </v>
    <v>       0.90521380       0.09451067       0.50563200 </v>
    <v>       0.90546943       0.23791391       0.50650292 </v>
    <v>       0.90597191       0.38147951       0.50718214 </v>
    <v>       0.90606827       0.52477413       0.50721545 </v>
    <v>       0.90727947       0.66757361       0.50734884 </v>
    <v>       0.90879148       0.81160852       0.50708813 </v>
    <v>       0.90664708       0.95277316       0.50581630 </v>
    <v>       0.47524507       0.37323692       0.45844505 </v>
    <v>       0.40965498       0.55895289       0.41934081 </v>
    <v>       0.63071221       0.53749954       0.49775948 </v>
    <v>       0.57574502       0.72110126       0.49739998 </v>
    <v>       0.42687161       0.71646984       0.48029832 </v>
    <v>       0.72028238       0.71611940       0.50476775 </v>
    <v>       0.32866492       0.38015049       0.46211829 </v>
    <v>       0.62341944       0.38036475       0.49744137 </v>
    <v>       0.52266686       0.57005804       0.54560358 </v>
    <v>       0.44815987       0.47380661       0.52347524 </v>
    <v>       0.46890531       0.51964787       0.56977595 </v>
   </varray>
  </structure>
  <varray name="primitive_index" >
   <v type="int" >        1 </v>
   <v type="int" >        2 </v>
   <v type="int" >        3 </v>
   <v type="int" >        4 </v>
   <v type="int" >        5 </v>
   <v type="int" >        6 </v>
   <v type="int" >        7 </v>
   <v type="int" >        8 </v>
   <v type="int" >        9 </v>
   <v type="int" >       10 </v>
   <v type="int" >       11 </v>
   <v type="int" >       12 </v>
   <v type="int" >       13 </v>
   <v type="int" >       14 </v>
   <v type="int" >       15 </v>
   <v type="int" >       16 </v>
   <v type="int" >       17 </v>
   <v type="int" >       18 </v>
   <v type="int" >       19 </v>
   <v type="int" >       20 </v>
   <v type="int" >       21 </v>
   <v type="int" >       22 </v>
   <v type="int" >       23 </v>
   <v type="int" >       24 </v>
   <v type="int" >       25 </v>
   <v type="int" >       26 </v>
   <v type="int" >       27 </v>
   <v type="int" >       28 </v>
   <v type="int" >       29 </v>
   <v type="int" >       30 </v>
   <v type="int" >       31 </v>
   <v type="int" >       32 </v>
   <v type="int" >       33 </v>
   <v type="int" >       34 </v>
   <v type="int" >       35 </v>
   <v type="int" >       36 </v>
   <v type="int" >       37 </v>
   <v type="int" >       38 </v>
   <v type="int" >       39 </v>
   <v type="int" >       40 </v>
   <v type="int" >       41 </v>
   <v type="int" >       42 </v>
   <v type="int" >       43 </v>
   <v type="int" >       44 </v>
   <v type="int" >       45 </v>
   <v type="int" >       46 </v>
   <v type="int" >       47 </v>
   <v type="int" >       48 </v>
   <v type="int" >       49 </v>
   <v type="int" >       50 </v>
   <v type="int" >       51 </v>
   <v type="int" >       52 </v>
   <v type="int" >       53 </v>
   <v type="int" >       54 </v>
   <v type="int" >       55 </v>
   <v type="int" >       56 </v>
   <v type="int" >       57 </v>
   <v type="int" >       58 </v>
   <v type="int" >       59 </v>
   <v type="int" >       60 </v>
   <v type="int" >       61 </v>
   <v type="int" >       62 </v>
   <v type="int" >       63 </v>
   <v type="int" >       64 </v>
   <v type="int" >       65 </v>
   <v type="int" >       66 </v>
   <v type="int" >       67 </v>
   <v type="int" >       68 </v>
   <v type="int" >       69 </v>
   <v type="int" >       70 </v>
   <v type="int" >       71 </v>
   <v type="int" >       72 </v>
   <v type="int" >       73 </v>
   <v type="int" >       74 </v>
   <v type="int" >       75 </v>
   <v type="int" >       76 </v>
   <v type="int" >       77 </v>
   <v type="int" >       78 </v>
   <v type="int" >       79 </v>
   <v type="int" >       80 </v>
   <v type="int" >       81 </v>
   <v type="int" >       82 </v>
   <v type="int" >       83 </v>
   <v type="int" >       84 </v>
   <v type="int" >       85 </v>
   <v type="int" >       86 </v>
   <v type="int" >       87 </v>
   <v type="int" >       88 </v>
   <v type="int" >       89 </v>
   <v type="int" >       90 </v>
   <v type="int" >       91 </v>
   <v type="int" >       92 </v>
   <v type="int" >       93 </v>
   <v type="int" >       94 </v>
   <v type="int" >       95 </v>
  </varray>
 </primitive_cell>
 <kpoints>
  <generation param="Gamma">
   <v type="int" name="divisions">       2        2        1 </v>
   <v name="usershift">      0.00000000       0.00000000       0.00000000 </v>
   <v name="genvec1">      0.50000000       0.00000000       0.00000000 </v>
   <v name="genvec2">      0.00000000       0.50000000       0.00000000 </v>
   <v name="genvec3">      0.00000000       0.00000000       1.00000000 </v>
   <v name="shift">      0.00000000       0.00000000       0.00000000 </v>
  </generation>
  <varray name="kpointlist" >
   <v>       0.00000000       0.00000000       0.00000000 </v>
   <v>       0.50000000       0.00000000       0.00000000 </v>
   <v>       0.00000000       0.50000000       0.00000000 </v>
   <v>       0.50000000       0.50000000       0.00000000 </v>
  </varray>
  <varray name="weights" >
   <v>       0.25000000 </v>
   <v>       0.25000000 </v>
   <v>       0.25000000 </v>
   <v>       0.25000000 </v>
  </varray>
 </kpoints>
 <parameters>
  <separator name="general" >
   <i type="string" name="SYSTEM">unknown system</i>
   <i type="logical" name="LCOMPAT"> F  </i>
  </separator>
  <separator name="electronic" >
   <i type="string" name="PREC">normal</i>
   <i name="ENMAX">    520.00000000</i>
   <i name="ENAUG">    644.87300000</i>
   <i name="EDIFF">      0.00001000</i>
   <i type="int" name="IALGO">    38</i>
   <i type="int" name="IWAVPR">    11</i>
   <i type="int" name="NBANDS">   275</i>
   <i type="int" name="NBANDSLOW">    -1</i>
   <i type="int" name="NBANDSHIGH">    -1</i>
   <i name="NELECT">    392.00000000</i>
   <i type="int" name="TURBO">     0</i>
   <i type="int" name="IRESTART">     0</i>
   <i type="int" name="NREBOOT">     0</i>
   <i type="int" name="NMIN">     0</i>
   <i name="EREF">      0.00000000</i>
   <separator name="electronic smearing" >
    <i type="int" name="ISMEAR">     0</i>
    <i name="SIGMA">      0.05000000</i>
    <i name="KSPACING">      0.50000000</i>
    <i type="logical" name="KGAMMA"> T  </i>
    <i type="logical" name="KBLOWUP"> T  </i>
   </separator>
   <separator name="electronic projectors" >
    <i type="logical" name="LREAL"> T  </i>
    <v name="ROPT">     -0.00050000     -0.00050000     -0.00050000     -0.00050000     -0.00050000</v>
    <i type="int" name="LMAXPAW">  -100</i>
    <i type="int" name="LMAXMIX">     2</i>
    <i type="logical" name="NLSPLINE"> F  </i>
   </separator>
   <separator name="electronic startup" >
    <i type="int" name="ISTART">     0</i>
    <i type="int" name="ICHARG">     2</i>
    <i type="int" name="INIWAV">     1</i>
   </separator>
   <separator name="electronic spin" >
    <i type="int" name="ISPIN">     2</i>
    <i type="logical" name="LNONCOLLINEAR"> F  </i>
    <v name="MAGMOM">      0.60000000      0.60000000      0.60000000      0.60000000      0.60000000      0.60000000      0.60000000      0.60000000      0.60000000      0.60000000      0.60000000      0.60000000      0.60000000      0.60000000      0.60000000      0.60000000      0.60000000      0.60000000      0.60000000      0.60000000
      0.60000000      0.60000000      0.60000000      0.60000000      0.60000000      0.60000000      0.60000000      0.60000000      0.60000000      0.60000000      0.60000000      0.60000000      0.60000000      0.60000000      0.60000000      0.60000000      0.60000000      0.60000000      0.60000000      0.60000000
      0.60000000      0.60000000      0.60000000      0.60000000      0.60000000      0.60000000      0.60000000      0.60000000      0.60000000      0.60000000      0.60000000      0.60000000      0.60000000      0.60000000      0.60000000      0.60000000      0.60000000      0.60000000      0.60000000      0.60000000
      0.60000000      0.60000000      0.60000000      0.60000000      0.60000000      0.60000000      0.60000000      0.60000000      0.60000000      0.60000000      0.60000000      0.60000000      0.60000000      0.60000000      0.60000000      0.60000000      0.60000000      0.60000000      0.60000000      0.60000000
      0.60000000      0.60000000      0.60000000      0.60000000      0.60000000      0.60000000      0.60000000      0.60000000      0.60000000      0.60000000      0.60000000      0.60000000      0.60000000      0.60000000      0.60000000</v>
    <i name="NUPDOWN">     -1.00000000</i>
    <i type="logical" name="LSORBIT"> F  </i>
    <v name="SAXIS">      0.00000000      0.00000000      1.00000000</v>
    <i type="logical" name="LSPIRAL"> F  </i>
    <v name="QSPIRAL">      0.00000000      0.00000000      0.00000000</v>
    <i type="logical" name="LZEROZ"> F  </i>
   </separator>
   <separator name="electronic exchange-correlation" >
    <i type="logical" name="LASPH"> T  </i>
    <i type="logical" name="LMETAGGA"> F  </i>
   </separator>
   <separator name="electronic convergence" >
    <i type="int" name="NELM">   200</i>
    <i type="int" name="NELMDL">    -5</i>
    <i type="int" name="NELMIN">     2</i>
    <i name="ENINI">    520.00000000</i>
    <separator name="electronic convergence detail" >
     <i type="logical" name="LDIAG"> T  </i>
     <i type="logical" name="LSUBROT"> F  </i>
     <i name="WEIMIN">      0.00100000</i>
     <i name="EBREAK">      0.00000001</i>
     <i name="DEPER">      0.30000000</i>
     <i type="int" name="NRMM">     4</i>
     <i name="TIME">      0.40000000</i>
    </separator>
   </separator>
   <separator name="electronic mixer" >
    <i name="AMIX">      0.20000000</i>
    <i name="BMIX">      0.00010000</i>
    <i name="AMIN">      0.10000000</i>
    <i name="AMIX_MAG">      0.80000000</i>
    <i name="BMIX_MAG">      0.00010000</i>
    <separator name="electronic mixer details" >
     <i type="int" name="IMIX">     4</i>
     <i type="logical" name="MIXFIRST"> F  </i>
     <i type="int" name="MAXMIX">   -45</i>
     <i name="WC">    100.00000000</i>
     <i type="int" name="INIMIX">     1</i>
     <i type="int" name="MIXPRE">     1</i>
     <i type="int" name="MREMOVE">     5</i>
    </separator>
   </separator>
   <separator name="electronic dipolcorrection" >
    <i type="logical" name="LDIPOL"> F  </i>
    <i type="logical" name="LMONO"> F  </i>
    <i type="int" name="IDIPOL">     0</i>
    <i name="EPSILON">      1.00000000</i>
    <v name="DIPOL">   -100.00000000   -100.00000000   -100.00000000</v>
    <i name="EFIELD">      0.00000000</i>
   </separator>
  </separator>
  <separator name="grids" >
   <i type="int" name="NGX">    96</i>
   <i type="int" name="NGY">    96</i>
   <i type="int" name="NGZ">    84</i>
   <i type="int" name="NGXF">   192</i>
   <i type="int" name="NGYF">   192</i>
   <i type="int" name="NGZF">   168</i>
   <i type="logical" name="ADDGRID"> T  </i>
  </separator>
  <separator name="ionic" >
   <i type="int" name="NSW">  1000</i>
   <i type="int" name="IBRION">     3</i>
   <i type="int" name="MDALGO">     0</i>
   <i type="int" name="ISIF">     2</i>
   <i name="PSTRESS">      0.00000000</i>
   <i name="EDIFFG">     -0.03000000</i>
   <i type="int" name="NFREE">     0</i>
   <i name="POTIM">      0.00000000</i>
   <i name="SMASS">     -3.00000000</i>
   <i name="SCALEE">      1.00000000</i>
  </separator>
  <separator name="ionic md" >
   <i name="TEBEG">      0.00010000</i>
   <i name="TEEND">      0.00010000</i>
   <i type="int" name="NBLOCK">     1</i>
   <i type="int" name="KBLOCK">  1000</i>
   <i type="int" name="NPACO">   256</i>
   <i name="APACO">     10.00000000</i>
  </separator>
  <separator name="symmetry" >
   <i type="int" name="ISYM">     0</i>
   <i name="SYMPREC">      0.00001000</i>
  </separator>
  <separator name="dos" >
   <i type="int" name="LORBIT">     0</i>
   <v name="RWIGS">     -1.00000000     -1.00000000     -1.00000000     -1.00000000     -1.00000000</v>
   <i type="int" name="NEDOS">   301</i>
   <i name="EMIN">     10.00000000</i>
   <i name="EMAX">    -10.00000000</i>
   <i name="EFERMI">      0.00000000</i>
  </separator>
  <separator name="writing" >
   <i type="int" name="NWRITE">     2</i>
   <i type="logical" name="LWAVE"> F  </i>
   <i type="logical" name="LDOWNSAMPLE"> F  </i>
   <i type="logical" name="LCHARG"> F  </i>
   <i type="logical" name="LPARD"> F  </i>
   <i type="logical" name="LVTOT"> F  </i>
   <i type="logical" name="LVHAR"> F  </i>
   <i type="logical" name="LELF"> F  </i>
   <i type="logical" name="LOPTICS"> F  </i>
   <v name="STM">      0.00000000      0.00000000      0.00000000      0.00000000      0.00000000      0.00000000      0.00000000</v>
  </separator>
  <separator name="performance" >
   <i type="int" name="NPAR">     5</i>
   <i type="int" name="NSIM">     4</i>
   <i type="int" name="NBLK">    -1</i>
   <i type="logical" name="LPLANE"> T  </i>
   <i type="logical" name="LSCALAPACK"> T  </i>
   <i type="logical" name="LSCAAWARE"> F  </i>
   <i type="logical" name="LSCALU"> F  </i>
   <i type="logical" name="LASYNC"> F  </i>
   <i type="logical" name="LORBITALREAL"> F  </i>
  </separator>
  <separator name="miscellaneous" >
   <i type="int" name="IDIOT">     3</i>
   <i type="int" name="PHON_NSTRUCT">    -1</i>
   <i type="logical" name="LMUSIC"> F  </i>
   <v name="POMASS">     12.01100000     18.99800000     14.00100000      1.00000000     16.00000000</v>
   <v name="DARWINR">      0.00000000      0.00000000      0.00000000      0.00000000      0.00000000</v>
   <v name="DARWINV">      1.00000000      1.00000000      1.00000000      1.00000000      1.00000000</v>
   <i type="logical" name="LCORR"> T  </i>
  </separator>
  <i type="logical" name="GGA_COMPAT"> T  </i>
  <i type="logical" name="LBERRY"> F  </i>
  <i type="int" name="ICORELEVEL">     0</i>
  <i type="logical" name="LDAU"> F  </i>
  <i type="int" name="I_CONSTRAINED_M">     0</i>
  <separator name="electronic exchange-correlation" >
   <i type="string" name="GGA">--</i>
   <i type="int" name="VOSKOWN">     0</i>
   <i type="logical" name="LHFCALC"> F  </i>
   <i type="string" name="PRECFOCK"></i>
   <i type="logical" name="LSYMGRAD"> F  </i>
   <i type="logical" name="LHFONE"> F  </i>
   <i type="logical" name="LRHFCALC"> F  </i>
   <i type="logical" name="LTHOMAS"> F  </i>
   <i type="logical" name="LMODELHF"> F  </i>
   <i type="logical" name="LFOCKACE"> F  </i>
   <i name="ENCUT4O">     -1.00000000</i>
   <i type="int" name="EXXOEP">     0</i>
   <i type="int" name="FOURORBIT">     0</i>
   <i name="AEXX">      0.00000000</i>
   <i name="HFALPHA">      0.00000000</i>
   <i name="MCALPHA">      0.00000000</i>
   <i name="ALDAX">      1.00000000</i>
   <i name="AGGAX">      1.00000000</i>
   <i name="ALDAC">      1.00000000</i>
   <i name="AGGAC">      1.00000000</i>
   <i type="int" name="NKREDX">     1</i>
   <i type="int" name="NKREDY">     1</i>
   <i type="int" name="NKREDZ">     1</i>
   <i type="logical" name="SHIFTRED"> F  </i>
   <i type="logical" name="ODDONLY"> F  </i>
   <i type="logical" name="EVENONLY"> F  </i>
   <i type="int" name="LMAXFOCK">     0</i>
   <i type="int" name="NMAXFOCKAE">     0</i>
   <i type="logical" name="LFOCKAEDFT"> F  </i>
   <i name="HFSCREEN">      0.00000000</i>
   <i name="HFSCREENC">      0.00000000</i>
   <i type="int" name="NBANDSGWLOW">     0</i>
  </separator>
  <separator name="vdW DFT" >
   <i type="logical" name="LUSE_VDW"> F  </i>
   <i type="int" name="IVDW_NL">     1</i>
   <i type="logical" name="LSPIN_VDW"> F  </i>
   <i name="Zab_VDW">     -0.84910000</i>
   <i name="PARAM1">      0.12340000</i>
   <i name="PARAM2">      1.00000000</i>
   <i name="PARAM3">      0.00000000</i>
  </separator>
  <separator name="model GW" >
   <i type="int" name="MODEL_GW">     0</i>
   <i name="MODEL_EPS0">     24.47295536</i>
   <i name="MODEL_ALPHA">      1.00000000</i>
  </separator>
  <separator name="linear response parameters" >
   <i type="logical" name="LEPSILON"> F  </i>
   <i type="logical" name="LRPA"> F  </i>
   <i type="logical" name="LNABLA"> F  </i>
   <i type="logical" name="LVEL"> F  </i>
   <i name="CSHIFT">      0.10000000</i>
   <i name="OMEGAMAX">     -1.00000000</i>
   <i name="DEG_THRESHOLD">      0.00200000</i>
   <i name="RTIME">     -0.10000000</i>
   <i name="WPLASMAI">      0.00000000</i>
   <v name="DFIELD">      0.00000000      0.00000000      0.00000000</v>
   <v name="WPLASMA">      0.00000000      0.00000000      0.00000000      0.00000000      0.00000000      0.00000000      0.00000000      0.00000000      0.00000000</v>
  </separator>
  <separator name="orbital magnetization" >
   <i type="logical" name="NUCIND"> F  </i>
   <v name="MAGPOS">      0.00000000      0.00000000      0.00000000</v>
   <i type="logical" name="LNICSALL"> T  </i>
   <i type="logical" name="ORBITALMAG"> F  </i>
   <i type="logical" name="LMAGBLOCH"> F  </i>
   <i type="logical" name="LCHIMAG"> F  </i>
   <i type="logical" name="LGAUGE"> T  </i>
   <i type="int" name="MAGATOM">     0</i>
   <v name="MAGDIPOL">      0.00000000      0.00000000      0.00000000</v>
   <v name="AVECCONST">      0.00000000      0.00000000      0.00000000</v>
  </separator>
  <separator name="response functions" >
   <i type="logical" name="LALL_IN_ONE"> F  </i>
   <i type="int" name="IALL_IN_ONE">    -1</i>
   <i type="int" name="NBANDS_WAVE">    -1</i>
   <i type="logical" name="LFINITE_TEMPERATURE"> F  </i>
   <i type="logical" name="LADDER"> F  </i>
   <i type="logical" name="LRPAFORCE"> F  </i>
   <i type="logical" name="LFXC"> F  </i>
   <i type="logical" name="LHARTREE"> T  </i>
   <i type="int" name="IBSE">     0</i>
   <v type="int" name="KPOINT">    -1     0     0     0</v>
   <i type="logical" name="LTCTC"> F  </i>
   <i type="logical" name="LTCTE"> F  </i>
   <i type="logical" name="LTETE"> F  </i>
   <i type="logical" name="LTRIPLET"> F  </i>
   <i type="logical" name="LFXCEPS"> F  </i>
   <i type="logical" name="LFXHEG"> F  </i>
   <i type="int" name="NATURALO">     2</i>
   <i type="logical" name="LHOLEGF"> F  </i>
   <i type="logical" name="L2ORDER"> F  </i>
   <i type="logical" name="LDMP1"> F  </i>
   <i type="logical" name="LMP2LT"> F  </i>
   <i type="logical" name="LSMP2LT"> F  </i>
   <i type="logical" name="LGWLF"> F  </i>
   <i name="ENCUTGW">     -1.60000002</i>
   <i name="ENCUTGWSOFT">     -1.60000002</i>
   <i name="ENCUTLF">     -1.00000000</i>
   <i type="logical" name="LESF_SPLINES"> F  </i>
   <i type="int" name="LMAXMP2">    -1</i>
   <i name="SCISSOR">      0.00000000</i>
   <i type="int" name="NOMEGA">     0</i>
   <i type="int" name="NOMEGAR">     0</i>
   <i type="int" name="NBANDSGW">    -1</i>
   <i type="int" name="NBANDSO">    -1</i>
   <i type="int" name="NBANDSV">    -1</i>
   <i type="int" name="NELMGW">     1</i>
   <i type="int" name="NELMHF">     1</i>
   <i type="int" name="DIM">     3</i>
   <i type="int" name="IESPILON">     4</i>
   <i type="int" name="ANTIRES">     0</i>
   <i name="OMEGAMAX">    -30.00000000</i>
   <i name="OMEGAMIN">    -30.00000000</i>
   <i name="OMEGATL">   -200.00000000</i>
   <i type="int" name="OMEGAGRID">     0</i>
   <i name="CSHIFT">     -0.10000000</i>
   <i type="logical" name="LSELFENERGY"> F  </i>
   <i type="logical" name="LSPECTRAL"> F  </i>
   <i type="logical" name="LSPECTRALGW"> F  </i>
   <i type="logical" name="LSINGLES"> F  </i>
   <i type="logical" name="LFERMIGW"> F  </i>
   <i type="logical" name="ODDONLYGW"> F  </i>
   <i type="logical" name="EVENONLYGW"> F  </i>
   <i type="int" name="NKREDLFX">     1</i>
   <i type="int" name="NKREDLFY">     1</i>
   <i type="int" name="NKREDLFZ">     1</i>
   <i type="int" name="MAXMEM">  2800</i>
   <i type="int" name="TELESCOPE">     0</i>
   <i type="int" name="NTAUPAR">    -1</i>
   <i type="int" name="NOMEGAPAR">    -1</i>
   <i name="DAMP_NEWTON">      0.80000001</i>
   <i name="LAMBDA">      1.00000000</i>
  </separator>
  <separator name="External order field" >
   <i name="OFIELD_KAPPA">      0.00000000</i>
   <v name="OFIELD_K">      0.00000000      0.00000000      0.00000000</v>
   <i name="OFIELD_Q6_NEAR">      0.00000000</i>
   <i name="OFIELD_Q6_FAR">      0.00000000</i>
   <i name="OFIELD_A">      0.00000000</i>
  </separator>
  <separator name="optional k-points parameters" >
   <i type="int" name="KPOINTS_OPT_MODE">     1</i>
   <i type="logical" name="LKPOINTS_OPT"> F  </i>
  </separator>
 </parameters>
 <atominfo>
  <atoms>      95 </atoms>
  <types>       5 </types>
  <array name="atoms" >
   <dimension dim="1">ion</dimension>
   <field type="string">element</field>
   <field type="int">atomtype</field>
   <set>
    <rc><c>C </c><c>   1</c></rc>
    <rc><c>C </c><c>   1</c></rc>
    <rc><c>C </c><c>   1</c></rc>
    <rc><c>C </c><c>   1</c></rc>
    <rc><c>C </c><c>   1</c></rc>
    <rc><c>C </c><c>   1</c></rc>
    <rc><c>C </c><c>   1</c></rc>
    <rc><c>C </c><c>   1</c></rc>
    <rc><c>C </c><c>   1</c></rc>
    <rc><c>C </c><c>   1</c></rc>
    <rc><c>C </c><c>   1</c></rc>
    <rc><c>C </c><c>   1</c></rc>
    <rc><c>C </c><c>   1</c></rc>
    <rc><c>C </c><c>   1</c></rc>
    <rc><c>C </c><c>   1</c></rc>
    <rc><c>C </c><c>   1</c></rc>
    <rc><c>C </c><c>   1</c></rc>
    <rc><c>C </c><c>   1</c></rc>
    <rc><c>C </c><c>   1</c></rc>
    <rc><c>C </c><c>   1</c></rc>
    <rc><c>C </c><c>   1</c></rc>
    <rc><c>C </c><c>   1</c></rc>
    <rc><c>C </c><c>   1</c></rc>
    <rc><c>C </c><c>   1</c></rc>
    <rc><c>C </c><c>   1</c></rc>
    <rc><c>C </c><c>   1</c></rc>
    <rc><c>C </c><c>   1</c></rc>
    <rc><c>C </c><c>   1</c></rc>
    <rc><c>C </c><c>   1</c></rc>
    <rc><c>C </c><c>   1</c></rc>
    <rc><c>C </c><c>   1</c></rc>
    <rc><c>C </c><c>   1</c></rc>
    <rc><c>C </c><c>   1</c></rc>
    <rc><c>C </c><c>   1</c></rc>
    <rc><c>C </c><c>   1</c></rc>
    <rc><c>C </c><c>   1</c></rc>
    <rc><c>C </c><c>   1</c></rc>
    <rc><c>C </c><c>   1</c></rc>
    <rc><c>C </c><c>   1</c></rc>
    <rc><c>C </c><c>   1</c></rc>
    <rc><c>C </c><c>   1</c></rc>
    <rc><c>C </c><c>   1</c></rc>
    <rc><c>C </c><c>   1</c></rc>
    <rc><c>C </c><c>   1</c></rc>
    <rc><c>C </c><c>   1</c></rc>
    <rc><c>C </c><c>   1</c></rc>
    <rc><c>C </c><c>   1</c></rc>
    <rc><c>C </c><c>   1</c></rc>
    <rc><c>C </c><c>   1</c></rc>
    <rc><c>C </c><c>   1</c></rc>
    <rc><c>C </c><c>   1</c></rc>
    <rc><c>C </c><c>   1</c></rc>
    <rc><c>C </c><c>   1</c></rc>
    <rc><c>C </c><c>   1</c></rc>
    <rc><c>C </c><c>   1</c></rc>
    <rc><c>C </c><c>   1</c></rc>
    <rc><c>C </c><c>   1</c></rc>
    <rc><c>C </c><c>   1</c></rc>
    <rc><c>C </c><c>   1</c></rc>
    <rc><c>C </c><c>   1</c></rc>
    <rc><c>C </c><c>   1</c></rc>
    <rc><c>C </c><c>   1</c></rc>
    <rc><c>C </c><c>   1</c></rc>
    <rc><c>C </c><c>   1</c></rc>
    <rc><c>C </c><c>   1</c></rc>
    <rc><c>C </c><c>   1</c></rc>
    <rc><c>C </c><c>   1</c></rc>
    <rc><c>C </c><c>   1</c></rc>
    <rc><c>C </c><c>   1</c></rc>
    <rc><c>C </c><c>   1</c></rc>
    <rc><c>C </c><c>   1</c></rc>
    <rc><c>C </c><c>   1</c></rc>
    <rc><c>C </c><c>   1</c></rc>
    <rc><c>C </c><c>   1</c></rc>
    <rc><c>C </c><c>   1</c></rc>
    <rc><c>C </c><c>   1</c></rc>
    <rc><c>C </c><c>   1</c></rc>
    <rc><c>C </c><c>   1</c></rc>
    <rc><c>C </c><c>   1</c></rc>
    <rc><c>C </c><c>   1</c></rc>
    <rc><c>C </c><c>   1</c></rc>
    <rc><c>C </c><c>   1</c></rc>
    <rc><c>C </c><c>   1</c></rc>
    <rc><c>C </c><c>   1</c></rc>
    <rc><c>F </c><c>   2</c></rc>
    <rc><c>F </c><c>   2</c></rc>
    <rc><c>F </c><c>   2</c></rc>
    <rc><c>F </c><c>   2</c></rc>
    <rc><c>N </c><c>   3</c></rc>
    <rc><c>N </c><c>   3</c></rc>
    <rc><c>N </c><c>   3</c></rc>
    <rc><c>N </c><c>   3</c></rc>
    <rc><c>H </c><c>   4</c></rc>
    <rc><c>H </c><c>   4</c></rc>
    <rc><c>O </c><c>   5</c></rc>
   </set>
  </array>
  <array name="atomtypes" >
   <dimension dim="1">type</dimension>
   <field type="int">atomspertype</field>
   <field type="string">element</field>
   <field>mass</field>
   <field>valence</field>
   <field type="string">pseudopotential</field>
   <set>
    <rc><c>  84</c><c>C </c><c>     12.01100000</c><c>      4.00000000</c><c>  PAW_PBE C 08Apr2002                   </c></rc>
    <rc><c>   4</c><c>F </c><c>     18.99800000</c><c>      7.00000000</c><c>  PAW_PBE F 08Apr2002                   </c></rc>
    <rc><c>   4</c><c>N </c><c>     14.00100000</c><c>      5.00000000</c><c>  PAW_PBE N 08Apr2002                   </c></rc>
    <rc><c>   2</c><c>H </c><c>      1.00000000</c><c>      1.00000000</c><c>  PAW_PBE H 15Jun2001                   </c></rc>
    <rc><c>   1</c><c>O </c><c>     16.00000000</c><c>      6.00000000</c><c>  PAW_PBE O 08Apr2002                   </c></rc>
   </set>
  </array>
 </atominfo>
 <structure name="initialpos" >
  <crystal>
   <varray name="basis" >
    <v>      17.27103806       0.00000000       0.00000000 </v>
    <v>      -8.63551903      14.95715771       0.00000000 </v>
    <v>       0.00000000       0.00000000      15.00000000 </v>
   </varray>
   <i name="volume">   3874.88459904 </i>
   <varray name="rec_basis" >
    <v>       0.05790040       0.03342881       0.00000000 </v>
    <v>       0.00000000       0.06685762       0.00000000 </v>
    <v>       0.00000000       0.00000000       0.06666667 </v>
   </varray>
  </crystal>
  <varray name="positions" >
   <v>       0.00207091       0.00121672       0.50383562 </v>
   <v>       0.00067815       0.14297364       0.50232598 </v>
   <v>       0.00062778       0.28609061       0.50265544 </v>
   <v>       0.00121728       0.42927119       0.50419336 </v>
   <v>       0.00159067       0.57242437       0.50560962 </v>
   <v>       0.00268650       0.71560086       0.50656637 </v>
   <v>       0.00384908       0.85953238       0.50596329 </v>
   <v>       0.14603465       0.00296878       0.49975762 </v>
   <v>       0.14464005       0.14480557       0.49404780 </v>
   <v>       0.14236245       0.28589135       0.49049122 </v>
   <v>       0.14342550       0.42955065       0.49119683 </v>
   <v>       0.14465171       0.57228078       0.49633789 </v>
   <v>       0.14494024       0.71557690       0.50082704 </v>
   <v>       0.14560988       0.85931537       0.50254099 </v>
   <v>       0.28843663       0.00310384       0.49738501 </v>
   <v>       0.28874760       0.14703489       0.48953922 </v>
   <v>       0.28641539       0.29133369       0.47497846 </v>
   <v>       0.28253395       0.42468590       0.46666781 </v>
   <v>       0.28790279       0.57226861       0.47367830 </v>
   <v>       0.28691530       0.71578943       0.48984961 </v>
   <v>       0.28732540       0.85924890       0.49768063 </v>
   <v>       0.43053715       0.00183887       0.49760379 </v>
   <v>       0.43176187       0.14639354       0.49360689 </v>
   <v>       0.43002944       0.28545011       0.47574163 </v>
   <v>       0.42899738       0.85784685       0.49330511 </v>
   <v>       0.57234544       0.99958850       0.49947806 </v>
   <v>       0.57329792       0.14346011       0.49990547 </v>
   <v>       0.57767515       0.29023911       0.49502441 </v>
   <v>       0.57036686       0.85444959       0.49563880 </v>
   <v>       0.71437539       0.99795349       0.50389083 </v>
   <v>       0.71546011       0.14229871       0.50520949 </v>
   <v>       0.71632157       0.28596337       0.50466429 </v>
   <v>       0.71279394       0.42600458       0.50268286 </v>
   <v>       0.71975333       0.57662732       0.50285812 </v>
   <v>       0.71453881       0.85419988       0.50342715 </v>
   <v>       0.85781362       0.99929492       0.50590055 </v>
   <v>       0.85763733       0.14229596       0.50674041 </v>
   <v>       0.85829465       0.28580091       0.50753527 </v>
   <v>       0.85870663       0.42919778       0.50723728 </v>
   <v>       0.85801484       0.57212707       0.50705479 </v>
   <v>       0.86175433       0.71676571       0.50714929 </v>
   <v>       0.86013483       0.85771686       0.50649279 </v>
   <v>       0.04938641       0.09645429       0.50043871 </v>
   <v>       0.04753238       0.23803953       0.49937477 </v>
   <v>       0.04840709       0.38161855       0.50021871 </v>
   <v>       0.04932291       0.52467460       0.50274574 </v>
   <v>       0.04977902       0.66785278       0.50480245 </v>
   <v>       0.05052977       0.81122462       0.50543613 </v>
   <v>       0.05069314       0.95458172       0.50348206 </v>
   <v>       0.19328357       0.09808583       0.49433773 </v>
   <v>       0.19094046       0.23969104       0.48668785 </v>
   <v>       0.18902666       0.38061450       0.48412762 </v>
   <v>       0.19239886       0.52492050       0.48841065 </v>
   <v>       0.19198108       0.66781569       0.49552246 </v>
   <v>       0.19256739       0.81125071       0.50044780 </v>
   <v>       0.19332447       0.95489333       0.50000445 </v>
   <v>       0.33632275       0.09906508       0.49337274 </v>
   <v>       0.33615077       0.24271164       0.47928721 </v>
   <v>       0.32740078       0.52002785       0.45444486 </v>
   <v>       0.33731412       0.67096178       0.47984308 </v>
   <v>       0.33426645       0.81090840       0.49360793 </v>
   <v>       0.33525264       0.95462935       0.49775917 </v>
   <v>       0.47834289       0.09719128       0.49755958 </v>
   <v>       0.48026887       0.24208194       0.48830268 </v>
   <v>       0.47286553       0.80633885       0.48952023 </v>
   <v>       0.47739331       0.95326122       0.49704281 </v>
   <v>       0.62017457       0.09494411       0.50201193 </v>
   <v>       0.62162403       0.23891518       0.50026782 </v>
   <v>       0.62066255       0.81044877       0.49881881 </v>
   <v>       0.61892012       0.95033678       0.49987081 </v>
   <v>       0.76236756       0.09396536       0.50595548 </v>
   <v>       0.76340587       0.23769126       0.50665396 </v>
   <v>       0.76358517       0.38114593       0.50542025 </v>
   <v>       0.76136109       0.52459737       0.50462395 </v>
   <v>       0.76684591       0.67225190       0.50538256 </v>
   <v>       0.76402721       0.80562044       0.50531609 </v>
   <v>       0.76211957       0.95019731       0.50483833 </v>
   <v>       0.90521380       0.09451067       0.50563200 </v>
   <v>       0.90546943       0.23791391       0.50650292 </v>
   <v>       0.90597191       0.38147951       0.50718214 </v>
   <v>       0.90606827       0.52477413       0.50721545 </v>
   <v>       0.90727947       0.66757361       0.50734884 </v>
   <v>       0.90879148       0.81160852       0.50708813 </v>
   <v>       0.90664708       0.95277316       0.50581630 </v>
   <v>       0.47524507       0.37323692       0.45844505 </v>
   <v>       0.40965498       0.55895289       0.41934081 </v>
   <v>       0.63071221       0.53749954       0.49775948 </v>
   <v>       0.57574502       0.72110126       0.49739998 </v>
   <v>       0.42687161       0.71646984       0.48029832 </v>
   <v>       0.72028238       0.71611940       0.50476775 </v>
   <v>       0.32866492       0.38015049       0.46211829 </v>
   <v>       0.62341944       0.38036475       0.49744137 </v>
   <v>       0.52266686       0.57005804       0.54560358 </v>
   <v>       0.44815987       0.47380661       0.52347524 </v>
   <v>       0.46890531       0.51964787       0.56977595 </v>
  </varray>
  <varray name="selective"  type="logical" >
   <v type="logical" >  T  T  T </v>
   <v type="logical" >  T  T  T </v>
   <v type="logical" >  T  T  T </v>
   <v type="logical" >  T  T  T </v>
   <v type="logical" >  T  T  T </v>
   <v type="logical" >  T  T  T </v>
   <v type="logical" >  T  T  T </v>
   <v type="logical" >  T  T  T </v>
   <v type="logical" >  T  T  T </v>
   <v type="logical" >  T  T  T </v>
   <v type="logical" >  T  T  T </v>
   <v type="logical" >  T  T  T </v>
   <v type="logical" >  T  T  T </v>
   <v type="logical" >  T  T  T </v>
   <v type="logical" >  T  T  T </v>
   <v type="logical" >  T  T  T </v>
   <v type="logical" >  T  T  T </v>
   <v type="logical" >  T  T  T </v>
   <v type="logical" >  T  T  T </v>
   <v type="logical" >  T  T  T </v>
   <v type="logical" >  T  T  T </v>
   <v type="logical" >  T  T  T </v>
   <v type="logical" >  T  T  T </v>
   <v type="logical" >  T  T  T </v>
   <v type="logical" >  T  T  T </v>
   <v type="logical" >  T  T  T </v>
   <v type="logical" >  T  T  T </v>
   <v type="logical" >  T  T  T </v>
   <v type="logical" >  T  T  T </v>
   <v type="logical" >  T  T  T </v>
   <v type="logical" >  T  T  T </v>
   <v type="logical" >  T  T  T </v>
   <v type="logical" >  T  T  T </v>
   <v type="logical" >  T  T  T </v>
   <v type="logical" >  T  T  T </v>
   <v type="logical" >  T  T  T </v>
   <v type="logical" >  T  T  T </v>
   <v type="logical" >  T  T  T </v>
   <v type="logical" >  T  T  T </v>
   <v type="logical" >  T  T  T </v>
   <v type="logical" >  T  T  T </v>
   <v type="logical" >  T  T  T </v>
   <v type="logical" >  T  T  T </v>
   <v type="logical" >  T  T  T </v>
   <v type="logical" >  T  T  T </v>
   <v type="logical" >  T  T  T </v>
   <v type="logical" >  T  T  T </v>
   <v type="logical" >  T  T  T </v>
   <v type="logical" >  T  T  T </v>
   <v type="logical" >  T  T  T </v>
   <v type="logical" >  T  T  T </v>
   <v type="logical" >  T  T  T </v>
   <v type="logical" >  T  T  T </v>
   <v type="logical" >  T  T  T </v>
   <v type="logical" >  T  T  T </v>
   <v type="logical" >  T  T  T </v>
   <v type="logical" >  T  T  T </v>
   <v type="logical" >  T  T  T </v>
   <v type="logical" >  T  T  T </v>
   <v type="logical" >  T  T  T </v>
   <v type="logical" >  T  T  T </v>
   <v type="logical" >  T  T  T </v>
   <v type="logical" >  T  T  T </v>
   <v type="logical" >  T  T  T </v>
   <v type="logical" >  T  T  T </v>
   <v type="logical" >  T  T  T </v>
   <v type="logical" >  T  T  T </v>
   <v type="logical" >  T  T  T </v>
   <v type="logical" >  T  T  T </v>
   <v type="logical" >  T  T  T </v>
   <v type="logical" >  T  T  T </v>
   <v type="logical" >  T  T  T </v>
   <v type="logical" >  T  T  T </v>
   <v type="logical" >  T  T  T </v>
   <v type="logical" >  T  T  T </v>
   <v type="logical" >  T  T  T </v>
   <v type="logical" >  T  T  T </v>
   <v type="logical" >  T  T  T </v>
   <v type="logical" >  T  T  T </v>
   <v type="logical" >  T  T  T </v>
   <v type="logical" >  T  T  T </v>
   <v type="logical" >  T  T  T </v>
   <v type="logical" >  T  T  T </v>
   <v type="logical" >  T  T  T </v>
   <v type="logical" >  T  T  T </v>
   <v type="logical" >  T  T  T </v>
   <v type="logical" >  T  T  T </v>
   <v type="logical" >  T  T  T </v>
   <v type="logical" >  T  T  T </v>
   <v type="logical" >  T  T  T </v>
   <v type="logical" >  T  T  T </v>
   <v type="logical" >  T  T  T </v>
   <v type="logical" >  T  T  T </v>
   <v type="logical" >  T  T  T </v>
   <v type="logical" >  T  T  T </v>
  </varray>
  <nose>
   <v>      -3.00000000       0.00000000       0.00010000       0.00010000 </v>
  </nose>
 </structure>
 <calculation>
  <scstep>
   <time name="dav">   82.71   83.95</time>
   <time name="total">   88.43   89.75</time>
   <energy>
    <i name="alphaZ">    196.22536771 </i>
    <i name="ewald">  39588.24265244 </i>
    <i name="hartreedc"> -52323.56166626 </i>
    <i name="XCdc">   1371.26301100 </i>
    <i name="pawpsdc">  12438.68778162 </i>
    <i name="pawaedc"> -12513.22827041 </i>
    <i name="eentropy">     -0.04013928 </i>
    <i name="bandstr">  -1628.44388536 </i>
    <i name="atom">  16514.44393368 </i>
    <i name="e_fr_energy">   3643.58878514 </i>
    <i name="e_wo_entrp">   3643.62892442 </i>
    <i name="e_0_energy">   3643.60885478 </i>
   </energy>
  </scstep>
  <scstep>
   <time name="dav">  105.84  107.41</time>
   <time name="total">  105.84  107.41</time>
   <energy>
    <i name="e_fr_energy">   -178.88091723 </i>
    <i name="e_wo_entrp">   -178.87008759 </i>
    <i name="e_0_energy">   -178.87550241 </i>
   </energy>
  </scstep>
  <scstep>
   <time name="dav">   90.58   91.86</time>
   <time name="total">   90.58   91.87</time>
   <energy>
    <i name="e_fr_energy">   -851.67893179 </i>
    <i name="e_wo_entrp">   -851.67523260 </i>
    <i name="e_0_energy">   -851.67708219 </i>
   </energy>
  </scstep>
  <scstep>
   <time name="dav">   90.26   91.58</time>
   <time name="total">   90.26   91.58</time>
   <energy>
    <i name="e_fr_energy">   -874.14316347 </i>
    <i name="e_wo_entrp">   -874.14043262 </i>
    <i name="e_0_energy">   -874.14179805 </i>
   </energy>
  </scstep>
  <scstep>
   <time name="dav">  100.08  101.60</time>
   <time name="total">  105.87  107.50</time>
   <energy>
    <i name="e_fr_energy">   -874.83964029 </i>
    <i name="e_wo_entrp">   -874.83701848 </i>
    <i name="e_0_energy">   -874.83832938 </i>
   </energy>
  </scstep>
  <scstep>
   <time name="dav">   88.34   89.61</time>
   <time name="total">   99.85  101.28</time>
   <energy>
    <i name="e_fr_energy">   -857.75802493 </i>
    <i name="e_wo_entrp">   -857.75343540 </i>
    <i name="e_0_energy">   -857.75573016 </i>
   </energy>
  </scstep>
  <scstep>
   <time name="dav">   86.74   88.03</time>
   <time name="total">   98.53  100.00</time>
   <energy>
    <i name="e_fr_energy">   -837.32849369 </i>
    <i name="e_wo_entrp">   -837.32848431 </i>
    <i name="e_0_energy">   -837.32848900 </i>
   </energy>
  </scstep>
  <scstep>
   <time name="dav">   87.49   88.83</time>
   <time name="total">   98.84  100.36</time>
   <energy>
    <i name="e_fr_energy">   -832.66967372 </i>
    <i name="e_wo_entrp">   -832.66967351 </i>
    <i name="e_0_energy">   -832.66967361 </i>
   </energy>
  </scstep>
  <scstep>
   <time name="dav">   86.57   87.81</time>
   <time name="total">   98.31   99.73</time>
   <energy>
    <i name="e_fr_energy">   -832.76287329 </i>
    <i name="e_wo_entrp">   -832.76287311 </i>
    <i name="e_0_energy">   -832.76287320 </i>
   </energy>
  </scstep>
  <scstep>
   <time name="dav">   84.63   85.87</time>
   <time name="total">   96.15   97.50</time>
   <energy>
    <i name="e_fr_energy">   -832.60503991 </i>
    <i name="e_wo_entrp">   -832.60503972 </i>
    <i name="e_0_energy">   -832.60503981 </i>
   </energy>
  </scstep>
  <scstep>
   <time name="dav">   84.57   85.94</time>
   <time name="total">   96.46   97.99</time>
   <energy>
    <i name="e_fr_energy">   -832.58984283 </i>
    <i name="e_wo_entrp">   -832.58984269 </i>
    <i name="e_0_energy">   -832.58984276 </i>
   </energy>
  </scstep>
  <scstep>
   <time name="dav">   88.37   89.63</time>
   <time name="total">  100.34  101.76</time>
   <energy>
    <i name="e_fr_energy">   -832.59023609 </i>
    <i name="e_wo_entrp">   -832.59023596 </i>
    <i name="e_0_energy">   -832.59023603 </i>
   </energy>
  </scstep>
  <scstep>
   <time name="dav">   86.34   87.64</time>
   <time name="total">   98.48   99.93</time>
   <energy>
    <i name="e_fr_energy">   -832.59043021 </i>
    <i name="e_wo_entrp">   -832.59043007 </i>
    <i name="e_0_energy">   -832.59043014 </i>
   </energy>
  </scstep>
  <scstep>
   <time name="dav">   87.63   88.91</time>
   <time name="total">   99.44  100.87</time>
   <energy>
    <i name="e_fr_energy">   -832.59047227 </i>
    <i name="e_wo_entrp">   -832.59047213 </i>
    <i name="e_0_energy">   -832.59047220 </i>
   </energy>
  </scstep>
  <scstep>
   <time name="dav">   81.25   82.33</time>
   <time name="total">   93.36   94.63</time>
   <energy>
    <i name="e_fr_energy">   -832.59053160 </i>
    <i name="e_wo_entrp">   -832.59053146 </i>
    <i name="e_0_energy">   -832.59053153 </i>
   </energy>
  </scstep>
  <scstep>
   <time name="dav">   75.26   76.29</time>
   <time name="total">   81.47   82.58</time>
   <energy>
    <i name="alphaZ">    196.22536771 </i>
    <i name="ewald">  39588.24265244 </i>
    <i name="hartreedc"> -53783.89448789 </i>
    <i name="XCdc">   1420.36118395 </i>
    <i name="pawpsdc">  39705.23469500 </i>
    <i name="pawaedc"> -39790.96427872 </i>
    <i name="eentropy">     -0.00000014 </i>
    <i name="bandstr">  -4682.23959833 </i>
    <i name="atom">  16514.44393368 </i>
    <i name="e_fr_energy">   -832.59053229 </i>
    <i name="e_wo_entrp">   -832.59053215 </i>
    <i name="e_0_energy">   -832.59053222 </i>
   </energy>
  </scstep>
  <structure>
   <crystal>
    <varray name="basis" >
     <v>      17.27103806       0.00000000       0.00000000 </v>
     <v>      -8.63551903      14.95715771       0.00000000 </v>
     <v>       0.00000000       0.00000000      15.00000000 </v>
    </varray>
    <i name="volume">   3874.88459904 </i>
    <varray name="rec_basis" >
     <v>       0.05790040       0.03342881       0.00000000 </v>
     <v>       0.00000000       0.06685762       0.00000000 </v>
     <v>       0.00000000       0.00000000       0.06666667 </v>
    </varray>
   </crystal>
   <varray name="positions" >
    <v>       0.00207091       0.00121672       0.50383562 </v>
    <v>       0.00067815       0.14297364       0.50232598 </v>
    <v>       0.00062778       0.28609061       0.50265544 </v>
    <v>       0.00121728       0.42927119       0.50419336 </v>
    <v>       0.00159067       0.57242437       0.50560962 </v>
    <v>       0.00268650       0.71560086       0.50656637 </v>
    <v>       0.00384908       0.85953238       0.50596329 </v>
    <v>       0.14603465       0.00296878       0.49975762 </v>
    <v>       0.14464005       0.14480557       0.49404780 </v>
    <v>       0.14236245       0.28589135       0.49049122 </v>
    <v>       0.14342550       0.42955065       0.49119683 </v>
    <v>       0.14465171       0.57228078       0.49633789 </v>
    <v>       0.14494024       0.71557690       0.50082704 </v>
    <v>       0.14560988       0.85931537       0.50254099 </v>
    <v>       0.28843663       0.00310384       0.49738501 </v>
    <v>       0.28874760       0.14703489       0.48953922 </v>
    <v>       0.28641539       0.29133369       0.47497846 </v>
    <v>       0.28253395       0.42468590       0.46666781 </v>
    <v>       0.28790279       0.57226861       0.47367830 </v>
    <v>       0.28691530       0.71578943       0.48984961 </v>
    <v>       0.28732540       0.85924890       0.49768063 </v>
    <v>       0.43053715       0.00183887       0.49760379 </v>
    <v>       0.43176187       0.14639354       0.49360689 </v>
    <v>       0.43002944       0.28545011       0.47574163 </v>
    <v>       0.42899738       0.85784685       0.49330511 </v>
    <v>       0.57234544       0.99958850       0.49947806 </v>
    <v>       0.57329792       0.14346011       0.49990547 </v>
    <v>       0.57767515       0.29023911       0.49502441 </v>
    <v>       0.57036686       0.85444959       0.49563880 </v>
    <v>       0.71437539       0.99795349       0.50389083 </v>
    <v>       0.71546011       0.14229871       0.50520949 </v>
    <v>       0.71632157       0.28596337       0.50466429 </v>
    <v>       0.71279394       0.42600458       0.50268286 </v>
    <v>       0.71975333       0.57662732       0.50285812 </v>
    <v>       0.71453881       0.85419988       0.50342715 </v>
    <v>       0.85781362       0.99929492       0.50590055 </v>
    <v>       0.85763733       0.14229596       0.50674041 </v>
    <v>       0.85829465       0.28580091       0.50753527 </v>
    <v>       0.85870663       0.42919778       0.50723728 </v>
    <v>       0.85801484       0.57212707       0.50705479 </v>
    <v>       0.86175433       0.71676571       0.50714929 </v>
    <v>       0.86013483       0.85771686       0.50649279 </v>
    <v>       0.04938641       0.09645429       0.50043871 </v>
    <v>       0.04753238       0.23803953       0.49937477 </v>
    <v>       0.04840709       0.38161855       0.50021871 </v>
    <v>       0.04932291       0.52467460       0.50274574 </v>
    <v>       0.04977902       0.66785278       0.50480245 </v>
    <v>       0.05052977       0.81122462       0.50543613 </v>
    <v>       0.05069314       0.95458172       0.50348206 </v>
    <v>       0.19328357       0.09808583       0.49433773 </v>
    <v>       0.19094046       0.23969104       0.48668785 </v>
    <v>       0.18902666       0.38061450       0.48412762 </v>
    <v>       0.19239886       0.52492050       0.48841065 </v>
    <v>       0.19198108       0.66781569       0.49552246 </v>
    <v>       0.19256739       0.81125071       0.50044780 </v>
    <v>       0.19332447       0.95489333       0.50000445 </v>
    <v>       0.33632275       0.09906508       0.49337274 </v>
    <v>       0.33615077       0.24271164       0.47928721 </v>
    <v>       0.32740078       0.52002785       0.45444486 </v>
    <v>       0.33731412       0.67096178       0.47984308 </v>
    <v>       0.33426645       0.81090840       0.49360793 </v>
    <v>       0.33525264       0.95462935       0.49775917 </v>
    <v>       0.47834289       0.09719128       0.49755958 </v>
    <v>       0.48026887       0.24208194       0.48830268 </v>
    <v>       0.47286553       0.80633885       0.48952023 </v>
    <v>       0.47739331       0.95326122       0.49704281 </v>
    <v>       0.62017457       0.09494411       0.50201193 </v>
    <v>       0.62162403       0.23891518       0.50026782 </v>
    <v>       0.62066255       0.81044877       0.49881881 </v>
    <v>       0.61892012       0.95033678       0.49987081 </v>
    <v>       0.76236756       0.09396536       0.50595548 </v>
    <v>       0.76340587       0.23769126       0.50665396 </v>
    <v>       0.76358517       0.38114593       0.50542025 </v>
    <v>       0.76136109       0.52459737       0.50462395 </v>
    <v>       0.76684591       0.67225190       0.50538256 </v>
    <v>       0.76402721       0.80562044       0.50531609 </v>
    <v>       0.76211957       0.95019731       0.50483833 </v>
    <v>       0.90521380       0.09451067       0.50563200 </v>
    <v>       0.90546943       0.23791391       0.50650292 </v>
    <v>       0.90597191       0.38147951       0.50718214 </v>
    <v>       0.90606827       0.52477413       0.50721545 </v>
    <v>       0.90727947       0.66757361       0.50734884 </v>
    <v>       0.90879148       0.81160852       0.50708813 </v>
    <v>       0.90664708       0.95277316       0.50581630 </v>
    <v>       0.47524507       0.37323692       0.45844505 </v>
    <v>       0.40965498       0.55895289       0.41934081 </v>
    <v>       0.63071221       0.53749954       0.49775948 </v>
    <v>       0.57574502       0.72110126       0.49739998 </v>
    <v>       0.42687161       0.71646984       0.48029832 </v>
    <v>       0.72028238       0.71611940       0.50476775 </v>
    <v>       0.32866492       0.38015049       0.46211829 </v>
    <v>       0.62341944       0.38036475       0.49744137 </v>
    <v>       0.52266686       0.57005804       0.54560358 </v>
    <v>       0.44815987       0.47380661       0.52347524 </v>
    <v>       0.46890531       0.51964787       0.56977595 </v>
   </varray>
  </structure>
  <varray name="forces" >
   <v>       0.00019398      -0.00020893      -0.00121234 </v>
   <v>       0.00000820       0.00223930      -0.00111402 </v>
   <v>      -0.00046832       0.00052543      -0.00475326 </v>
   <v>      -0.00196900      -0.00036500      -0.00371308 </v>
   <v>      -0.00198445      -0.00143398      -0.00229951 </v>
   <v>      -0.00200996      -0.00253314      -0.00506886 </v>
   <v>      -0.00058736      -0.00196006      -0.00205124 </v>
   <v>      -0.00082343      -0.00108248      -0.00296365 </v>
   <v>      -0.00053718       0.00025210      -0.00212348 </v>
   <v>      -0.00012970       0.00135157      -0.00167621 </v>
   <v>       0.00021372      -0.00031214      -0.00235399 </v>
   <v>      -0.00099904      -0.00074899      -0.00059949 </v>
   <v>      -0.00152731      -0.00112130      -0.00374171 </v>
   <v>       0.00051010      -0.00268890      -0.00331278 </v>
   <v>       0.00090262      -0.00071789      -0.00436463 </v>
   <v>      -0.00016680      -0.00031136      -0.00297736 </v>
   <v>       0.00126228       0.00236111      -0.00257673 </v>
   <v>       0.00041839      -0.00070894      -0.00288532 </v>
   <v>       0.00066423       0.00064952      -0.00316311 </v>
   <v>      -0.00010582       0.00005635      -0.00403735 </v>
   <v>       0.00037754      -0.00167144      -0.00614117 </v>
   <v>       0.00089489      -0.00046383      -0.00882884 </v>
   <v>       0.00067640       0.00161251      -0.00520326 </v>
   <v>      -0.00051834      -0.00001207      -0.00380082 </v>
   <v>       0.00002720      -0.00000946      -0.00551295 </v>
   <v>       0.00062394       0.00008593      -0.00809862 </v>
   <v>       0.00108530       0.00118770      -0.00337759 </v>
   <v>      -0.00013136       0.00190540      -0.00718126 </v>
   <v>      -0.00162764       0.00017413      -0.00358193 </v>
   <v>      -0.00032149       0.00111834      -0.00757685 </v>
   <v>       0.00118086       0.00241579      -0.00607051 </v>
   <v>       0.00180873       0.00237518      -0.00636658 </v>
   <v>       0.00091105       0.00120094      -0.00711374 </v>
   <v>       0.00377162       0.00078287      -0.00181782 </v>
   <v>      -0.00150957      -0.00007589      -0.00362019 </v>
   <v>       0.00142637       0.00207420       0.00000704 </v>
   <v>       0.00008007       0.00205701      -0.00716887 </v>
   <v>       0.00027090       0.00121546      -0.00466538 </v>
   <v>      -0.00086702      -0.00037687      -0.00568368 </v>
   <v>       0.00065244      -0.00234483      -0.00883072 </v>
   <v>       0.00063642      -0.00090331      -0.00413642 </v>
   <v>       0.00049433      -0.00141301      -0.00285747 </v>
   <v>       0.00118543      -0.00018645      -0.00226680 </v>
   <v>      -0.00036355      -0.00096927      -0.00253528 </v>
   <v>      -0.00034350       0.00028032      -0.00379146 </v>
   <v>       0.00014193       0.00139726      -0.00210463 </v>
   <v>       0.00225374       0.00109804      -0.00444725 </v>
   <v>      -0.00007910       0.00064036      -0.00281177 </v>
   <v>       0.00027813       0.00033837      -0.00150973 </v>
   <v>       0.00006964      -0.00120199      -0.00215554 </v>
   <v>       0.00056258      -0.00184477      -0.00200318 </v>
   <v>      -0.00064816      -0.00131229      -0.00096841 </v>
   <v>      -0.00217200      -0.00020478      -0.00101858 </v>
   <v>       0.00017832       0.00033713      -0.00216321 </v>
   <v>       0.00090504      -0.00070703      -0.00488624 </v>
   <v>       0.00006807      -0.00006839      -0.00426279 </v>
   <v>      -0.00070803      -0.00065324      -0.00338658 </v>
   <v>      -0.00140106      -0.00174170      -0.00292291 </v>
   <v>      -0.00380820      -0.00143298      -0.00736815 </v>
   <v>      -0.00227351      -0.00048838      -0.00318006 </v>
   <v>      -0.00054960       0.00007219      -0.00622159 </v>
   <v>       0.00153688      -0.00078090      -0.00651013 </v>
   <v>       0.00056289      -0.00284578      -0.00630218 </v>
   <v>       0.00088272      -0.00024038      -0.00586825 </v>
   <v>      -0.00015804       0.00080796      -0.00331393 </v>
   <v>       0.00015890       0.00201004      -0.00800476 </v>
   <v>       0.00081412       0.00064194      -0.00594919 </v>
   <v>      -0.00035233      -0.00107921      -0.00539090 </v>
   <v>       0.00250714       0.00444716      -0.00142859 </v>
   <v>       0.00117500       0.00220991      -0.00765735 </v>
   <v>      -0.00059130      -0.00056379      -0.00696745 </v>
   <v>      -0.00037190      -0.00100396      -0.00717588 </v>
   <v>      -0.00069464      -0.00080474      -0.00977710 </v>
   <v>      -0.00042171       0.00064090      -0.00657721 </v>
   <v>      -0.00034783       0.00238212      -0.00180444 </v>
   <v>      -0.00067936       0.00211126      -0.00463597 </v>
   <v>       0.00122824       0.00062185      -0.00422438 </v>
   <v>      -0.00044093      -0.00080174      -0.00246647 </v>
   <v>      -0.00018753      -0.00105329      -0.00673930 </v>
   <v>      -0.00063550      -0.00067770      -0.00294528 </v>
   <v>       0.00071179      -0.00020905      -0.00448408 </v>
   <v>      -0.00028221       0.00033445      -0.00751910 </v>
   <v>      -0.00001349       0.00186295      -0.00420733 </v>
   <v>      -0.00072341       0.00121743       0.00065667 </v>
   <v>      -0.00258428       0.00343218      -0.00072191 </v>
   <v>      -0.00491122      -0.00296820      -0.02269895 </v>
   <v>      -0.00259074       0.00022472       0.00736615 </v>
   <v>      -0.00026153      -0.00268440       0.00202790 </v>
   <v>       0.00073396       0.00095909      -0.00372987 </v>
   <v>       0.00051180      -0.00022711      -0.00552089 </v>
   <v>       0.00053663      -0.00083237      -0.00255556 </v>
   <v>      -0.00156474      -0.00121692      -0.00725262 </v>
   <v>       0.00229120      -0.00846386      -0.00606694 </v>
   <v>       0.00468864       0.00524860      -0.00958345 </v>
   <v>       0.00336885      -0.00022862       0.40264863 </v>
  </varray>
  <varray name="stress" >
   <v>       0.34730318       0.61788682       0.03356675 </v>
   <v>       0.61788737      -9.95992337       0.02602336 </v>
   <v>       0.03356600       0.02602302      -0.13562204 </v>
  </varray>
  <energy>
   <i name="e_fr_energy">   -840.26430383 </i>
   <i name="e_wo_entrp">   -840.26430369 </i>
   <i name="e_0_energy">   -840.26430376 </i>
  </energy>
  <time name="totalsc"> 1698.85 1723.64</time>
 </calculation>
 <calculation>
  <scstep>
   <time name="dav">   83.40   84.60</time>
   <time name="total">   95.42   96.78</time>
   <energy>
    <i name="alphaZ">    196.22536771 </i>
    <i name="ewald">  39586.31637745 </i>
    <i name="hartreedc"> -53782.12246023 </i>
    <i name="XCdc">   1420.35227979 </i>
    <i name="pawpsdc">  39703.89552669 </i>
    <i name="pawaedc"> -39789.62315297 </i>
    <i name="eentropy">     -0.00000014 </i>
    <i name="bandstr">  -4682.07970320 </i>
    <i name="atom">  16514.44393368 </i>
    <i name="e_fr_energy">   -832.59183123 </i>
    <i name="e_wo_entrp">   -832.59183109 </i>
    <i name="e_0_energy">   -832.59183116 </i>
   </energy>
  </scstep>
  <scstep>
   <time name="dav">   81.84   83.08</time>
   <time name="total">   93.51   94.85</time>
   <energy>
    <i name="e_fr_energy">   -832.59190945 </i>
    <i name="e_wo_entrp">   -832.59190931 </i>
    <i name="e_0_energy">   -832.59190938 </i>
   </energy>
  </scstep>
  <scstep>
   <time name="dav">   72.10   73.13</time>
   <time name="total">   82.45   83.66</time>
   <energy>
    <i name="e_fr_energy">   -832.59189229 </i>
    <i name="e_wo_entrp">   -832.59189215 </i>
    <i name="e_0_energy">   -832.59189222 </i>
   </energy>
  </scstep>
  <scstep>
   <time name="dav">   52.67   53.28</time>
   <time name="total">   57.62   58.31</time>
   <energy>
    <i name="alphaZ">    196.22536771 </i>
    <i name="ewald">  39586.31637745 </i>
    <i name="hartreedc"> -53781.87707502 </i>
    <i name="XCdc">   1420.34350432 </i>
    <i name="pawpsdc">  39702.36182249 </i>
    <i name="pawaedc"> -39788.08666876 </i>
    <i name="eentropy">     -0.00000014 </i>
    <i name="bandstr">  -4682.31915738 </i>
    <i name="atom">  16514.44393368 </i>
    <i name="e_fr_energy">   -832.59189565 </i>
    <i name="e_wo_entrp">   -832.59189551 </i>
    <i name="e_0_energy">   -832.59189558 </i>
   </energy>
  </scstep>
  <structure>
   <crystal>
    <varray name="basis" >
     <v>      17.27103806       0.00000000       0.00000000 </v>
     <v>      -8.63551903      14.95715771       0.00000000 </v>
     <v>       0.00000000       0.00000000      15.00000000 </v>
    </varray>
    <i name="volume">   3874.88459904 </i>
    <varray name="rec_basis" >
     <v>       0.05790040       0.03342881       0.00000000 </v>
     <v>       0.00000000       0.06685762       0.00000000 </v>
     <v>       0.00000000       0.00000000       0.06666667 </v>
    </varray>
   </crystal>
   <varray name="positions" >
    <v>       0.00207073       0.00121640       0.50383353 </v>
    <v>       0.00067870       0.14297498       0.50232349 </v>
    <v>       0.00062749       0.28609080       0.50265010 </v>
    <v>       0.00121584       0.42927081       0.50418874 </v>
    <v>       0.00158891       0.57242327       0.50560619 </v>
    <v>       0.00268435       0.71559904       0.50656160 </v>
    <v>       0.00384789       0.85953089       0.50596070 </v>
    <v>       0.14603358       0.00296787       0.49975243 </v>
    <v>       0.14463955       0.14480554       0.49404345 </v>
    <v>       0.14236259       0.28589206       0.49048685 </v>
    <v>       0.14342526       0.42955024       0.49119178 </v>
    <v>       0.14465065       0.57228011       0.49633392 </v>
    <v>       0.14493877       0.71557599       0.50082061 </v>
    <v>       0.14560906       0.85931341       0.50253506 </v>
    <v>       0.28843675       0.00310323       0.49737881 </v>
    <v>       0.28874724       0.14703458       0.48953433 </v>
    <v>       0.28641665       0.29133509       0.47497283 </v>
    <v>       0.28253346       0.42468508       0.46666060 </v>
    <v>       0.28790299       0.57226881       0.47367146 </v>
    <v>       0.28691510       0.71578930       0.48984275 </v>
    <v>       0.28732490       0.85924763       0.49767256 </v>
    <v>       0.43053737       0.00183842       0.49759587 </v>
    <v>       0.43176270       0.14639459       0.49360255 </v>
    <v>       0.43002913       0.28545009       0.47573841 </v>
    <v>       0.42899728       0.85784665       0.49329887 </v>
    <v>       0.57234566       0.99958841       0.49947191 </v>
    <v>       0.57329876       0.14346084       0.49990345 </v>
    <v>       0.57767556       0.29024050       0.49502248 </v>
    <v>       0.57036579       0.85444947       0.49563690 </v>
    <v>       0.71437538       0.99795404       0.50388643 </v>
    <v>       0.71546140       0.14230017       0.50520541 </v>
    <v>       0.71632323       0.28596484       0.50466185 </v>
    <v>       0.71279474       0.42600527       0.50268438 </v>
    <v>       0.71975668       0.57662794       0.50287176 </v>
    <v>       0.71453771       0.85419965       0.50342899 </v>
    <v>       0.85781499       0.99929617       0.50590142 </v>
    <v>       0.85763788       0.14229719       0.50673496 </v>
    <v>       0.85829505       0.28580158       0.50753163 </v>
    <v>       0.85870591       0.42919741       0.50723456 </v>
    <v>       0.85801453       0.57212542       0.50705201 </v>
    <v>       0.86175443       0.71676503       0.50715067 </v>
    <v>       0.86013450       0.85771577       0.50649374 </v>
    <v>       0.04938680       0.09645398       0.50043509 </v>
    <v>       0.04753164       0.23803872       0.49937060 </v>
    <v>       0.04840679       0.38161858       0.50021349 </v>
    <v>       0.04932328       0.52467539       0.50274164 </v>
    <v>       0.04978051       0.66785338       0.50479681 </v>
    <v>       0.05052975       0.81122489       0.50543188 </v>
    <v>       0.05069320       0.95458177       0.50347894 </v>
    <v>       0.19328298       0.09808486       0.49433306 </v>
    <v>       0.19093992       0.23968961       0.48668321 </v>
    <v>       0.18902558       0.38061342       0.48412312 </v>
    <v>       0.19239727       0.52492018       0.48840617 </v>
    <v>       0.19198109       0.66781577       0.49551689 </v>
    <v>       0.19256747       0.81125009       0.50044038 </v>
    <v>       0.19332429       0.95489314       0.49999794 </v>
    <v>       0.33632200       0.09906459       0.49336805 </v>
    <v>       0.33614930       0.24271044       0.47928254 </v>
    <v>       0.32739711       0.52002648       0.45443351 </v>
    <v>       0.33731252       0.67096128       0.47983686 </v>
    <v>       0.33426602       0.81090828       0.49360000 </v>
    <v>       0.33525312       0.95462869       0.49775160 </v>
    <v>       0.47834210       0.09718928       0.49755460 </v>
    <v>       0.48026923       0.24208188       0.48829942 </v>
    <v>       0.47286559       0.80633909       0.48951633 </v>
    <v>       0.47739391       0.95326238       0.49703568 </v>
    <v>       0.62017506       0.09494442       0.50200778 </v>
    <v>       0.62162325       0.23891443       0.50026599 </v>
    <v>       0.62066530       0.81045167       0.49882130 </v>
    <v>       0.61892133       0.95033807       0.49986580 </v>
    <v>       0.76236684       0.09396482       0.50595074 </v>
    <v>       0.76340514       0.23769046       0.50664949 </v>
    <v>       0.76358436       0.38114528       0.50541683 </v>
    <v>       0.76136137       0.52459775       0.50462790 </v>
    <v>       0.76684682       0.67225353       0.50539152 </v>
    <v>       0.76402742       0.80562172       0.50531932 </v>
    <v>       0.76212033       0.95019757       0.50483740 </v>
    <v>       0.90521311       0.09450999       0.50562977 </v>
    <v>       0.90546880       0.23791305       0.50649721 </v>
    <v>       0.90597118       0.38147893       0.50717949 </v>
    <v>       0.90606858       0.52477387       0.50721291 </v>
    <v>       0.90727944       0.66757376       0.50734572 </v>
    <v>       0.90879201       0.81160964       0.50708708 </v>
    <v>       0.90664691       0.95277382       0.50581747 </v>
    <v>       0.47524519       0.37323938       0.45844449 </v>
    <v>       0.40964855       0.55895040       0.41931599 </v>
    <v>       0.63071273       0.53749957       0.49779058 </v>
    <v>       0.57574357       0.72109942       0.49740679 </v>
    <v>       0.42687229       0.71647025       0.48029297 </v>
    <v>       0.72028281       0.71611930       0.50477519 </v>
    <v>       0.32866441       0.38014950       0.46211107 </v>
    <v>       0.62341794       0.38036397       0.49744229 </v>
    <v>       0.52267052       0.57005644       0.54558835 </v>
    <v>       0.44817042       0.47381422       0.52345524 </v>
    <v>       0.46891029       0.51965229       0.57002956 </v>
   </varray>
  </structure>
  <varray name="forces" >
   <v>       0.00018230      -0.00009747      -0.00117615 </v>
   <v>       0.00020785       0.00032902      -0.00129906 </v>
   <v>      -0.00032663       0.00008081      -0.00484599 </v>
   <v>      -0.00046174       0.00109321      -0.00223907 </v>
   <v>      -0.00041401      -0.00020855      -0.00255735 </v>
   <v>      -0.00032494      -0.00097091      -0.00525121 </v>
   <v>      -0.00002390      -0.00031817      -0.00224659 </v>
   <v>      -0.00020984      -0.00079176      -0.00303729 </v>
   <v>       0.00035401      -0.00043411      -0.00227491 </v>
   <v>       0.00033566      -0.00061865      -0.00172237 </v>
   <v>       0.00047778       0.00005144      -0.00096782 </v>
   <v>      -0.00081230       0.00017933      -0.00083069 </v>
   <v>       0.00006626      -0.00054818      -0.00395480 </v>
   <v>       0.00054369      -0.00134524      -0.00355945 </v>
   <v>      -0.00040777       0.00012127      -0.00348424 </v>
   <v>      -0.00045005      -0.00075491      -0.00306249 </v>
   <v>      -0.00016150      -0.00261104      -0.00223542 </v>
   <v>      -0.00046629      -0.00009424      -0.00296286 </v>
   <v>      -0.00036315      -0.00018749      -0.00325362 </v>
   <v>      -0.00038884      -0.00027142      -0.00408411 </v>
   <v>       0.00021767      -0.00092797      -0.00635192 </v>
   <v>       0.00061600      -0.00056235      -0.00879045 </v>
   <v>       0.00045280       0.00026369      -0.00533750 </v>
   <v>      -0.00072870       0.00043668      -0.00370819 </v>
   <v>      -0.00018317       0.00052451      -0.00571978 </v>
   <v>       0.00045620       0.00091141      -0.00813641 </v>
   <v>       0.00053468      -0.00019852      -0.00372289 </v>
   <v>       0.00021096       0.00028705      -0.00706527 </v>
   <v>       0.00013121       0.00117627      -0.00359365 </v>
   <v>       0.00065661       0.00071094      -0.00751107 </v>
   <v>       0.00067237       0.00065573      -0.00631458 </v>
   <v>       0.00024174       0.00021772      -0.00671982 </v>
   <v>      -0.00055653       0.00018464      -0.00727956 </v>
   <v>      -0.00287490       0.00237989      -0.00256878 </v>
   <v>      -0.00006240       0.00124952      -0.00360058 </v>
   <v>       0.00080249       0.00096749      -0.00017144 </v>
   <v>      -0.00022576       0.00009704      -0.00710312 </v>
   <v>       0.00002499      -0.00014212      -0.00493745 </v>
   <v>      -0.00052606      -0.00051064      -0.00572487 </v>
   <v>       0.00029362      -0.00121213      -0.00864982 </v>
   <v>       0.00003162       0.00024644      -0.00419450 </v>
   <v>      -0.00022116       0.00024945      -0.00272803 </v>
   <v>       0.00020932       0.00011063      -0.00213666 </v>
   <v>      -0.00022904       0.00031811      -0.00267566 </v>
   <v>      -0.00082889      -0.00003469      -0.00387838 </v>
   <v>      -0.00080724       0.00007617      -0.00208881 </v>
   <v>      -0.00020243      -0.00048478      -0.00438205 </v>
   <v>      -0.00030579      -0.00120431      -0.00293296 </v>
   <v>      -0.00007720      -0.00071861      -0.00162654 </v>
   <v>      -0.00027100      -0.00102556      -0.00236496 </v>
   <v>       0.00035982       0.00000792      -0.00227841 </v>
   <v>       0.00031127      -0.00023742      -0.00140735 </v>
   <v>      -0.00057849      -0.00035863      -0.00131175 </v>
   <v>      -0.00014012      -0.00028040      -0.00231836 </v>
   <v>       0.00042130      -0.00114551      -0.00498640 </v>
   <v>       0.00030422      -0.00098894      -0.00426393 </v>
   <v>       0.00013301      -0.00021956      -0.00363194 </v>
   <v>      -0.00005770      -0.00067254      -0.00307878 </v>
   <v>      -0.00359600      -0.00205594      -0.00725957 </v>
   <v>      -0.00046690       0.00015761      -0.00345457 </v>
   <v>       0.00028374      -0.00024110      -0.00637002 </v>
   <v>       0.00094108      -0.00109473      -0.00672063 </v>
   <v>       0.00038191       0.00124477      -0.00570212 </v>
   <v>      -0.00001566       0.00037443      -0.00604019 </v>
   <v>      -0.00013262       0.00030372      -0.00348086 </v>
   <v>       0.00068070       0.00060168      -0.00816671 </v>
   <v>       0.00097194       0.00068113      -0.00600666 </v>
   <v>       0.00027227       0.00044716      -0.00535343 </v>
   <v>      -0.00061604      -0.00078975      -0.00267512 </v>
   <v>       0.00042966       0.00049036      -0.00773788 </v>
   <v>       0.00001667       0.00065889      -0.00713734 </v>
   <v>       0.00050010       0.00053785      -0.00701055 </v>
   <v>       0.00023143       0.00138071      -0.00794091 </v>
   <v>       0.00058912       0.00000806      -0.00642585 </v>
   <v>       0.00063337       0.00100680      -0.00187526 </v>
   <v>      -0.00033526       0.00048142      -0.00443796 </v>
   <v>       0.00060261       0.00052783      -0.00419829 </v>
   <v>       0.00003086       0.00071091      -0.00256855 </v>
   <v>      -0.00017294       0.00021146      -0.00678050 </v>
   <v>       0.00151181       0.00126752      -0.00185997 </v>
   <v>       0.00017000      -0.00111598      -0.00472287 </v>
   <v>      -0.00033830      -0.00123964      -0.00742811 </v>
   <v>      -0.00012160       0.00008147      -0.00406822 </v>
   <v>       0.00008363       0.00021571       0.00054612 </v>
   <v>      -0.00245257      -0.00010331      -0.00002349 </v>
   <v>      -0.00294037      -0.00090580      -0.01734967 </v>
   <v>       0.00246351       0.00408547       0.00696871 </v>
   <v>       0.00003449       0.00264037       0.00208273 </v>
   <v>      -0.00028784      -0.00001043      -0.00370931 </v>
   <v>      -0.00006384       0.00067478      -0.00564279 </v>
   <v>       0.00081878       0.00154135      -0.00212787 </v>
   <v>      -0.00045048       0.00048290      -0.00733683 </v>
   <v>      -0.03109558      -0.04525942       0.03120596 </v>
   <v>      -0.01080369       0.07879363       0.08944341 </v>
   <v>       0.04668009      -0.03954141       0.26170333 </v>
  </varray>
  <varray name="stress" >
   <v>       0.33837591       0.61078959       0.04050624 </v>
   <v>       0.61079013      -9.99631289       0.00976329 </v>
   <v>       0.04050547       0.00976293      -0.14952487 </v>
  </varray>
  <energy>
   <i name="e_fr_energy">   -840.26558861 </i>
   <i name="e_wo_entrp">   -840.26558847 </i>
   <i name="e_0_energy">   -840.26558854 </i>
  </energy>
  <time name="totalsc">  469.64  476.28</time>
 </calculation>
 <calculation>
  <scstep>
   <time name="dav">   81.07   82.28</time>
   <time name="total">   93.14   94.50</time>
   <energy>
    <i name="alphaZ">    196.22536771 </i>
    <i name="ewald">  39583.31369539 </i>
    <i name="hartreedc"> -53779.09538178 </i>
    <i name="XCdc">   1420.33522480 </i>
    <i name="pawpsdc">  39701.66569358 </i>
    <i name="pawaedc"> -39787.38928758 </i>
    <i name="eentropy">     -0.00000014 </i>
    <i name="bandstr">  -4682.09250983 </i>
    <i name="atom">  16514.44393368 </i>
    <i name="e_fr_energy">   -832.59326415 </i>
    <i name="e_wo_entrp">   -832.59326401 </i>
    <i name="e_0_energy">   -832.59326408 </i>
   </energy>
  </scstep>
  <scstep>
   <time name="dav">   80.33   81.49</time>
   <time name="total">   91.72   93.00</time>
   <energy>
    <i name="e_fr_energy">   -832.59348883 </i>
    <i name="e_wo_entrp">   -832.59348870 </i>
    <i name="e_0_energy">   -832.59348877 </i>
   </energy>
  </scstep>
  <scstep>
   <time name="dav">   75.90   77.11</time>
   <time name="total">   86.65   87.99</time>
   <energy>
    <i name="e_fr_energy">   -832.59346663 </i>
    <i name="e_wo_entrp">   -832.59346649 </i>
    <i name="e_0_energy">   -832.59346656 </i>
   </energy>
  </scstep>
  <scstep>
   <time name="dav">   54.91   55.62</time>
   <time name="total">   64.93   65.78</time>
   <energy>
    <i name="e_fr_energy">   -832.59348157 </i>
    <i name="e_wo_entrp">   -832.59348143 </i>
    <i name="e_0_energy">   -832.59348150 </i>
   </energy>
  </scstep>
  <scstep>
   <time name="dav">   54.00   54.77</time>
   <time name="total">   64.18   65.08</time>
   <energy>
    <i name="e_fr_energy">   -832.59349562 </i>
    <i name="e_wo_entrp">   -832.59349548 </i>
    <i name="e_0_energy">   -832.59349555 </i>
   </energy>
  </scstep>
  <scstep>
   <time name="dav">   51.27   51.89</time>
   <time name="total">   56.35   57.05</time>
   <energy>
    <i name="alphaZ">    196.22536771 </i>
    <i name="ewald">  39583.31369539 </i>
    <i name="hartreedc"> -53778.79285272 </i>
    <i name="XCdc">   1420.32438250 </i>
    <i name="pawpsdc">  39699.83142636 </i>
    <i name="pawaedc"> -39785.55011252 </i>
    <i name="eentropy">     -0.00000014 </i>
    <i name="bandstr">  -4682.38933580 </i>
    <i name="atom">  16514.44393368 </i>
    <i name="e_fr_energy">   -832.59349554 </i>
    <i name="e_wo_entrp">   -832.59349540 </i>
    <i name="e_0_energy">   -832.59349547 </i>
   </energy>
  </scstep>
  <structure>
   <crystal>
[...]
       <r>   -17.9957     6.9886    34.2884 </r>
       <r>   -17.8728     6.6640    35.1075 </r>
       <r>   -17.7499     8.0702    36.0994 </r>
       <r>   -17.6270    13.0506    37.7035 </r>
       <r>   -17.5041    11.6989    39.1415 </r>
       <r>   -17.3812     9.9340    40.3625 </r>
       <r>   -17.2582     4.0832    40.8644 </r>
       <r>   -17.1353     8.3360    41.8890 </r>
       <r>   -17.0124     4.7824    42.4769 </r>
       <r>   -16.8895     4.4695    43.0262 </r>
       <r>   -16.7666     6.3869    43.8113 </r>
       <r>   -16.6437    14.5884    45.6044 </r>
       <r>   -16.5207    14.2575    47.3568 </r>
       <r>   -16.3978     4.5341    47.9141 </r>
       <r>   -16.2749     0.6985    48.0000 </r>
       <r>   -16.1520     0.0002    48.0000 </r>
       <r>   -16.0291     0.8335    48.1025 </r>
       <r>   -15.9062     5.4261    48.7694 </r>
       <r>   -15.7833     4.2688    49.2941 </r>
       <r>   -15.6603     6.6746    50.1145 </r>
       <r>   -15.5374     6.6126    50.9273 </r>
       <r>   -15.4145     6.3532    51.7082 </r>
       <r>   -15.2916    13.2291    53.3343 </r>
       <r>   -15.1687     9.8661    54.5470 </r>
       <r>   -15.0458     5.2242    55.1891 </r>
       <r>   -14.9229     7.6338    56.1274 </r>
       <r>   -14.7999    11.0745    57.4886 </r>
       <r>   -14.6770     7.6430    58.4281 </r>
       <r>   -14.5541    12.7237    59.9920 </r>
       <r>   -14.4312    10.4935    61.2818 </r>
       <r>   -14.3083     5.8380    61.9994 </r>
       <r>   -14.1854     5.0130    62.6155 </r>
       <r>   -14.0625     3.4704    63.0421 </r>
       <r>   -13.9395     4.6515    63.6138 </r>
       <r>   -13.8166    10.9990    64.9658 </r>
       <r>   -13.6937    11.1456    66.3357 </r>
       <r>   -13.5708     8.0465    67.3247 </r>
       <r>   -13.4479     5.6913    68.0243 </r>
       <r>   -13.3250     3.9311    68.5075 </r>
       <r>   -13.2021     4.1012    69.0116 </r>
       <r>   -13.0791     5.0898    69.6372 </r>
       <r>   -12.9562     7.4281    70.5502 </r>
       <r>   -12.8333    11.9636    72.0207 </r>
       <r>   -12.7104    16.8394    74.0905 </r>
       <r>   -12.5875     5.4753    74.7635 </r>
       <r>   -12.4646     8.8794    75.8549 </r>
       <r>   -12.3417    10.4233    77.1361 </r>
       <r>   -12.2187     5.4481    77.8057 </r>
       <r>   -12.0958     4.1325    78.3137 </r>
       <r>   -11.9729    10.1555    79.5620 </r>
       <r>   -11.8500     9.9553    80.7856 </r>
       <r>   -11.7271    13.5623    82.4526 </r>
       <r>   -11.6042    10.4053    83.7316 </r>
       <r>   -11.4812    14.4753    85.5108 </r>
       <r>   -11.3583     8.9476    86.6106 </r>
       <r>   -11.2354    12.3543    88.1291 </r>
       <r>   -11.1125     9.8786    89.3433 </r>
       <r>   -10.9896     8.2165    90.3533 </r>
       <r>   -10.8667     7.2539    91.2449 </r>
       <r>   -10.7438     4.5069    91.7988 </r>
       <r>   -10.6208     9.1112    92.9187 </r>
       <r>   -10.4979    13.8171    94.6171 </r>
       <r>   -10.3750    14.7128    96.4255 </r>
       <r>   -10.2521    16.8359    98.4949 </r>
       <r>   -10.1292    21.4947   101.1369 </r>
       <r>   -10.0063    17.0831   103.2367 </r>
       <r>    -9.8834    17.4451   105.3809 </r>
       <r>    -9.7604    22.8624   108.1910 </r>
       <r>    -9.6375    27.0736   111.5188 </r>
       <r>    -9.5146    20.0486   113.9830 </r>
       <r>    -9.3917    18.7729   116.2905 </r>
       <r>    -9.2688    21.0661   118.8798 </r>
       <r>    -9.1459    21.9750   121.5809 </r>
       <r>    -9.0230    22.5841   124.3568 </r>
       <r>    -8.9000    20.5436   126.8819 </r>
       <r>    -8.7771    28.8305   130.4256 </r>
       <r>    -8.6542     8.1302   131.4249 </r>
       <r>    -8.5313    12.5397   132.9662 </r>
       <r>    -8.4084    23.5658   135.8628 </r>
       <r>    -8.2855    22.4299   138.6198 </r>
       <r>    -8.1626    18.9523   140.9493 </r>
       <r>    -8.0396    14.1226   142.6852 </r>
       <r>    -7.9167     8.6957   143.7540 </r>
       <r>    -7.7938    14.0420   145.4799 </r>
       <r>    -7.6709     8.5874   146.5355 </r>
       <r>    -7.5480    14.1521   148.2750 </r>
       <r>    -7.4251    28.9715   151.8360 </r>
       <r>    -7.3022    16.6306   153.8801 </r>
       <r>    -7.1792    21.2876   156.4967 </r>
       <r>    -7.0563    12.4636   158.0287 </r>
       <r>    -6.9334    16.3564   160.0391 </r>
       <r>    -6.8105     6.8110   160.8763 </r>
       <r>    -6.6876    11.0596   162.2356 </r>
       <r>    -6.5647    14.9089   164.0682 </r>
       <r>    -6.4417     9.2237   165.2019 </r>
       <r>    -6.3188    24.0917   168.1631 </r>
       <r>    -6.1959    12.6102   169.7131 </r>
       <r>    -6.0730    16.0148   171.6815 </r>
       <r>    -5.9501    10.4816   172.9699 </r>
       <r>    -5.8272     7.5610   173.8992 </r>
       <r>    -5.7043    10.0031   175.1288 </r>
       <r>    -5.5813     4.7103   175.7077 </r>
       <r>    -5.4584     1.3196   175.8699 </r>
       <r>    -5.3355     6.4809   176.6665 </r>
       <r>    -5.2126    19.2672   179.0347 </r>
       <r>    -5.0897    16.2965   181.0378 </r>
       <r>    -4.9668    12.4472   182.5678 </r>
       <r>    -4.8439     9.6002   183.7478 </r>
       <r>    -4.7209     2.6978   184.0794 </r>
       <r>    -4.5980     2.7331   184.4153 </r>
       <r>    -4.4751    11.6048   185.8417 </r>
       <r>    -4.3522    14.7707   187.6572 </r>
       <r>    -4.2293    13.3619   189.2996 </r>
       <r>    -4.1064     8.9800   190.4034 </r>
       <r>    -3.9835    23.0149   193.2323 </r>
       <r>    -3.8605     6.2643   194.0022 </r>
       <r>    -3.7376     1.8333   194.2276 </r>
       <r>    -3.6147     1.8310   194.4526 </r>
       <r>    -3.4918     3.7591   194.9147 </r>
       <r>    -3.3689     2.4617   195.2173 </r>
       <r>    -3.2460     0.8836   195.3259 </r>
       <r>    -3.1231     1.4142   195.4997 </r>
       <r>    -3.0001     1.0660   195.6307 </r>
       <r>    -2.8772     1.9510   195.8705 </r>
       <r>    -2.7543     1.0528   195.9999 </r>
       <r>    -2.6314     0.0086   196.0010 </r>
       <r>    -2.5085     2.0027   196.2471 </r>
       <r>    -2.3856     2.0481   196.4989 </r>
       <r>    -2.2627     0.0136   196.5006 </r>
       <r>    -2.1397     1.5355   196.6893 </r>
       <r>    -2.0168     2.4469   196.9901 </r>
       <r>    -1.8939     2.3941   197.2843 </r>
       <r>    -1.7710     4.8479   197.8802 </r>
       <r>    -1.6481     0.9745   198.0000 </r>
       <r>    -1.5252     0.3867   198.0475 </r>
       <r>    -1.4022     6.4173   198.8363 </r>
       <r>    -1.2793     4.6087   199.4028 </r>
       <r>    -1.1564     5.8213   200.1183 </r>
       <r>    -1.0335    17.1637   202.2279 </r>
       <r>    -0.9106     5.9461   202.9588 </r>
       <r>    -0.7877     6.5759   203.7671 </r>
       <r>    -0.6648    13.8367   205.4678 </r>
       <r>    -0.5418     4.9018   206.0703 </r>
       <r>    -0.4189     5.3395   206.7266 </r>
       <r>    -0.2960     8.1094   207.7234 </r>
       <r>    -0.1731     9.0152   208.8315 </r>
       <r>    -0.0502    11.9574   210.3012 </r>
       <r>     0.0727    11.1900   211.6766 </r>
       <r>     0.1956     2.6219   211.9989 </r>
       <r>     0.3186     1.4414   212.1761 </r>
       <r>     0.4415     6.8834   213.0221 </r>
       <r>     0.5644     7.7045   213.9691 </r>
       <r>     0.6873     5.3528   214.6271 </r>
       <r>     0.8102     4.3102   215.1569 </r>
       <r>     0.9331     8.4362   216.1938 </r>
       <r>     1.0560    11.6056   217.6203 </r>
       <r>     1.1790     2.7974   217.9641 </r>
       <r>     1.3019    15.6743   219.8907 </r>
       <r>     1.4248    21.1104   222.4855 </r>
       <r>     1.5477     8.3159   223.5077 </r>
       <r>     1.6706     6.8866   224.3541 </r>
       <r>     1.7935     7.5677   225.2843 </r>
       <r>     1.9164    13.4742   226.9405 </r>
       <r>     2.0394    29.0676   230.5133 </r>
       <r>     2.1623     7.0122   231.3752 </r>
       <r>     2.2852    14.6653   233.1778 </r>
       <r>     2.4081    22.1897   235.9052 </r>
       <r>     2.5310    17.3736   238.0407 </r>
       <r>     2.6539     9.1018   239.1594 </r>
       <r>     2.7768    18.2776   241.4060 </r>
       <r>     2.8998    40.1913   246.3461 </r>
       <r>     3.0227    42.1004   251.5209 </r>
       <r>     3.1456     7.6423   252.4602 </r>
       <r>     3.2685    14.2342   254.2098 </r>
       <r>     3.3914    19.9305   256.6596 </r>
       <r>     3.5143    25.1535   259.7513 </r>
       <r>     3.6373    12.2073   261.2517 </r>
       <r>     3.7602    21.0219   263.8356 </r>
       <r>     3.8831    30.0938   267.5346 </r>
       <r>     4.0060    30.6457   271.3014 </r>
       <r>     4.1289    13.5627   272.9685 </r>
       <r>     4.2518     9.9705   274.1940 </r>
       <r>     4.3747     6.5079   274.9939 </r>
       <r>     4.4977     0.0497   275.0000 </r>
       <r>     4.6206     0.0000   275.0000 </r>
       <r>     4.7435     0.0000   275.0000 </r>
       <r>     4.8664     0.0000   275.0000 </r>
       <r>     4.9893     0.0000   275.0000 </r>
       <r>     5.1122     0.0000   275.0000 </r>
       <r>     5.2351     0.0000   275.0000 </r>
       <r>     5.3581     0.0000   275.0000 </r>
       <r>     5.4810     0.0000   275.0000 </r>
       <r>     5.6039     0.0000   275.0000 </r>
       <r>     5.7268     0.0000   275.0000 </r>
       <r>     5.8497     0.0000   275.0000 </r>
       <r>     5.9726     0.0000   275.0000 </r>
      </set>
     </set>
    </array>
   </total>
  </dos>
 </calculation>
 <structure name="finalpos" >
  <crystal>
   <varray name="basis" >
    <v>      17.27103806       0.00000000       0.00000000 </v>
    <v>      -8.63551903      14.95715771       0.00000000 </v>
    <v>       0.00000000       0.00000000      15.00000000 </v>
   </varray>
   <i name="volume">   3874.88459904 </i>
   <varray name="rec_basis" >
    <v>       0.05790040       0.03342881       0.00000000 </v>
    <v>       0.00000000       0.06685762       0.00000000 </v>
    <v>       0.00000000       0.00000000       0.06666667 </v>
   </varray>
  </crystal>
  <varray name="positions" >
   <v>       0.00207656       0.00129400       0.50086249 </v>
   <v>       0.00065798       0.14306889       0.49902590 </v>
   <v>       0.00065803       0.28625237       0.49843962 </v>
   <v>       0.00127567       0.42948413       0.49939212 </v>
   <v>       0.00162015       0.57259275       0.50090715 </v>
   <v>       0.00263256       0.71570531       0.50251191 </v>
   <v>       0.00384291       0.85958336       0.50266007 </v>
   <v>       0.14602599       0.00299518       0.49573295 </v>
   <v>       0.14460292       0.14483420       0.49157701 </v>
   <v>       0.14237219       0.28595497       0.48851494 </v>
   <v>       0.14359225       0.42975154       0.48863515 </v>
   <v>       0.14479470       0.57246636       0.49262659 </v>
   <v>       0.14496821       0.71573340       0.49567693 </v>
   <v>       0.14561944       0.85939951       0.49724661 </v>
   <v>       0.28851863       0.00320927       0.49288193 </v>
   <v>       0.28881645       0.14709502       0.48761436 </v>
   <v>       0.28678536       0.29159120       0.47732829 </v>
   <v>       0.28342613       0.42505025       0.47145902 </v>
   <v>       0.28881713       0.57258037       0.47608933 </v>
   <v>       0.28713438       0.71598719       0.48747939 </v>
   <v>       0.28744528       0.85941489       0.49270488 </v>
   <v>       0.43067132       0.00202096       0.49360894 </v>
   <v>       0.43191031       0.14657892       0.49095044 </v>
   <v>       0.43026376       0.28604164       0.47693463 </v>
   <v>       0.42921660       0.85809557       0.49119158 </v>
   <v>       0.57254352       0.99984112       0.49684097 </v>
   <v>       0.57344761       0.14366419       0.49669746 </v>
   <v>       0.57776457       0.29044631       0.49441109 </v>
   <v>       0.57054922       0.85468622       0.49725370 </v>
   <v>       0.71454347       0.99819655       0.50274711 </v>
   <v>       0.71561685       0.14252469       0.50183555 </v>
   <v>       0.71644091       0.28617241       0.50197131 </v>
   <v>       0.71274356       0.42613608       0.50380470 </v>
   <v>       0.71948340       0.57666624       0.51114402 </v>
   <v>       0.71464772       0.85444461       0.50682650 </v>
   <v>       0.85792935       0.99949242       0.50453013 </v>
   <v>       0.85774921       0.14252860       0.50335184 </v>
   <v>       0.85841746       0.28604602       0.50323728 </v>
   <v>       0.85876572       0.42940372       0.50406903 </v>
   <v>       0.85794479       0.57225363       0.50603823 </v>
   <v>       0.86170803       0.71686459       0.50790039 </v>
   <v>       0.86023520       0.85789849       0.50694470 </v>
   <v>       0.04933352       0.09651002       0.49732176 </v>
   <v>       0.04749267       0.23811330       0.49588614 </v>
   <v>       0.04842372       0.38179023       0.49593003 </v>
   <v>       0.04937856       0.52486993       0.49796680 </v>
   <v>       0.04976766       0.66801306       0.49984307 </v>
   <v>       0.05050740       0.81129487       0.50096904 </v>
   <v>       0.05067391       0.95461948       0.49986735 </v>
   <v>       0.19328193       0.09815358       0.49149532 </v>
   <v>       0.19099966       0.23978169       0.48564662 </v>
   <v>       0.18917977       0.38070465       0.48347220 </v>
   <v>       0.19270660       0.52514668       0.48652435 </v>
   <v>       0.19210658       0.66799393       0.49160760 </v>
   <v>       0.19263133       0.81139534       0.49503795 </v>
   <v>       0.19337396       0.95498628       0.49521693 </v>
   <v>       0.33644422       0.09917796       0.49023196 </v>
   <v>       0.33633822       0.24291782       0.48001648 </v>
   <v>       0.32950021       0.52052614       0.46286900 </v>
   <v>       0.33780377       0.67117323       0.48096367 </v>
   <v>       0.33446308       0.81110588       0.49018150 </v>
   <v>       0.33538108       0.95478482       0.49300617 </v>
   <v>       0.47849703       0.09736895       0.49412051 </v>
   <v>       0.48042461       0.24236146       0.48746821 </v>
   <v>       0.47316035       0.80662826       0.49030751 </v>
   <v>       0.47758593       0.95350919       0.49396186 </v>
   <v>       0.62034328       0.09518109       0.49870124 </v>
   <v>       0.62174593       0.23910054       0.49798208 </v>
   <v>       0.62071874       0.81068699       0.50367661 </v>
   <v>       0.61910900       0.95059876       0.49896613 </v>
   <v>       0.76253199       0.09420368       0.50316487 </v>
   <v>       0.76355043       0.23792143       0.50292195 </v>
   <v>       0.76363347       0.38132649       0.50377089 </v>
   <v>       0.76121735       0.52471466       0.50757704 </v>
   <v>       0.76679821       0.67239758       0.51105408 </v>
   <v>       0.76415838       0.80587797       0.50943358 </v>
   <v>       0.76225447       0.95042193       0.50500977 </v>
   <v>       0.90524929       0.09467980       0.50278781 </v>
   <v>       0.90553573       0.23810830       0.50227815 </v>
   <v>       0.90604037       0.38170075       0.50277175 </v>
   <v>       0.90608025       0.52496853       0.50388382 </v>
   <v>       0.90723644       0.66769375       0.50584596 </v>
   <v>       0.90881412       0.81172005       0.50623368 </v>
   <v>       0.90671791       0.95292380       0.50437528 </v>
   <v>       0.47535801       0.37427695       0.46237989 </v>
   <v>       0.41572241       0.55963361       0.43921364 </v>
   <v>       0.63031054       0.53748681       0.51407191 </v>
   <v>       0.57569478       0.72137264       0.50687871 </v>
   <v>       0.42731305       0.71667450       0.48294333 </v>
   <v>       0.72039364       0.71642421       0.51237606 </v>
   <v>       0.32989715       0.38088785       0.46904058 </v>
   <v>       0.62337816       0.38050604       0.49879846 </v>
   <v>       0.51419946       0.56470345       0.58154537 </v>
   <v>       0.44333545       0.46993109       0.55412254 </v>
   <v>       0.46381725       0.51043115       0.60533419 </v>
  </varray>
  <varray name="selective"  type="logical" >
   <v type="logical" >  T  T  T </v>
   <v type="logical" >  T  T  T </v>
   <v type="logical" >  T  T  T </v>
   <v type="logical" >  T  T  T </v>
   <v type="logical" >  T  T  T </v>
   <v type="logical" >  T  T  T </v>
   <v type="logical" >  T  T  T </v>
   <v type="logical" >  T  T  T </v>
   <v type="logical" >  T  T  T </v>
   <v type="logical" >  T  T  T </v>
   <v type="logical" >  T  T  T </v>
   <v type="logical" >  T  T  T </v>
   <v type="logical" >  T  T  T </v>
   <v type="logical" >  T  T  T </v>
   <v type="logical" >  T  T  T </v>
   <v type="logical" >  T  T  T </v>
   <v type="logical" >  T  T  T </v>
   <v type="logical" >  T  T  T </v>
   <v type="logical" >  T  T  T </v>
   <v type="logical" >  T  T  T </v>
   <v type="logical" >  T  T  T </v>
   <v type="logical" >  T  T  T </v>
   <v type="logical" >  T  T  T </v>
   <v type="logical" >  T  T  T </v>
   <v type="logical" >  T  T  T </v>
   <v type="logical" >  T  T  T </v>
   <v type="logical" >  T  T  T </v>
   <v type="logical" >  T  T  T </v>
   <v type="logical" >  T  T  T </v>
   <v type="logical" >  T  T  T </v>
   <v type="logical" >  T  T  T </v>
   <v type="logical" >  T  T  T </v>
   <v type="logical" >  T  T  T </v>
   <v type="logical" >  T  T  T </v>
   <v type="logical" >  T  T  T </v>
   <v type="logical" >  T  T  T </v>
   <v type="logical" >  T  T  T </v>
   <v type="logical" >  T  T  T </v>
   <v type="logical" >  T  T  T </v>
   <v type="logical" >  T  T  T </v>
   <v type="logical" >  T  T  T </v>
   <v type="logical" >  T  T  T </v>
   <v type="logical" >  T  T  T </v>
   <v type="logical" >  T  T  T </v>
   <v type="logical" >  T  T  T </v>
   <v type="logical" >  T  T  T </v>
   <v type="logical" >  T  T  T </v>
   <v type="logical" >  T  T  T </v>
   <v type="logical" >  T  T  T </v>
   <v type="logical" >  T  T  T </v>
   <v type="logical" >  T  T  T </v>
   <v type="logical" >  T  T  T </v>
   <v type="logical" >  T  T  T </v>
   <v type="logical" >  T  T  T </v>
   <v type="logical" >  T  T  T </v>
   <v type="logical" >  T  T  T </v>
   <v type="logical" >  T  T  T </v>
   <v type="logical" >  T  T  T </v>
   <v type="logical" >  T  T  T </v>
   <v type="logical" >  T  T  T </v>
   <v type="logical" >  T  T  T </v>
   <v type="logical" >  T  T  T </v>
   <v type="logical" >  T  T  T </v>
   <v type="logical" >  T  T  T </v>
   <v type="logical" >  T  T  T </v>
   <v type="logical" >  T  T  T </v>
   <v type="logical" >  T  T  T </v>
   <v type="logical" >  T  T  T </v>
   <v type="logical" >  T  T  T </v>
   <v type="logical" >  T  T  T </v>
   <v type="logical" >  T  T  T </v>
   <v type="logical" >  T  T  T </v>
   <v type="logical" >  T  T  T </v>
   <v type="logical" >  T  T  T </v>
   <v type="logical" >  T  T  T </v>
   <v type="logical" >  T  T  T </v>
   <v type="logical" >  T  T  T </v>
   <v type="logical" >  T  T  T </v>
   <v type="logical" >  T  T  T </v>
   <v type="logical" >  T  T  T </v>
   <v type="logical" >  T  T  T </v>
   <v type="logical" >  T  T  T </v>
   <v type="logical" >  T  T  T </v>
   <v type="logical" >  T  T  T </v>
   <v type="logical" >  T  T  T </v>
   <v type="logical" >  T  T  T </v>
   <v type="logical" >  T  T  T </v>
   <v type="logical" >  T  T  T </v>
   <v type="logical" >  T  T  T </v>
   <v type="logical" >  T  T  T </v>
   <v type="logical" >  T  T  T </v>
   <v type="logical" >  T  T  T </v>
   <v type="logical" >  T  T  T </v>
   <v type="logical" >  T  T  T </v>
   <v type="logical" >  T  T  T </v>
  </varray>
  <nose>
   <v>      -3.00000000       0.00000000       0.00010000       0.00010000 </v>
  </nose>
 </structure>
</modeling>
