unknown system                          
           1
    17.271038    0.000000    0.000000
    -8.635519   14.957158    0.000000
     0.000000    0.000000   15.000000
   C    F    N    H    O 
    84     4     4     2     1
Direct configuration=     1
   0.00207073  0.00121640  0.50383353
   0.00067870  0.14297498  0.50232349
   0.00062749  0.28609080  0.50265010
   0.00121584  0.42927081  0.50418874
   0.00158891  0.57242327  0.50560619
   0.00268435  0.71559904  0.50656160
   0.00384789  0.85953089  0.50596070
   0.14603358  0.00296787  0.49975243
   0.14463955  0.14480554  0.49404345
   0.14236259  0.28589206  0.49048685
   0.14342526  0.42955024  0.49119178
   0.14465065  0.57228011  0.49633392
   0.14493877  0.71557599  0.50082061
   0.14560906  0.85931341  0.50253506
   0.28843675  0.00310323  0.49737881
   0.28874724  0.14703458  0.48953433
   0.28641665  0.29133509  0.47497283
   0.28253346  0.42468508  0.46666060
   0.28790299  0.57226881  0.47367146
   0.28691510  0.71578930  0.48984275
   0.28732490  0.85924763  0.49767256
   0.43053737  0.00183842  0.49759587
   0.43176270  0.14639459  0.49360255
   0.43002913  0.28545009  0.47573841
   0.42899728  0.85784665  0.49329887
   0.57234566  0.99958841  0.49947191
   0.57329876  0.14346084  0.49990345
   0.57767556  0.29024050  0.49502248
   0.57036579  0.85444947  0.49563690
   0.71437538  0.99795404  0.50388643
   0.71546140  0.14230017  0.50520541
   0.71632323  0.28596484  0.50466185
   0.71279474  0.42600527  0.50268438
   0.71975668  0.57662794  0.50287176
   0.71453771  0.85419965  0.50342899
   0.85781499  0.99929617  0.50590142
   0.85763788  0.14229719  0.50673496
   0.85829505  0.28580158  0.50753163
   0.85870591  0.42919741  0.50723456
   0.85801453  0.57212542  0.50705201
   0.86175443  0.71676503  0.50715067
   0.86013450  0.85771577  0.50649374
   0.04938680  0.09645398  0.50043509
   0.04753164  0.23803872  0.49937060
   0.04840679  0.38161858  0.50021349
   0.04932328  0.52467539  0.50274164
   0.04978051  0.66785338  0.50479681
   0.05052975  0.81122489  0.50543188
   0.05069320  0.95458177  0.50347894
   0.19328298  0.09808486  0.49433306
   0.19093992  0.23968961  0.48668321
   0.18902558  0.38061342  0.48412312
   0.19239727  0.52492018  0.48840617
   0.19198109  0.66781577  0.49551689
   0.19256747  0.81125009  0.50044038
   0.19332429  0.95489314  0.49999794
   0.33632200  0.09906459  0.49336805
   0.33614930  0.24271044  0.47928254
   0.32739711  0.52002648  0.45443351
   0.33731252  0.67096128  0.47983686
   0.33426602  0.81090828  0.49360000
   0.33525312  0.95462869  0.49775160
   0.47834210  0.09718928  0.49755460
   0.48026923  0.24208188  0.48829942
   0.47286559  0.80633909  0.48951633
   0.47739391  0.95326238  0.49703568
   0.62017506  0.09494442  0.50200778
   0.62162325  0.23891443  0.50026599
   0.62066530  0.81045167  0.49882130
   0.61892133  0.95033807  0.49986580
   0.76236684  0.09396482  0.50595074
   0.76340514  0.23769046  0.50664949
   0.76358436  0.38114528  0.50541683
   0.76136137  0.52459775  0.50462790
   0.76684682  0.67225353  0.50539152
   0.76402742  0.80562172  0.50531932
   0.76212033  0.95019757  0.50483740
   0.90521311  0.09450999  0.50562977
   0.90546880  0.23791305  0.50649721
   0.90597118  0.38147893  0.50717949
   0.90606858  0.52477387  0.50721291
   0.90727944  0.66757376  0.50734572
   0.90879201  0.81160964  0.50708708
   0.90664691  0.95277382  0.50581747
   0.47524519  0.37323938  0.45844449
   0.40964855  0.55895040  0.41931599
   0.63071273  0.53749957  0.49779058
   0.57574357  0.72109942  0.49740679
   0.42687229  0.71647025  0.48029297
   0.72028281  0.71611930  0.50477519
   0.32866441  0.38014950  0.46211107
   0.62341794  0.38036397  0.49744229
   0.52267052  0.57005644  0.54558835
   0.44817042  0.47381422  0.52345524
   0.46891029  0.51965229  0.57002956
Direct configuration=     2
   0.00207042  0.00121583  0.50382935
   0.00067923  0.14297627  0.50231833
   0.00062684  0.28609087  0.50263925
   0.00121447  0.42927114  0.50418054
   0.00158683  0.57242197  0.50559908
   0.00268169  0.71559652  0.50655179
   0.00384646  0.85952912  0.50595532
   0.14603191  0.00296625  0.49974192
   0.14463888  0.14480497  0.49403459
   0.14236244  0.28589204  0.49047805
   0.14342509  0.42954971  0.49118268
   0.14464897  0.57227947  0.49632581
   0.14493704  0.71557458  0.50080750
   0.14560792  0.85931044  0.50252292
   0.28843647  0.00310265  0.49736696
   0.28874616  0.14703361  0.48952441
   0.28641640  0.29133416  0.47496177
   0.28253214  0.42468390  0.46664608
   0.28790241  0.57226858  0.47365765
   0.28691438  0.71578878  0.48982890
   0.28732407  0.85924563  0.49765612
   0.43053759  0.00183744  0.49757985
   0.43176373  0.14639570  0.49359363
   0.43002853  0.28545039  0.47573196
   0.42899716  0.85784664  0.49328609
   0.57234631  0.99958887  0.49945939
   0.57329960  0.14346126  0.49989908
   0.57767600  0.29024211  0.49501853
   0.57036513  0.85444999  0.49563302
   0.71437584  0.99795485  0.50387750
   0.71546305  0.14230183  0.50519693
   0.71632475  0.28596622  0.50465655
   0.71279502  0.42600590  0.50268712
   0.71975971  0.57663041  0.50289841
   0.71453694  0.85420020  0.50343258
   0.85781695  0.99929789  0.50590301
   0.85763807  0.14229821  0.50672395
   0.85829519  0.28580192  0.50752402
   0.85870461  0.42919654  0.50722895
   0.85801411  0.57212293  0.50704636
   0.86175466  0.71676453  0.50715328
   0.86013400  0.85771483  0.50649567
   0.04938707  0.09645359  0.50042790
   0.04753073  0.23803806  0.49936210
   0.04840574  0.38161842  0.50020291
   0.04932290  0.52467599  0.50273340
   0.04978135  0.66785339  0.50478548
   0.05052885  0.81122404  0.50542320
   0.05069270  0.95458107  0.50347259
   0.19328164  0.09808303  0.49432352
   0.19093941  0.23968812  0.48667369
   0.18902442  0.38061205  0.48411377
   0.19239503  0.52491943  0.48839698
   0.19198067  0.66781544  0.49550558
   0.19256718  0.81124851  0.50042535
   0.19332374  0.95489205  0.49998482
   0.33632120  0.09906390  0.49335841
   0.33614760  0.24270881  0.47927302
   0.32738957  0.52002323  0.45441071
   0.33731071  0.67096076  0.47982415
   0.33426558  0.81090780  0.49358387
   0.33525358  0.95462712  0.49773613
   0.47834195  0.09718830  0.49754495
   0.48026960  0.24208221  0.48829263
   0.47286553  0.80633922  0.48950833
   0.47739497  0.95326368  0.49702111
   0.62017619  0.09494508  0.50199931
   0.62162268  0.23891404  0.50026223
   0.62066687  0.81045361  0.49882531
   0.61892267  0.95033939  0.49985553
   0.76236623  0.09396465  0.50594096
   0.76340483  0.23769000  0.50664051
   0.76358416  0.38114560  0.50541115
   0.76136235  0.52459804  0.50463573
   0.76684878  0.67225581  0.50540936
   0.76402745  0.80562308  0.50532583
   0.76212145  0.95019802  0.50483548
   0.90521259  0.09450977  0.50562518
   0.90546802  0.23791229  0.50648559
   0.90597185  0.38147923  0.50717495
   0.90606850  0.52477267  0.50720755
   0.90727874  0.66757289  0.50733938
   0.90879233  0.81161058  0.50708498
   0.90664671  0.95277439  0.50581975
   0.47524415  0.37324169  0.45844389
   0.40963764  0.55894692  0.41926988
   0.63071850  0.53750256  0.49785267
   0.57574285  0.72109971  0.49742051
   0.42687263  0.71647035  0.48028220
   0.72028365  0.71611978  0.50478984
   0.32866446  0.38014931  0.46209692
   0.62341626  0.38036368  0.49744390
   0.52264183  0.57002508  0.54558601
   0.44820943  0.47388544  0.52349004
   0.46893389  0.51963125  0.57043976
Direct configuration=     3
   0.00206999  0.00121530  0.50382319
   0.00067915  0.14297634  0.50231034
   0.00062577  0.28609079  0.50262301
   0.00121415  0.42927237  0.50416884
   0.00158587  0.57242152  0.50558809
   0.00268000  0.71559454  0.50653689
   0.00384579  0.85952836  0.50594695
   0.14603197  0.00296429  0.49972674
   0.14463822  0.14480354  0.49402132
   0.14236153  0.28589050  0.49046508
   0.14342442  0.42954912  0.49116965
   0.14464731  0.57227943  0.49631357
   0.14493589  0.71557373  0.50079017
   0.14560683  0.85930773  0.50250468
   0.28843584  0.00310175  0.49734947
   0.28874404  0.14703169  0.48950965
   0.28641537  0.29133096  0.47494688
   0.28253077  0.42468322  0.46662554
   0.28789959  0.57226634  0.47363762
   0.28691343  0.71578842  0.48980969
   0.28732256  0.85924313  0.49763276
   0.43053763  0.00183646  0.49755616
   0.43176409  0.14639591  0.49358008
   0.43002776  0.28545158  0.47572240
   0.42899815  0.85784749  0.49326914
   0.57234767  0.99959043  0.49944057
   0.57329972  0.14346098  0.49989177
   0.57767598  0.29024298  0.49501234
   0.57036570  0.85445141  0.49562682
   0.71437705  0.99795572  0.50386404
   0.71546392  0.14230264  0.50518368
   0.71632455  0.28596637  0.50464782
   0.71279356  0.42600614  0.50269014
   0.71976316  0.57663514  0.50293690
   0.71453759  0.85420210  0.50343727
   0.85781825  0.99929918  0.50590476
   0.85763720  0.14229799  0.50670757
   0.85829497  0.28580176  0.50751215
   0.85870353  0.42919550  0.50722035
   0.85801392  0.57212085  0.50703774
   0.86175564  0.71676539  0.50715641
   0.86013357  0.85771542  0.50649830
   0.04938348  0.09645047  0.50041930
   0.04753330  0.23804052  0.49934993
   0.04840393  0.38161823  0.50018729
   0.04932016  0.52467428  0.50272142
   0.04977863  0.66785115  0.50476993
   0.05052726  0.81122342  0.50541117
   0.05069106  0.95457915  0.50346296
   0.19327966  0.09808085  0.49430915
   0.19093833  0.23968802  0.48666053
   0.18902368  0.38061108  0.48409981
   0.19239590  0.52492007  0.48838385
   0.19197936  0.66781449  0.49548874
   0.19256600  0.81124595  0.50040310
   0.19332242  0.95488956  0.49996560
   0.33632131  0.09906381  0.49334504
   0.33614624  0.24270747  0.47925872
   0.32738030  0.52001936  0.45437831
   0.33730997  0.67096085  0.47980503
   0.33426539  0.81090699  0.49355993
   0.33525332  0.95462490  0.49771299
   0.47834176  0.09718609  0.49753118
   0.48026984  0.24208351  0.48828210
   0.47286522  0.80633909  0.48949612
   0.47739460  0.95326303  0.49699983
   0.62017783  0.09494620  0.50198639
   0.62162326  0.23891516  0.50025626
   0.62066534  0.81045353  0.49883032
   0.61892435  0.95033857  0.49984099
   0.76236658  0.09396571  0.50592591
   0.76340596  0.23768991  0.50662793
   0.76358446  0.38114699  0.50540310
   0.76136383  0.52459804  0.50464646
   0.76685182  0.67225795  0.50543319
   0.76402685  0.80562349  0.50533497
   0.76212264  0.95019926  0.50483226
   0.90521310  0.09451127  0.50561807
   0.90546594  0.23791159  0.50646888
   0.90597266  0.38148007  0.50716803
   0.90606737  0.52477040  0.50719887
   0.90727688  0.66757023  0.50732971
   0.90879171  0.81161006  0.50708174
   0.90664674  0.95277444  0.50582266
   0.47524168  0.37324349  0.45844303
   0.40962661  0.55894528  0.41921085
   0.63072674  0.53750742  0.49794443
   0.57574305  0.72110265  0.49744093
   0.42687166  0.71646960  0.48026633
   0.72028472  0.71612149  0.50481025
   0.32866646  0.38015183  0.46207655
   0.62341577  0.38036517  0.49744535
   0.52253604  0.56993175  0.54564055
   0.44828739  0.47407086  0.52366613
   0.46900593  0.51955907  0.57086479
Direct configuration=     4
   0.00206887  0.00121383  0.50381519
   0.00067877  0.14297593  0.50229934
   0.00062448  0.28609064  0.50260148
   0.00121575  0.42927537  0.50415480
   0.00158515  0.57242084  0.50557291
   0.00267886  0.71559326  0.50651692
   0.00384544  0.85952840  0.50593791
   0.14603392  0.00296343  0.49970787
   0.14463561  0.14480184  0.49400455
   0.14236098  0.28588915  0.49044798
   0.14342341  0.42954849  0.49115253
   0.14464600  0.57227923  0.49629710
   0.14493451  0.71557237  0.50076847
   0.14560540  0.85930601  0.50248169
   0.28843518  0.00310007  0.49732617
   0.28874156  0.14702918  0.48949012
   0.28641463  0.29133258  0.47492770
   0.28252990  0.42468220  0.46659877
   0.28789619  0.57226375  0.47361099
   0.28690844  0.71578561  0.48978563
   0.28732092  0.85924061  0.49760230
   0.43053694  0.00183491  0.49752536
   0.43176387  0.14639505  0.49356182
   0.43002863  0.28545501  0.47571195
   0.42899909  0.85784782  0.49324733
   0.57234939  0.99959185  0.49941552
   0.57329943  0.14345984  0.49988315
   0.57767512  0.29024075  0.49500565
   0.57036653  0.85445232  0.49561772
   0.71437890  0.99795654  0.50384609
   0.71546418  0.14230261  0.50516527
   0.71632343  0.28596578  0.50463519
   0.71279113  0.42600643  0.50269258
   0.71976923  0.57664124  0.50298637
   0.71453857  0.85420445  0.50344208
   0.85781875  0.99929996  0.50590587
   0.85763559  0.14229698  0.50668608
   0.85829489  0.28580177  0.50749571
   0.85870312  0.42919446  0.50720863
   0.85801379  0.57211918  0.50702596
   0.86175754  0.71676702  0.50715906
   0.86013338  0.85771701  0.50650132
   0.04938232  0.09644918  0.50040971
   0.04753670  0.23804385  0.49933409
   0.04840181  0.38161799  0.50016692
   0.04931709  0.52467304  0.50270705
   0.04977371  0.66784772  0.50475017
   0.05052538  0.81122214  0.50539531
   0.05068950  0.95457692  0.50344984
   0.19327749  0.09807851  0.49428987
   0.19093710  0.23968783  0.48664369
   0.18902267  0.38061059  0.48408166
   0.19239743  0.52492081  0.48836727
   0.19197739  0.66781319  0.49546791
   0.19256381  0.81124282  0.50037413
   0.19332178  0.95488790  0.49994194
   0.33632167  0.09906410  0.49332881
   0.33614507  0.24270421  0.47924013
   0.32736718  0.52001326  0.45433786
   0.33731050  0.67096120  0.47978066
   0.33426554  0.81090609  0.49352886
   0.33525184  0.95462249  0.49768239
   0.47834173  0.09718404  0.49751288
   0.48026964  0.24208516  0.48826765
   0.47286508  0.80633889  0.48947959
   0.47739430  0.95326155  0.49697194
   0.62017920  0.09494729  0.50196871
   0.62162414  0.23891690  0.50024761
   0.62066276  0.81045351  0.49883601
   0.61892544  0.95033755  0.49982322
   0.76236747  0.09396721  0.50590521
   0.76340751  0.23769054  0.50661161
   0.76358412  0.38114800  0.50539245
   0.76136489  0.52459798  0.50465760
   0.76685673  0.67226202  0.50546062
   0.76402597  0.80562343  0.50534612
   0.76212389  0.95020126  0.50482734
   0.90521440  0.09451347  0.50560942
   0.90546366  0.23791111  0.50644699
   0.90597249  0.38148047  0.50715794
   0.90606573  0.52476778  0.50718614
   0.90727479  0.66756688  0.50731653
   0.90879042  0.81160883  0.50707718
   0.90664682  0.95277401  0.50582552
   0.47523749  0.37324476  0.45844161
   0.40962091  0.55894362  0.41915811
   0.63073358  0.53751256  0.49806503
   0.57574318  0.72110624  0.49746764
   0.42686974  0.71646805  0.48024592
   0.72028588  0.71612363  0.50483453
   0.32866944  0.38015540  0.46205090
   0.62341583  0.38036759  0.49744539
   0.52235574  0.56978863  0.54577553
   0.44837789  0.47433674  0.52398601
   0.46914425  0.51945559  0.57126677
Direct configuration=     5
   0.00206764  0.00121154  0.50380550
   0.00067945  0.14297701  0.50228508
   0.00062321  0.28609067  0.50257402
   0.00121669  0.42927733  0.50413788
   0.00158231  0.57241818  0.50555432
   0.00267675  0.71559187  0.50649132
   0.00384451  0.85952818  0.50592725
   0.14603561  0.00296329  0.49968616
   0.14463207  0.14480038  0.49398382
   0.14236185  0.28588995  0.49042631
   0.14342254  0.42954796  0.49113052
   0.14464495  0.57227789  0.49627594
   0.14493084  0.71556931  0.50074133
   0.14560200  0.85930581  0.50245442
   0.28843388  0.00309863  0.49729711
   0.28873958  0.14702690  0.48946522
   0.28641861  0.29133901  0.47490359
   0.28252887  0.42467984  0.46656465
   0.28789520  0.57226273  0.47357736
   0.28690718  0.71578416  0.48975476
   0.28731948  0.85924031  0.49756397
   0.43053524  0.00183214  0.49748685
   0.43176350  0.14639406  0.49353827
   0.43003097  0.28546137  0.47569964
   0.42900147  0.85784654  0.49322137
   0.57235066  0.99959170  0.49938358
   0.57329905  0.14345887  0.49987173
   0.57767391  0.29023857  0.49499764
   0.57036706  0.85445222  0.49560626
   0.71438051  0.99795746  0.50382327
   0.71546469  0.14230281  0.50514056
   0.71632594  0.28596803  0.50461924
   0.71278881  0.42600713  0.50269392
   0.71977691  0.57664588  0.50304654
   0.71453785  0.85420588  0.50344660
   0.85781931  0.99930096  0.50590572
   0.85763451  0.14229674  0.50665910
   0.85829529  0.28580273  0.50747381
   0.85870267  0.42919328  0.50719336
   0.85801329  0.57211724  0.50701055
   0.86176042  0.71676847  0.50716038
   0.86013319  0.85771786  0.50650484
   0.04938572  0.09645300  0.50039918
   0.04753747  0.23804501  0.49931395
   0.04840003  0.38161807  0.50014160
   0.04931603  0.52467430  0.50269132
   0.04976915  0.66784462  0.50472686
   0.05052400  0.81122041  0.50537466
   0.05068979  0.95457592  0.50343282
   0.19327539  0.09807649  0.49426491
   0.19093625  0.23968680  0.48662256
   0.18902112  0.38061056  0.48405886
   0.19239636  0.52492034  0.48834688
   0.19197379  0.66781116  0.49544250
   0.19256073  0.81123987  0.50033796
   0.19332252  0.95488765  0.49991478
   0.33632135  0.09906322  0.49330829
   0.33614359  0.24270410  0.47921740
   0.32734925  0.52000638  0.45429001
   0.33730952  0.67096067  0.47975017
   0.33426513  0.81090463  0.49349187
   0.33524935  0.95462012  0.49764325
   0.47834169  0.09718284  0.49748896
   0.48026921  0.24208557  0.48824933
   0.47286559  0.80633860  0.48945814
   0.47739538  0.95326100  0.49693652
   0.62017952  0.09494753  0.50194537
   0.62162358  0.23891671  0.50023592
   0.62066274  0.81045641  0.49884267
   0.61892571  0.95033520  0.49980171
   0.76236783  0.09396772  0.50587764
   0.76340798  0.23769171  0.50659222
   0.76358224  0.38114721  0.50537882
   0.76136566  0.52459890  0.50466924
   0.76686245  0.67226865  0.50549156
   0.76402556  0.80562437  0.50535938
   0.76212519  0.95020344  0.50482029
   0.90521521  0.09451507  0.50559995
   0.90546197  0.23791066  0.50642045
   0.90597193  0.38148029  0.50714343
   0.90606475  0.52476592  0.50716814
   0.90727237  0.66756358  0.50730085
   0.90878978  0.81160914  0.50707148
   0.90664673  0.95277389  0.50582793
   0.47523088  0.37324577  0.45843994
   0.40962266  0.55893824  0.41912157
   0.63073416  0.53751422  0.49821203
   0.57574158  0.72110753  0.49750215
   0.42686811  0.71646652  0.48022098
   0.72028717  0.71612513  0.50486278
   0.32867274  0.38015914  0.46201985
   0.62341431  0.38036799  0.49744327
   0.52216522  0.56966729  0.54598907
   0.44841941  0.47457170  0.52437459
   0.46934226  0.51935611  0.57174387
Direct configuration=     6
   0.00206848  0.00121181  0.50379458
   0.00068162  0.14298036  0.50226841
   0.00062103  0.28609142  0.50254273
   0.00121663  0.42927667  0.50411946
   0.00157825  0.57241533  0.50553244
   0.00267348  0.71558989  0.50646104
   0.00384230  0.85952839  0.50591540
   0.14603663  0.00296507  0.49966295
   0.14463415  0.14480201  0.49396206
   0.14236330  0.28589227  0.49040093
   0.14342207  0.42954832  0.49110412
   0.14464406  0.57227658  0.49625115
   0.14492522  0.71556548  0.50070905
   0.14559722  0.85930474  0.50242393
   0.28843269  0.00309733  0.49726421
   0.28873879  0.14702551  0.48943702
   0.28641992  0.29134102  0.47487685
   0.28252561  0.42467678  0.46652404
   0.28789452  0.57226400  0.47353889
   0.28690388  0.71578165  0.48971846
   0.28731736  0.85924017  0.49751790
   0.43053346  0.00182943  0.49744175
   0.43176328  0.14639404  0.49350998
   0.43003305  0.28546888  0.47568499
   0.42900308  0.85784413  0.49319012
   0.57235153  0.99959040  0.49934571
   0.57329713  0.14345737  0.49985724
   0.57767473  0.29023964  0.49498733
   0.57036692  0.85445096  0.49559495
   0.71438108  0.99795842  0.50379623
   0.71546548  0.14230421  0.50510973
   0.71632929  0.28597158  0.50460129
   0.71278646  0.42600786  0.50269324
   0.71977966  0.57664624  0.50311293
   0.71453636  0.85420707  0.50345023
   0.85782062  0.99930304  0.50590383
   0.85763575  0.14230007  0.50662916
   0.85829646  0.28580396  0.50744818
   0.85870134  0.42919230  0.50717452
   0.85801278  0.57211539  0.50699154
   0.86176200  0.71676864  0.50715845
   0.86013272  0.85771782  0.50650860
   0.04938269  0.09645126  0.50038740
   0.04753564  0.23804457  0.49928950
   0.04839966  0.38161912  0.50011377
   0.04931643  0.52467508  0.50267409
   0.04976394  0.66784255  0.50470247
   0.05052235  0.81121925  0.50534948
   0.05069174  0.95457672  0.50341288
   0.19327459  0.09807451  0.49423640
   0.19093779  0.23968762  0.48659715
   0.18901999  0.38061107  0.48403153
   0.19239274  0.52491752  0.48832379
   0.19197055  0.66780944  0.49541260
   0.19255709  0.81123874  0.50029601
   0.19332532  0.95488889  0.49988600
   0.33631868  0.09905739  0.49328302
   0.33614336  0.24270567  0.47919324
   0.32733022  0.51999758  0.45423717
   0.33730722  0.67095992  0.47971410
   0.33426488  0.81090388  0.49345021
   0.33524721  0.95461893  0.49759662
   0.47833955  0.09718018  0.49746089
   0.48026876  0.24208501  0.48822798
   0.47286706  0.80633768  0.48943247
   0.47739925  0.95325974  0.49689703
   0.62017926  0.09494679  0.50191657
   0.62162277  0.23891510  0.50022156
   0.62066538  0.81046105  0.49885005
   0.61892624  0.95033435  0.49977585
   0.76236677  0.09396809  0.50584488
   0.76340763  0.23769217  0.50657055
   0.76358047  0.38114681  0.50536228
   0.76136690  0.52460043  0.50468085
   0.76686756  0.67227594  0.50552437
   0.76402580  0.80562688  0.50537381
   0.76212638  0.95020543  0.50481080
   0.90521677  0.09451752  0.50558999
   0.90546205  0.23791107  0.50639058
   0.90597201  0.38148053  0.50712411
   0.90606426  0.52476448  0.50714623
   0.90727138  0.66756230  0.50728247
   0.90879095  0.81161196  0.50706496
   0.90664702  0.95277505  0.50582934
   0.47522283  0.37324880  0.45843818
   0.40963430  0.55892796  0.41910759
   0.63073225  0.53751205  0.49837746
   0.57574127  0.72110636  0.49754237
   0.42686765  0.71646569  0.48019252
   0.72028905  0.71612683  0.50489328
   0.32867803  0.38016580  0.46198550
   0.62341128  0.38036610  0.49743834
   0.52204898  0.56965093  0.54625182
   0.44836590  0.47468027  0.52474861
   0.46955831  0.51927301  0.57237639
Direct configuration=     7
   0.00207050  0.00121410  0.50378135
   0.00068309  0.14298322  0.50224791
   0.00061941  0.28609296  0.50250671
   0.00121572  0.42927444  0.50409636
   0.00157631  0.57241490  0.50550562
   0.00266911  0.71558766  0.50642269
   0.00384138  0.85952994  0.50589891
   0.14603817  0.00296601  0.49963613
   0.14463927  0.14480451  0.49393627
   0.14236261  0.28589394  0.49036853
   0.14342145  0.42954868  0.49106973
   0.14464161  0.57227472  0.49622383
   0.14491815  0.71556202  0.50066683
   0.14559562  0.85930157  0.50238710
   0.28843254  0.00309406  0.49722608
   0.28873977  0.14702470  0.48940178
   0.28642215  0.29134134  0.47484511
   0.28251732  0.42467300  0.46647098
   0.28789112  0.57226703  0.47349088
   0.28689713  0.71577679  0.48967267
   0.28731497  0.85924026  0.49746039
   0.43053246  0.00182581  0.49738437
   0.43176143  0.14639299  0.49347313
   0.43003351  0.28547320  0.47566696
   0.42900241  0.85784053  0.49314737
   0.57235295  0.99958951  0.49929906
   0.57329364  0.14345452  0.49983544
   0.57767547  0.29024097  0.49497186
   0.57036627  0.85444887  0.49558131
   0.71437894  0.99795821  0.50376314
   0.71546487  0.14230561  0.50506813
   0.71632892  0.28597207  0.50457848
   0.71278303  0.42600748  0.50268976
   0.71977240  0.57664301  0.50319431
   0.71453675  0.85420941  0.50345321
   0.85782276  0.99930623  0.50589934
   0.85763756  0.14230413  0.50659299
   0.85829961  0.28580698  0.50741594
   0.85869883  0.42919107  0.50714899
   0.85801288  0.57211411  0.50696636
   0.86176336  0.71677025  0.50715226
   0.86013208  0.85771840  0.50651315
   0.04938019  0.09645060  0.50037244
   0.04753388  0.23804548  0.49925660
   0.04839963  0.38161952  0.50008028
   0.04931664  0.52467346  0.50265250
   0.04975801  0.66784006  0.50467242
   0.05051782  0.81121828  0.50531610
   0.05069425  0.95457871  0.50338840
   0.19327617  0.09807508  0.49420079
   0.19094148  0.23969222  0.48656633
   0.18901847  0.38061122  0.48399827
   0.19238958  0.52491561  0.48829422
   0.19196728  0.66780762  0.49537327
   0.19255219  0.81123752  0.50024477
   0.19332543  0.95489033  0.49985374
   0.33631948  0.09906244  0.49324799
   0.33614565  0.24270725  0.47916810
   0.32731192  0.51998717  0.45417700
   0.33730442  0.67095974  0.47966743
   0.33426476  0.81090253  0.49340007
   0.33524631  0.95461786  0.49753616
   0.47833532  0.09717501  0.49742596
   0.48026761  0.24208721  0.48820213
   0.47286803  0.80633246  0.48940077
   0.47740057  0.95325802  0.49685128
   0.62017817  0.09494472  0.50187775
   0.62162311  0.23891324  0.50020304
   0.62066756  0.81046282  0.49885968
   0.61892702  0.95033483  0.49974100
   0.76236772  0.09397215  0.50580626
   0.76340754  0.23769289  0.50654424
   0.76357965  0.38114863  0.50534071
   0.76136818  0.52460032  0.50469408
   0.76686681  0.67227894  0.50556117
   0.76402594  0.80562971  0.50539101
   0.76212762  0.95020701  0.50479887
   0.90521642  0.09451853  0.50557731
   0.90546447  0.23791409  0.50635594
   0.90597202  0.38148065  0.50709652
   0.90606226  0.52476211  0.50711660
   0.90727110  0.66756210  0.50725819
   0.90879230  0.81161475  0.50705713
   0.90664781  0.95277689  0.50582931
   0.47521327  0.37325632  0.45843619
   0.40966263  0.55890816  0.41912790
   0.63073812  0.53750823  0.49857102
   0.57574813  0.72111397  0.49757862
   0.42686737  0.71646382  0.48015697
   0.72029196  0.71613016  0.50492970
   0.32868668  0.38017602  0.46194730
   0.62340817  0.38036380  0.49742942
   0.52201740  0.56976937  0.54661166
   0.44819820  0.47466775  0.52518693
   0.46979636  0.51917169  0.57319202
Direct configuration=     8
   0.00207217  0.00121722  0.50376551
   0.00068252  0.14298173  0.50222727
   0.00062162  0.28609610  0.50246358
   0.00121509  0.42927304  0.50406546
   0.00157705  0.57241436  0.50547400
   0.00266468  0.71558765  0.50637491
   0.00384420  0.85953453  0.50587404
   0.14604076  0.00296615  0.49960488
   0.14464274  0.14480679  0.49390645
   0.14235854  0.28589394  0.49032689
   0.14342075  0.42954920  0.49103002
   0.14463800  0.57227284  0.49619235
   0.14491224  0.71556057  0.50061135
   0.14559260  0.85929940  0.50234179
   0.28843568  0.00309821  0.49717905
   0.28874292  0.14702920  0.48935942
   0.28643129  0.29134746  0.47480666
   0.28250299  0.42466960  0.46640259
   0.28788453  0.57226702  0.47342674
   0.28689132  0.71577367  0.48961330
   0.28730862  0.85923463  0.49738752
   0.43053304  0.00182172  0.49731418
   0.43175911  0.14639193  0.49342750
   0.43003565  0.28548004  0.47564337
   0.42900036  0.85783617  0.49308839
   0.57235372  0.99958935  0.49924132
   0.57329073  0.14344934  0.49980410
   0.57767344  0.29023933  0.49494876
   0.57036690  0.85444684  0.49556294
   0.71437833  0.99796008  0.50372251
   0.71546311  0.14230735  0.50501321
   0.71632482  0.28596903  0.50454909
   0.71277985  0.42600718  0.50268312
   0.71976025  0.57663625  0.50328265
   0.71454120  0.85421436  0.50345680
   0.85782440  0.99930853  0.50589385
   0.85763830  0.14230705  0.50654999
   0.85830105  0.28580904  0.50737730
   0.85869587  0.42918809  0.50711580
   0.85801292  0.57211396  0.50693406
   0.86176295  0.71677386  0.50714142
   0.86013279  0.85772250  0.50651925
   0.04938604  0.09645675  0.50035192
   0.04753474  0.23804959  0.49921278
   0.04839899  0.38161865  0.50003976
   0.04931421  0.52466995  0.50262467
   0.04975213  0.66783533  0.50463663
   0.05051251  0.81121712  0.50527431
   0.05069629  0.95458221  0.50335978
   0.19327755  0.09807876  0.49415863
   0.19094882  0.23970173  0.48652891
   0.18901580  0.38061002  0.48395491
   0.19239148  0.52491862  0.48825424
   0.19195865  0.66780553  0.49532566
   0.19255019  0.81123333  0.50018319
   0.19332241  0.95488822  0.49981617
   0.33631595  0.09905982  0.49320154
   0.33614756  0.24270923  0.47914245
   0.32729769  0.51997822  0.45411161
   0.33730165  0.67096124  0.47960791
   0.33426178  0.81089923  0.49333923
   0.33524708  0.95461714  0.49746052
   0.47833526  0.09717178  0.49738379
   0.48026804  0.24209163  0.48817077
   0.47287015  0.80632584  0.48936325
   0.47739977  0.95325553  0.49679575
   0.62017657  0.09494070  0.50182668
   0.62162241  0.23891166  0.50017923
   0.62066424  0.81046271  0.49887116
   0.61892556  0.95033566  0.49969596
   0.76237055  0.09397838  0.50575806
   0.76340954  0.23769579  0.50650897
   0.76357803  0.38115062  0.50531303
   0.76136783  0.52459901  0.50471098
   0.76686146  0.67227542  0.50560445
   0.76402687  0.80563298  0.50541188
   0.76212798  0.95020941  0.50478348
   0.90521608  0.09452103  0.50555855
   0.90546741  0.23791980  0.50631332
   0.90597163  0.38148196  0.50706038
   0.90605989  0.52476032  0.50707644
   0.90727053  0.66756169  0.50722759
   0.90879145  0.81161539  0.50704797
   0.90665008  0.95277961  0.50582742
   0.47520112  0.37326687  0.45843531
   0.40971089  0.55887470  0.41920372
   0.63074352  0.53749968  0.49879208
   0.57575702  0.72111532  0.49760921
   0.42686487  0.71645784  0.48011219
   0.72029395  0.71613563  0.50497607
   0.32869832  0.38018891  0.46190970
   0.62340671  0.38036369  0.49741600
   0.52196672  0.56993487  0.54716466
   0.44795458  0.47463947  0.52586446
   0.47011687  0.51903841  0.57400009
Direct configuration=     9
   0.00207610  0.00122376  0.50374619
   0.00068346  0.14298336  0.50220403
   0.00062640  0.28610017  0.50241011
   0.00121364  0.42927224  0.50402299
   0.00157480  0.57240935  0.50543483
   0.00266055  0.71558691  0.50631701
   0.00384582  0.85953908  0.50583711
   0.14604298  0.00296940  0.49956566
   0.14464747  0.14481733  0.49387144
   0.14235747  0.28589120  0.49027827
   0.14341813  0.42955069  0.49098833
   0.14463461  0.57227210  0.49615373
   0.14490983  0.71556150  0.50054883
   0.14558921  0.85929946  0.50228640
   0.28843529  0.00310158  0.49711994
   0.28874282  0.14703523  0.48930897