  95  95   0   0
  0.4078826E+02  0.1727104E-08  0.1727104E-08  0.1500000E-08  0.5000000E-15
  1.000000000000000E-004
  CAR 
 unknown system                          
      5.82396556    -24.09443512  301     -2.74017664      1.00000000
    -24.094  0.0000E+00  0.0000E+00  0.0000E+00  0.0000E+00
    -23.995  0.0000E+00  0.0000E+00  0.0000E+00  0.0000E+00
    -23.895  0.0000E+00  0.0000E+00  0.0000E+00  0.0000E+00
    -23.795  0.0000E+00  0.0000E+00  0.0000E+00  0.0000E+00
    -23.696  0.0000E+00  0.0000E+00  0.0000E+00  0.0000E+00
    -23.596  0.0000E+00  0.0000E+00  0.0000E+00  0.0000E+00
    -23.496  0.0000E+00  0.0000E+00  0.0000E+00  0.0000E+00
    -23.396  0.0000E+00  0.0000E+00  0.0000E+00  0.0000E+00
    -23.297  0.0000E+00  0.0000E+00  0.0000E+00  0.0000E+00
    -23.197  0.0000E+00  0.0000E+00  0.0000E+00  0.0000E+00
    -23.097  0.0000E+00  0.0000E+00  0.0000E+00  0.0000E+00
    -22.997  0.4472E-15  0.4461E-15  0.4460E-16  0.4449E-16
    -22.898  0.1786E-07  0.1783E-07  0.1781E-08  0.1778E-08
    -22.798  0.3486E-03  0.3484E-03  0.3477E-04  0.3474E-04
    -22.698  0.8101E-02  0.8101E-02  0.8427E-03  0.8426E-03
    -22.599  0.1577E-02  0.1577E-02  0.9999E-03  0.9999E-03
    -22.499  0.6578E-04  0.6571E-04  0.1006E-02  0.1006E-02
    -22.399  0.7396E-02  0.7393E-02  0.1744E-02  0.1744E-02
    -22.299  0.1205E-01  0.1205E-01  0.2945E-02  0.2945E-02
    -22.200  0.7174E-03  0.7180E-03  0.3017E-02  0.3017E-02
    -22.100  0.7429E-02  0.7429E-02  0.3758E-02  0.3758E-02
    -22.000  0.2427E-02  0.2426E-02  0.4000E-02  0.4000E-02
    -21.900  0.3685E-04  0.3681E-04  0.4003E-02  0.4003E-02
    -21.801  0.4928E-02  0.4927E-02  0.4495E-02  0.4495E-02
    -21.701  0.9695E-02  0.9695E-02  0.5462E-02  0.5462E-02
    -21.601  0.8547E-02  0.8547E-02  0.6314E-02  0.6314E-02
    -21.502  0.3222E-02  0.3222E-02  0.6635E-02  0.6635E-02
    -21.402  0.1019E-01  0.1019E-01  0.7651E-02  0.7651E-02
    -21.302  0.1737E-02  0.1737E-02  0.7825E-02  0.7825E-02
    -21.202  0.9532E-02  0.9531E-02  0.8775E-02  0.8775E-02
    -21.103  0.3827E-02  0.3828E-02  0.9157E-02  0.9157E-02
    -21.003  0.7817E-02  0.7817E-02  0.9936E-02  0.9936E-02
    -20.903  0.5061E-02  0.5060E-02  0.1044E-01  0.1044E-01
    -20.803  0.9085E-02  0.9085E-02  0.1135E-01  0.1135E-01
    -20.704  0.4484E-02  0.4485E-02  0.1179E-01  0.1179E-01
    -20.604  0.5072E-02  0.5071E-02  0.1230E-01  0.1230E-01
    -20.504  0.3809E-02  0.3809E-02  0.1268E-01  0.1268E-01
    -20.404  0.9978E-02  0.9978E-02  0.1368E-01  0.1367E-01
    -20.305  0.9036E-02  0.9036E-02  0.1458E-01  0.1458E-01
    -20.205  0.8515E-02  0.8516E-02  0.1543E-01  0.1543E-01
    -20.105  0.2726E-02  0.2725E-02  0.1570E-01  0.1570E-01
    -20.006  0.7273E-02  0.7274E-02  0.1642E-01  0.1642E-01
    -19.906  0.8524E-03  0.8528E-03  0.1651E-01  0.1651E-01
    -19.806  0.5876E-02  0.5875E-02  0.1709E-01  0.1709E-01
    -19.706  0.1205E-01  0.1205E-01  0.1830E-01  0.1830E-01
    -19.607  0.1300E-01  0.1301E-01  0.1959E-01  0.1959E-01
    -19.507  0.3583E-02  0.3583E-02  0.1995E-01  0.1995E-01
    -19.407  0.5359E-02  0.5360E-02  0.2048E-01  0.2048E-01
    -19.307  0.4191E-02  0.4190E-02  0.2090E-01  0.2090E-01
    -19.208  0.1203E-01  0.1203E-01  0.2210E-01  0.2210E-01
    -19.108  0.3958E-02  0.3959E-02  0.2250E-01  0.2250E-01
    -19.008  0.6807E-04  0.6809E-04  0.2250E-01  0.2250E-01
    -18.909  0.3655E-02  0.3654E-02  0.2287E-01  0.2287E-01
    -18.809  0.1384E-01  0.1384E-01  0.2425E-01  0.2425E-01
    -18.709  0.1196E-01  0.1196E-01  0.2544E-01  0.2544E-01
    -18.609  0.8217E-02  0.8218E-02  0.2626E-01  0.2626E-01
    -18.510  0.6838E-02  0.6838E-02  0.2694E-01  0.2694E-01
    -18.410  0.9372E-02  0.9372E-02  0.2788E-01  0.2788E-01
    -18.310  0.4811E-02  0.4812E-02  0.2836E-01  0.2836E-01
    -18.210  0.2166E-02  0.2166E-02  0.2857E-01  0.2857E-01
    -18.111  0.6890E-02  0.6890E-02  0.2926E-01  0.2926E-01
    -18.011  0.7939E-02  0.7939E-02  0.3005E-01  0.3005E-01
    -17.911  0.5426E-02  0.5426E-02  0.3059E-01  0.3059E-01
    -17.812  0.7655E-02  0.7655E-02  0.3136E-01  0.3136E-01
    -17.712  0.4987E-02  0.4987E-02  0.3185E-01  0.3185E-01
    -17.612  0.1616E-01  0.1616E-01  0.3346E-01  0.3346E-01
    -17.512  0.1627E-01  0.1627E-01  0.3509E-01  0.3509E-01
    -17.413  0.6416E-02  0.6418E-02  0.3573E-01  0.3573E-01
    -17.313  0.1944E-02  0.1944E-02  0.3592E-01  0.3592E-01
    -17.213  0.6417E-02  0.6417E-02  0.3656E-01  0.3656E-01
    -17.113  0.6919E-02  0.6920E-02  0.3725E-01  0.3725E-01
    -17.014  0.9025E-02  0.9024E-02  0.3815E-01  0.3815E-01
    -16.914  0.7577E-02  0.7578E-02  0.3891E-01  0.3891E-01
    -16.814  0.5688E-02  0.5688E-02  0.3947E-01  0.3947E-01
    -16.715  0.5946E-02  0.5947E-02  0.4007E-01  0.4007E-01
    -16.615  0.9903E-02  0.9901E-02  0.4105E-01  0.4105E-01
    -16.515  0.2053E-01  0.2053E-01  0.4310E-01  0.4310E-01
    -16.415  0.3994E-02  0.3996E-02  0.4350E-01  0.4350E-01
    -16.316  0.5184E-05  0.5191E-05  0.4350E-01  0.4350E-01
    -16.216  0.3354E-05  0.3350E-05  0.4350E-01  0.4350E-01
    -16.116  0.1313E-02  0.1313E-02  0.4363E-01  0.4363E-01
    -16.016  0.5588E-02  0.5588E-02  0.4419E-01  0.4419E-01
    -15.917  0.1979E-02  0.1978E-02  0.4439E-01  0.4439E-01
    -15.817  0.5418E-02  0.5418E-02  0.4493E-01  0.4493E-01
    -15.717  0.2901E-02  0.2900E-02  0.4522E-01  0.4522E-01
    -15.618  0.8058E-02  0.8058E-02  0.4602E-01  0.4602E-01
    -15.518  0.4960E-02  0.4960E-02  0.4651E-01  0.4651E-01
    -15.418  0.7882E-02  0.7882E-02  0.4730E-01  0.4730E-01
    -15.318  0.8119E-02  0.8119E-02  0.4811E-01  0.4811E-01
    -15.219  0.1231E-01  0.1231E-01  0.4934E-01  0.4934E-01
    -15.119  0.1081E-01  0.1081E-01  0.5041E-01  0.5041E-01
    -15.019  0.7572E-02  0.7573E-02  0.5117E-01  0.5117E-01
    -14.919  0.4735E-02  0.4734E-02  0.5164E-01  0.5164E-01
    -14.820  0.9624E-02  0.9625E-02  0.5260E-01  0.5260E-01
    -14.720  0.6200E-02  0.6200E-02  0.5322E-01  0.5322E-01
    -14.620  0.8774E-02  0.8774E-02  0.5410E-01  0.5410E-01
    -14.521  0.1447E-01  0.1447E-01  0.5554E-01  0.5554E-01
    -14.421  0.6628E-02  0.6629E-02  0.5620E-01  0.5620E-01
    -14.321  0.1249E-01  0.1249E-01  0.5744E-01  0.5744E-01
    -14.221  0.4923E-02  0.4924E-02  0.5794E-01  0.5794E-01
    -14.122  0.5231E-02  0.5231E-02  0.5846E-01  0.5846E-01
    -14.022  0.3810E-02  0.3811E-02  0.5884E-01  0.5884E-01
    -13.922  0.5059E-02  0.5058E-02  0.5934E-01  0.5934E-01
    -13.822  0.6304E-02  0.6304E-02  0.5997E-01  0.5997E-01
    -13.723  0.7322E-02  0.7320E-02  0.6070E-01  0.6070E-01
    -13.623  0.1100E-01  0.1101E-01  0.6180E-01  0.6180E-01
    -13.523  0.1083E-01  0.1083E-01  0.6288E-01  0.6288E-01
    -13.424  0.5033E-02  0.5034E-02  0.6338E-01  0.6338E-01
    -13.324  0.6132E-02  0.6131E-02  0.6399E-01  0.6399E-01
    -13.224  0.5070E-02  0.5071E-02  0.6450E-01  0.6450E-01
    -13.124  0.5642E-03  0.5638E-03  0.6455E-01  0.6455E-01
    -13.025  0.6690E-02  0.6690E-02  0.6522E-01  0.6522E-01
    -12.925  0.6794E-02  0.6795E-02  0.6590E-01  0.6590E-01
    -12.825  0.5495E-02  0.5494E-02  0.6645E-01  0.6645E-01
    -12.725  0.1387E-01  0.1387E-01  0.6783E-01  0.6783E-01
    -12.626  0.1206E-01  0.1206E-01  0.6903E-01  0.6903E-01
    -12.526  0.1161E-01  0.1161E-01  0.7019E-01  0.7019E-01
    -12.426  0.1038E-01  0.1038E-01  0.7123E-01  0.7123E-01
    -12.327  0.6227E-02  0.6227E-02  0.7185E-01  0.7185E-01
    -12.227  0.1744E-02  0.1745E-02  0.7202E-01  0.7202E-01
    -12.127  0.9364E-02  0.9363E-02  0.7295E-01  0.7295E-01
    -12.027  0.5304E-02  0.5306E-02  0.7348E-01  0.7348E-01
    -11.928  0.3685E-02  0.3684E-02  0.7385E-01  0.7385E-01
    -11.828  0.6180E-02  0.6179E-02  0.7447E-01  0.7447E-01
    -11.728  0.1205E-01  0.1205E-01  0.7567E-01  0.7567E-01
    -11.628  0.1028E-01  0.1028E-01  0.7669E-01  0.7669E-01
    -11.529  0.1175E-01  0.1175E-01  0.7787E-01  0.7787E-01
    -11.429  0.1182E-01  0.1182E-01  0.7904E-01  0.7904E-01
    -11.329  0.1484E-01  0.1484E-01  0.8052E-01  0.8052E-01
    -11.230  0.7532E-02  0.7532E-02  0.8127E-01  0.8127E-01
    -11.130  0.1023E-01  0.1023E-01  0.8229E-01  0.8229E-01
    -11.030  0.8796E-02  0.8797E-02  0.8317E-01  0.8317E-01
    -10.930  0.7909E-02  0.7909E-02  0.8396E-01  0.8396E-01
    -10.831  0.8007E-02  0.8008E-02  0.8476E-01  0.8476E-01
    -10.731  0.1012E-01  0.1012E-01  0.8577E-01  0.8577E-01
    -10.631  0.2537E-02  0.2538E-02  0.8602E-01  0.8602E-01
    -10.531  0.2510E-02  0.2510E-02  0.8627E-01  0.8627E-01
    -10.432  0.9964E-02  0.9963E-02  0.8727E-01  0.8727E-01
    -10.332  0.1332E-01  0.1332E-01  0.8859E-01  0.8859E-01
    -10.232  0.1768E-01  0.1768E-01  0.9036E-01  0.9036E-01
    -10.133  0.1515E-01  0.1515E-01  0.9187E-01  0.9187E-01
    -10.033  0.2124E-01  0.2124E-01  0.9399E-01  0.9399E-01
     -9.933  0.1057E-01  0.1056E-01  0.9504E-01  0.9504E-01
     -9.833  0.1872E-01  0.1872E-01  0.9691E-01  0.9691E-01
     -9.734  0.1714E-01  0.1714E-01  0.9862E-01  0.9862E-01
     -9.634  0.1830E-01  0.1830E-01  0.1004E+00  0.1004E+00
     -9.534  0.2370E-01  0.2370E-01  0.1028E+00  0.1028E+00
     -9.434  0.1612E-01  0.1612E-01  0.1044E+00  0.1044E+00
     -9.335  0.1869E-01  0.1869E-01  0.1063E+00  0.1063E+00
     -9.235  0.1615E-01  0.1615E-01  0.1079E+00  0.1079E+00
     -9.135  0.2446E-01  0.2446E-01  0.1103E+00  0.1103E+00
     -9.036  0.2482E-01  0.2482E-01  0.1128E+00  0.1128E+00
     -8.936  0.2632E-01  0.2632E-01  0.1154E+00  0.1154E+00
     -8.836  0.1629E-01  0.1629E-01  0.1171E+00  0.1171E+00
     -8.736  0.1985E-01  0.1985E-01  0.1190E+00  0.1190E+00
     -8.637  0.1883E-01  0.1883E-01  0.1209E+00  0.1209E+00
     -8.537  0.9556E-02  0.9555E-02  0.1219E+00  0.1219E+00
     -8.437  0.2213E-01  0.2213E-01  0.1241E+00  0.1241E+00
     -8.337  0.2332E-01  0.2332E-01  0.1264E+00  0.1264E+00
     -8.238  0.2223E-01  0.2223E-01  0.1286E+00  0.1286E+00
     -8.138  0.1393E-01  0.1393E-01  0.1300E+00  0.1300E+00
     -8.038  0.1640E-01  0.1640E-01  0.1316E+00  0.1316E+00
     -7.938  0.1287E-01  0.1287E-01  0.1329E+00  0.1329E+00
     -7.839  0.1669E-01  0.1669E-01  0.1346E+00  0.1346E+00
     -7.739  0.9470E-02  0.9472E-02  0.1355E+00  0.1355E+00
     -7.639  0.7882E-02  0.7881E-02  0.1363E+00  0.1363E+00
     -7.540  0.1762E-01  0.1762E-01  0.1381E+00  0.1381E+00
     -7.440  0.1711E-01  0.1711E-01  0.1398E+00  0.1398E+00
     -7.340  0.1893E-01  0.1893E-01  0.1417E+00  0.1417E+00
     -7.240  0.1901E-01  0.1901E-01  0.1436E+00  0.1436E+00
     -7.141  0.1782E-01  0.1782E-01  0.1453E+00  0.1453E+00
     -7.041  0.1744E-01  0.1744E-01  0.1471E+00  0.1471E+00
     -6.941  0.7410E-02  0.7410E-02  0.1478E+00  0.1478E+00
     -6.841  0.1015E-01  0.1015E-01  0.1488E+00  0.1488E+00
     -6.742  0.1302E-01  0.1302E-01  0.1501E+00  0.1501E+00
     -6.642  0.1241E-01  0.1241E-01  0.1514E+00  0.1514E+00
     -6.542  0.7677E-02  0.7677E-02  0.1521E+00  0.1521E+00
     -6.443  0.9501E-02  0.9499E-02  0.1531E+00  0.1531E+00
     -6.343  0.2999E-01  0.2999E-01  0.1561E+00  0.1561E+00
     -6.243  0.1587E-01  0.1587E-01  0.1577E+00  0.1577E+00
     -6.143  0.1120E-01  0.1120E-01  0.1588E+00  0.1588E+00
     -6.044  0.6757E-02  0.6757E-02  0.1594E+00  0.1594E+00
     -5.944  0.1878E-01  0.1878E-01  0.1613E+00  0.1613E+00
     -5.844  0.1085E-01  0.1086E-01  0.1624E+00  0.1624E+00
     -5.744  0.3594E-02  0.3593E-02  0.1628E+00  0.1628E+00
     -5.645  0.7532E-02  0.7532E-02  0.1635E+00  0.1635E+00
     -5.545  0.3355E-02  0.3355E-02  0.1638E+00  0.1638E+00
     -5.445  0.6433E-02  0.6432E-02  0.1645E+00  0.1645E+00
     -5.346  0.4292E-02  0.4292E-02  0.1649E+00  0.1649E+00
     -5.246  0.1118E-01  0.1118E-01  0.1660E+00  0.1660E+00
     -5.146  0.2362E-01  0.2362E-01  0.1684E+00  0.1684E+00
     -5.046  0.2094E-01  0.2094E-01  0.1705E+00  0.1705E+00
     -4.947  0.1595E-01  0.1595E-01  0.1721E+00  0.1721E+00
     -4.847  0.1066E-01  0.1067E-01  0.1731E+00  0.1731E+00
     -4.747  0.1255E-02  0.1256E-02  0.1732E+00  0.1732E+00
     -4.647  0.9916E-03  0.9908E-03  0.1733E+00  0.1733E+00
     -4.548  0.1440E-01  0.1440E-01  0.1748E+00  0.1748E+00
     -4.448  0.1606E-01  0.1606E-01  0.1764E+00  0.1764E+00
     -4.348  0.9390E-02  0.9390E-02  0.1773E+00  0.1773E+00
     -4.249  0.1939E-01  0.1939E-01  0.1793E+00  0.1793E+00
     -4.149  0.1566E-01  0.1566E-01  0.1808E+00  0.1808E+00
     -4.049  0.7737E-02  0.7737E-02  0.1816E+00  0.1816E+00
     -3.949  0.4164E-02  0.4166E-02  0.1820E+00  0.1820E+00
     -3.850  0.2042E-02  0.2042E-02  0.1822E+00  0.1822E+00
     -3.750  0.4064E-03  0.4067E-03  0.1823E+00  0.1823E+00
     -3.650  0.1061E-02  0.1060E-02  0.1824E+00  0.1824E+00
     -3.550  0.3271E-02  0.3271E-02  0.1827E+00  0.1827E+00
     -3.451  0.5513E-02  0.5513E-02  0.1832E+00  0.1832E+00
     -3.351  0.4541E-03  0.4541E-03  0.1833E+00  0.1833E+00
     -3.251  0.2092E-02  0.2093E-02  0.1835E+00  0.1835E+00
     -3.152  0.1396E-03  0.1397E-03  0.1835E+00  0.1835E+00
     -3.052  0.5114E-03  0.5109E-03  0.1836E+00  0.1836E+00
     -2.952  0.4199E-02  0.4199E-02  0.1840E+00  0.1840E+00
     -2.852  0.3033E-03  0.3036E-03  0.1840E+00  0.1840E+00
     -2.753  0.3097E-07  0.3105E-07  0.1840E+00  0.1840E+00
     -2.653  0.1734E-06  0.1730E-06  0.1840E+00  0.1840E+00
     -2.553  0.6182E-03  0.6176E-03  0.1841E+00  0.1841E+00
     -2.453  0.4153E-02  0.4154E-02  0.1845E+00  0.1845E+00
     -2.354  0.2419E-03  0.2421E-03  0.1845E+00  0.1845E+00
     -2.254  0.3027E-07  0.3029E-07  0.1845E+00  0.1845E+00
     -2.154  0.1810E-03  0.1808E-03  0.1845E+00  0.1845E+00
     -2.055  0.4586E-02  0.4585E-02  0.1850E+00  0.1850E+00
     -1.955  0.2799E-02  0.2800E-02  0.1853E+00  0.1853E+00
     -1.855  0.4068E-02  0.4067E-02  0.1857E+00  0.1857E+00
     -1.755  0.3261E-02  0.3261E-02  0.1860E+00  0.1860E+00
     -1.656  0.1600E-03  0.1601E-03  0.1860E+00  0.1860E+00
     -1.556  0.3479E-02  0.3478E-02  0.1863E+00  0.1863E+00
     -1.456  0.6225E-02  0.6226E-02  0.1870E+00  0.1870E+00
     -1.356  0.4590E-02  0.4590E-02  0.1874E+00  0.1874E+00
     -1.257  0.8241E-03  0.8245E-03  0.1875E+00  0.1875E+00
     -1.157  0.4102E-02  0.4101E-02  0.1879E+00  0.1879E+00
     -1.057  0.1426E-01  0.1426E-01  0.1893E+00  0.1893E+00
     -0.958  0.1379E-01  0.1379E-01  0.1907E+00  0.1907E+00
     -0.858  0.6749E-02  0.6748E-02  0.1914E+00  0.1914E+00
     -0.758  0.1081E-01  0.1081E-01  0.1925E+00  0.1925E+00
     -0.658  0.8511E-02  0.8511E-02  0.1933E+00  0.1933E+00
     -0.559  0.6242E-02  0.6242E-02  0.1939E+00  0.1939E+00
     -0.459  0.4108E-02  0.4108E-02  0.1943E+00  0.1943E+00
     -0.359  0.8308E-02  0.8307E-02  0.1952E+00  0.1952E+00
     -0.259  0.8760E-02  0.8759E-02  0.1960E+00  0.1960E+00
     -0.160  0.1115E-01  0.1115E-01  0.1972E+00  0.1972E+00
     -0.060  0.9536E-02  0.9536E-02  0.1981E+00  0.1981E+00
      0.040  0.1135E-01  0.1135E-01  0.1992E+00  0.1992E+00
      0.139  0.6221E-02  0.6223E-02  0.1999E+00  0.1999E+00
      0.239  0.1359E-02  0.1359E-02  0.2000E+00  0.2000E+00
      0.339  0.1953E-02  0.1952E-02  0.2002E+00  0.2002E+00
      0.439  0.6424E-02  0.6424E-02  0.2008E+00  0.2008E+00
      0.538  0.8906E-02  0.8905E-02  0.2017E+00  0.2017E+00
      0.638  0.8345E-02  0.8346E-02  0.2026E+00  0.2026E+00
      0.738  0.2806E-02  0.2806E-02  0.2028E+00  0.2028E+00
      0.838  0.6694E-02  0.6694E-02  0.2035E+00  0.2035E+00
      0.937  0.7971E-02  0.7972E-02  0.2043E+00  0.2043E+00
      1.037  0.1115E-01  0.1115E-01  0.2054E+00  0.2054E+00
      1.137  0.4118E-02  0.4118E-02  0.2058E+00  0.2058E+00
      1.236  0.8793E-02  0.8792E-02  0.2067E+00  0.2067E+00
      1.336  0.1704E-01  0.1704E-01  0.2084E+00  0.2084E+00
      1.436  0.2038E-01  0.2038E-01  0.2104E+00  0.2104E+00
      1.536  0.1139E-01  0.1139E-01  0.2116E+00  0.2116E+00
      1.635  0.6527E-02  0.6527E-02  0.2122E+00  0.2122E+00
      1.735  0.5340E-02  0.5340E-02  0.2127E+00  0.2127E+00
      1.835  0.1048E-01  0.1048E-01  0.2138E+00  0.2138E+00
      1.935  0.1412E-01  0.1412E-01  0.2152E+00  0.2152E+00
      2.034  0.2986E-01  0.2986E-01  0.2182E+00  0.2182E+00
      2.134  0.1317E-01  0.1317E-01  0.2195E+00  0.2195E+00
      2.234  0.8680E-02  0.8680E-02  0.2204E+00  0.2204E+00
      2.333  0.2020E-01  0.2020E-01  0.2224E+00  0.2224E+00
      2.433  0.2479E-01  0.2479E-01  0.2248E+00  0.2248E+00
      2.533  0.1337E-01  0.1337E-01  0.2262E+00  0.2262E+00
      2.633  0.8355E-02  0.8353E-02  0.2270E+00  0.2270E+00
      2.732  0.1281E-01  0.1281E-01  0.2283E+00  0.2283E+00
      2.832  0.2995E-01  0.2995E-01  0.2313E+00  0.2313E+00
      2.932  0.5418E-01  0.5418E-01  0.2367E+00  0.2367E+00
      3.032  0.2521E-01  0.2521E-01  0.2392E+00  0.2392E+00
      3.131  0.9450E-02  0.9451E-02  0.2401E+00  0.2401E+00
      3.231  0.1311E-01  0.1311E-01  0.2414E+00  0.2414E+00
      3.331  0.1286E-01  0.1286E-01  0.2427E+00  0.2427E+00
      3.430  0.2731E-01  0.2731E-01  0.2454E+00  0.2454E+00
      3.530  0.2121E-01  0.2121E-01  0.2476E+00  0.2476E+00
      3.630  0.6958E-02  0.6958E-02  0.2483E+00  0.2483E+00
      3.730  0.1886E-01  0.1886E-01  0.2501E+00  0.2501E+00
      3.829  0.2618E-01  0.2618E-01  0.2527E+00  0.2527E+00
      3.929  0.3285E-01  0.3285E-01  0.2560E+00  0.2560E+00
      4.029  0.1413E-01  0.1411E-01  0.2574E+00  0.2574E+00
      4.129  0.1706E-01  0.1707E-01  0.2591E+00  0.2591E+00
      4.228  0.1668E-01  0.1714E-01  0.2608E+00  0.2608E+00
      4.328  0.2460E-01  0.2504E-01  0.2633E+00  0.2633E+00
      4.428  0.1363E-01  0.1324E-01  0.2646E+00  0.2647E+00
      4.528  0.3788E-02  0.3319E-02  0.2650E+00  0.2650E+00
      4.627  0.1012E-03  0.6898E-04  0.2650E+00  0.2650E+00
      4.727  0.4965E-08  0.2586E-08  0.2650E+00  0.2650E+00
      4.827  0.1297E-15  0.4731E-16  0.2650E+00  0.2650E+00
      4.926  0.0000E+00  0.0000E+00  0.2650E+00  0.2650E+00
      5.026  0.0000E+00  0.0000E+00  0.2650E+00  0.2650E+00
      5.126  0.0000E+00  0.0000E+00  0.2650E+00  0.2650E+00
      5.226  0.0000E+00  0.0000E+00  0.2650E+00  0.2650E+00
      5.325  0.0000E+00  0.0000E+00  0.2650E+00  0.2650E+00
      5.425  0.0000E+00  0.0000E+00  0.2650E+00  0.2650E+00
      5.525  0.0000E+00  0.0000E+00  0.2650E+00  0.2650E+00
      5.625  0.0000E+00  0.0000E+00  0.2650E+00  0.2650E+00
      5.724  0.0000E+00  0.0000E+00  0.2650E+00  0.2650E+00
      5.824  0.0000E+00  0.0000E+00  0.2650E+00  0.2650E+00
