 vasp.6.4.2 20Jul23 (build Aug 26 2025 15:10:52) complex                        
  
 executed on             LinuxIFC date 2025.12.02  12:58:02
 running   50 mpi-ranks, on    1 nodes
 each image running on   10 cores
 distrk:  each k-point on    5 cores,    2 groups
 distr:  one band on NCORE=   1 cores,    5 groups


--------------------------------------------------------------------------------------------------------


 INCAR:
   ENCUT = 520
   EDIFF = 1E-6
   NELM = 200
   ALGO = Normal
   ISMEAR = 0
   SIGMA = 0.05
   LASPH = .TRUE.
   ADDGRID = .TRUE.
   LREAL = Auto
   ISYM = 0
   ISPIN = 2
   MAGMOM = 95*0.6
   IMIX = 4
   AMIX = 0.20
   BMIX = 1E-4
   AMIX_MAG = 0.80
   BMIX_MAG = 1E-4
   IBRION = 3
   IOPT = 7
   IMAGES = 5
   SPRING = -5
   LCLIMB = .TRUE.
   ISIF = 2
   EDIFFG = -0.03
   NSW = 1000
   IVDW = 12
   ISTART = 0
   ICHARG = 2
   LWAVE = .FALSE.
   LCHARG = .FALSE.
   KPAR = 2

 POTCAR:    PAW_PBE C 08Apr2002                   
 POTCAR:    PAW_PBE H 15Jun2001                   
 POTCAR:    PAW_PBE N 08Apr2002                   
 POTCAR:    PAW_PBE O 08Apr2002                   
 -----------------------------------------------------------------------------
|                                                                             |
|           W    W    AA    RRRRR   N    N  II  N    N   GGGG   !!!           |
|           W    W   A  A   R    R  NN   N  II  NN   N  G    G  !!!           |
|           W    W  A    A  R    R  N N  N  II  N N  N  G       !!!           |
|           W WW W  AAAAAA  RRRRR   N  N N  II  N  N N  G  GGG   !            |
|           WW  WW  A    A  R   R   N   NN  II  N   NN  G    G                |
|           W    W  A    A  R    R  N    N  II  N    N   GGGG   !!!           |
|                                                                             |
|     For optimal performance we recommend to set                             |
|       NCORE = 2 up to number-of-cores-per-socket                            |
|     NCORE specifies how many cores store one orbital (NPAR=cpu/NCORE).      |
|     This setting can greatly improve the performance of VASP for DFT.       |
|     The default, NCORE=1 might be grossly inefficient on modern             |
|     multi-core architectures or massively parallel machines. Do your        |
|     own testing! More info at https://www.vasp.at/wiki/index.php/NCORE      |
|     Unfortunately you need to use the default for GW and RPA                |
|     calculations (for HF NCORE is supported but not extensively tested      |
|     yet).                                                                   |
|                                                                             |
 -----------------------------------------------------------------------------

 POTCAR:    PAW_PBE C 08Apr2002                   
   SHA256 =  253f7b50bb8d59471dbedb8285d89021f4a42ed1a2c5d38a03a736e69125dd95 C/POTCAR              
   COPYR  = (c) Copyright 08Apr2002 Georg Kresse                                                    
   COPYR  = This file is part of the software VASP. Any use, copying, and all other rights are regul
   COPYR  = If you do not have a valid VASP license, you may not use, copy or distribute this file. 
   VRHFIN =C: s2p2                                                                                  
   LEXCH  = PE                                                                                      
   EATOM  =   147.1560 eV,   10.8157 Ry                                                             
                                                                                                    
   TITEL  = PAW_PBE C 08Apr2002                                                                     
   LULTRA =        F    use ultrasoft PP ?                                                          
   IUNSCR =        1    unscreen: 0-lin 1-nonlin 2-no                                               
   RPACOR =    1.200    partial core radius                                                         
   POMASS =   12.011; ZVAL   =    4.000    mass and valenz                                          
   RCORE  =    1.500    outmost cutoff radius                                                       
   RWIGS  =    1.630; RWIGS  =    0.863    wigner-seitz radius (au A)                               
   ENMAX  =  400.000; ENMIN  =  300.000 eV                                                          
   ICORE  =        2    local potential                                                             
   LCOR   =        T    correct aug charges                                                         
   LPAW   =        T    paw PP                                                                      
   EAUG   =  644.873                                                                                
   DEXC   =    0.000                                                                                
   RMAX   =    1.529    core radius for proj-oper                                                   
   RAUG   =    1.300    factor for augmentation sphere                                              
   RDEP   =    1.501    radius for radial grids                                                     
   RDEPT  =    1.300    core radius for aug-charge                                                  
                                                                                                    
   Atomic configuration                                                                             
    4 entries                                                                                       
     n  l   j            E        occ.                                                              
     1  0  0.50      -273.3789   2.0000                                                             
     2  0  0.50       -13.7508   2.0000                                                             
     2  1  0.50        -5.2854   2.0000                                                             
     3  2  1.50        -5.4423   0.0000                                                             
   Description                                                                                      
     l       E           TYP  RCUT    TYP  RCUT                                                     
     0    -13.7508458     23  1.200                                                                 
     0     -8.2022199     23  1.200                                                                 
     1     -5.2854383     23  1.500                                                                 
     1     34.0145650     23  1.500                                                                 
     2     -5.4423304      7  1.500                                                                 
  local pseudopotential read in
  partial core-charges read in
  partial kinetic energy density read in
  atomic valenz-charges read in
  non local Contribution for L=           0  read in
    real space projection operators read in
  non local Contribution for L=           0  read in
    real space projection operators read in
  non local Contribution for L=           1  read in
    real space projection operators read in
  non local Contribution for L=           1  read in
    real space projection operators read in
    PAW grid and wavefunctions read in
 
   number of l-projection  operators is LMAX  =           4
   number of lm-projection operators is LMMAX =           8
 
 POTCAR:    PAW_PBE H 15Jun2001                   
   SHA256 =  030f79b5d3ab3cf0e668861823c8fb652ff669f3e15e46930bd03bfd63a607b6 H/POTCAR              
   COPYR  = (c) Copyright 15Jun2001 Georg Kresse                                                    
   COPYR  = This file is part of the software VASP. Any use, copying, and all other rights are regul
   COPYR  = If you do not have a valid VASP license, you may not use, copy or distribute this file. 
   VRHFIN =H: ultrasoft test                                                                        
   LEXCH  = PE                                                                                      
   EATOM  =    12.4884 eV,    0.9179 Ry                                                             
                                                                                                    
   TITEL  = PAW_PBE H 15Jun2001                                                                     
   LULTRA =        F    use ultrasoft PP ?                                                          
   IUNSCR =        0    unscreen: 0-lin 1-nonlin 2-no                                               
   RPACOR =    0.000    partial core radius                                                         
   POMASS =    1.000; ZVAL   =    1.000    mass and valenz                                          
   RCORE  =    1.100    outmost cutoff radius                                                       
   RWIGS  =    0.700; RWIGS  =    0.370    wigner-seitz radius (au A)                               
   ENMAX  =  250.000; ENMIN  =  200.000 eV                                                          
   RCLOC  =    0.701    cutoff for local pot                                                        
   LCOR   =        T    correct aug charges                                                         
   LPAW   =        T    paw PP                                                                      
   EAUG   =  400.000                                                                                
   RMAX   =    1.123    core radius for proj-oper                                                   
   RAUG   =    1.200    factor for augmentation sphere                                              
   RDEP   =    1.112    radius for radial grids                                                     
   RDEPT  =    0.926    core radius for aug-charge                                                  
                                                                                                    
   Atomic configuration                                                                             
    2 entries                                                                                       
     n  l   j            E        occ.                                                              
     1  0  0.50        -6.4927   1.0000                                                             
     2  1  0.50        -3.4015   0.0000                                                             
   Description                                                                                      
     l       E           TYP  RCUT    TYP  RCUT                                                     
     0     -6.4927494     23  1.100                                                                 
     0      6.8029130     23  1.100                                                                 
     1     -4.0817478     23  1.100                                                                 
  local pseudopotential read in
  atomic valenz-charges read in
  non local Contribution for L=           0  read in
    real space projection operators read in
  non local Contribution for L=           0  read in
    real space projection operators read in
  non local Contribution for L=           1  read in
    real space projection operators read in
    PAW grid and wavefunctions read in
 
   number of l-projection  operators is LMAX  =           3
   number of lm-projection operators is LMMAX =           5
 
 POTCAR:    PAW_PBE N 08Apr2002                   
   SHA256 =  e053789ff3a61a86a1b75d8a110fcc91f86041011e7b0817c7c99e4e8a6349d7 N/POTCAR              
   COPYR  = (c) Copyright 08Apr2002 Georg Kresse                                                    
   COPYR  = This file is part of the software VASP. Any use, copying, and all other rights are regul
   COPYR  = If you do not have a valid VASP license, you may not use, copy or distribute this file. 
   VRHFIN =N: s2p3                                                                                  
   LEXCH  = PE                                                                                      
   EATOM  =   264.5486 eV,   19.4438 Ry                                                             
                                                                                                    
   TITEL  = PAW_PBE N 08Apr2002                                                                     
   LULTRA =        F    use ultrasoft PP ?                                                          
   IUNSCR =        1    unscreen: 0-lin 1-nonlin 2-no                                               
   RPACOR =    1.200    partial core radius                                                         
   POMASS =   14.001; ZVAL   =    5.000    mass and valenz                                          
   RCORE  =    1.500    outmost cutoff radius                                                       
   RWIGS  =    1.400; RWIGS  =    0.741    wigner-seitz radius (au A)                               
   ENMAX  =  400.000; ENMIN  =  300.000 eV                                                          
   ICORE  =        2    local potential                                                             
   LCOR   =        T    correct aug charges                                                         
   LPAW   =        T    paw PP                                                                      
   EAUG   =  627.112                                                                                
   DEXC   =    0.000                                                                                
   RMAX   =    1.529    core radius for proj-oper                                                   
   RAUG   =    1.300    factor for augmentation sphere                                              
   RDEP   =    1.514    radius for radial grids                                                     
   RDEPT  =    1.338    core radius for aug-charge                                                  
                                                                                                    
   Atomic configuration                                                                             
    4 entries                                                                                       
     n  l   j            E        occ.                                                              
     1  0  0.50      -384.7179   2.0000                                                             
     2  0  0.50       -18.5828   2.0000                                                             
     2  1  0.50        -7.0898   3.0000                                                             
     3  2  1.50        -6.8029   0.0000                                                             
   Description                                                                                      
     l       E           TYP  RCUT    TYP  RCUT                                                     
     0    -18.5828119     23  1.200                                                                 
     0    -13.5018863     23  1.200                                                                 
     1     -7.0897853     23  1.500                                                                 
     1      9.5240782     23  1.500                                                                 
     2     -6.8029130      7  1.500                                                                 
  local pseudopotential read in
  partial core-charges read in
  partial kinetic energy density read in
  atomic valenz-charges read in
  non local Contribution for L=           0  read in
    real space projection operators read in
  non local Contribution for L=           0  read in
    real space projection operators read in
  non local Contribution for L=           1  read in
    real space projection operators read in
  non local Contribution for L=           1  read in
    real space projection operators read in
    PAW grid and wavefunctions read in
 
   number of l-projection  operators is LMAX  =           4
   number of lm-projection operators is LMMAX =           8
 
 POTCAR:    PAW_PBE O 08Apr2002                   
   SHA256 =  818f92134a0a090dccd8ba1447fa70422a3b330e708bb4f08108d8ae51209ddf O/POTCAR              
   COPYR  = (c) Copyright 08Apr2002 Georg Kresse                                                    
   COPYR  = This file is part of the software VASP. Any use, copying, and all other rights are regul
   COPYR  = If you do not have a valid VASP license, you may not use, copy or distribute this file. 
   VRHFIN =O: s2p4                                                                                  
   LEXCH  = PE                                                                                      
   EATOM  =   432.3788 eV,   31.7789 Ry                                                             
                                                                                                    
   TITEL  = PAW_PBE O 08Apr2002                                                                     
   LULTRA =        F    use ultrasoft PP ?                                                          
   IUNSCR =        1    unscreen: 0-lin 1-nonlin 2-no                                               
   RPACOR =    1.200    partial core radius                                                         
   POMASS =   16.000; ZVAL   =    6.000    mass and valenz                                          
   RCORE  =    1.520    outmost cutoff radius                                                       
   RWIGS  =    1.550; RWIGS  =    0.820    wigner-seitz radius (au A)                               
   ENMAX  =  400.000; ENMIN  =  300.000 eV                                                          
   ICORE  =        2    local potential                                                             
   LCOR   =        T    correct aug charges                                                         
   LPAW   =        T    paw PP                                                                      
   EAUG   =  605.392                                                                                
   DEXC   =    0.000                                                                                
   RMAX   =    1.553    core radius for proj-oper                                                   
   RAUG   =    1.300    factor for augmentation sphere                                              
   RDEP   =    1.550    radius for radial grids                                                     
   RDEPT  =    1.329    core radius for aug-charge                                                  
                                                                                                    
   Atomic configuration                                                                             
    4 entries                                                                                       
     n  l   j            E        occ.                                                              
     1  0  0.50      -514.6923   2.0000                                                             
     2  0  0.50       -23.9615   2.0000                                                             
     2  1  0.50        -9.0305   4.0000                                                             
     3  2  1.50        -9.5241   0.0000                                                             
   Description                                                                                      
     l       E           TYP  RCUT    TYP  RCUT                                                     
     0    -23.9615318     23  1.200                                                                 
     0     -9.5240782     23  1.200                                                                 
     1     -9.0304911     23  1.520                                                                 
     1      8.1634956     23  1.520                                                                 
     2     -9.5240782      7  1.500                                                                 
  local pseudopotential read in
  partial core-charges read in
  partial kinetic energy density read in
  kinetic energy density of atom read in
  atomic valenz-charges read in
  non local Contribution for L=           0  read in
    real space projection operators read in
  non local Contribution for L=           0  read in
    real space projection operators read in
  non local Contribution for L=           1  read in
    real space projection operators read in
  non local Contribution for L=           1  read in
    real space projection operators read in
    PAW grid and wavefunctions read in
 
   number of l-projection  operators is LMAX  =           4
   number of lm-projection operators is LMMAX =           8
 
 Optimization of the real space projectors (new method)

 maximal supplied QI-value         = 25.13
 optimisation between [QCUT,QGAM] = [ 11.56, 23.12] = [ 37.43,149.72] Ry 
 Optimized for a Real-space Cutoff    1.04 Angstroem

   l    n(q)    QCUT    max X(q) W(low)/X(q) W(high)/X(q)  e(spline) 
   0      7    11.561   115.676    0.20E-03    0.60E-03    0.21E-06
   0      7    11.561    87.132    0.20E-03    0.59E-03    0.21E-06
   1      7    11.561     4.429    0.23E-03    0.35E-03    0.15E-06
   1      7    11.561     2.733    0.18E-03    0.25E-03    0.12E-06
 Optimization of the real space projectors (new method)

 maximal supplied QI-value         = 34.20
 optimisation between [QCUT,QGAM] = [ 11.63, 23.26] = [ 37.87,151.49] Ry 
 Optimized for a Real-space Cutoff    1.14 Angstroem

   l    n(q)    QCUT    max X(q) W(low)/X(q) W(high)/X(q)  e(spline) 
   0      8    11.629    19.460    0.27E-03    0.65E-03    0.17E-06
   0      8    11.629    12.209    0.25E-03    0.62E-03    0.16E-06
   1      7    11.629     4.655    0.29E-03    0.85E-04    0.19E-06
 Optimization of the real space projectors (new method)

 maximal supplied QI-value         = 25.13
 optimisation between [QCUT,QGAM] = [ 11.56, 23.12] = [ 37.43,149.72] Ry 
 Optimized for a Real-space Cutoff    1.25 Angstroem

   l    n(q)    QCUT    max X(q) W(low)/X(q) W(high)/X(q)  e(spline) 
   0      9    11.561    79.467    0.52E-04    0.16E-03    0.37E-06
   0      9    11.561    66.151    0.51E-04    0.16E-03    0.37E-06
   1      8    11.561    18.886    0.46E-03    0.28E-03    0.80E-06
   1      8    11.561    13.488    0.47E-03    0.29E-03    0.82E-06
 Optimization of the real space projectors (new method)

 maximal supplied QI-value         = 24.76
 optimisation between [QCUT,QGAM] = [ 11.64, 23.27] = [ 37.91,151.63] Ry 
 Optimized for a Real-space Cutoff    1.04 Angstroem

   l    n(q)    QCUT    max X(q) W(low)/X(q) W(high)/X(q)  e(spline) 
   0      7    11.635    20.381    0.14E-03    0.49E-03    0.18E-06
   0      7    11.635    15.268    0.16E-03    0.52E-03    0.19E-06
   1      7    11.635     5.964    0.30E-03    0.44E-03    0.22E-06
   1      7    11.635     5.382    0.27E-03    0.34E-03    0.19E-06
  PAW_PBE C 08Apr2002                   :
 energy of atom  1       EATOM= -147.1560
 kinetic energy error for atom=    0.0071 (will be added to EATOM!!)
  PAW_PBE H 15Jun2001                   :
 energy of atom  2       EATOM=  -12.4884
 kinetic energy error for atom=    0.0014 (will be added to EATOM!!)
  PAW_PBE N 08Apr2002                   :
 energy of atom  3       EATOM= -264.5486
 kinetic energy error for atom=    0.0125 (will be added to EATOM!!)
  PAW_PBE O 08Apr2002                   :
 energy of atom  4       EATOM= -432.3788
 kinetic energy error for atom=    0.0208 (will be added to EATOM!!)
 
 
 POSCAR: C    H    N    O
  positions in direct lattice
  velocities in cartesian coordinates
 exchange correlation table for  LEXCH =        8
   RHO(1)=    0.500       N(1)  =     2000
   RHO(2)=  100.500       N(2)  =     4000

 VTST: version 4.1, (05/19/21)

 CHAIN: initializing optimizer
 
 OPT: Using FIRE optimizer
 OPT: FIRE, Init
 OPT: FIRE, MAXMOVE       0.20000
 OPT: FIRE, TIMESTEP      0.10000
 OPT: FIRE, FTIMEMAX      1.00000
 OPT: FIRE, FTIMEINC      1.10000
 OPT: FIRE, FTIMEDEC      0.50000
 OPT: FIRE, FALPHADEC     0.99000
 OPT: FIRE, FALPHA        0.10000
 OPT: FIRE, FNMIN         5
 
 CHAIN: Read ICHAIN            0
 CHAIN: Running the NEB
 NEB:          SPRING     -5.000000
 NEB:          LCLIMB      T
 NEB:     LTANGENTOLD      F
 NEB:           LDNEB      F
 NEB:        LDNEBORG      F
 NEB:        LNEBCELL      F
 NEB:          EFIRST      0.000000
 NEB:           ELAST      0.000000
 
 POSCAR: C    H    N    O
  positions in direct lattice
  No initial velocities read in
 
 POSCAR: C    H    N    O
  positions in direct lattice
  No initial velocities read in
 
 POSCAR: C    H    N    O
  positions in direct lattice
  No initial velocities read in
 
 POSCAR: C    H    N    O
  positions in direct lattice
  No initial velocities read in
 


--------------------------------------------------------------------------------------------------------


 ion  position               nearest neighbor table
   1  0.001  0.001  0.500-  51 1.43  45 1.43  84 1.43
   2  0.001  0.143  0.500-  46 1.42  78 1.42  45 1.43
   3  0.001  0.286  0.500-  79 1.42  46 1.42  47 1.42
   4  0.001  0.429  0.500-  47 1.42  80 1.42  48 1.43
   5  0.001  0.572  0.500-  49 1.43  48 1.43  81 1.43
   6  0.002  0.715  0.500-  49 1.43  50 1.43  82 1.43
   7  0.002  0.858  0.500-  51 1.43  50 1.43  83 1.43
   8  0.145  0.002  0.500-  52 1.43  58 1.43  51 1.43
   9  0.145  0.144  0.500-  52 1.43  53 1.43  45 1.43
  10  0.143  0.286  0.500-  54 1.42  53 1.42  46 1.42
  11  0.143  0.428  0.501-  54 1.42  55 1.42  47 1.42
  12  0.145  0.572  0.500-  56 1.43  55 1.43  48 1.43
  13  0.145  0.715  0.500-  56 1.43  57 1.43  49 1.43
  14  0.145  0.858  0.500-  57 1.43  58 1.43  50 1.43
  15  0.288  0.002  0.500-  58 1.42  63 1.43  59 1.44
  16  0.288  0.147  0.501-  52 1.43  59 1.43  60 1.44
  17  0.288  0.293  0.502-  91 1.35  53 1.44  60 1.48
  18  0.285  0.428  0.502-  91 1.37  92 1.37  54 1.43
  19  0.288  0.566  0.502-  92 1.35  55 1.44  61 1.48
  20  0.288  0.713  0.501-  56 1.43  62 1.43  61 1.44
  21  0.288  0.858  0.500-  57 1.43  63 1.43  62 1.44
  22  0.431  0.001  0.500-  63 1.43  67 1.43  64 1.43
  23  0.431  0.146  0.500-  59 1.43  64 1.43  65 1.44
  24  0.430  0.287  0.500-  85 1.09  60 1.40  65 1.40
  25  0.430  0.715  0.501-  88 1.09  61 1.40  66 1.40
  26  0.431  0.857  0.500-  62 1.43  67 1.43  66 1.44
  27  0.573  0.001  0.500-  67 1.42  68 1.42  70 1.43
  28  0.573  0.144  0.500-  64 1.42  68 1.42  69 1.43
  29  0.577  0.290  0.500-  93 1.35  69 1.43  65 1.46
  30  0.577  0.858  0.500-  94 1.35  70 1.43  66 1.46
  31  0.716  0.001  0.500-  70 1.42  77 1.42  71 1.42
  32  0.716  0.143  0.500-  71 1.42  72 1.42  68 1.43
  33  0.716  0.286  0.500-  69 1.42  73 1.42  72 1.42
  34  0.712  0.426  0.500-  93 1.35  73 1.43  74 1.47
  35  0.716  0.572  0.501-  87 1.09  74 1.39  75 1.42
  36  0.716  0.715  0.501-  86 1.09  76 1.39  75 1.42
  37  0.712  0.858  0.500-  94 1.35  77 1.43  76 1.47
  38  0.858  0.000  0.500-  78 1.42  84 1.43  77 1.43
  39  0.858  0.143  0.500-  71 1.42  79 1.42  78 1.43
  40  0.858  0.286  0.500-  72 1.42  79 1.42  80 1.43
  41  0.858  0.429  0.500-  80 1.42  81 1.43  73 1.43
  42  0.857  0.572  0.500-  81 1.43  82 1.43  74 1.44
  43  0.859  0.715  0.500-  82 1.42  83 1.42  75 1.43
  44  0.857  0.857  0.500-  84 1.43  83 1.43  76 1.44
  45  0.049  0.096  0.500-   2 1.43   1 1.43   9 1.43
  46  0.048  0.238  0.500-   2 1.42   3 1.42  10 1.42
  47  0.048  0.381  0.500-   4 1.42   3 1.42  11 1.42
  48  0.049  0.524  0.500-   4 1.43   5 1.43  12 1.43
  49  0.050  0.667  0.500-   6 1.43   5 1.43  13 1.43
  50  0.049  0.810  0.500-   6 1.43   7 1.43  14 1.43
  51  0.050  0.953  0.500-   7 1.43   1 1.43   8 1.43
  52  0.193  0.097  0.500-   9 1.43   8 1.43  16 1.43
  53  0.192  0.240  0.501-  10 1.42   9 1.43  17 1.44
  54  0.190  0.381  0.501-  10 1.42  11 1.42  18 1.43
  55  0.192  0.523  0.501-  11 1.42  12 1.43  19 1.44
  56  0.193  0.667  0.501-  12 1.43  13 1.43  20 1.43
  57  0.193  0.810  0.500-  21 1.43  14 1.43  13 1.43
  58  0.193  0.954  0.500-  15 1.42  14 1.43   8 1.43
  59  0.336  0.098  0.500-  23 1.43  16 1.43  15 1.44
  60  0.337  0.243  0.501-  24 1.40  16 1.44  17 1.48
  61  0.337  0.665  0.501-  25 1.40  20 1.44  19 1.48
  62  0.336  0.809  0.500-  26 1.43  20 1.43  21 1.44
  63  0.335  0.953  0.500-  22 1.43  15 1.43  21 1.43
  64  0.478  0.097  0.500-  28 1.42  22 1.43  23 1.43
  65  0.479  0.242  0.500-  24 1.40  23 1.44  29 1.46
  66  0.479  0.808  0.500-  25 1.40  26 1.44  30 1.46
  67  0.478  0.953  0.500-  27 1.42  22 1.43  26 1.43
  68  0.620  0.096  0.500-  27 1.42  28 1.42  32 1.43
  69  0.621  0.239  0.500-  33 1.42  29 1.43  28 1.43
  70  0.621  0.953  0.500-  31 1.42  30 1.43  27 1.43
  71  0.763  0.096  0.500-  39 1.42  32 1.42  31 1.42
  72  0.763  0.238  0.500-  40 1.42  32 1.42  33 1.42
  73  0.763  0.381  0.500-  33 1.42  41 1.43  34 1.43
  74  0.761  0.524  0.500-  35 1.39  42 1.44  34 1.47
  75  0.763  0.667  0.501-  36 1.42  35 1.42  43 1.43
  76  0.761  0.808  0.500-  36 1.39  44 1.44  37 1.47
  77  0.763  0.953  0.500-  31 1.42  38 1.43  37 1.43
  78  0.906  0.095  0.500-  38 1.42   2 1.42  39 1.43
  79  0.905  0.238  0.500-   3 1.42  39 1.42  40 1.42
  80  0.906  0.382  0.500-  41 1.42   4 1.42  40 1.43
  81  0.906  0.525  0.500-  42 1.43  41 1.43   5 1.43
  82  0.906  0.667  0.500-  43 1.42  42 1.43   6 1.43
  83  0.906  0.810  0.500-  43 1.42  44 1.43   7 1.43
  84  0.906  0.953  0.500-  44 1.43  38 1.43   1 1.43
  85  0.469  0.360  0.500-  24 1.09
  86  0.643  0.677  0.503-  36 1.09
  87  0.643  0.537  0.503-  35 1.09
  88  0.469  0.680  0.500-  25 1.09
  89  0.464  0.560  0.527-  95 0.98
  90  0.463  0.474  0.527-  95 0.98
  91  0.332  0.383  0.503-  17 1.35  18 1.37
  92  0.332  0.520  0.503-  19 1.35  18 1.37
  93  0.622  0.381  0.500-  34 1.35  29 1.35
  94  0.622  0.813  0.500-  37 1.35  30 1.35
  95  0.506  0.538  0.535-  89 0.98  90 0.98
 

IMPORTANT INFORMATION: All symmetrisations will be switched off!
NOSYMM: (Re-)initialisation of all symmetry stuff for point group C_1.


----------------------------------------------------------------------------------------

                                     Primitive cell                                     

  volume of cell :    3874.8846

  direct lattice vectors                    reciprocal lattice vectors
    17.271038055  0.000000000  0.000000000     0.057900399  0.033428811  0.000000000
    -8.635519028 14.957157706  0.000000000     0.000000000  0.066857622  0.000000000
     0.000000000  0.000000000 15.000000000     0.000000000  0.000000000  0.066666667

  length of vectors
    17.271038055 17.271038055 15.000000000     0.066857622  0.066857622  0.066666667

  position of ions in fractional coordinates (direct lattice)
     0.001407000  0.000635445  0.499691972
     0.000882120  0.143101061  0.499769856
     0.000530159  0.285946852  0.499799207
     0.000880929  0.429130864  0.499869533
     0.001383113  0.572100932  0.499866247
     0.001756374  0.714953313  0.499817938
     0.001794041  0.858198291  0.499768512
     0.145198526  0.001812804  0.500087255
     0.144735926  0.144493500  0.500285310
     0.142862755  0.285938491  0.500498830
     0.142838214  0.428303385  0.500514756
     0.144739295  0.571589385  0.500460120
     0.145172983  0.714721357  0.500202232
     0.145100024  0.858228886  0.499996081
     0.288077476  0.001852920  0.500251587
     0.288368761  0.146541195  0.500710740
     0.287615628  0.292658081  0.501567409
     0.285407774  0.428392905  0.502108393
     0.287651142  0.566345432  0.501654238
     0.288383013  0.713249249  0.500843122
     0.288082707  0.857631195  0.500220568
     0.430605436  0.000985668  0.500240042
     0.431256264  0.145635310  0.500357629
     0.430490335  0.287237859  0.500479665
     0.430468679  0.714601890  0.500618653
     0.431293135  0.857018335  0.500431218
     0.572917790  0.000552952  0.500075457
     0.572907181  0.143720000  0.499992046
     0.576588526  0.290228247  0.499988036
     0.576617056  0.857702219  0.500166794
     0.715808616  0.000959827  0.499823236
     0.715645716  0.143477494  0.499752347
     0.715829898  0.286182203  0.499744380
     0.711846964  0.425666827  0.500031681
     0.716123013  0.572388382  0.501249582
     0.716141734  0.715053839  0.501337016
     0.711885153  0.857522182  0.500120371
     0.858184955  0.000242441  0.499632803
     0.858175473  0.143307942  0.499586280
     0.858179628  0.286179603  0.499645172
     0.858178939  0.429262851  0.499733209
     0.857394457  0.571504492  0.499826159
     0.858790568  0.715072241  0.500054655
     0.857428182  0.857249894  0.499855898
     0.049202184  0.096089852  0.499865102
     0.047737004  0.238113617  0.499960891
     0.047746745  0.380989983  0.500004094
     0.049187232  0.524450750  0.500030453
     0.049547712  0.667439677  0.499947340
     0.049439994  0.810392848  0.499850273
     0.049589467  0.953489246  0.499796791
     0.192814959  0.097256315  0.500414858
     0.191703602  0.240004091  0.500705215
     0.189759997  0.380573197  0.500852908
     0.191722432  0.523068129  0.500789119
     0.192804425  0.666916167  0.500604069
     0.192800118  0.810341114  0.500130426
     0.192811863  0.953823316  0.500122571
     0.335886578  0.098264853  0.500438209
     0.336909169  0.243106630  0.501070695
     0.336894272  0.665191799  0.501188897
     0.335894459  0.809042622  0.500498433
     0.335221941  0.953321179  0.500222065
     0.477921729  0.096503985  0.500198938
     0.478730812  0.241604457  0.500239630
     0.478747277  0.808483293  0.500403008
     0.477941394  0.952819341  0.500240714
     0.620219695  0.095787260  0.499929517
     0.621056600  0.239294498  0.499880926
     0.621070000  0.953106174  0.500028080
     0.763318282  0.096187811  0.499703497
     0.763337609  0.238444323  0.499673405
     0.762695560  0.381021584  0.499804871
     0.760848077  0.523959257  0.500267052
     0.762922114  0.667121239  0.500902525
     0.760886350  0.808230918  0.500371448
     0.762719495  0.953013196  0.499809141
     0.905633681  0.095282159  0.499602330
     0.905496265  0.238387229  0.499609409
     0.905626821  0.381663486  0.499704107
     0.905840398  0.524628800  0.499726427
     0.905867980  0.667027378  0.499830389
     0.905905031  0.810218066  0.499851416
     0.905874863  0.952585904  0.499625826
     0.468628463  0.359945062  0.499748787
     0.643219974  0.677316897  0.502788823
     0.643193648  0.537221766  0.502714031
     0.468564117  0.679985523  0.499892501
     0.463549920  0.559961135  0.526978425
     0.462940274  0.474322368  0.526737787
     0.331696695  0.382978977  0.502789567
     0.331729500  0.520101181  0.502828979
     0.621860913  0.380561585  0.500014376
     0.621888613  0.812640516  0.500187403
     0.506031610  0.538298290  0.534888000

  ion indices of the primitive-cell ions
   primitive index   ion index
                 1           1
                 2           2
                 3           3
                 4           4
                 5           5
                 6           6
                 7           7
                 8           8
                 9           9
                10          10
                11          11
                12          12
                13          13
                14          14
                15          15
                16          16
                17          17
                18          18
                19          19
                20          20
                21          21
                22          22
                23          23
                24          24
                25          25
                26          26
                27          27
                28          28
                29          29
                30          30
                31          31
                32          32
                33          33
                34          34
                35          35
                36          36
                37          37
                38          38
                39          39
                40          40
                41          41
                42          42
                43          43
                44          44
                45          45
                46          46
                47          47
                48          48
                49          49
                50          50
                51          51
                52          52
                53          53
                54          54
                55          55
                56          56
                57          57
                58          58
                59          59
                60          60
                61          61
                62          62
                63          63
                64          64
                65          65
                66          66
                67          67
                68          68
                69          69
                70          70
                71          71
                72          72
                73          73
                74          74
                75          75
                76          76
                77          77
                78          78
                79          79
                80          80
                81          81
                82          82
                83          83
                84          84
                85          85
                86          86
                87          87
                88          88
                89          89
                90          90
                91          91
                92          92
                93          93
                94          94
                95          95

----------------------------------------------------------------------------------------

 
 
 KPOINTS: Automatic mesh                          

Automatic generation of k-mesh.
 Grid dimensions read from file:
 generate k-points for:    2    2    1

 Generating k-lattice:

  Cartesian coordinates                     Fractional coordinates (reciprocal lattice)
     0.028950200  0.016714406  0.000000000     0.500000000  0.000000000  0.000000000
     0.000000000  0.033428811  0.000000000     0.000000000  0.500000000  0.000000000
     0.000000000  0.000000000  0.066666667     0.000000000  0.000000000  1.000000000

  Length of vectors
     0.033428811  0.033428811  0.066666667

  Shift w.r.t. Gamma in fractional coordinates (k-lattice)
     0.000000000  0.000000000  0.000000000

 
 Subroutine IBZKPT returns following result:
 ===========================================
 
 Found      4 irreducible k-points:
 
 Following reciprocal coordinates:
            Coordinates               Weight
  0.000000  0.000000  0.000000      1.000000
  0.500000  0.000000  0.000000      1.000000
  0.000000  0.500000  0.000000      1.000000
  0.500000  0.500000  0.000000      1.000000
 
 Following cartesian coordinates:
            Coordinates               Weight
  0.000000  0.000000  0.000000      1.000000
  0.028950  0.016714  0.000000      1.000000
  0.000000  0.033429  0.000000      1.000000
  0.028950  0.050143  0.000000      1.000000
 


--------------------------------------------------------------------------------------------------------




 Dimension of arrays:
   k-points           NKPTS =      4   k-points in BZ     NKDIM =      4   number of bands    NBANDS=    265
   number of dos      NEDOS =    301   number of ions     NIONS =     95
   non local maximal  LDIM  =      4   non local SUM 2l+1 LMDIM =      8
   total plane-waves  NPLWV = 774144
   max r-space proj   IRMAX =   1673   max aug-charges    IRDMAX=  20933
   dimension x,y,z NGX =    96 NGY =   96 NGZ =   84
   dimension x,y,z NGXF=   192 NGYF=  192 NGZF=  168
   support grid    NGXF=   384 NGYF=  384 NGZF=  336
   ions per type =              84   6   4   1
   NGX,Y,Z   is equivalent  to a cutoff of   9.24,  9.24,  9.31 a.u.
   NGXF,Y,Z  is equivalent  to a cutoff of  18.48, 18.48, 18.62 a.u.

 SYSTEM =  unknown system                          
 POSCAR =  C    H    N    O                        

 Startparameter for this run:
   NWRITE =      2    write-flag & timer
   PREC   = normal    normal or accurate (medium, high low for compatibility)
   ISTART =      0    job   : 0-new  1-cont  2-samecut
   ICHARG =      2    charge: 1-file 2-atom 10-const
   ISPIN  =      2    spin polarized calculation?
   LNONCOLLINEAR =      F non collinear calculations
   LSORBIT =      F    spin-orbit coupling
   INIWAV =      1    electr: 0-lowe 1-rand  2-diag
   LASPH  =      T    aspherical Exc in radial PAW
 Electronic Relaxation 1
   ENCUT  =  520.0 eV  38.22 Ry    6.18 a.u.  32.11 32.11 27.89*2*pi/ulx,y,z
   ENINI  =  520.0     initial cutoff
   ENAUG  =  644.9 eV  augmentation charge cutoff
   NELM   =    200;   NELMIN=  2; NELMDL= -5     # of ELM steps 
   EDIFF  = 0.1E-05   stopping-criterion for ELM
   LREAL  =      T    real-space projection
   NLSPLINE    = F    spline interpolate recip. space projectors
   LCOMPAT=      F    compatible to vasp.4.4
   GGA_COMPAT  = T    GGA compatible to vasp.4.4-vasp.4.6
   LMAXPAW     = -100 max onsite density
   LMAXMIX     =    2 max onsite mixed and CHGCAR
   VOSKOWN=      0    Vosko Wilk Nusair interpolation
   ROPT   =   -0.00050  -0.00050  -0.00050  -0.00050
 Ionic relaxation
   EDIFFG = -.3E-01   stopping-criterion for IOM
   NSW    =   1000    number of steps for IOM
   NBLOCK =      1;   KBLOCK =   1000    inner block; outer block 
   IBRION =      3    ionic relax: 0-MD 1-quasi-New 2-CG
   NFREE  =      0    steps in history (QN), initial steepest desc. (CG)
   ISIF   =      2    stress and relaxation
   IWAVPR =     11    prediction:  0-non 1-charg 2-wave 3-comb
   ISYM   =      0    0-nonsym 1-usesym 2-fastsym
   LCORR  =      T    Harris-Foulkes like correction to forces

   POTIM  = 0.5000    time-step for ionic-motion
   TEIN   =    0.0    initial temperature
   TEBEG  =    0.0;   TEEND  =   0.0 temperature during run
   SMASS  =  -3.00    Nose mass-parameter (am)
   estimated Nose-frequenzy (Omega)   =  0.10E-29 period in steps = 0.13E+47 mass=  -0.682E-26a.u.
   SCALEE = 1.0000    scale energy and forces
   NPACO  =    256;   APACO  = 10.0  distance and # of slots for P.C.
   PSTRESS=    0.0 pullay stress

  Mass of Ions in am
   POMASS =  12.01  1.00 14.00 16.00
  Ionic Valenz
   ZVAL   =   4.00  1.00  5.00  6.00
  Atomic Wigner-Seitz radii
   RWIGS  =  -1.00 -1.00 -1.00 -1.00
  virtual crystal weights 
   VCA    =   1.00  1.00  1.00  1.00
   NELECT =     368.0000    total number of electrons
   NUPDOWN=      -1.0000    fix difference up-down

 DOS related values:
   EMIN   =  10.00;   EMAX   =-10.00  energy-range for DOS
   EFERMI =   0.00;   METHOD = LEGACY      
   ISMEAR =     0;   SIGMA  =   0.05  broadening in eV -4-tet -1-fermi 0-gaus

 Electronic relaxation 2 (details)
   IALGO  =     38    algorithm
   LDIAG  =      T    sub-space diagonalisation (order eigenvalues)
   LSUBROT=      F    optimize rotation matrix (better conditioning)
   TURBO    =      0    0=normal 1=particle mesh
   IRESTART =      0    0=no restart 2=restart with 2 vectors
   NREBOOT  =      0    no. of reboots
   NMIN     =      0    reboot dimension
   EREF     =   0.00    reference energy to select bands
   IMIX   =      4    mixing-type and parameters
     AMIX     =   0.20;   BMIX     =  0.00
     AMIX_MAG =   0.80;   BMIX_MAG =  0.00
     AMIN     =   0.10
     WC   =   100.;   INIMIX=   1;  MIXPRE=   1;  MAXMIX= -45

 Intra band minimization:
   WEIMIN = 0.0010     energy-eigenvalue tresh-hold
   EBREAK =  0.94E-09  absolut break condition
   DEPER  =   0.30     relativ break condition  

   TIME   =   0.40     timestep for ELM

  volume/ion in A,a.u.               =      40.79       275.25
  Fermi-wavevector in a.u.,A,eV,Ry     =   0.746915  1.411465  7.590446  0.557882
  Thomas-Fermi vector in A             =   1.842848
 
 Write flags
   LWAVE        =      F    write WAVECAR
   LDOWNSAMPLE  =      F    k-point downsampling of WAVECAR
   LCHARG       =      F    write CHGCAR
   LVTOT        =      F    write LOCPOT, total local potential
   LVHAR        =      F    write LOCPOT, Hartree potential only
   LELF         =      F    write electronic localiz. function (ELF)
   LORBIT       =      0    0 simple, 1 ext, 2 COOP (PROOUT), +10 PAW based schemes


 Dipole corrections
   LMONO  =      F    monopole corrections only (constant potential shift)
   LDIPOL =      F    correct potential (dipole corrections)
   IDIPOL =      0    1-x, 2-y, 3-z, 4-all directions 
   EPSILON=  1.0000000 bulk dielectric constant

 Exchange correlation treatment:
   GGA     =    --    GGA type
   LEXCH   =     8    internal setting for exchange type
   LIBXC   =     F    Libxc                    
   VOSKOWN =     0    Vosko Wilk Nusair interpolation
   LHFCALC =     F    Hartree Fock is set to
   LHFONE  =     F    Hartree Fock one center treatment
   AEXX    =    0.0000 exact exchange contribution

 Linear response parameters
   LEPSILON=     F    determine dielectric tensor
   LRPA    =     F    only Hartree local field effects (RPA)
   LNABLA  =     F    use nabla operator in PAW spheres
   LVEL    =     F    velocity operator in full k-point grid
   CSHIFT  =0.1000    complex shift for real part using Kramers Kronig
   OMEGAMAX=  -1.0    maximum frequency
   DEG_THRESHOLD= 0.2000000E-02 threshold for treating states as degnerate
   RTIME   =   -0.100 relaxation time in fs
  (WPLASMAI=    0.000 imaginary part of plasma frequency in eV, 0.658/RTIME)
   DFIELD  = 0.0000000 0.0000000 0.0000000 field for delta impulse in time
 
  Optional k-point grid parameters
   LKPOINTS_OPT  =     F    use optional k-point grid
   KPOINTS_OPT_MODE=     1    mode for optional k-point grid
 
 Orbital magnetization related:
   ORBITALMAG=     F  switch on orbital magnetization
   LCHIMAG   =     F  perturbation theory with respect to B field
   DQ        =  0.001000  dq finite difference perturbation B field
   LLRAUG    =     F  two centre corrections for induced B field
   LBONE     =     F  B-component reconstruction in AE one-centre
   LVGVCALC  =     T  calculate vGv susceptibility
   LVGVAPPL  =     F  apply vGv susceptibility instead of pGv for G=0

 Random number generation:
   RANDOM_GENERATOR = DEFAULT
   PCG_SEED         = not used


--------------------------------------------------------------------------------------------------------


 quickmin algorithm: (dynamic with friction)
   using selective dynamics as specified on POSCAR
 charge density and potential will be updated during run
 spin polarized calculation
 Variant of blocked Davidson
 Davidson routine will perform the subspace rotation
 perform sub-space diagonalisation
    after iterative eigenvector-optimisation
 modified Broyden-mixing scheme, WC =      100.0
 initial mixing is a Kerker type mixing with AMIX =  0.2000 and BMIX =      0.0001
 Hartree-type preconditioning will be used
 using additional bands           81
 real space projection scheme for non local part
 use partial core corrections
 calculate Harris-corrections to forces 
   (improved forces if not selfconsistent)
 use gradient corrections 
 use of overlap-Matrix (Vanderbilt PP)
 Gauss-broadening in eV      SIGMA  =   0.05


--------------------------------------------------------------------------------------------------------


  energy-cutoff  :      520.00
  volume of cell :     3874.88
      direct lattice vectors                 reciprocal lattice vectors
    17.271038055  0.000000000  0.000000000     0.057900399  0.033428811  0.000000000
    -8.635519028 14.957157706  0.000000000     0.000000000  0.066857622  0.000000000
     0.000000000  0.000000000 15.000000000     0.000000000  0.000000000  0.066666667

  length of vectors
    17.271038055 17.271038055 15.000000000     0.066857622  0.066857622  0.066666667


 
 k-points in units of 2pi/SCALE and weight: Automatic mesh                          
   0.00000000  0.00000000  0.00000000       0.250
   0.02895020  0.01671441  0.00000000       0.250
   0.00000000  0.03342881  0.00000000       0.250
   0.02895020  0.05014322  0.00000000       0.250
 
 k-points in reciprocal lattice and weights: Automatic mesh                          
   0.00000000  0.00000000  0.00000000       0.250
   0.50000000  0.00000000  0.00000000       0.250
   0.00000000  0.50000000  0.00000000       0.250
   0.50000000  0.50000000  0.00000000       0.250
 
 position of ions in fractional coordinates (direct lattice) 
   0.00140700  0.00063544  0.49969197
   0.00088212  0.14310106  0.49976986
   0.00053016  0.28594685  0.49979921
   0.00088093  0.42913086  0.49986953
   0.00138311  0.57210093  0.49986625
   0.00175637  0.71495331  0.49981794
   0.00179404  0.85819829  0.49976851
   0.14519853  0.00181280  0.50008726
   0.14473593  0.14449350  0.50028531
   0.14286275  0.28593849  0.50049883
   0.14283821  0.42830338  0.50051476
   0.14473929  0.57158938  0.50046012
   0.14517298  0.71472136  0.50020223
   0.14510002  0.85822889  0.49999608
   0.28807748  0.00185292  0.50025159
   0.28836876  0.14654119  0.50071074
   0.28761563  0.29265808  0.50156741
   0.28540777  0.42839291  0.50210839
   0.28765114  0.56634543  0.50165424
   0.28838301  0.71324925  0.50084312
   0.28808271  0.85763119  0.50022057
   0.43060544  0.00098567  0.50024004
   0.43125626  0.14563531  0.50035763
   0.43049034  0.28723786  0.50047967
   0.43046868  0.71460189  0.50061865
   0.43129313  0.85701834  0.50043122
   0.57291779  0.00055295  0.50007546
   0.57290718  0.14372000  0.49999205
   0.57658853  0.29022825  0.49998804
   0.57661706  0.85770222  0.50016679
   0.71580862  0.00095983  0.49982324
   0.71564572  0.14347749  0.49975235
   0.71582990  0.28618220  0.49974438
   0.71184696  0.42566683  0.50003168
   0.71612301  0.57238838  0.50124958
   0.71614173  0.71505384  0.50133702
   0.71188515  0.85752218  0.50012037
   0.85818496  0.00024244  0.49963280
   0.85817547  0.14330794  0.49958628
   0.85817963  0.28617960  0.49964517
   0.85817894  0.42926285  0.49973321
   0.85739446  0.57150449  0.49982616
   0.85879057  0.71507224  0.50005466
   0.85742818  0.85724989  0.49985590
   0.04920218  0.09608985  0.49986510
   0.04773700  0.23811362  0.49996089
   0.04774674  0.38098998  0.50000409
   0.04918723  0.52445075  0.50003045
   0.04954771  0.66743968  0.49994734
   0.04943999  0.81039285  0.49985027
   0.04958947  0.95348925  0.49979679
   0.19281496  0.09725631  0.50041486
   0.19170360  0.24000409  0.50070521
   0.18976000  0.38057320  0.50085291
   0.19172243  0.52306813  0.50078912
   0.19280442  0.66691617  0.50060407
   0.19280012  0.81034111  0.50013043
   0.19281186  0.95382332  0.50012257
   0.33588658  0.09826485  0.50043821
   0.33690917  0.24310663  0.50107069
   0.33689427  0.66519180  0.50118890
   0.33589446  0.80904262  0.50049843
   0.33522194  0.95332118  0.50022207
   0.47792173  0.09650399  0.50019894
   0.47873081  0.24160446  0.50023963
   0.47874728  0.80848329  0.50040301
   0.47794139  0.95281934  0.50024071
   0.62021969  0.09578726  0.49992952
   0.62105660  0.23929450  0.49988093
   0.62107000  0.95310617  0.50002808
   0.76331828  0.09618781  0.49970350
   0.76333761  0.23844432  0.49967340
   0.76269556  0.38102158  0.49980487
   0.76084808  0.52395926  0.50026705
   0.76292211  0.66712124  0.50090253
   0.76088635  0.80823092  0.50037145
   0.76271950  0.95301320  0.49980914
   0.90563368  0.09528216  0.49960233
   0.90549627  0.23838723  0.49960941
   0.90562682  0.38166349  0.49970411
   0.90584040  0.52462880  0.49972643
   0.90586798  0.66702738  0.49983039
   0.90590503  0.81021807  0.49985142
   0.90587486  0.95258590  0.49962583
   0.46862846  0.35994506  0.49974879
   0.64321997  0.67731690  0.50278882
   0.64319365  0.53722177  0.50271403
   0.46856412  0.67998552  0.49989250
   0.46354992  0.55996114  0.52697842
   0.46294027  0.47432237  0.52673779
   0.33169669  0.38297898  0.50278957
   0.33172950  0.52010118  0.50282898
   0.62186091  0.38056159  0.50001438
   0.62188861  0.81264052  0.50018740
   0.50603161  0.53829829  0.53488800
 
 position of ions in cartesian coordinates  (Angst):
   0.01881295  0.00950444  7.49537958
  -1.22051681  2.14038514  7.49654784
  -2.46014308  4.27695216  7.49698811
  -3.69055318  6.41857800  7.49804299
  -4.91650068  8.55700386  7.49799371
  -6.14365853 10.69366945  7.49726908
  -7.38000273 12.83620718  7.49652768
   2.49207476  0.02711440  7.50130883
   1.25196333  2.16121206  7.50427965
  -0.00183920  4.27682710  7.50748246
  -1.23165781  6.40620127  7.50772134
  -2.43617314  8.54935257  7.50690180
  -3.66470177 10.69020006  7.50303348
  -4.90522384 12.83666480  7.49994122
   4.95939613  0.02771441  7.50377381
   3.71496857  2.19183976  7.51066109
   2.44016603  4.37733307  7.52351114
   1.22989345  6.40754025  7.53162590
   0.07734707  8.47091794  7.52481356
  -1.17860347 10.66818150  7.51264684
  -2.43060311 12.82772503  7.50330852
   7.42849113  0.01474279  7.50360063
   6.19060685  2.17829030  7.50536443
   4.95456696  4.29626196  7.50719498
   1.26368272 10.68841316  7.50927979
   0.04808200 12.81855840  7.50646827
   9.89010992  0.00827060  7.50113185
   8.65360493  2.14964270  7.49988070
   7.45201083  4.34098967  7.49982053
   2.55207129 12.82878735  7.50250191
  12.35446925  0.01435628  7.49734854
  11.12094176  2.14601551  7.49628520
   9.89179355  4.28047235  7.49616570
   8.61848202  6.36676586  7.50047521
   7.42531704  8.56130329  7.51874373
   6.19365011 10.69517304  7.52005524
   4.88984645 12.82609451  7.50180556
  14.81965142  0.00362622  7.49449204
  13.58404280  2.14347949  7.49379420
  12.35034361  4.28043346  7.49467758
  11.11473360  6.42055216  7.49599813
   9.87285439  8.54808282  7.49739238
   8.65718465 10.69544828  7.50081983
   7.40587698 12.82202186  7.49783847
   0.01998705  1.43723106  7.49797653
  -1.23176705  3.56150292  7.49941336
  -2.46541041  5.69852727  7.50006141
  -3.67938987  7.84429258  7.50045680
  -4.90794761  9.98300051  7.49921011
  -6.14428285 12.12117364  7.49775409
  -7.37741295 14.26148903  7.49695186
   2.49025574  1.45467803  7.50622288
   1.23836032  3.58977903  7.51057822
  -0.00909495  5.69229332  7.51279363
  -1.20571937  7.82361250  7.51183679
  -2.42923469  9.97517029  7.50906104
  -3.66785793 12.12039983  7.50195638
  -4.90669837 14.26648576  7.50183856
   4.95254186  1.46976290  7.50657314
   3.71941915  3.63618420  7.51606042
   0.07423736  9.94937864  7.51783346
  -1.18525698 12.10097809  7.50747650
  -2.44279228 14.25897521  7.50333098
   7.42084237  1.44342533  7.50298407
   6.18179819  3.61371597  7.50359445
   1.28678958 12.09261212  7.50604512
   0.02645446 14.25146914  7.50361071
   9.88466525  1.43270515  7.49894275
   8.65985998  3.57916555  7.49821389
   2.49595710 14.25575935  7.50042120
  12.35266741  1.43869627  7.49555245
  11.12454241  3.56644934  7.49510107
   9.88222490  5.69899992  7.49707306
   8.61597596  7.83694124  7.50400577
   7.41551870  9.97823758  7.51353788
   6.16180363 12.08883731  7.50557171
   4.94319384 14.25436867  7.49713712
  14.81842287  1.42515028  7.49403494
  13.58026300  3.56559538  7.49414113
  12.34525300  5.70860095  7.49556161
  11.11436201  7.84695569  7.49589640
   9.88515274  9.97683369  7.49745583
   8.64926674 12.11855938  7.49777123
   7.41932554 14.24797760  7.49438739
   4.98538759  5.38375505  7.49623181
   5.26009369 10.13073565  7.54183234
   6.46943318  8.03531068  7.54071047
   2.22056077 10.17065071  7.49838751
   3.17043327  8.37542701  7.90467637
   3.89943925  7.09451447  7.90106681
   2.42152399  5.72827696  7.54184351
   1.23796917  7.77923538  7.54243469
   7.45383668  5.69211964  7.50021564
   3.72308926 12.15479235  7.50281105
   4.09120606  8.05141242  8.02332000
 


--------------------------------------------------------------------------------------------------------


 k-point   1 :   0.0000 0.0000 0.0000  plane waves:  104449
 k-point   2 :   0.5000 0.0000 0.0000  plane waves:  104264
 k-point   3 :   0.0000 0.5000 0.0000  plane waves:  104264
 k-point   4 :   0.5000 0.5000 0.0000  plane waves:  104264

 maximum and minimum number of plane-waves per node :    104449   104264

 maximum number of plane-waves:    104449
 maximum index in each direction: 
   IXMAX=   32   IYMAX=   32   IZMAX=   27
   IXMIN=  -32   IYMIN=  -32   IZMIN=  -27


 serial   3D FFT for wavefunctions
 parallel 3D FFT for charge:
    minimum data exchange during FFTs selected (reduces bandwidth)


 total amount of memory used by VASP MPI-rank0  1122564. kBytes
=======================================================================

   base      :      30000. kBytes
   nonlr-proj:       8937. kBytes
   fftplans  :     185212. kBytes
   grid      :     184190. kBytes
   one-center:        583. kBytes
   wavefun   :     713642. kBytes
 
     INWAV:  cpu time      0.0001: real time      0.0001
 Broyden mixing: mesh for mixing (old mesh)
   NGX = 65   NGY = 65   NGZ = 55
  (NGX  =192   NGY  =192   NGZ  =168)
  gives a total of 232375 points

 initial charge density was supplied:
 charge density of overlapping atoms calculated
 number of electron     368.0000000 magnetization      57.0000000
 keeping initial charge density in first step


--------------------------------------------------------------------------------------------------------


 Maximum index for non-local projection operator         1580
 Maximum index for augmentation-charges         4018 (set IRDMAX)


--------------------------------------------------------------------------------------------------------


 First call to EWALD:  gamma=   0.113
 Maximum number of real-space cells 3x 3x 3
 Maximum number of reciprocal cells 3x 3x 3

    FEWALD:  cpu time      0.0089: real time      0.0089


--------------------------------------- Ionic step        1  -------------------------------------------




--------------------------------------- Iteration      1(   1)  ---------------------------------------


    POTLOK:  cpu time      2.8174: real time      2.8691
    SETDIJ:  cpu time      3.3711: real time      3.3882
     EDDAV:  cpu time     91.8869: real time     92.5065
       DOS:  cpu time      0.0016: real time      0.0272
    --------------------------------------------
      LOOP:  cpu time     98.0771: real time     98.7911

 eigenvalue-minimisations  :  4590
 total energy-change (2. order) : 0.3278386E+04  (-0.1375871E+05)
 number of electron     368.0000000 magnetization      57.0000000
 augmentation part      368.0000000 magnetization      57.0000000

 Free energy of the ion-electron system (eV)
  ---------------------------------------------------
  alpha Z        PSCENC =       175.60570339
  Ewald energy   TEWEN  =     36594.51067967
  -Hartree energ DENC   =    -47004.79397718
  -exchange      EXHF   =         0.00000000
  -V(xc)+E(xc)   XCENC  =      1231.30652341
  PAW double counting   =     10290.17603344   -10344.35078173
  entropy T*S    EENTRO =        -0.04657715
  eigenvalues    EBANDS =     -1589.95291966
  atomic energy  EATOM  =     13925.93113153
  Solvation  Ediel_sol  =         0.00000000
  ---------------------------------------------------
  free energy    TOTEN  =      3278.38581571 eV

  energy without entropy =     3278.43239287  energy(sigma->0) =     3278.40910429


--------------------------------------------------------------------------------------------------------




--------------------------------------- Iteration      1(   2)  ---------------------------------------


     EDDAV:  cpu time    120.0022: real time    120.8965
       DOS:  cpu time      0.0009: real time      0.0145
    --------------------------------------------
      LOOP:  cpu time    120.0030: real time    120.9109

 eigenvalue-minimisations  :  6410
 total energy-change (2. order) :-0.3512973E+04  (-0.3307262E+04)
 number of electron     368.0000000 magnetization      57.0000000
 augmentation part      368.0000000 magnetization      57.0000000

 Free energy of the ion-electron system (eV)
  ---------------------------------------------------
  alpha Z        PSCENC =       175.60570339
  Ewald energy   TEWEN  =     36594.51067967
  -Hartree energ DENC   =    -47004.79397718
  -exchange      EXHF   =         0.00000000
  -V(xc)+E(xc)   XCENC  =      1231.30652341
  PAW double counting   =     10290.17603344   -10344.35078173
  entropy T*S    EENTRO =        -0.00000542
  eigenvalues    EBANDS =     -5102.97260763
  atomic energy  EATOM  =     13925.93113153
  Solvation  Ediel_sol  =         0.00000000
  ---------------------------------------------------
  free energy    TOTEN  =      -234.58730053 eV

  energy without entropy =     -234.58729511  energy(sigma->0) =     -234.58729782


--------------------------------------------------------------------------------------------------------




--------------------------------------- Iteration      1(   3)  ---------------------------------------


     EDDAV:  cpu time    104.6450: real time    105.3835
       DOS:  cpu time      0.0011: real time      0.0380
    --------------------------------------------
      LOOP:  cpu time    104.6461: real time    105.4215

 eigenvalue-minimisations  :  5380
 total energy-change (2. order) :-0.6187124E+03  (-0.6158640E+03)
 number of electron     368.0000000 magnetization      57.0000000
 augmentation part      368.0000000 magnetization      57.0000000

 Free energy of the ion-electron system (eV)
  ---------------------------------------------------
  alpha Z        PSCENC =       175.60570339
  Ewald energy   TEWEN  =     36594.51067967
  -Hartree energ DENC   =    -47004.79397718
  -exchange      EXHF   =         0.00000000
  -V(xc)+E(xc)   XCENC  =      1231.30652341
  PAW double counting   =     10290.17603344   -10344.35078173
  entropy T*S    EENTRO =        -0.00001649
  eigenvalues    EBANDS =     -5721.68496925
  atomic energy  EATOM  =     13925.93113153
  Solvation  Ediel_sol  =         0.00000000
  ---------------------------------------------------
  free energy    TOTEN  =      -853.29967321 eV

  energy without entropy =     -853.29965672  energy(sigma->0) =     -853.29966497


--------------------------------------------------------------------------------------------------------




--------------------------------------- Iteration      1(   4)  ---------------------------------------


     EDDAV:  cpu time    103.8674: real time    104.6966
       DOS:  cpu time      0.0011: real time      0.0187
    --------------------------------------------
      LOOP:  cpu time    103.8685: real time    104.7153

 eigenvalue-minimisations  :  5360
 total energy-change (2. order) :-0.2195528E+02  (-0.2187123E+02)
 number of electron     368.0000000 magnetization      57.0000000
 augmentation part      368.0000000 magnetization      57.0000000

 Free energy of the ion-electron system (eV)
  ---------------------------------------------------
  alpha Z        PSCENC =       175.60570339
  Ewald energy   TEWEN  =     36594.51067967
  -Hartree energ DENC   =    -47004.79397718
  -exchange      EXHF   =         0.00000000
  -V(xc)+E(xc)   XCENC  =      1231.30652341
  PAW double counting   =     10290.17603344   -10344.35078173
  entropy T*S    EENTRO =        -0.00006865
  eigenvalues    EBANDS =     -5743.64019719
  atomic energy  EATOM  =     13925.93113153
  Solvation  Ediel_sol  =         0.00000000
  ---------------------------------------------------
  free energy    TOTEN  =      -875.25495331 eV

  energy without entropy =     -875.25488466  energy(sigma->0) =     -875.25491899


--------------------------------------------------------------------------------------------------------




--------------------------------------- Iteration      1(   5)  ---------------------------------------


     EDDAV:  cpu time    114.1900: real time    115.0594
       DOS:  cpu time      0.0011: real time      0.0310
    CHARGE:  cpu time      5.9168: real time      5.9565
    MIXING:  cpu time      0.0760: real time      0.0765
    --------------------------------------------
      LOOP:  cpu time    120.1839: real time    121.1235

 eigenvalue-minimisations  :  6020
 total energy-change (2. order) :-0.6468509E+00  (-0.6460065E+00)
 number of electron     367.9999997 magnetization      12.2005083
 augmentation part       10.7781307 magnetization      11.2815330

 Broyden mixing:
  rms(total) = 0.51336E+01    rms(broyden)= 0.51330E+01
  rms(prec ) = 0.55808E+01
  weight for this iteration     100.00

 Free energy of the ion-electron system (eV)
  ---------------------------------------------------
  alpha Z        PSCENC =       175.60570339
  Ewald energy   TEWEN  =     36594.51067967
  -Hartree energ DENC   =    -47004.79397718
  -exchange      EXHF   =         0.00000000
  -V(xc)+E(xc)   XCENC  =      1231.30652341
  PAW double counting   =     10290.17603344   -10344.35078173
  entropy T*S    EENTRO =        -0.00007511
  eigenvalues    EBANDS =     -5744.28704159
  atomic energy  EATOM  =     13925.93113153
  Solvation  Ediel_sol  =         0.00000000
  ---------------------------------------------------
  free energy    TOTEN  =      -875.90180417 eV

  energy without entropy =     -875.90172906  energy(sigma->0) =     -875.90176662


--------------------------------------------------------------------------------------------------------




--------------------------------------- Iteration      1(   6)  ---------------------------------------


    POTLOK:  cpu time      3.0861: real time      3.1309
    SETDIJ:  cpu time      3.6386: real time      3.6569
     EDDAV:  cpu time    100.4589: real time    101.1492
       DOS:  cpu time      0.0007: real time      0.0134
    CHARGE:  cpu time      5.7246: real time      5.7577
    MIXING:  cpu time      0.0846: real time      0.0852
    --------------------------------------------
      LOOP:  cpu time    112.9935: real time    113.7934

 eigenvalue-minimisations  :  5150
 total energy-change (2. order) : 0.1635259E+02  (-0.2109657E+01)
 number of electron     367.9999998 magnetization      -5.7413731
 augmentation part       10.3954772 magnetization      -5.7320090

 Broyden mixing:
  rms(total) = 0.33407E+01    rms(broyden)= 0.33407E+01
  rms(prec ) = 0.36709E+01
  weight for this iteration     100.00

 eigenvalues of (default mixing * dielectric matrix)
  average eigenvalue GAMMA=   1.4251
  1.4251

 Free energy of the ion-electron system (eV)
  ---------------------------------------------------
  alpha Z        PSCENC =       175.60570339
  Ewald energy   TEWEN  =     36594.51067967
  -Hartree energ DENC   =    -47450.33826405
  -exchange      EXHF   =         0.00000000
  -V(xc)+E(xc)   XCENC  =      1241.40172634
  PAW double counting   =     13979.59047998   -14037.56117255
  entropy T*S    EENTRO =        -0.00000218
  eigenvalues    EBANDS =     -5288.68949346
  atomic energy  EATOM  =     13925.93113153
  Solvation  Ediel_sol  =         0.00000000
  ---------------------------------------------------
  free energy    TOTEN  =      -859.54921133 eV

  energy without entropy =     -859.54920915  energy(sigma->0) =     -859.54921024


--------------------------------------------------------------------------------------------------------




--------------------------------------- Iteration      1(   7)  ---------------------------------------


    POTLOK:  cpu time      3.1207: real time      3.1741
    SETDIJ:  cpu time      3.5778: real time      3.5991
     EDDAV:  cpu time     98.7082: real time     99.3784
       DOS:  cpu time      0.0006: real time      0.0147
    CHARGE:  cpu time      5.8693: real time      5.9072
    MIXING:  cpu time      0.0913: real time      0.0918
    --------------------------------------------
      LOOP:  cpu time    111.3679: real time    112.1653

 eigenvalue-minimisations  :  5000
 total energy-change (2. order) : 0.2107620E+02  (-0.3152174E+01)
 number of electron     367.9999998 magnetization       1.2671139
 augmentation part        9.9328263 magnetization       1.2686082

 Broyden mixing:
  rms(total) = 0.20231E+01    rms(broyden)= 0.20230E+01
  rms(prec ) = 0.21428E+01
  weight for this iteration     100.00

 eigenvalues of (default mixing * dielectric matrix)
  average eigenvalue GAMMA=   2.4602
  1.2989  3.6215

 Free energy of the ion-electron system (eV)
  ---------------------------------------------------
  alpha Z        PSCENC =       175.60570339
  Ewald energy   TEWEN  =     36594.51067967
  -Hartree energ DENC   =    -48034.78192156
  -exchange      EXHF   =         0.00000000
  -V(xc)+E(xc)   XCENC  =      1262.35273170
  PAW double counting   =     20733.63905183   -20795.94757901
  entropy T*S    EENTRO =        -0.00000002
  eigenvalues    EBANDS =     -4699.78281173
  atomic energy  EATOM  =     13925.93113153
  Solvation  Ediel_sol  =         0.00000000
  ---------------------------------------------------
  free energy    TOTEN  =      -838.47301420 eV

  energy without entropy =     -838.47301417  energy(sigma->0) =     -838.47301418


--------------------------------------------------------------------------------------------------------




--------------------------------------- Iteration      1(   8)  ---------------------------------------


    POTLOK:  cpu time      3.0936: real time      3.1340
    SETDIJ:  cpu time      3.6374: real time      3.6524
     EDDAV:  cpu time     99.8771: real time    100.5471
       DOS:  cpu time      0.0006: real time      0.0149
    CHARGE:  cpu time      5.6460: real time      5.6864
    MIXING:  cpu time      0.0743: real time      0.0748
    --------------------------------------------
      LOOP:  cpu time    112.3290: real time    113.1095

 eigenvalue-minimisations  :  5070
 total energy-change (2. order) : 0.4724936E+01  (-0.2214914E+01)
 number of electron     367.9999998 magnetization      -0.3168402
 augmentation part        9.5866349 magnetization      -0.3179403

 Broyden mixing:
  rms(total) = 0.81873E+00    rms(broyden)= 0.81862E+00
  rms(prec ) = 0.83909E+00
  weight for this iteration     100.00

 eigenvalues of (default mixing * dielectric matrix)
  average eigenvalue GAMMA=   2.4008
  4.3551  1.3532  1.4942

 Free energy of the ion-electron system (eV)
  ---------------------------------------------------
  alpha Z        PSCENC =       175.60570339
  Ewald energy   TEWEN  =     36594.51067967
  -Hartree energ DENC   =    -48551.10542970
  -exchange      EXHF   =         0.00000000
  -V(xc)+E(xc)   XCENC  =      1282.09584755
  PAW double counting   =     30917.63605841   -30983.53522059
  entropy T*S    EENTRO =        -0.00000000
  eigenvalues    EBANDS =     -4194.88684808
  atomic energy  EATOM  =     13925.93113153
  Solvation  Ediel_sol  =         0.00000000
  ---------------------------------------------------
  free energy    TOTEN  =      -833.74807782 eV

  energy without entropy =     -833.74807782  energy(sigma->0) =     -833.74807782


--------------------------------------------------------------------------------------------------------




--------------------------------------- Iteration      1(   9)  ---------------------------------------


    POTLOK:  cpu time      2.9170: real time      2.9579
    SETDIJ:  cpu time      3.6500: real time      3.6728
     EDDAV:  cpu time     99.7683: real time    100.4596
       DOS:  cpu time      0.0007: real time      0.0144
    CHARGE:  cpu time      5.8438: real time      5.8760
    MIXING:  cpu time      0.0582: real time      0.0585
    --------------------------------------------
      LOOP:  cpu time    112.2380: real time    113.0393

 eigenvalue-minimisations  :  5080
 total energy-change (2. order) :-0.1360724E-01  (-0.9336122E-01)
 number of electron     367.9999998 magnetization      -0.0144327
 augmentation part        9.5737057 magnetization      -0.0142250

 Broyden mixing:
  rms(total) = 0.38859E+00    rms(broyden)= 0.38857E+00
  rms(prec ) = 0.40820E+00
  weight for this iteration     100.00

 eigenvalues of (default mixing * dielectric matrix)
  average eigenvalue GAMMA=   2.4030
  4.6998  1.0867  1.2295  2.5962

 Free energy of the ion-electron system (eV)
  ---------------------------------------------------
  alpha Z        PSCENC =       175.60570339
  Ewald energy   TEWEN  =     36594.51067967
  -Hartree energ DENC   =    -48552.83262540
  -exchange      EXHF   =         0.00000000
  -V(xc)+E(xc)   XCENC  =      1282.83065985
  PAW double counting   =     34688.85359557   -34754.70121616
  entropy T*S    EENTRO =        -0.00000000
  eigenvalues    EBANDS =     -4193.95961351
  atomic energy  EATOM  =     13925.93113153
  Solvation  Ediel_sol  =         0.00000000
  ---------------------------------------------------
  free energy    TOTEN  =      -833.76168506 eV

  energy without entropy =     -833.76168506  energy(sigma->0) =     -833.76168506


--------------------------------------------------------------------------------------------------------




--------------------------------------- Iteration      1(  10)  ---------------------------------------


    POTLOK:  cpu time      2.9907: real time      3.0431
    SETDIJ:  cpu time      3.6371: real time      3.6679
     EDDAV:  cpu time     96.5581: real time     97.2301
       DOS:  cpu time      0.0007: real time      0.0144
    CHARGE:  cpu time      6.1119: real time      6.1492
    MIXING:  cpu time      0.0652: real time      0.0655
    --------------------------------------------
      LOOP:  cpu time    109.3637: real time    110.1703

 eigenvalue-minimisations  :  4920
 total energy-change (2. order) : 0.1333465E+00  (-0.4124418E-01)
 number of electron     367.9999998 magnetization       0.0161414
 augmentation part        9.6076728 magnetization       0.0162741

 Broyden mixing:
  rms(total) = 0.11564E+00    rms(broyden)= 0.11563E+00
  rms(prec ) = 0.12674E+00
  weight for this iteration     100.00

 eigenvalues of (default mixing * dielectric matrix)
  average eigenvalue GAMMA=   2.3292
  4.7517  3.1548  0.9755  1.2605  1.5032

 Free energy of the ion-electron system (eV)
  ---------------------------------------------------
  alpha Z        PSCENC =       175.60570339
  Ewald energy   TEWEN  =     36594.51067967
  -Hartree energ DENC   =    -48488.09952811
  -exchange      EXHF   =         0.00000000
  -V(xc)+E(xc)   XCENC  =      1280.93091563
  PAW double counting   =     36701.96599880   -36767.27384444
  entropy T*S    EENTRO =        -0.00000000
  eigenvalues    EBANDS =     -4257.19939507
  atomic energy  EATOM  =     13925.93113153
  Solvation  Ediel_sol  =         0.00000000
  ---------------------------------------------------
  free energy    TOTEN  =      -833.62833859 eV

  energy without entropy =     -833.62833859  energy(sigma->0) =     -833.62833859


--------------------------------------------------------------------------------------------------------




--------------------------------------- Iteration      1(  11)  ---------------------------------------


    POTLOK:  cpu time      2.6951: real time      2.7441
    SETDIJ:  cpu time      3.6052: real time      3.6203
     EDDAV:  cpu time     96.9491: real time     97.6556
       DOS:  cpu time      0.0007: real time      0.0145
    CHARGE:  cpu time      5.8451: real time      5.8893
    MIXING:  cpu time      0.0643: real time      0.0647
    --------------------------------------------
      LOOP:  cpu time    109.1596: real time    109.9885

 eigenvalue-minimisations  :  4860
 total energy-change (2. order) : 0.2093064E-01  (-0.1003048E-01)
 number of electron     367.9999998 magnetization       0.0057366
 augmentation part        9.6126415 magnetization       0.0055014

 Broyden mixing:
  rms(total) = 0.27099E-01    rms(broyden)= 0.27079E-01
  rms(prec ) = 0.30803E-01
  weight for this iteration     100.00

 eigenvalues of (default mixing * dielectric matrix)
  average eigenvalue GAMMA=   2.1935
  4.7506  3.2004  1.7529  1.0010  1.1868  1.2693

 Free energy of the ion-electron system (eV)
  ---------------------------------------------------
  alpha Z        PSCENC =       175.60570339
  Ewald energy   TEWEN  =     36594.51067967
  -Hartree energ DENC   =    -48464.61891054
  -exchange      EXHF   =         0.00000000
  -V(xc)+E(xc)   XCENC  =      1280.20161607
  PAW double counting   =     37121.92284974   -37187.01697106
  entropy T*S    EENTRO =        -0.00000000
  eigenvalues    EBANDS =     -4280.14350675
  atomic energy  EATOM  =     13925.93113153
  Solvation  Ediel_sol  =         0.00000000
  ---------------------------------------------------
  free energy    TOTEN  =      -833.60740795 eV

  energy without entropy =     -833.60740795  energy(sigma->0) =     -833.60740795


--------------------------------------------------------------------------------------------------------




--------------------------------------- Iteration      1(  12)  ---------------------------------------


    POTLOK:  cpu time      2.8694: real time      2.9328
    SETDIJ:  cpu time      3.6204: real time      3.6400
     EDDAV:  cpu time    100.2594: real time    100.9422
       DOS:  cpu time      0.0007: real time      0.0136
    CHARGE:  cpu time      6.6404: real time      6.6862
    MIXING:  cpu time      0.0641: real time      0.0645
    --------------------------------------------
      LOOP:  cpu time    113.4543: real time    114.2793

 eigenvalue-minimisations  :  5090
 total energy-change (2. order) : 0.2903280E-03  (-0.1013382E-02)
 number of electron     367.9999998 magnetization      -0.0080769
 augmentation part        9.6131558 magnetization      -0.0081758

 Broyden mixing:
  rms(total) = 0.14869E-01    rms(broyden)= 0.14865E-01
  rms(prec ) = 0.16651E-01
  weight for this iteration     100.00

 eigenvalues of (default mixing * dielectric matrix)
  average eigenvalue GAMMA=   2.1228
  4.6850  3.2269  2.0276  1.4914  1.0358  1.0992  1.2935

 Free energy of the ion-electron system (eV)
  ---------------------------------------------------
  alpha Z        PSCENC =       175.60570339
  Ewald energy   TEWEN  =     36594.51067967
  -Hartree energ DENC   =    -48464.44906145
  -exchange      EXHF   =         0.00000000
  -V(xc)+E(xc)   XCENC  =      1280.19742766
  PAW double counting   =     37160.72013439   -37225.79401427
  entropy T*S    EENTRO =        -0.00000000
  eigenvalues    EBANDS =     -4280.32911855
  atomic energy  EATOM  =     13925.93113153
  Solvation  Ediel_sol  =         0.00000000
  ---------------------------------------------------
  free energy    TOTEN  =      -833.60711762 eV

  energy without entropy =     -833.60711762  energy(sigma->0) =     -833.60711762


--------------------------------------------------------------------------------------------------------




--------------------------------------- Iteration      1(  13)  ---------------------------------------


    POTLOK:  cpu time      2.4987: real time      2.5369
    SETDIJ:  cpu time      3.6350: real time      3.6602
     EDDAV:  cpu time    100.3067: real time    101.0031
       DOS:  cpu time      0.0007: real time      0.0145
[...]
   0.854E+00 -.200E+02 0.305E+00   -.922E+00 0.202E+02 -.311E+00   0.676E-01 -.188E+00 0.675E-02   0.413E-03 -.303E-03 0.190E-05
   -.155E+02 -.661E+02 0.599E+00   0.157E+02 0.668E+02 -.577E+00   -.217E+00 -.710E+00 -.217E-01   -.127E-02 0.158E-02 0.412E-04
   -.649E+02 0.197E+02 0.459E+00   0.656E+02 -.198E+02 -.437E+00   -.724E+00 0.165E+00 -.241E-01   0.700E-03 -.186E-02 0.421E-04
   -.170E+02 0.108E+02 0.311E+00   0.171E+02 -.109E+02 -.315E+00   -.140E+00 0.145E+00 0.410E-02   -.543E-04 0.513E-03 0.408E-05
   -.237E+01 -.131E+01 0.561E+00   0.232E+01 0.128E+01 -.561E+00   0.485E-01 0.260E-01 0.620E-03   -.279E-03 -.172E-03 0.552E-06
   0.101E+02 -.115E+02 0.443E+00   -.103E+02 0.114E+02 -.442E+00   0.172E+00 0.680E-01 0.242E-03   -.928E-04 0.584E-03 -.516E-05
   0.191E+02 -.657E+02 0.214E+01   -.194E+02 0.664E+02 -.214E+01   0.259E+00 -.745E+00 0.662E-02   0.179E-02 0.723E-03 -.100E-04
   -.473E+02 0.495E+02 0.174E+01   0.478E+02 -.500E+02 -.175E+01   -.519E+00 0.597E+00 0.165E-02   0.151E-02 0.121E-02 -.779E-05
   -.490E+01 0.146E+02 0.446E+00   0.476E+01 -.147E+02 -.447E+00   0.138E+00 0.124E+00 0.125E-02   0.448E-03 -.403E-03 -.258E-05
   0.510E+01 0.291E+01 0.762E+00   -.528E+01 -.301E+01 -.762E+00   0.176E+00 0.102E+00 0.186E-02   -.275E-03 -.153E-03 -.971E-05
   0.255E+02 -.963E+01 0.145E+01   -.260E+02 0.958E+01 -.144E+01   0.516E+00 0.466E-01 -.508E-02   -.522E-03 0.194E-04 -.886E-05
   0.457E+01 0.270E+02 0.975E+00   -.488E+01 -.274E+02 -.969E+00   0.313E+00 0.430E+00 -.530E-02   -.235E-03 -.482E-03 -.404E-05
   0.240E+01 0.103E+02 0.115E+01   -.243E+01 -.102E+02 -.115E+01   0.172E-01 -.640E-01 0.792E-03   0.423E-03 -.599E-03 -.107E-04
   0.102E+02 -.306E+01 0.131E+01   -.101E+02 0.301E+01 -.132E+01   -.428E-01 0.509E-01 0.425E-02   -.312E-03 0.659E-03 -.847E-05
   0.240E+02 -.195E+02 0.151E+01   -.243E+02 0.199E+02 -.151E+01   0.263E+00 -.442E+00 -.549E-03   -.117E-03 0.520E-03 -.235E-04
   0.727E+02 0.933E+01 0.229E+01   -.737E+02 -.943E+01 -.229E+01   0.975E+00 0.965E-01 -.385E-02   0.637E-03 -.169E-02 -.489E-04
   0.838E+02 0.484E+02 0.158E+01   -.844E+02 -.488E+02 -.153E+01   0.608E+00 0.359E+00 -.490E-01   -.727E-03 -.396E-03 -.615E-04
   0.445E+02 0.584E+02 0.188E+01   -.451E+02 -.592E+02 -.188E+01   0.570E+00 0.801E+00 -.404E-02   -.117E-02 0.139E-02 -.467E-04
   -.474E+01 0.306E+02 0.164E+01   0.498E+01 -.310E+02 -.164E+01   -.245E+00 0.452E+00 -.134E-02   0.415E-03 -.392E-03 -.175E-04
   -.271E+00 0.831E+01 0.174E+01   0.339E+00 -.843E+01 -.174E+01   -.718E-01 0.124E+00 0.257E-02   -.282E-03 -.322E-03 -.166E-04
   0.317E+00 0.139E+00 0.171E+01   -.318E+00 -.129E+00 -.172E+01   -.437E-02 -.853E-02 0.292E-02   0.107E-03 0.680E-04 -.146E-04
   0.706E+01 -.440E+01 0.143E+01   -.714E+01 0.452E+01 -.143E+01   0.725E-01 -.125E+00 0.235E-02   -.402E-03 -.900E-04 -.206E-04
   0.207E+02 -.289E+01 0.189E+01   -.208E+02 0.313E+01 -.189E+01   0.822E-01 -.239E+00 0.584E-02   -.741E-03 -.501E-04 -.161E-04
   0.272E+02 0.107E+02 0.210E+01   -.273E+02 -.107E+02 -.209E+01   0.165E+00 0.421E-01 -.107E-01   0.461E-03 -.258E-03 -.213E-04
   0.228E+02 0.183E+02 0.188E+01   -.229E+02 -.184E+02 -.187E+01   0.116E+00 0.126E+00 -.121E-01   -.132E-05 0.519E-03 -.266E-04
   0.784E+01 0.194E+02 0.219E+01   -.768E+01 -.196E+02 -.220E+01   -.168E+00 0.200E+00 0.483E-02   -.443E-03 -.621E-03 -.117E-04
   -.178E+01 -.647E+02 0.378E+01   0.202E+01 0.706E+02 -.386E+01   -.238E+00 -.597E+01 0.774E-01   -.962E-04 -.170E-03 -.313E-04
   0.491E+02 0.378E+02 0.834E+00   -.542E+02 -.410E+02 -.684E+00   0.516E+01 0.312E+01 -.148E+00   0.257E-03 0.122E-03 -.909E-04
   0.572E+02 0.235E+02 0.886E+00   -.625E+02 -.264E+02 -.735E+00   0.528E+01 0.291E+01 -.149E+00   0.232E-03 0.165E-03 -.913E-04
   -.570E+02 0.309E+02 0.370E+01   0.623E+02 -.336E+02 -.378E+01   -.528E+01 0.278E+01 0.773E-01   -.187E-03 0.106E-04 -.299E-04
   0.463E+02 -.373E+02 -.658E+01   -.537E+02 0.399E+02 0.563E+01   0.745E+01 -.268E+01 0.947E+00   -.114E-02 0.183E-03 -.302E-03
   -.838E+01 0.582E+02 -.620E+01   0.689E+01 -.659E+02 0.522E+01   0.150E+01 0.776E+01 0.975E+00   -.427E-03 -.109E-02 -.308E-03
   -.180E+03 -.114E+03 0.332E+01   0.207E+03 0.131E+03 -.286E+01   -.262E+02 -.165E+02 -.460E+00   -.159E-02 0.697E-03 -.277E-04
   -.189E+03 -.995E+02 0.323E+01   0.217E+03 0.114E+03 -.277E+01   -.274E+02 -.145E+02 -.459E+00   -.193E-03 -.179E-02 -.293E-04
   0.196E+03 -.119E+03 0.451E+01   -.225E+03 0.136E+03 -.447E+01   0.285E+02 -.163E+02 -.351E-01   0.167E-02 -.903E-03 -.319E-04
   -.530E+01 0.230E+03 0.396E+01   0.518E+01 -.262E+03 -.390E+01   0.122E+00 0.328E+02 -.597E-01   0.785E-04 0.191E-02 -.310E-04
   -.103E+03 -.596E+02 -.118E+03   0.141E+03 0.814E+02 0.127E+03   -.383E+02 -.217E+02 -.897E+01   -.134E-02 -.793E-03 -.226E-02
 -----------------------------------------------------------------------------------------------
   0.419E+02 0.239E+02 0.839E+01   0.369E-12 -.298E-12 -.711E-13   -.419E+02 -.239E+02 -.838E+01   0.188E-03 0.108E-03 -.404E-02
 
 
 POSITION                                       TOTAL-FORCE (eV/Angst)
 -----------------------------------------------------------------------------------
      0.01881      0.00950      7.49538        -0.000873      0.000205     -0.000494
     -1.22052      2.14039      7.49655        -0.000444      0.000634     -0.000088
     -2.46014      4.27695      7.49699         0.001890     -0.003409     -0.000119
     -3.69055      6.41858      7.49804         0.002556     -0.003237     -0.000399
     -4.91650      8.55700      7.49799        -0.000670     -0.000696     -0.000258
     -6.14366     10.69367      7.49727        -0.002089     -0.000281     -0.000193
     -7.38000     12.83621      7.49653        -0.002168      0.000022     -0.000425
      2.49207      0.02711      7.50131        -0.001309      0.000279      0.000228
      1.25196      2.16121      7.50428        -0.000810      0.000343     -0.000151
     -0.00184      4.27683      7.50748        -0.000580     -0.000445     -0.000120
     -1.23166      6.40620      7.50772         0.005594     -0.004861     -0.000099
     -2.43617      8.54935      7.50690        -0.000007     -0.004935     -0.000974
     -3.66470     10.69020      7.50303        -0.001281      0.000190     -0.000202
     -4.90522     12.83666      7.49994        -0.002639      0.000378      0.000300
      4.95940      0.02771      7.50377        -0.001561      0.001302      0.000924
      3.71497      2.19184      7.51066        -0.001120     -0.000626      0.000472
      2.44017      4.37733      7.52351        -0.000885     -0.000041      0.000273
      1.22989      6.40754      7.53163         0.000025     -0.000271      0.000845
      0.07735      8.47092      7.52481         0.000639     -0.001154      0.000105
     -1.17860     10.66818      7.51265        -0.000095     -0.000452     -0.000291
     -2.43060     12.82773      7.50331        -0.002093      0.002507     -0.000730
      7.42849      0.01474      7.50360         0.000354      0.001708      0.000219
      6.19061      2.17829      7.50536        -0.001477     -0.001107      0.000726
      4.95457      4.29626      7.50719        -0.001704     -0.001912     -0.000313
      1.26368     10.68841      7.50928        -0.000494     -0.000064     -0.000971
      0.04808     12.81856      7.50647        -0.000285     -0.000169      0.000124
      9.89011      0.00827      7.50113        -0.000713     -0.000495      0.001282
      8.65360      2.14964      7.49988        -0.001178     -0.000843      0.000911
      7.45201      4.34099      7.49982        -0.000996     -0.000716      0.000120
      2.55207     12.82879      7.50250        -0.000285     -0.000425      0.000210
     12.35447      0.01436      7.49735         0.001431      0.000226      0.001048
     11.12094      2.14602      7.49629         0.002430     -0.000723     -0.000132
      9.89179      4.28047      7.49617         0.000891     -0.000523      0.000243
      8.61848      6.36677      7.50048        -0.000328      0.000001     -0.000108
      7.42532      8.56130      7.51874        -0.001905     -0.002045      0.000930
      6.19365     10.69517      7.52006         0.000060      0.000659      0.001697
      4.88985     12.82609      7.50181         0.000144      0.000213      0.000274
     14.81965      0.00363      7.49449         0.000937      0.001237      0.000267
     13.58404      2.14348      7.49379         0.007204      0.003914      0.001063
     12.35034      4.28043      7.49468         0.003746     -0.001164     -0.000125
     11.11473      6.42055      7.49600        -0.000110     -0.000248      0.000013
      9.87285      8.54808      7.49739        -0.001708     -0.000596      0.000530
      8.65718     10.69545      7.50082        -0.000929      0.000053      0.000064
      7.40588     12.82202      7.49784        -0.000694     -0.000211     -0.000436
      0.01999      1.43723      7.49798        -0.000169     -0.000642     -0.000247
     -1.23177      3.56150      7.49941        -0.000706      0.000432     -0.000210
     -2.46541      5.69853      7.50006        -0.007071      0.006732     -0.000248
     -3.67939      7.84429      7.50046        -0.000435      0.001233     -0.000364
     -4.90795      9.98300      7.49921         0.000392     -0.000172     -0.000264
     -6.14428     12.12117      7.49775         0.004173      0.000011     -0.000043
     -7.37741     14.26149      7.49695        -0.000277     -0.000588     -0.000355
      2.49026      1.45468      7.50622        -0.000441     -0.000460      0.000286
      1.23836      3.58978      7.51058         0.000204      0.000491     -0.000334
     -0.00909      5.69229      7.51279        -0.000595      0.001866      0.000353
     -1.20572      7.82361      7.51184        -0.001878      0.003160      0.000824
     -2.42923      9.97517      7.50906        -0.000679      0.001140     -0.000106
     -3.66786     12.12040      7.50196         0.000087     -0.002574      0.000490
     -4.90670     14.26649      7.50184        -0.000276     -0.001105      0.000610
      4.95254      1.46976      7.50657        -0.000314     -0.000386      0.000727
      3.71942      3.63618      7.51606         0.002114      0.001651      0.000902
      0.07424      9.94938      7.51783        -0.001455      0.000978     -0.001612
     -1.18526     12.10098      7.50748        -0.000670     -0.000890     -0.000129
     -2.44279     14.25898      7.50333         0.000537     -0.005728      0.001136
      7.42084      1.44343      7.50298         0.000108     -0.000574      0.001042
      6.18180      3.61372      7.50359         0.000439      0.001605      0.000968
      1.28679     12.09261      7.50605        -0.001065     -0.000181     -0.000323
      0.02645     14.25147      7.50361        -0.000499     -0.000710      0.001009
      9.88467      1.43271      7.49894        -0.001161     -0.000465      0.001177
      8.65986      3.57917      7.49821        -0.000336     -0.000453      0.000516
      2.49596     14.25576      7.50042        -0.001300     -0.000447      0.000993
     12.35267      1.43870      7.49555        -0.006830     -0.002728     -0.000116
     11.12454      3.56645      7.49510        -0.006325     -0.001384      0.001241
      9.88222      5.69900      7.49707        -0.001060     -0.000881      0.000203
      8.61598      7.83694      7.50401         0.000222     -0.000038     -0.000488
      7.41552      9.97824      7.51354        -0.000476      0.000117      0.000946
      6.16180     12.08884      7.50557        -0.000347     -0.000725      0.000963
      4.94319     14.25437      7.49714        -0.003779     -0.001755     -0.000281
     14.81842      1.42515      7.49403        -0.002624     -0.001620      0.000316
     13.58026      3.56560      7.49414        -0.004754      0.001479      0.000340
     12.34525      5.70860      7.49556        -0.001653      0.000659     -0.000232
     11.11436      7.84696      7.49590         0.000006     -0.000573      0.000061
      9.88515      9.97683      7.49746        -0.000132     -0.000463     -0.000282
      8.64927     12.11856      7.49777        -0.000575     -0.000777     -0.000426
      7.41933     14.24798      7.49439        -0.001041     -0.000935     -0.000470
      4.98539      5.38376      7.49623        -0.000145     -0.000265     -0.001928
      5.26009     10.13074      7.54183        -0.000512     -0.000692      0.002024
      6.46943      8.03531      7.54071         0.000439      0.000535      0.001870
      2.22056     10.17065      7.49839        -0.001224     -0.000152     -0.002013
      3.17043      8.37543      7.90468         0.018235      0.009319     -0.007878
      3.89944      7.09451      7.90107         0.015340      0.007234     -0.008780
      2.42152      5.72828      7.54184         0.000824      0.000639      0.000819
      1.23797      7.77924      7.54243         0.000283      0.001274      0.000697
      7.45384      5.69212      7.50022        -0.000370     -0.001004     -0.000169
      3.72309     12.15479      7.50281        -0.001273     -0.000023     -0.000097
      4.09121      8.05141      8.02332         0.012576      0.006616      0.000639
 -----------------------------------------------------------------------------------
    total drift:                               -0.014065      0.037865     -0.003084


--------------------------------------------------------------------------------------------------------



  FREE ENERGIE OF THE ION-ELECTRON SYSTEM (eV)
  ---------------------------------------------------
  free  energy   TOTEN  =      -841.24347169 eV

  energy  without entropy=     -841.24347169  energy(sigma->0) =     -841.24347169
 


--------------------------------------------------------------------------------------------------------


    POTLOK:  cpu time      5.6847: real time      5.7760


--------------------------------------------------------------------------------------------------------


 NEB: the previous image is higher in energy: T
 NEB: the next image is higher in energy    : F
 NEB: only prev energy greater

 NEB: Tangent
 ----------------------------------------------
     -0.00149     -0.00085      0.00373
     -0.00191     -0.00126      0.00414
     -0.00206     -0.00122      0.00431
     -0.00195     -0.00078      0.00319
     -0.00177     -0.00062      0.00164
     -0.00157     -0.00064      0.00168
     -0.00138     -0.00047      0.00211
     -0.00143     -0.00021     -0.00229
     -0.00179     -0.00061     -0.00517
     -0.00226     -0.00066     -0.00766
     -0.00281     -0.00080     -0.00964
     -0.00233     -0.00028     -0.00826
     -0.00195     -0.00034     -0.00354
     -0.00159     -0.00040     -0.00056
     -0.00142     -0.00045     -0.00414
     -0.00125     -0.00024     -0.01318
     -0.00202     -0.00146     -0.02643
     -0.00332     -0.00083     -0.03468
     -0.00302     -0.00019     -0.02819
     -0.00228     -0.00044     -0.01260
     -0.00177     -0.00040     -0.00353
     -0.00157     -0.00077     -0.00240
     -0.00118     -0.00114     -0.00693
     -0.00017     -0.00147     -0.01464
     -0.00310      0.00062     -0.01470
     -0.00231     -0.00021     -0.00542
     -0.00167     -0.00088      0.00212
     -0.00133     -0.00095      0.00131
     -0.00086     -0.00096     -0.00338
     -0.00180     -0.00099     -0.00240
     -0.00167     -0.00136      0.00548
     -0.00134     -0.00121      0.00818
     -0.00128     -0.00087      0.00574
     -0.00132     -0.00065     -0.00333
     -0.00206     -0.00089     -0.02728
     -0.00169     -0.00204     -0.02657
     -0.00153     -0.00157     -0.00407
     -0.00150     -0.00135      0.00467
     -0.00189     -0.00137      0.00902
     -0.00173     -0.00114      0.01169
     -0.00130     -0.00081      0.00588
     -0.00150     -0.00089     -0.00081
     -0.00105     -0.00059     -0.00548
     -0.00155     -0.00118     -0.00072
     -0.00164     -0.00099      0.00180
     -0.00194     -0.00116      0.00107
     -0.00218     -0.00122      0.00004
     -0.00206     -0.00071     -0.00099
     -0.00168     -0.00053      0.00046
     -0.00153     -0.00051      0.00117
     -0.00131     -0.00040      0.00181
     -0.00131     -0.00007     -0.00753
     -0.00209     -0.00071     -0.01132
     -0.00309     -0.00096     -0.01480
     -0.00248     -0.00052     -0.01426
     -0.00213     -0.00041     -0.00865
     -0.00164     -0.00021     -0.00261
     -0.00149     -0.00030     -0.00237
     -0.00133     -0.00058     -0.00836
     -0.00128     -0.00010     -0.02033
     -0.00237     -0.00064     -0.02080
     -0.00208     -0.00052     -0.00690
     -0.00158     -0.00038     -0.00294
     -0.00127     -0.00100     -0.00251
     -0.00083     -0.00160     -0.00838
     -0.00266      0.00010     -0.00712
     -0.00186     -0.00052     -0.00184
     -0.00153     -0.00091      0.00434
     -0.00114     -0.00104      0.00150
     -0.00177     -0.00110      0.00246
     -0.00167     -0.00135      0.00859
     -0.00136     -0.00109      0.00981
     -0.00133     -0.00094      0.00404
     -0.00152     -0.00074     -0.00943
     -0.00070     -0.00047     -0.02153
     -0.00135     -0.00152     -0.00968
     -0.00166     -0.00135      0.00273
     -0.00177     -0.00122      0.00663
     -0.00188     -0.00142      0.01039
     -0.00137     -0.00099      0.00789
     -0.00142     -0.00080      0.00341
     -0.00128     -0.00072     -0.00081
     -0.00116     -0.00063     -0.00055
     -0.00128     -0.00122      0.00382
      0.00736     -0.00245     -0.01154
      0.00182     -0.00866     -0.04786
     -0.00626      0.00554     -0.04878
     -0.00045      0.00705     -0.01179
      0.03998      0.01444     -0.51157
      0.02856      0.01693     -0.51223
     -0.00373     -0.00150     -0.04598
     -0.00362     -0.00109     -0.04665
     -0.00121     -0.00119     -0.00513
     -0.00209     -0.00123     -0.00492
      0.08241      0.03940     -0.66782

 NEB: forces: par spring, perp REAL, dneb     0.008467    0.040238    0.000000
 NEB: distance to prev, next image, angle between     0.783618    0.781924  174.380210
 NEB: projections on to tangent (spring, REAL)    -0.008467    0.011016

 stress matrix after NEB project (eV)
    -14.46184      4.36524      0.02629
      4.36524    -19.57652      0.00477
      0.02629      0.00477     -0.68159
  FORCES: max atom, RMS     0.019768    0.004002
  FORCE total and by dimension    0.039006    0.017456
  Stress total and by dimension   25.118950   19.576520
 OPT: skip step - force has converged


--------------------------------------------------------------------------------------------------------


  
 reached required accuracy - stopping structural energy minimisation
     LOOP+:  cpu time   2273.1376: real time   2289.3820
    4ORBIT:  cpu time      0.0000: real time      0.0000

 total amount of memory used by VASP MPI-rank0  1122564. kBytes
=======================================================================

   base      :      30000. kBytes
   nonlr-proj:       8937. kBytes
   fftplans  :     185212. kBytes
   grid      :     184190. kBytes
   one-center:        583. kBytes
   wavefun   :     713642. kBytes
 
  
  
 General timing and accounting informations for this job:
 ========================================================
  
                  Total CPU time used (sec):     2308.509
                            User time (sec):     2236.844
                          System time (sec):       71.666
                         Elapsed time (sec):     2326.734
  
                   Maximum memory used (kb):     1556260.
                   Average memory used (kb):          N/A
  
                          Minor page faults:       139057
                          Major page faults:           63
                 Voluntary context switches:         2445
