 vasp.6.4.2 20Jul23 (build Aug 26 2025 15:10:52) complex                        
  
 POSCAR found type information on POSCAR C H N O 
 02/POSCAR found :  4 types and      95 ions
 Reading from existing POTCAR
 scaLAPACK will be used
 -----------------------------------------------------------------------------
|                                                                             |
|           W    W    AA    RRRRR   N    N  II  N    N   GGGG   !!!           |
|           W    W   A  A   R    R  NN   N  II  NN   N  G    G  !!!           |
|           W    W  A    A  R    R  N N  N  II  N N  N  G       !!!           |
|           W WW W  AAAAAA  RRRRR   N  N N  II  N  N N  G  GGG   !            |
|           WW  WW  A    A  R   R   N   NN  II  N   NN  G    G                |
|           W    W  A    A  R    R  N    N  II  N    N   GGGG   !!!           |
|                                                                             |
|     For optimal performance we recommend to set                             |
|       NCORE = 2 up to number-of-cores-per-socket                            |
|     NCORE specifies how many cores store one orbital (NPAR=cpu/NCORE).      |
|     This setting can greatly improve the performance of VASP for DFT.       |
|     The default, NCORE=1 might be grossly inefficient on modern             |
|     multi-core architectures or massively parallel machines. Do your        |
|     own testing! More info at https://www.vasp.at/wiki/index.php/NCORE      |
|     Unfortunately you need to use the default for GW and RPA                |
|     calculations (for HF NCORE is supported but not extensively tested      |
|     yet).                                                                   |
|                                                                             |
 -----------------------------------------------------------------------------

 Reading from existing POTCAR
 LDA part: xc-table for Pade appr. of Perdew
 POSCAR found type information on POSCAR C H N O 
 00/POSCAR found :  4 types and      95 ions
 POSCAR found type information on POSCAR C H N O 
 06/POSCAR found :  4 types and      95 ions
 Jacobian:    33.5511073471780     
 POSCAR found type information on POSCAR C H N O 
 00/POSCAR found :  4 types and      95 ions
 POSCAR found type information on POSCAR C H N O 
 06/POSCAR found :  4 types and      95 ions
 POSCAR, INCAR and KPOINTS ok, starting setup
 FFT: planning ... GRIDC
 FFT: planning ... GRID_SOFT
 FFT: planning ... GRID
 WAVECAR not read
 entering main loop
       N       E                     dE             d eps       ncg     rms          rms(c)
DAV:   1     0.327838581571E+04    0.32784E+04   -0.13759E+05  4590   0.105E+03
DAV:   2    -0.234587300526E+03   -0.35130E+04   -0.33073E+04  6410   0.257E+02
DAV:   3    -0.853299673211E+03   -0.61871E+03   -0.61586E+03  5380   0.112E+02
DAV:   4    -0.875254953314E+03   -0.21955E+02   -0.21871E+02  5360   0.264E+01
DAV:   5    -0.875901804174E+03   -0.64685E+00   -0.64601E+00  6020   0.385E+00    0.513E+01
DAV:   6    -0.859549211329E+03    0.16353E+02   -0.21097E+01  5150   0.723E+00    0.334E+01
DAV:   7    -0.838473014196E+03    0.21076E+02   -0.31522E+01  5000   0.844E+00    0.202E+01
DAV:   8    -0.833748077822E+03    0.47249E+01   -0.22149E+01  5070   0.692E+00    0.819E+00
DAV:   9    -0.833761685061E+03   -0.13607E-01   -0.93361E-01  5080   0.175E+00    0.389E+00
DAV:  10    -0.833628338593E+03    0.13335E+00   -0.41244E-01  4920   0.105E+00    0.116E+00
DAV:  11    -0.833607407952E+03    0.20931E-01   -0.10030E-01  4860   0.570E-01    0.271E-01
DAV:  12    -0.833607117624E+03    0.29033E-03   -0.10134E-02  5090   0.200E-01    0.149E-01
DAV:  13    -0.833606913975E+03    0.20365E-03   -0.23925E-03  5110   0.994E-02    0.751E-02
DAV:  14    -0.833606987116E+03   -0.73141E-04   -0.37660E-04  5180   0.390E-02    0.516E-02
DAV:  15    -0.833607026272E+03   -0.39156E-04   -0.95071E-05  4850   0.183E-02    0.248E-02
DAV:  16    -0.833607032224E+03   -0.59512E-05   -0.20857E-05  4960   0.907E-03    0.120E-02
DAV:  17    -0.833607031371E+03    0.85250E-06   -0.85833E-06  5130   0.592E-03
   1 F= -.84124347E+03 E0= -.84124347E+03  d E =-.841243E+03  mag=     0.0000
quench:  g(F)=  0.384E-03 g(S)=  0.000E+00 dE (1.order)=-0.768E-03
 reached required accuracy - stopping structural energy minimisation
