<?xml version="1.0" encoding="ISO-8859-1"?>
<modeling>
 <generator>
  <i name="program" type="string">vasp </i>
  <i name="version" type="string">6.4.2  </i>
  <i name="subversion" type="string">20Jul23 (build Aug 26 2025 15:10:52) complex                          parallel </i>
  <i name="platform" type="string">LinuxIFC </i>
  <i name="date" type="string">2025 12 02 </i>
  <i name="time" type="string">12:58:02 </i>
 </generator>
 <incar>
  <i type="int" name="ISTART">     0</i>
  <i type="string" name="ALGO">Normal</i>
  <i type="logical" name="ADDGRID"> T  </i>
  <i type="int" name="ISPIN">     2</i>
  <i type="int" name="IMIX">     4</i>
  <i name="AMIX">      0.20000000</i>
  <i name="BMIX">      0.00010000</i>
  <i name="AMIX_MAG">      0.80000000</i>
  <i name="BMIX_MAG">      0.00010000</i>
  <i type="int" name="ICHARG">     2</i>
  <i type="int" name="NELM">   200</i>
  <i type="int" name="IBRION">     3</i>
  <i name="EDIFF">      0.00000100</i>
  <i name="EDIFFG">     -0.03000000</i>
  <i type="int" name="NSW">  1000</i>
  <i type="int" name="ISIF">     2</i>
  <i type="int" name="ISYM">     0</i>
  <i name="ENCUT">    520.00000000</i>
  <v name="MAGMOM">      0.60000000      0.60000000      0.60000000      0.60000000      0.60000000      0.60000000      0.60000000      0.60000000      0.60000000      0.60000000      0.60000000      0.60000000      0.60000000      0.60000000      0.60000000      0.60000000      0.60000000      0.60000000      0.60000000      0.60000000
      0.60000000      0.60000000      0.60000000      0.60000000      0.60000000      0.60000000      0.60000000      0.60000000      0.60000000      0.60000000      0.60000000      0.60000000      0.60000000      0.60000000      0.60000000      0.60000000      0.60000000      0.60000000      0.60000000      0.60000000
      0.60000000      0.60000000      0.60000000      0.60000000      0.60000000      0.60000000      0.60000000      0.60000000      0.60000000      0.60000000      0.60000000      0.60000000      0.60000000      0.60000000      0.60000000      0.60000000      0.60000000      0.60000000      0.60000000      0.60000000
      0.60000000      0.60000000      0.60000000      0.60000000      0.60000000      0.60000000      0.60000000      0.60000000      0.60000000      0.60000000      0.60000000      0.60000000      0.60000000      0.60000000      0.60000000      0.60000000      0.60000000      0.60000000      0.60000000      0.60000000
      0.60000000      0.60000000      0.60000000      0.60000000      0.60000000      0.60000000      0.60000000      0.60000000      0.60000000      0.60000000      0.60000000      0.60000000      0.60000000      0.60000000      0.60000000</v>
  <i type="string" name="LREAL">Auto</i>
  <i type="int" name="ISMEAR">     0</i>
  <i name="SIGMA">      0.05000000</i>
  <i type="logical" name="LWAVE"> F  </i>
  <i type="logical" name="LCHARG"> F  </i>
  <i type="logical" name="LASPH"> T  </i>
  <i type="int" name="IVDW">    12</i>
  <i name="SPRING">     -5.00000000</i>
 </incar>
 <primitive_cell>
  <structure name="primitive_cell" >
   <crystal>
    <varray name="basis" >
     <v>      17.27103806       0.00000000       0.00000000 </v>
     <v>      -8.63551903      14.95715771       0.00000000 </v>
     <v>       0.00000000       0.00000000      15.00000000 </v>
    </varray>
    <i name="volume">   3874.88459904 </i>
    <varray name="rec_basis" >
     <v>       0.05790040       0.03342881       0.00000000 </v>
     <v>       0.00000000       0.06685762       0.00000000 </v>
     <v>       0.00000000       0.00000000       0.06666667 </v>
    </varray>
   </crystal>
   <varray name="positions" >
    <v>       0.00140700       0.00063544       0.49969197 </v>
    <v>       0.00088212       0.14310106       0.49976986 </v>
    <v>       0.00053016       0.28594685       0.49979921 </v>
    <v>       0.00088093       0.42913086       0.49986953 </v>
    <v>       0.00138311       0.57210093       0.49986625 </v>
    <v>       0.00175637       0.71495331       0.49981794 </v>
    <v>       0.00179404       0.85819829       0.49976851 </v>
    <v>       0.14519853       0.00181280       0.50008726 </v>
    <v>       0.14473593       0.14449350       0.50028531 </v>
    <v>       0.14286275       0.28593849       0.50049883 </v>
    <v>       0.14283821       0.42830338       0.50051476 </v>
    <v>       0.14473929       0.57158938       0.50046012 </v>
    <v>       0.14517298       0.71472136       0.50020223 </v>
    <v>       0.14510002       0.85822889       0.49999608 </v>
    <v>       0.28807748       0.00185292       0.50025159 </v>
    <v>       0.28836876       0.14654119       0.50071074 </v>
    <v>       0.28761563       0.29265808       0.50156741 </v>
    <v>       0.28540777       0.42839291       0.50210839 </v>
    <v>       0.28765114       0.56634543       0.50165424 </v>
    <v>       0.28838301       0.71324925       0.50084312 </v>
    <v>       0.28808271       0.85763119       0.50022057 </v>
    <v>       0.43060544       0.00098567       0.50024004 </v>
    <v>       0.43125626       0.14563531       0.50035763 </v>
    <v>       0.43049034       0.28723786       0.50047967 </v>
    <v>       0.43046868       0.71460189       0.50061865 </v>
    <v>       0.43129313       0.85701834       0.50043122 </v>
    <v>       0.57291779       0.00055295       0.50007546 </v>
    <v>       0.57290718       0.14372000       0.49999205 </v>
    <v>       0.57658853       0.29022825       0.49998804 </v>
    <v>       0.57661706       0.85770222       0.50016679 </v>
    <v>       0.71580862       0.00095983       0.49982324 </v>
    <v>       0.71564572       0.14347749       0.49975235 </v>
    <v>       0.71582990       0.28618220       0.49974438 </v>
    <v>       0.71184696       0.42566683       0.50003168 </v>
    <v>       0.71612301       0.57238838       0.50124958 </v>
    <v>       0.71614173       0.71505384       0.50133702 </v>
    <v>       0.71188515       0.85752218       0.50012037 </v>
    <v>       0.85818496       0.00024244       0.49963280 </v>
    <v>       0.85817547       0.14330794       0.49958628 </v>
    <v>       0.85817963       0.28617960       0.49964517 </v>
    <v>       0.85817894       0.42926285       0.49973321 </v>
    <v>       0.85739446       0.57150449       0.49982616 </v>
    <v>       0.85879057       0.71507224       0.50005466 </v>
    <v>       0.85742818       0.85724989       0.49985590 </v>
    <v>       0.04920218       0.09608985       0.49986510 </v>
    <v>       0.04773700       0.23811362       0.49996089 </v>
    <v>       0.04774674       0.38098998       0.50000409 </v>
    <v>       0.04918723       0.52445075       0.50003045 </v>
    <v>       0.04954771       0.66743968       0.49994734 </v>
    <v>       0.04943999       0.81039285       0.49985027 </v>
    <v>       0.04958947       0.95348925       0.49979679 </v>
    <v>       0.19281496       0.09725631       0.50041486 </v>
    <v>       0.19170360       0.24000409       0.50070521 </v>
    <v>       0.18976000       0.38057320       0.50085291 </v>
    <v>       0.19172243       0.52306813       0.50078912 </v>
    <v>       0.19280442       0.66691617       0.50060407 </v>
    <v>       0.19280012       0.81034111       0.50013043 </v>
    <v>       0.19281186       0.95382332       0.50012257 </v>
    <v>       0.33588658       0.09826485       0.50043821 </v>
    <v>       0.33690917       0.24310663       0.50107069 </v>
    <v>       0.33689427       0.66519180       0.50118890 </v>
    <v>       0.33589446       0.80904262       0.50049843 </v>
    <v>       0.33522194       0.95332118       0.50022207 </v>
    <v>       0.47792173       0.09650399       0.50019894 </v>
    <v>       0.47873081       0.24160446       0.50023963 </v>
    <v>       0.47874728       0.80848329       0.50040301 </v>
    <v>       0.47794139       0.95281934       0.50024071 </v>
    <v>       0.62021969       0.09578726       0.49992952 </v>
    <v>       0.62105660       0.23929450       0.49988093 </v>
    <v>       0.62107000       0.95310617       0.50002808 </v>
    <v>       0.76331828       0.09618781       0.49970350 </v>
    <v>       0.76333761       0.23844432       0.49967340 </v>
    <v>       0.76269556       0.38102158       0.49980487 </v>
    <v>       0.76084808       0.52395926       0.50026705 </v>
    <v>       0.76292211       0.66712124       0.50090253 </v>
    <v>       0.76088635       0.80823092       0.50037145 </v>
    <v>       0.76271950       0.95301320       0.49980914 </v>
    <v>       0.90563368       0.09528216       0.49960233 </v>
    <v>       0.90549627       0.23838723       0.49960941 </v>
    <v>       0.90562682       0.38166349       0.49970411 </v>
    <v>       0.90584040       0.52462880       0.49972643 </v>
    <v>       0.90586798       0.66702738       0.49983039 </v>
    <v>       0.90590503       0.81021807       0.49985142 </v>
    <v>       0.90587486       0.95258590       0.49962583 </v>
    <v>       0.46862846       0.35994506       0.49974879 </v>
    <v>       0.64321997       0.67731690       0.50278882 </v>
    <v>       0.64319365       0.53722177       0.50271403 </v>
    <v>       0.46856412       0.67998552       0.49989250 </v>
    <v>       0.46354992       0.55996114       0.52697842 </v>
    <v>       0.46294027       0.47432237       0.52673779 </v>
    <v>       0.33169669       0.38297898       0.50278957 </v>
    <v>       0.33172950       0.52010118       0.50282898 </v>
    <v>       0.62186091       0.38056159       0.50001438 </v>
    <v>       0.62188861       0.81264052       0.50018740 </v>
    <v>       0.50603161       0.53829829       0.53488800 </v>
   </varray>
  </structure>
  <varray name="primitive_index" >
   <v type="int" >        1 </v>
   <v type="int" >        2 </v>
   <v type="int" >        3 </v>
   <v type="int" >        4 </v>
   <v type="int" >        5 </v>
   <v type="int" >        6 </v>
   <v type="int" >        7 </v>
   <v type="int" >        8 </v>
   <v type="int" >        9 </v>
   <v type="int" >       10 </v>
   <v type="int" >       11 </v>
   <v type="int" >       12 </v>
   <v type="int" >       13 </v>
   <v type="int" >       14 </v>
   <v type="int" >       15 </v>
   <v type="int" >       16 </v>
   <v type="int" >       17 </v>
   <v type="int" >       18 </v>
   <v type="int" >       19 </v>
   <v type="int" >       20 </v>
   <v type="int" >       21 </v>
   <v type="int" >       22 </v>
   <v type="int" >       23 </v>
   <v type="int" >       24 </v>
   <v type="int" >       25 </v>
   <v type="int" >       26 </v>
   <v type="int" >       27 </v>
   <v type="int" >       28 </v>
   <v type="int" >       29 </v>
   <v type="int" >       30 </v>
   <v type="int" >       31 </v>
   <v type="int" >       32 </v>
   <v type="int" >       33 </v>
   <v type="int" >       34 </v>
   <v type="int" >       35 </v>
   <v type="int" >       36 </v>
   <v type="int" >       37 </v>
   <v type="int" >       38 </v>
   <v type="int" >       39 </v>
   <v type="int" >       40 </v>
   <v type="int" >       41 </v>
   <v type="int" >       42 </v>
   <v type="int" >       43 </v>
   <v type="int" >       44 </v>
   <v type="int" >       45 </v>
   <v type="int" >       46 </v>
   <v type="int" >       47 </v>
   <v type="int" >       48 </v>
   <v type="int" >       49 </v>
   <v type="int" >       50 </v>
   <v type="int" >       51 </v>
   <v type="int" >       52 </v>
   <v type="int" >       53 </v>
   <v type="int" >       54 </v>
   <v type="int" >       55 </v>
   <v type="int" >       56 </v>
   <v type="int" >       57 </v>
   <v type="int" >       58 </v>
   <v type="int" >       59 </v>
   <v type="int" >       60 </v>
   <v type="int" >       61 </v>
   <v type="int" >       62 </v>
   <v type="int" >       63 </v>
   <v type="int" >       64 </v>
   <v type="int" >       65 </v>
   <v type="int" >       66 </v>
   <v type="int" >       67 </v>
   <v type="int" >       68 </v>
   <v type="int" >       69 </v>
   <v type="int" >       70 </v>
   <v type="int" >       71 </v>
   <v type="int" >       72 </v>
   <v type="int" >       73 </v>
   <v type="int" >       74 </v>
   <v type="int" >       75 </v>
   <v type="int" >       76 </v>
   <v type="int" >       77 </v>
   <v type="int" >       78 </v>
   <v type="int" >       79 </v>
   <v type="int" >       80 </v>
   <v type="int" >       81 </v>
   <v type="int" >       82 </v>
   <v type="int" >       83 </v>
   <v type="int" >       84 </v>
   <v type="int" >       85 </v>
   <v type="int" >       86 </v>
   <v type="int" >       87 </v>
   <v type="int" >       88 </v>
   <v type="int" >       89 </v>
   <v type="int" >       90 </v>
   <v type="int" >       91 </v>
   <v type="int" >       92 </v>
   <v type="int" >       93 </v>
   <v type="int" >       94 </v>
   <v type="int" >       95 </v>
  </varray>
 </primitive_cell>
 <kpoints>
  <generation param="Gamma">
   <v type="int" name="divisions">       2        2        1 </v>
   <v name="usershift">      0.00000000       0.00000000       0.00000000 </v>
   <v name="genvec1">      0.50000000       0.00000000       0.00000000 </v>
   <v name="genvec2">      0.00000000       0.50000000       0.00000000 </v>
   <v name="genvec3">      0.00000000       0.00000000       1.00000000 </v>
   <v name="shift">      0.00000000       0.00000000       0.00000000 </v>
  </generation>
  <varray name="kpointlist" >
   <v>       0.00000000       0.00000000       0.00000000 </v>
   <v>       0.50000000       0.00000000       0.00000000 </v>
   <v>       0.00000000       0.50000000       0.00000000 </v>
   <v>       0.50000000       0.50000000       0.00000000 </v>
  </varray>
  <varray name="weights" >
   <v>       0.25000000 </v>
   <v>       0.25000000 </v>
   <v>       0.25000000 </v>
   <v>       0.25000000 </v>
  </varray>
 </kpoints>
 <parameters>
  <separator name="general" >
   <i type="string" name="SYSTEM">unknown system</i>
   <i type="logical" name="LCOMPAT"> F  </i>
  </separator>
  <separator name="electronic" >
   <i type="string" name="PREC">normal</i>
   <i name="ENMAX">    520.00000000</i>
   <i name="ENAUG">    644.87300000</i>
   <i name="EDIFF">      0.00000100</i>
   <i type="int" name="IALGO">    38</i>
   <i type="int" name="IWAVPR">    11</i>
   <i type="int" name="NBANDS">   265</i>
   <i type="int" name="NBANDSLOW">    -1</i>
   <i type="int" name="NBANDSHIGH">    -1</i>
   <i name="NELECT">    368.00000000</i>
   <i type="int" name="TURBO">     0</i>
   <i type="int" name="IRESTART">     0</i>
   <i type="int" name="NREBOOT">     0</i>
   <i type="int" name="NMIN">     0</i>
   <i name="EREF">      0.00000000</i>
   <separator name="electronic smearing" >
    <i type="int" name="ISMEAR">     0</i>
    <i name="SIGMA">      0.05000000</i>
    <i name="KSPACING">      0.50000000</i>
    <i type="logical" name="KGAMMA"> T  </i>
    <i type="logical" name="KBLOWUP"> T  </i>
   </separator>
   <separator name="electronic projectors" >
    <i type="logical" name="LREAL"> T  </i>
    <v name="ROPT">     -0.00050000     -0.00050000     -0.00050000     -0.00050000</v>
    <i type="int" name="LMAXPAW">  -100</i>
    <i type="int" name="LMAXMIX">     2</i>
    <i type="logical" name="NLSPLINE"> F  </i>
   </separator>
   <separator name="electronic startup" >
    <i type="int" name="ISTART">     0</i>
    <i type="int" name="ICHARG">     2</i>
    <i type="int" name="INIWAV">     1</i>
   </separator>
   <separator name="electronic spin" >
    <i type="int" name="ISPIN">     2</i>
    <i type="logical" name="LNONCOLLINEAR"> F  </i>
    <v name="MAGMOM">      0.60000000      0.60000000      0.60000000      0.60000000      0.60000000      0.60000000      0.60000000      0.60000000      0.60000000      0.60000000      0.60000000      0.60000000      0.60000000      0.60000000      0.60000000      0.60000000      0.60000000      0.60000000      0.60000000      0.60000000
      0.60000000      0.60000000      0.60000000      0.60000000      0.60000000      0.60000000      0.60000000      0.60000000      0.60000000      0.60000000      0.60000000      0.60000000      0.60000000      0.60000000      0.60000000      0.60000000      0.60000000      0.60000000      0.60000000      0.60000000
      0.60000000      0.60000000      0.60000000      0.60000000      0.60000000      0.60000000      0.60000000      0.60000000      0.60000000      0.60000000      0.60000000      0.60000000      0.60000000      0.60000000      0.60000000      0.60000000      0.60000000      0.60000000      0.60000000      0.60000000
      0.60000000      0.60000000      0.60000000      0.60000000      0.60000000      0.60000000      0.60000000      0.60000000      0.60000000      0.60000000      0.60000000      0.60000000      0.60000000      0.60000000      0.60000000      0.60000000      0.60000000      0.60000000      0.60000000      0.60000000
      0.60000000      0.60000000      0.60000000      0.60000000      0.60000000      0.60000000      0.60000000      0.60000000      0.60000000      0.60000000      0.60000000      0.60000000      0.60000000      0.60000000      0.60000000</v>
    <i name="NUPDOWN">     -1.00000000</i>
    <i type="logical" name="LSORBIT"> F  </i>
    <v name="SAXIS">      0.00000000      0.00000000      1.00000000</v>
    <i type="logical" name="LSPIRAL"> F  </i>
    <v name="QSPIRAL">      0.00000000      0.00000000      0.00000000</v>
    <i type="logical" name="LZEROZ"> F  </i>
   </separator>
   <separator name="electronic exchange-correlation" >
    <i type="logical" name="LASPH"> T  </i>
    <i type="logical" name="LMETAGGA"> F  </i>
   </separator>
   <separator name="electronic convergence" >
    <i type="int" name="NELM">   200</i>
    <i type="int" name="NELMDL">    -5</i>
    <i type="int" name="NELMIN">     2</i>
    <i name="ENINI">    520.00000000</i>
    <separator name="electronic convergence detail" >
     <i type="logical" name="LDIAG"> T  </i>
     <i type="logical" name="LSUBROT"> F  </i>
     <i name="WEIMIN">      0.00100000</i>
     <i name="EBREAK">      0.00000000</i>
     <i name="DEPER">      0.30000000</i>
     <i type="int" name="NRMM">     4</i>
     <i name="TIME">      0.40000000</i>
    </separator>
   </separator>
   <separator name="electronic mixer" >
    <i name="AMIX">      0.20000000</i>
    <i name="BMIX">      0.00010000</i>
    <i name="AMIN">      0.10000000</i>
    <i name="AMIX_MAG">      0.80000000</i>
    <i name="BMIX_MAG">      0.00010000</i>
    <separator name="electronic mixer details" >
     <i type="int" name="IMIX">     4</i>
     <i type="logical" name="MIXFIRST"> F  </i>
     <i type="int" name="MAXMIX">   -45</i>
     <i name="WC">    100.00000000</i>
     <i type="int" name="INIMIX">     1</i>
     <i type="int" name="MIXPRE">     1</i>
     <i type="int" name="MREMOVE">     5</i>
    </separator>
   </separator>
   <separator name="electronic dipolcorrection" >
    <i type="logical" name="LDIPOL"> F  </i>
    <i type="logical" name="LMONO"> F  </i>
    <i type="int" name="IDIPOL">     0</i>
    <i name="EPSILON">      1.00000000</i>
    <v name="DIPOL">   -100.00000000   -100.00000000   -100.00000000</v>
    <i name="EFIELD">      0.00000000</i>
   </separator>
  </separator>
  <separator name="grids" >
   <i type="int" name="NGX">    96</i>
   <i type="int" name="NGY">    96</i>
   <i type="int" name="NGZ">    84</i>
   <i type="int" name="NGXF">   192</i>
   <i type="int" name="NGYF">   192</i>
   <i type="int" name="NGZF">   168</i>
   <i type="logical" name="ADDGRID"> T  </i>
  </separator>
  <separator name="ionic" >
   <i type="int" name="NSW">  1000</i>
   <i type="int" name="IBRION">     3</i>
   <i type="int" name="MDALGO">     0</i>
   <i type="int" name="ISIF">     2</i>
   <i name="PSTRESS">      0.00000000</i>
   <i name="EDIFFG">     -0.03000000</i>
   <i type="int" name="NFREE">     0</i>
   <i name="POTIM">      0.50000000</i>
   <i name="SMASS">     -3.00000000</i>
   <i name="SCALEE">      1.00000000</i>
  </separator>
  <separator name="ionic md" >
   <i name="TEBEG">      0.00010000</i>
   <i name="TEEND">      0.00010000</i>
   <i type="int" name="NBLOCK">     1</i>
   <i type="int" name="KBLOCK">  1000</i>
   <i type="int" name="NPACO">   256</i>
   <i name="APACO">     10.00000000</i>
  </separator>
  <separator name="symmetry" >
   <i type="int" name="ISYM">     0</i>
   <i name="SYMPREC">      0.00001000</i>
  </separator>
  <separator name="dos" >
   <i type="int" name="LORBIT">     0</i>
   <v name="RWIGS">     -1.00000000     -1.00000000     -1.00000000     -1.00000000</v>
   <i type="int" name="NEDOS">   301</i>
   <i name="EMIN">     10.00000000</i>
   <i name="EMAX">    -10.00000000</i>
   <i name="EFERMI">      0.00000000</i>
  </separator>
  <separator name="writing" >
   <i type="int" name="NWRITE">     2</i>
   <i type="logical" name="LWAVE"> F  </i>
   <i type="logical" name="LDOWNSAMPLE"> F  </i>
   <i type="logical" name="LCHARG"> F  </i>
   <i type="logical" name="LPARD"> F  </i>
   <i type="logical" name="LVTOT"> F  </i>
   <i type="logical" name="LVHAR"> F  </i>
   <i type="logical" name="LELF"> F  </i>
   <i type="logical" name="LOPTICS"> F  </i>
   <v name="STM">      0.00000000      0.00000000      0.00000000      0.00000000      0.00000000      0.00000000      0.00000000</v>
  </separator>
  <separator name="performance" >
   <i type="int" name="NPAR">     5</i>
   <i type="int" name="NSIM">     4</i>
   <i type="int" name="NBLK">    -1</i>
   <i type="logical" name="LPLANE"> T  </i>
   <i type="logical" name="LSCALAPACK"> T  </i>
   <i type="logical" name="LSCAAWARE"> F  </i>
   <i type="logical" name="LSCALU"> F  </i>
   <i type="logical" name="LASYNC"> F  </i>
   <i type="logical" name="LORBITALREAL"> F  </i>
  </separator>
  <separator name="miscellaneous" >
   <i type="int" name="IDIOT">     3</i>
   <i type="int" name="PHON_NSTRUCT">    -1</i>
   <i type="logical" name="LMUSIC"> F  </i>
   <v name="POMASS">     12.01100000      1.00000000     14.00100000     16.00000000</v>
   <v name="DARWINR">      0.00000000      0.00000000      0.00000000      0.00000000</v>
   <v name="DARWINV">      1.00000000      1.00000000      1.00000000      1.00000000</v>
   <i type="logical" name="LCORR"> T  </i>
  </separator>
  <i type="logical" name="GGA_COMPAT"> T  </i>
  <i type="logical" name="LBERRY"> F  </i>
  <i type="int" name="ICORELEVEL">     0</i>
  <i type="logical" name="LDAU"> F  </i>
  <i type="int" name="I_CONSTRAINED_M">     0</i>
  <separator name="electronic exchange-correlation" >
   <i type="string" name="GGA">--</i>
   <i type="int" name="VOSKOWN">     0</i>
   <i type="logical" name="LHFCALC"> F  </i>
   <i type="string" name="PRECFOCK"></i>
   <i type="logical" name="LSYMGRAD"> F  </i>
   <i type="logical" name="LHFONE"> F  </i>
   <i type="logical" name="LRHFCALC"> F  </i>
   <i type="logical" name="LTHOMAS"> F  </i>
   <i type="logical" name="LMODELHF"> F  </i>
   <i type="logical" name="LFOCKACE"> F  </i>
   <i name="ENCUT4O">     -1.00000000</i>
   <i type="int" name="EXXOEP">     0</i>
   <i type="int" name="FOURORBIT">     0</i>
   <i name="AEXX">      0.00000000</i>
   <i name="HFALPHA">      0.00000000</i>
   <i name="MCALPHA">      0.00000000</i>
   <i name="ALDAX">      1.00000000</i>
   <i name="AGGAX">      1.00000000</i>
   <i name="ALDAC">      1.00000000</i>
   <i name="AGGAC">      1.00000000</i>
   <i type="int" name="NKREDX">     1</i>
   <i type="int" name="NKREDY">     1</i>
   <i type="int" name="NKREDZ">     1</i>
   <i type="logical" name="SHIFTRED"> F  </i>
   <i type="logical" name="ODDONLY"> F  </i>
   <i type="logical" name="EVENONLY"> F  </i>
   <i type="int" name="LMAXFOCK">     0</i>
   <i type="int" name="NMAXFOCKAE">     0</i>
   <i type="logical" name="LFOCKAEDFT"> F  </i>
   <i name="HFSCREEN">      0.00000000</i>
   <i name="HFSCREENC">      0.00000000</i>
   <i type="int" name="NBANDSGWLOW">     0</i>
  </separator>
  <separator name="vdW DFT" >
   <i type="logical" name="LUSE_VDW"> F  </i>
   <i type="int" name="IVDW_NL">     1</i>
   <i type="logical" name="LSPIN_VDW"> F  </i>
   <i name="Zab_VDW">     -0.84910000</i>
   <i name="PARAM1">      0.12340000</i>
   <i name="PARAM2">      1.00000000</i>
   <i name="PARAM3">      0.00000000</i>
  </separator>
  <separator name="model GW" >
   <i type="int" name="MODEL_GW">     0</i>
   <i name="MODEL_EPS0">     24.47295536</i>
   <i name="MODEL_ALPHA">      1.00000000</i>
  </separator>
  <separator name="linear response parameters" >
   <i type="logical" name="LEPSILON"> F  </i>
   <i type="logical" name="LRPA"> F  </i>
   <i type="logical" name="LNABLA"> F  </i>
   <i type="logical" name="LVEL"> F  </i>
   <i name="CSHIFT">      0.10000000</i>
   <i name="OMEGAMAX">     -1.00000000</i>
   <i name="DEG_THRESHOLD">      0.00200000</i>
   <i name="RTIME">     -0.10000000</i>
   <i name="WPLASMAI">      0.00000000</i>
   <v name="DFIELD">      0.00000000      0.00000000      0.00000000</v>
   <v name="WPLASMA">      0.00000000      0.00000000      0.00000000      0.00000000      0.00000000      0.00000000      0.00000000      0.00000000      0.00000000</v>
  </separator>
  <separator name="orbital magnetization" >
   <i type="logical" name="NUCIND"> F  </i>
   <v name="MAGPOS">      0.00000000      0.00000000      0.00000000</v>
   <i type="logical" name="LNICSALL"> T  </i>
   <i type="logical" name="ORBITALMAG"> F  </i>
   <i type="logical" name="LMAGBLOCH"> F  </i>
   <i type="logical" name="LCHIMAG"> F  </i>
   <i type="logical" name="LGAUGE"> T  </i>
   <i type="int" name="MAGATOM">     0</i>
   <v name="MAGDIPOL">      0.00000000      0.00000000      0.00000000</v>
   <v name="AVECCONST">      0.00000000      0.00000000      0.00000000</v>
  </separator>
  <separator name="response functions" >
   <i type="logical" name="LALL_IN_ONE"> F  </i>
   <i type="int" name="IALL_IN_ONE">    -1</i>
   <i type="int" name="NBANDS_WAVE">    -1</i>
   <i type="logical" name="LFINITE_TEMPERATURE"> F  </i>
   <i type="logical" name="LADDER"> F  </i>
   <i type="logical" name="LRPAFORCE"> F  </i>
   <i type="logical" name="LFXC"> F  </i>
   <i type="logical" name="LHARTREE"> T  </i>
   <i type="int" name="IBSE">     0</i>
   <v type="int" name="KPOINT">    -1     0     0     0</v>
   <i type="logical" name="LTCTC"> F  </i>
   <i type="logical" name="LTCTE"> F  </i>
   <i type="logical" name="LTETE"> F  </i>
   <i type="logical" name="LTRIPLET"> F  </i>
   <i type="logical" name="LFXCEPS"> F  </i>
   <i type="logical" name="LFXHEG"> F  </i>
   <i type="int" name="NATURALO">     2</i>
   <i type="logical" name="LHOLEGF"> F  </i>
   <i type="logical" name="L2ORDER"> F  </i>
   <i type="logical" name="LDMP1"> F  </i>
   <i type="logical" name="LMP2LT"> F  </i>
   <i type="logical" name="LSMP2LT"> F  </i>
   <i type="logical" name="LGWLF"> F  </i>
   <i name="ENCUTGW">     -1.60000002</i>
   <i name="ENCUTGWSOFT">     -1.60000002</i>
   <i name="ENCUTLF">     -1.00000000</i>
   <i type="logical" name="LESF_SPLINES"> F  </i>
   <i type="int" name="LMAXMP2">    -1</i>
   <i name="SCISSOR">      0.00000000</i>
   <i type="int" name="NOMEGA">     0</i>
   <i type="int" name="NOMEGAR">     0</i>
   <i type="int" name="NBANDSGW">    -1</i>
   <i type="int" name="NBANDSO">    -1</i>
   <i type="int" name="NBANDSV">    -1</i>
   <i type="int" name="NELMGW">     1</i>
   <i type="int" name="NELMHF">     1</i>
   <i type="int" name="DIM">     3</i>
   <i type="int" name="IESPILON">     4</i>
   <i type="int" name="ANTIRES">     0</i>
   <i name="OMEGAMAX">    -30.00000000</i>
   <i name="OMEGAMIN">    -30.00000000</i>
   <i name="OMEGATL">   -200.00000000</i>
   <i type="int" name="OMEGAGRID">     0</i>
   <i name="CSHIFT">     -0.10000000</i>
   <i type="logical" name="LSELFENERGY"> F  </i>
   <i type="logical" name="LSPECTRAL"> F  </i>
   <i type="logical" name="LSPECTRALGW"> F  </i>
   <i type="logical" name="LSINGLES"> F  </i>
   <i type="logical" name="LFERMIGW"> F  </i>
   <i type="logical" name="ODDONLYGW"> F  </i>
   <i type="logical" name="EVENONLYGW"> F  </i>
   <i type="int" name="NKREDLFX">     1</i>
   <i type="int" name="NKREDLFY">     1</i>
   <i type="int" name="NKREDLFZ">     1</i>
   <i type="int" name="MAXMEM">  2800</i>
   <i type="int" name="TELESCOPE">     0</i>
   <i type="int" name="NTAUPAR">    -1</i>
   <i type="int" name="NOMEGAPAR">    -1</i>
   <i name="DAMP_NEWTON">      0.80000001</i>
   <i name="LAMBDA">      1.00000000</i>
  </separator>
  <separator name="External order field" >
   <i name="OFIELD_KAPPA">      0.00000000</i>
   <v name="OFIELD_K">      0.00000000      0.00000000      0.00000000</v>
   <i name="OFIELD_Q6_NEAR">      0.00000000</i>
   <i name="OFIELD_Q6_FAR">      0.00000000</i>
   <i name="OFIELD_A">      0.00000000</i>
  </separator>
  <separator name="optional k-points parameters" >
   <i type="int" name="KPOINTS_OPT_MODE">     1</i>
   <i type="logical" name="LKPOINTS_OPT"> F  </i>
  </separator>
 </parameters>
 <atominfo>
  <atoms>      95 </atoms>
  <types>       4 </types>
  <array name="atoms" >
   <dimension dim="1">ion</dimension>
   <field type="string">element</field>
   <field type="int">atomtype</field>
   <set>
    <rc><c>C </c><c>   1</c></rc>
    <rc><c>C </c><c>   1</c></rc>
    <rc><c>C </c><c>   1</c></rc>
    <rc><c>C </c><c>   1</c></rc>
    <rc><c>C </c><c>   1</c></rc>
    <rc><c>C </c><c>   1</c></rc>
    <rc><c>C </c><c>   1</c></rc>
    <rc><c>C </c><c>   1</c></rc>
    <rc><c>C </c><c>   1</c></rc>
    <rc><c>C </c><c>   1</c></rc>
    <rc><c>C </c><c>   1</c></rc>
    <rc><c>C </c><c>   1</c></rc>
    <rc><c>C </c><c>   1</c></rc>
    <rc><c>C </c><c>   1</c></rc>
    <rc><c>C </c><c>   1</c></rc>
    <rc><c>C </c><c>   1</c></rc>
    <rc><c>C </c><c>   1</c></rc>
    <rc><c>C </c><c>   1</c></rc>
    <rc><c>C </c><c>   1</c></rc>
    <rc><c>C </c><c>   1</c></rc>
    <rc><c>C </c><c>   1</c></rc>
    <rc><c>C </c><c>   1</c></rc>
    <rc><c>C </c><c>   1</c></rc>
    <rc><c>C </c><c>   1</c></rc>
    <rc><c>C </c><c>   1</c></rc>
    <rc><c>C </c><c>   1</c></rc>
    <rc><c>C </c><c>   1</c></rc>
    <rc><c>C </c><c>   1</c></rc>
    <rc><c>C </c><c>   1</c></rc>
    <rc><c>C </c><c>   1</c></rc>
    <rc><c>C </c><c>   1</c></rc>
    <rc><c>C </c><c>   1</c></rc>
    <rc><c>C </c><c>   1</c></rc>
    <rc><c>C </c><c>   1</c></rc>
    <rc><c>C </c><c>   1</c></rc>
    <rc><c>C </c><c>   1</c></rc>
    <rc><c>C </c><c>   1</c></rc>
    <rc><c>C </c><c>   1</c></rc>
    <rc><c>C </c><c>   1</c></rc>
    <rc><c>C </c><c>   1</c></rc>
    <rc><c>C </c><c>   1</c></rc>
    <rc><c>C </c><c>   1</c></rc>
    <rc><c>C </c><c>   1</c></rc>
    <rc><c>C </c><c>   1</c></rc>
    <rc><c>C </c><c>   1</c></rc>
    <rc><c>C </c><c>   1</c></rc>
    <rc><c>C </c><c>   1</c></rc>
    <rc><c>C </c><c>   1</c></rc>
    <rc><c>C </c><c>   1</c></rc>
    <rc><c>C </c><c>   1</c></rc>
    <rc><c>C </c><c>   1</c></rc>
    <rc><c>C </c><c>   1</c></rc>
    <rc><c>C </c><c>   1</c></rc>
    <rc><c>C </c><c>   1</c></rc>
    <rc><c>C </c><c>   1</c></rc>
    <rc><c>C </c><c>   1</c></rc>
    <rc><c>C </c><c>   1</c></rc>
    <rc><c>C </c><c>   1</c></rc>
    <rc><c>C </c><c>   1</c></rc>
    <rc><c>C </c><c>   1</c></rc>
    <rc><c>C </c><c>   1</c></rc>
    <rc><c>C </c><c>   1</c></rc>
    <rc><c>C </c><c>   1</c></rc>
    <rc><c>C </c><c>   1</c></rc>
    <rc><c>C </c><c>   1</c></rc>
    <rc><c>C </c><c>   1</c></rc>
    <rc><c>C </c><c>   1</c></rc>
    <rc><c>C </c><c>   1</c></rc>
    <rc><c>C </c><c>   1</c></rc>
    <rc><c>C </c><c>   1</c></rc>
    <rc><c>C </c><c>   1</c></rc>
    <rc><c>C </c><c>   1</c></rc>
    <rc><c>C </c><c>   1</c></rc>
    <rc><c>C </c><c>   1</c></rc>
    <rc><c>C </c><c>   1</c></rc>
    <rc><c>C </c><c>   1</c></rc>
    <rc><c>C </c><c>   1</c></rc>
    <rc><c>C </c><c>   1</c></rc>
    <rc><c>C </c><c>   1</c></rc>
    <rc><c>C </c><c>   1</c></rc>
    <rc><c>C </c><c>   1</c></rc>
    <rc><c>C </c><c>   1</c></rc>
    <rc><c>C </c><c>   1</c></rc>
    <rc><c>C </c><c>   1</c></rc>
    <rc><c>H </c><c>   2</c></rc>
    <rc><c>H </c><c>   2</c></rc>
    <rc><c>H </c><c>   2</c></rc>
    <rc><c>H </c><c>   2</c></rc>
    <rc><c>H </c><c>   2</c></rc>
    <rc><c>H </c><c>   2</c></rc>
    <rc><c>N </c><c>   3</c></rc>
    <rc><c>N </c><c>   3</c></rc>
    <rc><c>N </c><c>   3</c></rc>
    <rc><c>N </c><c>   3</c></rc>
    <rc><c>O </c><c>   4</c></rc>
   </set>
  </array>
  <array name="atomtypes" >
   <dimension dim="1">type</dimension>
   <field type="int">atomspertype</field>
   <field type="string">element</field>
   <field>mass</field>
   <field>valence</field>
   <field type="string">pseudopotential</field>
   <set>
    <rc><c>  84</c><c>C </c><c>     12.01100000</c><c>      4.00000000</c><c>  PAW_PBE C 08Apr2002                   </c></rc>
    <rc><c>   6</c><c>H </c><c>      1.00000000</c><c>      1.00000000</c><c>  PAW_PBE H 15Jun2001                   </c></rc>
    <rc><c>   4</c><c>N </c><c>     14.00100000</c><c>      5.00000000</c><c>  PAW_PBE N 08Apr2002                   </c></rc>
    <rc><c>   1</c><c>O </c><c>     16.00000000</c><c>      6.00000000</c><c>  PAW_PBE O 08Apr2002                   </c></rc>
   </set>
  </array>
 </atominfo>
 <structure name="initialpos" >
  <crystal>
   <varray name="basis" >
    <v>      17.27103806       0.00000000       0.00000000 </v>
    <v>      -8.63551903      14.95715771       0.00000000 </v>
    <v>       0.00000000       0.00000000      15.00000000 </v>
   </varray>
   <i name="volume">   3874.88459904 </i>
   <varray name="rec_basis" >
    <v>       0.05790040       0.03342881       0.00000000 </v>
    <v>       0.00000000       0.06685762       0.00000000 </v>
    <v>       0.00000000       0.00000000       0.06666667 </v>
   </varray>
  </crystal>
  <varray name="positions" >
   <v>       0.00140700       0.00063544       0.49969197 </v>
   <v>       0.00088212       0.14310106       0.49976986 </v>
   <v>       0.00053016       0.28594685       0.49979921 </v>
   <v>       0.00088093       0.42913086       0.49986953 </v>
   <v>       0.00138311       0.57210093       0.49986625 </v>
   <v>       0.00175637       0.71495331       0.49981794 </v>
   <v>       0.00179404       0.85819829       0.49976851 </v>
   <v>       0.14519853       0.00181280       0.50008726 </v>
   <v>       0.14473593       0.14449350       0.50028531 </v>
   <v>       0.14286275       0.28593849       0.50049883 </v>
   <v>       0.14283821       0.42830338       0.50051476 </v>
   <v>       0.14473929       0.57158938       0.50046012 </v>
   <v>       0.14517298       0.71472136       0.50020223 </v>
   <v>       0.14510002       0.85822889       0.49999608 </v>
   <v>       0.28807748       0.00185292       0.50025159 </v>
   <v>       0.28836876       0.14654119       0.50071074 </v>
   <v>       0.28761563       0.29265808       0.50156741 </v>
   <v>       0.28540777       0.42839291       0.50210839 </v>
   <v>       0.28765114       0.56634543       0.50165424 </v>
   <v>       0.28838301       0.71324925       0.50084312 </v>
   <v>       0.28808271       0.85763119       0.50022057 </v>
   <v>       0.43060544       0.00098567       0.50024004 </v>
   <v>       0.43125626       0.14563531       0.50035763 </v>
   <v>       0.43049034       0.28723786       0.50047967 </v>
   <v>       0.43046868       0.71460189       0.50061865 </v>
   <v>       0.43129313       0.85701834       0.50043122 </v>
   <v>       0.57291779       0.00055295       0.50007546 </v>
   <v>       0.57290718       0.14372000       0.49999205 </v>
   <v>       0.57658853       0.29022825       0.49998804 </v>
   <v>       0.57661706       0.85770222       0.50016679 </v>
   <v>       0.71580862       0.00095983       0.49982324 </v>
   <v>       0.71564572       0.14347749       0.49975235 </v>
   <v>       0.71582990       0.28618220       0.49974438 </v>
   <v>       0.71184696       0.42566683       0.50003168 </v>
   <v>       0.71612301       0.57238838       0.50124958 </v>
   <v>       0.71614173       0.71505384       0.50133702 </v>
   <v>       0.71188515       0.85752218       0.50012037 </v>
   <v>       0.85818496       0.00024244       0.49963280 </v>
   <v>       0.85817547       0.14330794       0.49958628 </v>
   <v>       0.85817963       0.28617960       0.49964517 </v>
   <v>       0.85817894       0.42926285       0.49973321 </v>
   <v>       0.85739446       0.57150449       0.49982616 </v>
   <v>       0.85879057       0.71507224       0.50005466 </v>
   <v>       0.85742818       0.85724989       0.49985590 </v>
   <v>       0.04920218       0.09608985       0.49986510 </v>
   <v>       0.04773700       0.23811362       0.49996089 </v>
   <v>       0.04774674       0.38098998       0.50000409 </v>
   <v>       0.04918723       0.52445075       0.50003045 </v>
   <v>       0.04954771       0.66743968       0.49994734 </v>
   <v>       0.04943999       0.81039285       0.49985027 </v>
   <v>       0.04958947       0.95348925       0.49979679 </v>
   <v>       0.19281496       0.09725631       0.50041486 </v>
   <v>       0.19170360       0.24000409       0.50070521 </v>
   <v>       0.18976000       0.38057320       0.50085291 </v>
   <v>       0.19172243       0.52306813       0.50078912 </v>
   <v>       0.19280442       0.66691617       0.50060407 </v>
   <v>       0.19280012       0.81034111       0.50013043 </v>
   <v>       0.19281186       0.95382332       0.50012257 </v>
   <v>       0.33588658       0.09826485       0.50043821 </v>
   <v>       0.33690917       0.24310663       0.50107069 </v>
   <v>       0.33689427       0.66519180       0.50118890 </v>
   <v>       0.33589446       0.80904262       0.50049843 </v>
   <v>       0.33522194       0.95332118       0.50022207 </v>
   <v>       0.47792173       0.09650399       0.50019894 </v>
   <v>       0.47873081       0.24160446       0.50023963 </v>
   <v>       0.47874728       0.80848329       0.50040301 </v>
   <v>       0.47794139       0.95281934       0.50024071 </v>
   <v>       0.62021969       0.09578726       0.49992952 </v>
   <v>       0.62105660       0.23929450       0.49988093 </v>
   <v>       0.62107000       0.95310617       0.50002808 </v>
   <v>       0.76331828       0.09618781       0.49970350 </v>
   <v>       0.76333761       0.23844432       0.49967340 </v>
   <v>       0.76269556       0.38102158       0.49980487 </v>
   <v>       0.76084808       0.52395926       0.50026705 </v>
   <v>       0.76292211       0.66712124       0.50090253 </v>
   <v>       0.76088635       0.80823092       0.50037145 </v>
   <v>       0.76271950       0.95301320       0.49980914 </v>
   <v>       0.90563368       0.09528216       0.49960233 </v>
   <v>       0.90549627       0.23838723       0.49960941 </v>
   <v>       0.90562682       0.38166349       0.49970411 </v>
   <v>       0.90584040       0.52462880       0.49972643 </v>
   <v>       0.90586798       0.66702738       0.49983039 </v>
   <v>       0.90590503       0.81021807       0.49985142 </v>
   <v>       0.90587486       0.95258590       0.49962583 </v>
   <v>       0.46862846       0.35994506       0.49974879 </v>
   <v>       0.64321997       0.67731690       0.50278882 </v>
   <v>       0.64319365       0.53722177       0.50271403 </v>
   <v>       0.46856412       0.67998552       0.49989250 </v>
   <v>       0.46354992       0.55996114       0.52697842 </v>
   <v>       0.46294027       0.47432237       0.52673779 </v>
   <v>       0.33169669       0.38297898       0.50278957 </v>
   <v>       0.33172950       0.52010118       0.50282898 </v>
   <v>       0.62186091       0.38056159       0.50001438 </v>
   <v>       0.62188861       0.81264052       0.50018740 </v>
   <v>       0.50603161       0.53829829       0.53488800 </v>
  </varray>
  <varray name="selective"  type="logical" >
   <v type="logical" >  T  T  T </v>
   <v type="logical" >  T  T  T </v>
   <v type="logical" >  T  T  T </v>
   <v type="logical" >  T  T  T </v>
   <v type="logical" >  T  T  T </v>
   <v type="logical" >  T  T  T </v>
   <v type="logical" >  T  T  T </v>
   <v type="logical" >  T  T  T </v>
   <v type="logical" >  T  T  T </v>
   <v type="logical" >  T  T  T </v>
   <v type="logical" >  T  T  T </v>
   <v type="logical" >  T  T  T </v>
   <v type="logical" >  T  T  T </v>
   <v type="logical" >  T  T  T </v>
   <v type="logical" >  T  T  T </v>
   <v type="logical" >  T  T  T </v>
   <v type="logical" >  T  T  T </v>
   <v type="logical" >  T  T  T </v>
   <v type="logical" >  T  T  T </v>
   <v type="logical" >  T  T  T </v>
   <v type="logical" >  T  T  T </v>
   <v type="logical" >  T  T  T </v>
   <v type="logical" >  T  T  T </v>
   <v type="logical" >  T  T  T </v>
   <v type="logical" >  T  T  T </v>
   <v type="logical" >  T  T  T </v>
   <v type="logical" >  T  T  T </v>
   <v type="logical" >  T  T  T </v>
   <v type="logical" >  T  T  T </v>
   <v type="logical" >  T  T  T </v>
   <v type="logical" >  T  T  T </v>
   <v type="logical" >  T  T  T </v>
   <v type="logical" >  T  T  T </v>
   <v type="logical" >  T  T  T </v>
   <v type="logical" >  T  T  T </v>
   <v type="logical" >  T  T  T </v>
   <v type="logical" >  T  T  T </v>
   <v type="logical" >  T  T  T </v>
   <v type="logical" >  T  T  T </v>
   <v type="logical" >  T  T  T </v>
   <v type="logical" >  T  T  T </v>
   <v type="logical" >  T  T  T </v>
   <v type="logical" >  T  T  T </v>
   <v type="logical" >  T  T  T </v>
   <v type="logical" >  T  T  T </v>
   <v type="logical" >  T  T  T </v>
   <v type="logical" >  T  T  T </v>
   <v type="logical" >  T  T  T </v>
   <v type="logical" >  T  T  T </v>
   <v type="logical" >  T  T  T </v>
   <v type="logical" >  T  T  T </v>
   <v type="logical" >  T  T  T </v>
   <v type="logical" >  T  T  T </v>
   <v type="logical" >  T  T  T </v>
   <v type="logical" >  T  T  T </v>
   <v type="logical" >  T  T  T </v>
   <v type="logical" >  T  T  T </v>
   <v type="logical" >  T  T  T </v>
   <v type="logical" >  T  T  T </v>
   <v type="logical" >  T  T  T </v>
   <v type="logical" >  T  T  T </v>
   <v type="logical" >  T  T  T </v>
   <v type="logical" >  T  T  T </v>
   <v type="logical" >  T  T  T </v>
   <v type="logical" >  T  T  T </v>
   <v type="logical" >  T  T  T </v>
   <v type="logical" >  T  T  T </v>
   <v type="logical" >  T  T  T </v>
   <v type="logical" >  T  T  T </v>
   <v type="logical" >  T  T  T </v>
   <v type="logical" >  T  T  T </v>
   <v type="logical" >  T  T  T </v>
   <v type="logical" >  T  T  T </v>
   <v type="logical" >  T  T  T </v>
   <v type="logical" >  T  T  T </v>
   <v type="logical" >  T  T  T </v>
   <v type="logical" >  T  T  T </v>
   <v type="logical" >  T  T  T </v>
   <v type="logical" >  T  T  T </v>
   <v type="logical" >  T  T  T </v>
   <v type="logical" >  T  T  T </v>
   <v type="logical" >  T  T  T </v>
   <v type="logical" >  T  T  T </v>
   <v type="logical" >  T  T  T </v>
   <v type="logical" >  T  T  T </v>
   <v type="logical" >  T  T  T </v>
   <v type="logical" >  T  T  T </v>
   <v type="logical" >  T  T  T </v>
   <v type="logical" >  T  T  T </v>
   <v type="logical" >  T  T  T </v>
   <v type="logical" >  T  T  T </v>
   <v type="logical" >  T  T  T </v>
   <v type="logical" >  T  T  T </v>
   <v type="logical" >  T  T  T </v>
   <v type="logical" >  T  T  F </v>
  </varray>
  <nose>
   <v>      -3.00000000       0.00000000       0.00010000       0.00010000 </v>
  </nose>
 </structure>
 <calculation>
  <scstep>
   <time name="dav">   91.89   92.51</time>
   <time name="total">   98.08   98.79</time>
   <energy>
    <i name="alphaZ">    175.60570339 </i>
    <i name="ewald">  36594.51067967 </i>
    <i name="hartreedc"> -47004.79397718 </i>
    <i name="XCdc">   1231.30652341 </i>
    <i name="pawpsdc">  10290.17603344 </i>
    <i name="pawaedc"> -10344.35078173 </i>
    <i name="eentropy">     -0.04657715 </i>
    <i name="bandstr">  -1589.95291966 </i>
    <i name="atom">  13925.93113153 </i>
    <i name="e_fr_energy">   3278.38581571 </i>
    <i name="e_wo_entrp">   3278.43239287 </i>
    <i name="e_0_energy">   3278.40910429 </i>
   </energy>
  </scstep>
  <scstep>
   <time name="dav">  120.00  120.90</time>
   <time name="total">  120.00  120.91</time>
   <energy>
    <i name="e_fr_energy">   -234.58730053 </i>
    <i name="e_wo_entrp">   -234.58729511 </i>
    <i name="e_0_energy">   -234.58729782 </i>
   </energy>
  </scstep>
  <scstep>
   <time name="dav">  104.64  105.38</time>
   <time name="total">  104.65  105.42</time>
   <energy>
    <i name="e_fr_energy">   -853.29967321 </i>
    <i name="e_wo_entrp">   -853.29965672 </i>
    <i name="e_0_energy">   -853.29966497 </i>
   </energy>
  </scstep>
  <scstep>
   <time name="dav">  103.87  104.70</time>
   <time name="total">  103.87  104.72</time>
   <energy>
    <i name="e_fr_energy">   -875.25495331 </i>
    <i name="e_wo_entrp">   -875.25488466 </i>
    <i name="e_0_energy">   -875.25491899 </i>
   </energy>
  </scstep>
  <scstep>
   <time name="dav">  114.19  115.06</time>
   <time name="total">  120.18  121.12</time>
   <energy>
    <i name="e_fr_energy">   -875.90180417 </i>
    <i name="e_wo_entrp">   -875.90172906 </i>
    <i name="e_0_energy">   -875.90176662 </i>
   </energy>
  </scstep>
  <scstep>
   <time name="dav">  100.46  101.15</time>
   <time name="total">  112.99  113.79</time>
   <energy>
    <i name="e_fr_energy">   -859.54921133 </i>
    <i name="e_wo_entrp">   -859.54920915 </i>
    <i name="e_0_energy">   -859.54921024 </i>
   </energy>
  </scstep>
  <scstep>
   <time name="dav">   98.71   99.38</time>
   <time name="total">  111.37  112.17</time>
   <energy>
    <i name="e_fr_energy">   -838.47301420 </i>
    <i name="e_wo_entrp">   -838.47301417 </i>
    <i name="e_0_energy">   -838.47301418 </i>
   </energy>
  </scstep>
  <scstep>
   <time name="dav">   99.88  100.55</time>
   <time name="total">  112.33  113.11</time>
   <energy>
    <i name="e_fr_energy">   -833.74807782 </i>
    <i name="e_wo_entrp">   -833.74807782 </i>
    <i name="e_0_energy">   -833.74807782 </i>
   </energy>
  </scstep>
  <scstep>
   <time name="dav">   99.77  100.46</time>
   <time name="total">  112.24  113.04</time>
   <energy>
    <i name="e_fr_energy">   -833.76168506 </i>
    <i name="e_wo_entrp">   -833.76168506 </i>
    <i name="e_0_energy">   -833.76168506 </i>
   </energy>
  </scstep>
  <scstep>
   <time name="dav">   96.56   97.23</time>
   <time name="total">  109.36  110.17</time>
   <energy>
    <i name="e_fr_energy">   -833.62833859 </i>
    <i name="e_wo_entrp">   -833.62833859 </i>
    <i name="e_0_energy">   -833.62833859 </i>
   </energy>
  </scstep>
  <scstep>
   <time name="dav">   96.95   97.66</time>
   <time name="total">  109.16  109.99</time>
   <energy>
    <i name="e_fr_energy">   -833.60740795 </i>
    <i name="e_wo_entrp">   -833.60740795 </i>
    <i name="e_0_energy">   -833.60740795 </i>
   </energy>
  </scstep>
  <scstep>
   <time name="dav">  100.26  100.94</time>
   <time name="total">  113.45  114.28</time>
   <energy>
    <i name="e_fr_energy">   -833.60711762 </i>
    <i name="e_wo_entrp">   -833.60711762 </i>
    <i name="e_0_energy">   -833.60711762 </i>
   </energy>
  </scstep>
  <scstep>
   <time name="dav">  100.31  101.00</time>
   <time name="total">  113.45  114.27</time>
   <energy>
    <i name="e_fr_energy">   -833.60691398 </i>
    <i name="e_wo_entrp">   -833.60691398 </i>
    <i name="e_0_energy">   -833.60691398 </i>
   </energy>
  </scstep>
  <scstep>
   <time name="dav">  101.79  102.47</time>
   <time name="total">  114.58  115.38</time>
   <energy>
    <i name="e_fr_energy">   -833.60698712 </i>
    <i name="e_wo_entrp">   -833.60698712 </i>
    <i name="e_0_energy">   -833.60698712 </i>
   </energy>
  </scstep>
  <scstep>
   <time name="dav">   97.23   97.88</time>
   <time name="total">  109.94  110.70</time>
   <energy>
    <i name="e_fr_energy">   -833.60702627 </i>
    <i name="e_wo_entrp">   -833.60702627 </i>
    <i name="e_0_energy">   -833.60702627 </i>
   </energy>
  </scstep>
  <scstep>
   <time name="dav">   99.62  100.34</time>
   <time name="total">  112.19  113.03</time>
   <energy>
    <i name="e_fr_energy">   -833.60703222 </i>
    <i name="e_wo_entrp">   -833.60703222 </i>
    <i name="e_0_energy">   -833.60703222 </i>
   </energy>
  </scstep>
  <scstep>
   <time name="dav">  100.20  100.94</time>
   <time name="total">  105.98  106.79</time>
   <energy>
    <i name="alphaZ">    175.60570339 </i>
    <i name="ewald">  36594.51067967 </i>
    <i name="hartreedc"> -48464.92542078 </i>
    <i name="XCdc">   1280.21895528 </i>
    <i name="pawpsdc">  37175.44380732 </i>
    <i name="pawaedc"> -37240.49169285 </i>
    <i name="eentropy">     -0.00000000 </i>
    <i name="bandstr">  -4279.90019494 </i>
    <i name="atom">  13925.93113153 </i>
    <i name="e_fr_energy">   -833.60703137 </i>
    <i name="e_wo_entrp">   -833.60703137 </i>
    <i name="e_0_energy">   -833.60703137 </i>
   </energy>
  </scstep>
  <structure>
   <crystal>
    <varray name="basis" >
     <v>      17.27103806       0.00000000       0.00000000 </v>
     <v>      -8.63551903      14.95715771       0.00000000 </v>
     <v>       0.00000000       0.00000000      15.00000000 </v>
    </varray>
    <i name="volume">   3874.88459904 </i>
    <varray name="rec_basis" >
     <v>       0.05790040       0.03342881       0.00000000 </v>
     <v>       0.00000000       0.06685762       0.00000000 </v>
     <v>       0.00000000       0.00000000       0.06666667 </v>
    </varray>
   </crystal>
   <varray name="positions" >
    <v>       0.00140700       0.00063544       0.49969197 </v>
    <v>       0.00088212       0.14310106       0.49976986 </v>
    <v>       0.00053016       0.28594685       0.49979921 </v>
    <v>       0.00088093       0.42913086       0.49986953 </v>
    <v>       0.00138311       0.57210093       0.49986625 </v>
    <v>       0.00175637       0.71495331       0.49981794 </v>
    <v>       0.00179404       0.85819829       0.49976851 </v>
    <v>       0.14519853       0.00181280       0.50008726 </v>
    <v>       0.14473593       0.14449350       0.50028531 </v>
    <v>       0.14286275       0.28593849       0.50049883 </v>
    <v>       0.14283821       0.42830338       0.50051476 </v>
    <v>       0.14473929       0.57158938       0.50046012 </v>
    <v>       0.14517298       0.71472136       0.50020223 </v>
    <v>       0.14510002       0.85822889       0.49999608 </v>
    <v>       0.28807748       0.00185292       0.50025159 </v>
    <v>       0.28836876       0.14654119       0.50071074 </v>
    <v>       0.28761563       0.29265808       0.50156741 </v>
    <v>       0.28540777       0.42839291       0.50210839 </v>
    <v>       0.28765114       0.56634543       0.50165424 </v>
    <v>       0.28838301       0.71324925       0.50084312 </v>
    <v>       0.28808271       0.85763119       0.50022057 </v>
    <v>       0.43060544       0.00098567       0.50024004 </v>
    <v>       0.43125626       0.14563531       0.50035763 </v>
    <v>       0.43049034       0.28723786       0.50047967 </v>
    <v>       0.43046868       0.71460189       0.50061865 </v>
    <v>       0.43129313       0.85701834       0.50043122 </v>
    <v>       0.57291779       0.00055295       0.50007546 </v>
    <v>       0.57290718       0.14372000       0.49999205 </v>
    <v>       0.57658853       0.29022825       0.49998804 </v>
    <v>       0.57661706       0.85770222       0.50016679 </v>
    <v>       0.71580862       0.00095983       0.49982324 </v>
    <v>       0.71564572       0.14347749       0.49975235 </v>
    <v>       0.71582990       0.28618220       0.49974438 </v>
    <v>       0.71184696       0.42566683       0.50003168 </v>
    <v>       0.71612301       0.57238838       0.50124958 </v>
    <v>       0.71614173       0.71505384       0.50133702 </v>
    <v>       0.71188515       0.85752218       0.50012037 </v>
    <v>       0.85818496       0.00024244       0.49963280 </v>
    <v>       0.85817547       0.14330794       0.49958628 </v>
    <v>       0.85817963       0.28617960       0.49964517 </v>
    <v>       0.85817894       0.42926285       0.49973321 </v>
    <v>       0.85739446       0.57150449       0.49982616 </v>
    <v>       0.85879057       0.71507224       0.50005466 </v>
    <v>       0.85742818       0.85724989       0.49985590 </v>
    <v>       0.04920218       0.09608985       0.49986510 </v>
    <v>       0.04773700       0.23811362       0.49996089 </v>
    <v>       0.04774674       0.38098998       0.50000409 </v>
    <v>       0.04918723       0.52445075       0.50003045 </v>
    <v>       0.04954771       0.66743968       0.49994734 </v>
    <v>       0.04943999       0.81039285       0.49985027 </v>
    <v>       0.04958947       0.95348925       0.49979679 </v>
    <v>       0.19281496       0.09725631       0.50041486 </v>
    <v>       0.19170360       0.24000409       0.50070521 </v>
    <v>       0.18976000       0.38057320       0.50085291 </v>
    <v>       0.19172243       0.52306813       0.50078912 </v>
    <v>       0.19280442       0.66691617       0.50060407 </v>
    <v>       0.19280012       0.81034111       0.50013043 </v>
    <v>       0.19281186       0.95382332       0.50012257 </v>
    <v>       0.33588658       0.09826485       0.50043821 </v>
    <v>       0.33690917       0.24310663       0.50107069 </v>
    <v>       0.33689427       0.66519180       0.50118890 </v>
    <v>       0.33589446       0.80904262       0.50049843 </v>
    <v>       0.33522194       0.95332118       0.50022207 </v>
    <v>       0.47792173       0.09650399       0.50019894 </v>
    <v>       0.47873081       0.24160446       0.50023963 </v>
    <v>       0.47874728       0.80848329       0.50040301 </v>
    <v>       0.47794139       0.95281934       0.50024071 </v>
    <v>       0.62021969       0.09578726       0.49992952 </v>
    <v>       0.62105660       0.23929450       0.49988093 </v>
    <v>       0.62107000       0.95310617       0.50002808 </v>
    <v>       0.76331828       0.09618781       0.49970350 </v>
    <v>       0.76333761       0.23844432       0.49967340 </v>
    <v>       0.76269556       0.38102158       0.49980487 </v>
    <v>       0.76084808       0.52395926       0.50026705 </v>
    <v>       0.76292211       0.66712124       0.50090253 </v>
    <v>       0.76088635       0.80823092       0.50037145 </v>
    <v>       0.76271950       0.95301320       0.49980914 </v>
    <v>       0.90563368       0.09528216       0.49960233 </v>
    <v>       0.90549627       0.23838723       0.49960941 </v>
    <v>       0.90562682       0.38166349       0.49970411 </v>
    <v>       0.90584040       0.52462880       0.49972643 </v>
    <v>       0.90586798       0.66702738       0.49983039 </v>
    <v>       0.90590503       0.81021807       0.49985142 </v>
    <v>       0.90587486       0.95258590       0.49962583 </v>
    <v>       0.46862846       0.35994506       0.49974879 </v>
    <v>       0.64321997       0.67731690       0.50278882 </v>
    <v>       0.64319365       0.53722177       0.50271403 </v>
    <v>       0.46856412       0.67998552       0.49989250 </v>
    <v>       0.46354992       0.55996114       0.52697842 </v>
    <v>       0.46294027       0.47432237       0.52673779 </v>
    <v>       0.33169669       0.38297898       0.50278957 </v>
    <v>       0.33172950       0.52010118       0.50282898 </v>
    <v>       0.62186091       0.38056159       0.50001438 </v>
    <v>       0.62188861       0.81264052       0.50018740 </v>
    <v>       0.50603161       0.53829829       0.53488800 </v>
   </varray>
  </structure>
  <varray name="forces" >
   <v>      -0.00087348       0.00020508      -0.00049444 </v>
   <v>      -0.00044391       0.00063377      -0.00008767 </v>
   <v>       0.00188982      -0.00340921      -0.00011871 </v>
   <v>       0.00255563      -0.00323734      -0.00039939 </v>
   <v>      -0.00067001      -0.00069577      -0.00025813 </v>
   <v>      -0.00208913      -0.00028146      -0.00019264 </v>
   <v>      -0.00216751       0.00002217      -0.00042461 </v>
   <v>      -0.00130878       0.00027866       0.00022795 </v>
   <v>      -0.00081021       0.00034253      -0.00015143 </v>
   <v>      -0.00058007      -0.00044528      -0.00011990 </v>
   <v>       0.00559369      -0.00486107      -0.00009903 </v>
   <v>      -0.00000681      -0.00493485      -0.00097395 </v>
   <v>      -0.00128149       0.00019037      -0.00020161 </v>
   <v>      -0.00263872       0.00037814       0.00030043 </v>
   <v>      -0.00156131       0.00130191       0.00092364 </v>
   <v>      -0.00112008      -0.00062557       0.00047235 </v>
   <v>      -0.00088546      -0.00004068       0.00027254 </v>
   <v>       0.00002510      -0.00027097       0.00084460 </v>
   <v>       0.00063864      -0.00115447       0.00010487 </v>
   <v>      -0.00009452      -0.00045192      -0.00029072 </v>
   <v>      -0.00209267       0.00250720      -0.00073007 </v>
   <v>       0.00035431       0.00170786       0.00021900 </v>
   <v>      -0.00147748      -0.00110708       0.00072586 </v>
   <v>      -0.00170448      -0.00191213      -0.00031329 </v>
   <v>      -0.00049431      -0.00006417      -0.00097104 </v>
   <v>      -0.00028531      -0.00016876       0.00012442 </v>
   <v>      -0.00071268      -0.00049524       0.00128170 </v>
   <v>      -0.00117767      -0.00084307       0.00091084 </v>
   <v>      -0.00099609      -0.00071631       0.00012000 </v>
   <v>      -0.00028484      -0.00042530       0.00021040 </v>
   <v>       0.00143103       0.00022557       0.00104783 </v>
   <v>       0.00242993      -0.00072319      -0.00013164 </v>
   <v>       0.00089098      -0.00052270       0.00024335 </v>
   <v>      -0.00032788       0.00000083      -0.00010795 </v>
   <v>      -0.00190532      -0.00204492       0.00093021 </v>
   <v>       0.00006012       0.00065889       0.00169723 </v>
   <v>       0.00014439       0.00021340       0.00027353 </v>
   <v>       0.00093659       0.00123711       0.00026725 </v>
   <v>       0.00720383       0.00391392       0.00106276 </v>
   <v>       0.00374578      -0.00116396      -0.00012535 </v>
   <v>      -0.00011006      -0.00024832       0.00001341 </v>
   <v>      -0.00170761      -0.00059589       0.00053030 </v>
   <v>      -0.00092863       0.00005310       0.00006448 </v>
   <v>      -0.00069393      -0.00021080      -0.00043581 </v>
   <v>      -0.00016945      -0.00064245      -0.00024688 </v>
   <v>      -0.00070568       0.00043198      -0.00021050 </v>
   <v>      -0.00707119       0.00673248      -0.00024809 </v>
   <v>      -0.00043478       0.00123291      -0.00036365 </v>
   <v>       0.00039227      -0.00017168      -0.00026368 </v>
   <v>       0.00417345       0.00001052      -0.00004274 </v>
   <v>      -0.00027725      -0.00058841      -0.00035485 </v>
   <v>      -0.00044120      -0.00045978       0.00028619 </v>
   <v>       0.00020405       0.00049058      -0.00033438 </v>
   <v>      -0.00059546       0.00186649       0.00035286 </v>
   <v>      -0.00187819       0.00315954       0.00082379 </v>
   <v>      -0.00067871       0.00114008      -0.00010575 </v>
   <v>       0.00008675      -0.00257371       0.00048976 </v>
   <v>      -0.00027648      -0.00110512       0.00061001 </v>
   <v>      -0.00031358      -0.00038616       0.00072697 </v>
   <v>       0.00211440       0.00165117       0.00090163 </v>
   <v>      -0.00145485       0.00097797      -0.00161168 </v>
   <v>      -0.00067038      -0.00088959      -0.00012877 </v>
   <v>       0.00053696      -0.00572771       0.00113631 </v>
   <v>       0.00010765      -0.00057376       0.00104244 </v>
   <v>       0.00043864       0.00160465       0.00096796 </v>
   <v>      -0.00106538      -0.00018116      -0.00032299 </v>
   <v>      -0.00049918      -0.00071017       0.00100899 </v>
   <v>      -0.00116071      -0.00046518       0.00117654 </v>
   <v>      -0.00033555      -0.00045293       0.00051625 </v>
   <v>      -0.00130036      -0.00044713       0.00099275 </v>
   <v>      -0.00683038      -0.00272840      -0.00011621 </v>
   <v>      -0.00632486      -0.00138370       0.00124121 </v>
   <v>      -0.00105968      -0.00088121       0.00020327 </v>
   <v>       0.00022250      -0.00003780      -0.00048784 </v>
   <v>      -0.00047636       0.00011718       0.00094561 </v>
   <v>      -0.00034686      -0.00072509       0.00096337 </v>
   <v>      -0.00377901      -0.00175508      -0.00028078 </v>
   <v>      -0.00262395      -0.00161978       0.00031625 </v>
   <v>      -0.00475356       0.00147899       0.00033977 </v>
   <v>      -0.00165282       0.00065931      -0.00023218 </v>
   <v>       0.00000606      -0.00057295       0.00006060 </v>
   <v>      -0.00013214      -0.00046274      -0.00028241 </v>
   <v>      -0.00057488      -0.00077704      -0.00042595 </v>
   <v>      -0.00104073      -0.00093460      -0.00047015 </v>
   <v>      -0.00014529      -0.00026541      -0.00192802 </v>
   <v>      -0.00051178      -0.00069237       0.00202413 </v>
   <v>       0.00043889       0.00053492       0.00187008 </v>
   <v>      -0.00122448      -0.00015231      -0.00201278 </v>
   <v>       0.01823478       0.00931938      -0.00787778 </v>
   <v>       0.01533969       0.00723365      -0.00877954 </v>
   <v>       0.00082368       0.00063883       0.00081946 </v>
   <v>       0.00028347       0.00127394       0.00069714 </v>
   <v>      -0.00037035      -0.00100381      -0.00016897 </v>
   <v>      -0.00127319      -0.00002299      -0.00009698 </v>
   <v>       0.01257606       0.00661561       0.00063863 </v>
  </varray>
  <varray name="stress" >
   <v>      -5.97964470       1.80492903       0.01087214 </v>
   <v>       1.80492897      -8.09444941       0.00197384 </v>
   <v>       0.01087183       0.00197369      -0.28182045 </v>
  </varray>
  <energy>
   <i name="e_fr_energy">   -841.24347169 </i>
   <i name="e_wo_entrp">   -841.24347169 </i>
   <i name="e_0_energy">   -841.24347169 </i>
  </energy>
  <time name="totalsc"> 2273.14 2289.38</time>
  <eigenvalues>
   <array>
    <dimension dim="1">band</dimension>
    <dimension dim="2">kpoint</dimension>
    <dimension dim="3">spin</dimension>
    <field>eigene</field>
    <field>occ</field>
    <set>
     <set comment="spin 1">
      <set comment="kpoint 1">
       <r>  -22.7345    1.0000 </r>
       <r>  -22.4129    1.0000 </r>
       <r>  -22.3526    1.0000 </r>
       <r>  -22.1248    1.0000 </r>
       <r>  -21.7732    1.0000 </r>
       <r>  -21.6813    1.0000 </r>
       <r>  -21.5957    1.0000 </r>
       <r>  -21.4660    1.0000 </r>
       <r>  -21.2434    1.0000 </r>
       <r>  -21.0628    1.0000 </r>
       <r>  -20.7973    1.0000 </r>
       <r>  -20.5888    1.0000 </r>
       <r>  -20.4571    1.0000 </r>
       <r>  -20.4511    1.0000 </r>
       <r>  -20.3342    1.0000 </r>
       <r>  -20.3302    1.0000 </r>
       <r>  -20.1114    1.0000 </r>
       <r>  -20.0381    1.0000 </r>
       <r>  -19.8112    1.0000 </r>
       <r>  -19.3160    1.0000 </r>
       <r>  -19.2870    1.0000 </r>
       <r>  -18.8705    1.0000 </r>
       <r>  -18.8648    1.0000 </r>
       <r>  -18.7789    1.0000 </r>
       <r>  -18.7730    1.0000 </r>
       <r>  -18.7459    1.0000 </r>
       <r>  -18.7253    1.0000 </r>
       <r>  -18.4590    1.0000 </r>
       <r>  -18.4203    1.0000 </r>
       <r>  -18.3037    1.0000 </r>
       <r>  -18.0618    1.0000 </r>
       <r>  -17.9674    1.0000 </r>
       <r>  -17.8846    1.0000 </r>
       <r>  -17.8465    1.0000 </r>
       <r>  -17.5431    1.0000 </r>
       <r>  -17.0646    1.0000 </r>
       <r>  -16.9316    1.0000 </r>
       <r>  -16.6895    1.0000 </r>
       <r>  -16.6484    1.0000 </r>
       <r>  -16.6328    1.0000 </r>
       <r>  -16.5738    1.0000 </r>
       <r>  -16.5670    1.0000 </r>
       <r>  -16.5605    1.0000 </r>
       <r>  -16.5365    1.0000 </r>
       <r>  -16.5325    1.0000 </r>
       <r>  -15.7095    1.0000 </r>
       <r>  -15.5892    1.0000 </r>
       <r>  -15.5332    1.0000 </r>
       <r>  -15.3140    1.0000 </r>
       <r>  -15.2324    1.0000 </r>
       <r>  -15.1833    1.0000 </r>
       <r>  -14.8847    1.0000 </r>
       <r>  -14.7453    1.0000 </r>
       <r>  -14.6796    1.0000 </r>
       <r>  -14.5821    1.0000 </r>
       <r>  -14.5277    1.0000 </r>
       <r>  -14.4102    1.0000 </r>
       <r>  -14.3240    1.0000 </r>
       <r>  -14.2080    1.0000 </r>
       <r>  -13.9642    1.0000 </r>
       <r>  -13.7263    1.0000 </r>
       <r>  -13.4259    1.0000 </r>
       <r>  -13.3296    1.0000 </r>
       <r>  -12.9992    1.0000 </r>
       <r>  -12.9582    1.0000 </r>
       <r>  -12.7812    1.0000 </r>
       <r>  -12.7701    1.0000 </r>
       <r>  -12.6852    1.0000 </r>
       <r>  -12.6793    1.0000 </r>
       <r>  -12.6219    1.0000 </r>
       <r>  -12.5983    1.0000 </r>
       <r>  -12.4838    1.0000 </r>
       <r>  -12.4473    1.0000 </r>
       <r>  -12.4116    1.0000 </r>
       <r>  -12.3817    1.0000 </r>
       <r>  -11.9619    1.0000 </r>
       <r>  -11.8311    1.0000 </r>
       <r>  -11.7481    1.0000 </r>
       <r>  -11.5619    1.0000 </r>
       <r>  -11.4163    1.0000 </r>
       <r>  -11.2597    1.0000 </r>
       <r>  -11.0467    1.0000 </r>
       <r>  -10.7635    1.0000 </r>
       <r>  -10.5835    1.0000 </r>
       <r>  -10.4683    1.0000 </r>
       <r>  -10.4553    1.0000 </r>
       <r>  -10.4180    1.0000 </r>
       <r>  -10.3027    1.0000 </r>
       <r>  -10.2471    1.0000 </r>
       <r>  -10.2113    1.0000 </r>
       <r>  -10.1288    1.0000 </r>
       <r>  -10.1258    1.0000 </r>
       <r>  -10.0711    1.0000 </r>
       <r>  -10.0700    1.0000 </r>
       <r>   -9.9360    1.0000 </r>
       <r>   -9.8995    1.0000 </r>
       <r>   -9.8826    1.0000 </r>
       <r>   -9.8607    1.0000 </r>
       <r>   -9.7875    1.0000 </r>
       <r>   -9.7361    1.0000 </r>
       <r>   -9.7000    1.0000 </r>
       <r>   -9.6449    1.0000 </r>
       <r>   -9.6191    1.0000 </r>
       <r>   -9.6181    1.0000 </r>
       <r>   -9.6160    1.0000 </r>
       <r>   -9.6087    1.0000 </r>
       <r>   -9.5606    1.0000 </r>
       <r>   -9.4688    1.0000 </r>
       <r>   -9.4113    1.0000 </r>
       <r>   -9.4077    1.0000 </r>
       <r>   -9.4042    1.0000 </r>
       <r>   -9.1917    1.0000 </r>
       <r>   -9.0157    1.0000 </r>
       <r>   -8.9859    1.0000 </r>
       <r>   -8.8996    1.0000 </r>
       <r>   -8.8725    1.0000 </r>
       <r>   -8.6921    1.0000 </r>
       <r>   -8.6879    1.0000 </r>
       <r>   -8.6438    1.0000 </r>
       <r>   -8.5151    1.0000 </r>
       <r>   -8.5019    1.0000 </r>
       <r>   -8.4968    1.0000 </r>
       <r>   -8.3957    1.0000 </r>
       <r>   -8.3649    1.0000 </r>
       <r>   -8.3452    1.0000 </r>
       <r>   -8.2980    1.0000 </r>
       <r>   -8.2476    1.0000 </r>
       <r>   -8.2133    1.0000 </r>
       <r>   -8.1574    1.0000 </r>
       <r>   -8.1428    1.0000 </r>
       <r>   -8.1315    1.0000 </r>
       <r>   -7.9975    1.0000 </r>
       <r>   -7.9786    1.0000 </r>
       <r>   -7.9329    1.0000 </r>
       <r>   -7.8706    1.0000 </r>
       <r>   -7.8363    1.0000 </r>
       <r>   -7.8333    1.0000 </r>
       <r>   -7.7820    1.0000 </r>
       <r>   -7.6752    1.0000 </r>
       <r>   -7.5651    1.0000 </r>
       <r>   -7.5288    1.0000 </r>
       <r>   -7.5272    1.0000 </r>
       <r>   -7.3084    1.0000 </r>
       <r>   -7.2346    1.0000 </r>
       <r>   -7.1889    1.0000 </r>
       <r>   -7.1562    1.0000 </r>
       <r>   -6.8104    1.0000 </r>
       <r>   -6.7235    1.0000 </r>
       <r>   -6.7031    1.0000 </r>
       <r>   -6.6910    1.0000 </r>
       <r>   -6.5519    1.0000 </r>
       <r>   -6.4824    1.0000 </r>
       <r>   -6.4173    1.0000 </r>
       <r>   -6.3887    1.0000 </r>
       <r>   -6.3870    1.0000 </r>
       <r>   -6.3774    1.0000 </r>
       <r>   -6.3666    1.0000 </r>
       <r>   -6.3213    1.0000 </r>
       <r>   -6.3143    1.0000 </r>
       <r>   -6.0237    1.0000 </r>
       <r>   -5.9652    1.0000 </r>
       <r>   -5.9422    1.0000 </r>
       <r>   -5.9181    1.0000 </r>
       <r>   -5.8564    1.0000 </r>
       <r>   -5.7074    1.0000 </r>
       <r>   -5.6332    1.0000 </r>
       <r>   -5.5316    1.0000 </r>
       <r>   -5.3001    1.0000 </r>
       <r>   -5.1070    1.0000 </r>
       <r>   -5.1036    1.0000 </r>
       <r>   -4.8538    1.0000 </r>
       <r>   -4.6017    1.0000 </r>
       <r>   -4.5118    1.0000 </r>
       <r>   -4.4833    1.0000 </r>
       <r>   -4.4708    1.0000 </r>
       <r>   -4.4239    1.0000 </r>
       <r>   -4.3196    1.0000 </r>
       <r>   -4.3071    1.0000 </r>
       <r>   -4.2440    1.0000 </r>
       <r>   -4.2199    1.0000 </r>
       <r>   -4.1495    1.0000 </r>
       <r>   -4.0927    1.0000 </r>
       <r>   -4.0588    1.0000 </r>
       <r>   -3.6433    1.0000 </r>
       <r>   -2.0963    0.0000 </r>
       <r>   -1.5587    0.0000 </r>
       <r>   -1.4872    0.0000 </r>
       <r>   -1.1895    0.0000 </r>
       <r>   -1.1126    0.0000 </r>
       <r>   -1.0923    0.0000 </r>
       <r>   -1.0722    0.0000 </r>
       <r>   -1.0407    0.0000 </r>
       <r>   -0.9893    0.0000 </r>
       <r>   -0.7659    0.0000 </r>
       <r>   -0.5727    0.0000 </r>
       <r>   -0.4188    0.0000 </r>
       <r>   -0.2795    0.0000 </r>
       <r>   -0.0909    0.0000 </r>
       <r>    0.0453    0.0000 </r>
       <r>    0.4157    0.0000 </r>
       <r>    0.5313    0.0000 </r>
       <r>    0.6460    0.0000 </r>
       <r>    0.8148    0.0000 </r>
       <r>    0.9916    0.0000 </r>
       <r>    1.1608    0.0000 </r>
       <r>    1.2901    0.0000 </r>
       <r>    1.3074    0.0000 </r>
       <r>    1.3610    0.0000 </r>
       <r>    1.3741    0.0000 </r>
       <r>    1.3743    0.0000 </r>
       <r>    1.3842    0.0000 </r>
       <r>    1.4065    0.0000 </r>
       <r>    1.4068    0.0000 </r>
       <r>    1.4600    0.0000 </r>
       <r>    1.5292    0.0000 </r>
       <r>    1.5820    0.0000 </r>
       <r>    1.7193    0.0000 </r>
       <r>    1.8049    0.0000 </r>
       <r>    2.2435    0.0000 </r>
       <r>    2.2861    0.0000 </r>
       <r>    2.3019    0.0000 </r>
       <r>    2.3305    0.0000 </r>
       <r>    2.3311    0.0000 </r>
       <r>    2.4128    0.0000 </r>
       <r>    2.4562    0.0000 </r>
       <r>    2.5118    0.0000 </r>
       <r>    2.7348    0.0000 </r>
       <r>    2.7583    0.0000 </r>
       <r>    2.7850    0.0000 </r>
       <r>    2.7900    0.0000 </r>
       <r>    2.8004    0.0000 </r>
       <r>    2.8237    0.0000 </r>
       <r>    2.8399    0.0000 </r>
       <r>    2.8534    0.0000 </r>
       <r>    2.8766    0.0000 </r>
       <r>    2.8768    0.0000 </r>
       <r>    2.9305    0.0000 </r>
       <r>    2.9569    0.0000 </r>
       <r>    2.9632    0.0000 </r>
       <r>    3.1325    0.0000 </r>
       <r>    3.2830    0.0000 </r>
       <r>    3.2880    0.0000 </r>
       <r>    3.4142    0.0000 </r>
       <r>    3.4440    0.0000 </r>
       <r>    3.4587    0.0000 </r>
       <r>    3.4896    0.0000 </r>
       <r>    3.5109    0.0000 </r>
       <r>    3.5735    0.0000 </r>
       <r>    3.6751    0.0000 </r>
       <r>    3.6803    0.0000 </r>
       <r>    3.6805    0.0000 </r>
       <r>    3.6950    0.0000 </r>
       <r>    3.6958    0.0000 </r>
       <r>    3.7452    0.0000 </r>
       <r>    3.8164    0.0000 </r>
       <r>    4.0611    0.0000 </r>
       <r>    4.0916    0.0000 </r>
       <r>    4.0941    0.0000 </r>
       <r>    4.1825    0.0000 </r>
       <r>    4.2334    0.0000 </r>
       <r>    4.2488    0.0000 </r>
       <r>    4.2668    0.0000 </r>
       <r>    4.2936    0.0000 </r>
       <r>    4.4338    0.0000 </r>
       <r>    4.4640    0.0000 </r>
      </set>
      <set comment="kpoint 2">
       <r>  -22.7336    1.0000 </r>
       <r>  -22.4129    1.0000 </r>
       <r>  -22.3545    1.0000 </r>
       <r>  -22.1248    1.0000 </r>
       <r>  -21.8030    1.0000 </r>
       <r>  -21.6589    1.0000 </r>
       <r>  -21.6433    1.0000 </r>
       <r>  -21.2677    1.0000 </r>
       <r>  -21.2489    1.0000 </r>
       <r>  -21.0926    1.0000 </r>
       <r>  -20.8811    1.0000 </r>
       <r>  -20.8646    1.0000 </r>
       <r>  -20.4922    1.0000 </r>
       <r>  -20.4746    1.0000 </r>
       <r>  -20.2636    1.0000 </r>
       <r>  -20.2309    1.0000 </r>
       <r>  -19.8350    1.0000 </r>
       <r>  -19.7208    1.0000 </r>
       <r>  -19.6426    1.0000 </r>
       <r>  -19.6161    1.0000 </r>
       <r>  -19.4638    1.0000 </r>
       <r>  -19.2188    1.0000 </r>
       <r>  -19.1851    1.0000 </r>
       <r>  -18.9265    1.0000 </r>
       <r>  -18.8978    1.0000 </r>
       <r>  -18.6628    1.0000 </r>
       <r>  -18.5730    1.0000 </r>
       <r>  -18.4140    1.0000 </r>
       <r>  -18.1586    1.0000 </r>
       <r>  -17.9961    1.0000 </r>
       <r>  -17.8780    1.0000 </r>
       <r>  -17.6589    1.0000 </r>
       <r>  -17.6280    1.0000 </r>
       <r>  -17.6237    1.0000 </r>
       <r>  -17.5437    1.0000 </r>
       <r>  -17.5338    1.0000 </r>
       <r>  -17.2614    1.0000 </r>
       <r>  -17.1722    1.0000 </r>
       <r>  -17.0373    1.0000 </r>
       <r>  -16.8340    1.0000 </r>
       <r>  -16.8229    1.0000 </r>
       <r>  -16.5737    1.0000 </r>
       <r>  -16.5716    1.0000 </r>
       <r>  -16.1097    1.0000 </r>
       <r>  -15.9138    1.0000 </r>
       <r>  -15.6932    1.0000 </r>
       <r>  -15.4406    1.0000 </r>
       <r>  -15.3798    1.0000 </r>
       <r>  -15.2536    1.0000 </r>
       <r>  -15.1890    1.0000 </r>
       <r>  -15.0880    1.0000 </r>
       <r>  -15.0401    1.0000 </r>
       <r>  -14.8277    1.0000 </r>
       <r>  -14.7251    1.0000 </r>
       <r>  -14.5843    1.0000 </r>
       <r>  -14.5658    1.0000 </r>
       <r>  -14.3863    1.0000 </r>
       <r>  -14.2115    1.0000 </r>
       <r>  -14.0040    1.0000 </r>
       <r>  -13.9038    1.0000 </r>
       <r>  -13.7169    1.0000 </r>
       <r>  -13.6979    1.0000 </r>
       <r>  -13.5881    1.0000 </r>
       <r>  -13.4988    1.0000 </r>
       <r>  -13.3125    1.0000 </r>
       <r>  -13.0889    1.0000 </r>
       <r>  -12.9489    1.0000 </r>
       <r>  -12.7682    1.0000 </r>
       <r>  -12.7480    1.0000 </r>
       <r>  -12.5419    1.0000 </r>
       <r>  -12.3225    1.0000 </r>
       <r>  -12.1425    1.0000 </r>
       <r>  -12.0726    1.0000 </r>
       <r>  -11.9328    1.0000 </r>
       <r>  -11.7909    1.0000 </r>
       <r>  -11.7177    1.0000 </r>
       <r>  -11.6316    1.0000 </r>
       <r>  -11.6068    1.0000 </r>
       <r>  -11.4485    1.0000 </r>
       <r>  -11.3912    1.0000 </r>
       <r>  -11.3485    1.0000 </r>
       <r>  -11.2578    1.0000 </r>
       <r>  -11.1224    1.0000 </r>
       <r>  -10.9815    1.0000 </r>
       <r>  -10.9050    1.0000 </r>
       <r>  -10.7572    1.0000 </r>
       <r>  -10.7445    1.0000 </r>
       <r>  -10.4003    1.0000 </r>
       <r>  -10.3944    1.0000 </r>
       <r>  -10.2724    1.0000 </r>
       <r>  -10.2698    1.0000 </r>
       <r>  -10.1623    1.0000 </r>
       <r>  -10.1254    1.0000 </r>
       <r>  -10.0719    1.0000 </r>
       <r>  -10.0575    1.0000 </r>
       <r>   -9.9245    1.0000 </r>
       <r>   -9.9044    1.0000 </r>
       <r>   -9.8341    1.0000 </r>
       <r>   -9.6769    1.0000 </r>
       <r>   -9.6214    1.0000 </r>
       <r>   -9.5936    1.0000 </r>
       <r>   -9.5541    1.0000 </r>
       <r>   -9.4431    1.0000 </r>
       <r>   -9.4070    1.0000 </r>
       <r>   -9.3123    1.0000 </r>
       <r>   -9.2848    1.0000 </r>
       <r>   -9.2507    1.0000 </r>
       <r>   -9.2353    1.0000 </r>
       <r>   -9.1954    1.0000 </r>
       <r>   -9.1740    1.0000 </r>
       <r>   -9.1660    1.0000 </r>
       <r>   -9.1138    1.0000 </r>
       <r>   -9.0213    1.0000 </r>
       <r>   -9.0058    1.0000 </r>
       <r>   -8.9572    1.0000 </r>
       <r>   -8.9549    1.0000 </r>
       <r>   -8.9056    1.0000 </r>
       <r>   -8.7849    1.0000 </r>
       <r>   -8.7768    1.0000 </r>
       <r>   -8.7321    1.0000 </r>
       <r>   -8.7140    1.0000 </r>
       <r>   -8.6709    1.0000 </r>
       <r>   -8.5789    1.0000 </r>
       <r>   -8.4653    1.0000 </r>
       <r>   -8.4322    1.0000 </r>
       <r>   -8.3900    1.0000 </r>
       <r>   -8.3393    1.0000 </r>
       <r>   -8.3031    1.0000 </r>
       <r>   -8.2967    1.0000 </r>
       <r>   -8.2537    1.0000 </r>
       <r>   -8.0070    1.0000 </r>
       <r>   -7.9895    1.0000 </r>
       <r>   -7.9296    1.0000 </r>
       <r>   -7.8732    1.0000 </r>
       <r>   -7.8688    1.0000 </r>
       <r>   -7.8366    1.0000 </r>
       <r>   -7.6017    1.0000 </r>
       <r>   -7.5282    1.0000 </r>
       <r>   -7.4171    1.0000 </r>
       <r>   -7.3932    1.0000 </r>
       <r>   -7.3297    1.0000 </r>
       <r>   -7.3213    1.0000 </r>
       <r>   -7.2876    1.0000 </r>
       <r>   -7.2486    1.0000 </r>
       <r>   -7.2352    1.0000 </r>
       <r>   -7.1234    1.0000 </r>
       <r>   -7.1161    1.0000 </r>
       <r>   -7.0962    1.0000 </r>
       <r>   -7.0261    1.0000 </r>
       <r>   -6.8076    1.0000 </r>
       <r>   -6.7134    1.0000 </r>
       <r>   -6.6394    1.0000 </r>
       <r>   -6.4813    1.0000 </r>
       <r>   -6.4286    1.0000 </r>
       <r>   -6.4073    1.0000 </r>
       <r>   -6.3439    1.0000 </r>
       <r>   -6.3245    1.0000 </r>
       <r>   -6.2627    1.0000 </r>
       <r>   -6.1588    1.0000 </r>
       <r>   -6.0334    1.0000 </r>
       <r>   -5.9882    1.0000 </r>
       <r>   -5.9684    1.0000 </r>
       <r>   -5.6636    1.0000 </r>
       <r>   -5.4531    1.0000 </r>
       <r>   -5.3493    1.0000 </r>
       <r>   -5.2229    1.0000 </r>
       <r>   -5.2088    1.0000 </r>
       <r>   -5.2043    1.0000 </r>
       <r>   -5.1896    1.0000 </r>
       <r>   -5.1026    1.0000 </r>
       <r>   -5.0750    1.0000 </r>
       <r>   -5.0063    1.0000 </r>
       <r>   -4.9696    1.0000 </r>
       <r>   -4.9110    1.0000 </r>
       <r>   -4.6057    1.0000 </r>
       <r>   -4.5304    1.0000 </r>
       <r>   -4.4854    1.0000 </r>
       <r>   -4.3486    1.0000 </r>
       <r>   -4.2958    1.0000 </r>
       <r>   -4.2373    1.0000 </r>
       <r>   -4.1757    1.0000 </r>
       <r>   -3.8847    1.0000 </r>
       <r>   -3.5425    1.0000 </r>
       <r>   -3.3076    1.0000 </r>
       <r>   -2.0828    0.0000 </r>
       <r>   -2.0287    0.0000 </r>
       <r>   -1.8110    0.0000 </r>
       <r>   -1.1715    0.0000 </r>
       <r>   -1.0896    0.0000 </r>
       <r>   -1.0019    0.0000 </r>
       <r>   -0.9302    0.0000 </r>
       <r>   -0.8484    0.0000 </r>
       <r>   -0.7204    0.0000 </r>
       <r>   -0.6504    0.0000 </r>
       <r>   -0.3857    0.0000 </r>
       <r>   -0.2815    0.0000 </r>
       <r>   -0.1989    0.0000 </r>
       <r>   -0.0787    0.0000 </r>
       <r>    0.0059    0.0000 </r>
       <r>    0.0725    0.0000 </r>
       <r>    0.1403    0.0000 </r>
       <r>    0.5431    0.0000 </r>
       <r>    0.6053    0.0000 </r>
       <r>    0.8556    0.0000 </r>
       <r>    0.9137    0.0000 </r>
       <r>    0.9950    0.0000 </r>
       <r>    1.0352    0.0000 </r>
       <r>    1.3059    0.0000 </r>
       <r>    1.3153    0.0000 </r>
       <r>    1.4026    0.0000 </r>
       <r>    1.6142    0.0000 </r>
       <r>    1.6656    0.0000 </r>
       <r>    1.8335    0.0000 </r>
       <r>    1.9034    0.0000 </r>
       <r>    1.9556    0.0000 </r>
[...]
       <r>   -13.6230    11.0052    61.7981 </r>
       <r>   -13.5233    10.8272    62.8778 </r>
       <r>   -13.4235     5.0342    63.3799 </r>
       <r>   -13.3238     6.1309    63.9913 </r>
       <r>   -13.2241     5.0711    64.4970 </r>
       <r>   -13.1244     0.5638    64.5533 </r>
       <r>   -13.0246     6.6897    65.2204 </r>
       <r>   -12.9249     6.7946    65.8980 </r>
       <r>   -12.8252     5.4941    66.4459 </r>
       <r>   -12.7254    13.8732    67.8295 </r>
       <r>   -12.6257    12.0627    69.0325 </r>
       <r>   -12.5260    11.6088    70.1902 </r>
       <r>   -12.4263    10.3820    71.2256 </r>
       <r>   -12.3265     6.2272    71.8466 </r>
       <r>   -12.2268     1.7446    72.0206 </r>
       <r>   -12.1271     9.3629    72.9543 </r>
       <r>   -12.0273     5.3059    73.4835 </r>
       <r>   -11.9276     3.6845    73.8509 </r>
       <r>   -11.8279     6.1795    74.4672 </r>
       <r>   -11.7282    12.0455    75.6685 </r>
       <r>   -11.6284    10.2785    76.6935 </r>
       <r>   -11.5287    11.7483    77.8652 </r>
       <r>   -11.4290    11.8158    79.0435 </r>
       <r>   -11.3293    14.8395    80.5234 </r>
       <r>   -11.2295     7.5322    81.2746 </r>
       <r>   -11.1298    10.2285    82.2947 </r>
       <r>   -11.0301     8.7966    83.1719 </r>
       <r>   -10.9303     7.9088    83.9607 </r>
       <r>   -10.8306     8.0079    84.7593 </r>
       <r>   -10.7309    10.1224    85.7688 </r>
       <r>   -10.6312     2.5383    86.0219 </r>
       <r>   -10.5314     2.5100    86.2722 </r>
       <r>   -10.4317     9.9627    87.2658 </r>
       <r>   -10.3320    13.3206    88.5942 </r>
       <r>   -10.2322    17.6781    90.3572 </r>
       <r>   -10.1325    15.1529    91.8684 </r>
       <r>   -10.0328    21.2389    93.9865 </r>
       <r>    -9.9331    10.5639    95.0400 </r>
       <r>    -9.8333    18.7168    96.9066 </r>
       <r>    -9.7336    17.1373    98.6157 </r>
       <r>    -9.6339    18.3008   100.4408 </r>
       <r>    -9.5341    23.7030   102.8047 </r>
       <r>    -9.4344    16.1212   104.4124 </r>
       <r>    -9.3347    18.6888   106.2762 </r>
       <r>    -9.2350    16.1469   107.8865 </r>
       <r>    -9.1352    24.4566   110.3255 </r>
       <r>    -9.0355    24.8172   112.8005 </r>
       <r>    -8.9358    26.3225   115.4256 </r>
       <r>    -8.8361    16.2932   117.0504 </r>
       <r>    -8.7363    19.8501   119.0301 </r>
       <r>    -8.6366    18.8294   120.9079 </r>
       <r>    -8.5369     9.5553   121.8608 </r>
       <r>    -8.4371    22.1322   124.0680 </r>
       <r>    -8.3374    23.3197   126.3936 </r>
       <r>    -8.2377    22.2328   128.6109 </r>
       <r>    -8.1380    13.9259   129.9997 </r>
       <r>    -8.0382    16.4039   131.6356 </r>
       <r>    -7.9385    12.8672   132.9188 </r>
       <r>    -7.8388    16.6861   134.5829 </r>
       <r>    -7.7390     9.4723   135.5275 </r>
       <r>    -7.6393     7.8811   136.3135 </r>
       <r>    -7.5396    17.6224   138.0709 </r>
       <r>    -7.4399    17.1108   139.7774 </r>
       <r>    -7.3401    18.9261   141.6648 </r>
       <r>    -7.2404    19.0080   143.5605 </r>
       <r>    -7.1407    17.8213   145.3377 </r>
       <r>    -7.0409    17.4421   147.0772 </r>
       <r>    -6.9412     7.4103   147.8162 </r>
       <r>    -6.8415    10.1512   148.8286 </r>
       <r>    -6.7418    13.0206   150.1271 </r>
       <r>    -6.6420    12.4134   151.3651 </r>
       <r>    -6.5423     7.6769   152.1307 </r>
       <r>    -6.4426     9.4988   153.0780 </r>
       <r>    -6.3429    29.9890   156.0687 </r>
       <r>    -6.2431    15.8705   157.6514 </r>
       <r>    -6.1434    11.1987   158.7683 </r>
       <r>    -6.0437     6.7570   159.4421 </r>
       <r>    -5.9439    18.7820   161.3152 </r>
       <r>    -5.8442    10.8565   162.3979 </r>
       <r>    -5.7445     3.5931   162.7562 </r>
       <r>    -5.6448     7.5324   163.5074 </r>
       <r>    -5.5450     3.3551   163.8420 </r>
       <r>    -5.4453     6.4321   164.4835 </r>
       <r>    -5.3456     4.2925   164.9116 </r>
       <r>    -5.2458    11.1754   166.0261 </r>
       <r>    -5.1461    23.6177   168.3814 </r>
       <r>    -5.0464    20.9395   170.4697 </r>
       <r>    -4.9467    15.9540   172.0607 </r>
       <r>    -4.8469    10.6662   173.1244 </r>
       <r>    -4.7472     1.2560   173.2497 </r>
       <r>    -4.6475     0.9908   173.3485 </r>
       <r>    -4.5477    14.4008   174.7847 </r>
       <r>    -4.4480    16.0649   176.3868 </r>
       <r>    -4.3483     9.3901   177.3232 </r>
       <r>    -4.2486    19.3945   179.2574 </r>
       <r>    -4.1488    15.6602   180.8192 </r>
       <r>    -4.0491     7.7366   181.5907 </r>
       <r>    -3.9494     4.1655   182.0061 </r>
       <r>    -3.8497     2.0416   182.2097 </r>
       <r>    -3.7499     0.4067   182.2503 </r>
       <r>    -3.6502     1.0605   182.3561 </r>
       <r>    -3.5505     3.2710   182.6823 </r>
       <r>    -3.4507     5.5134   183.2321 </r>
       <r>    -3.3510     0.4541   183.2774 </r>
       <r>    -3.2513     2.0925   183.4861 </r>
       <r>    -3.1516     0.1397   183.5000 </r>
       <r>    -3.0518     0.5109   183.5510 </r>
       <r>    -2.9521     4.1989   183.9697 </r>
       <r>    -2.8524     0.3036   184.0000 </r>
       <r>    -2.7526     0.0000   184.0000 </r>
       <r>    -2.6529     0.0002   184.0000 </r>
       <r>    -2.5532     0.6176   184.0616 </r>
       <r>    -2.4535     4.1537   184.4759 </r>
       <r>    -2.3537     0.2421   184.5000 </r>
       <r>    -2.2540     0.0000   184.5000 </r>
       <r>    -2.1543     0.1808   184.5180 </r>
       <r>    -2.0545     4.5852   184.9753 </r>
       <r>    -1.9548     2.7999   185.2545 </r>
       <r>    -1.8551     4.0675   185.6602 </r>
       <r>    -1.7554     3.2612   185.9854 </r>
       <r>    -1.6556     0.1601   186.0014 </r>
       <r>    -1.5559     3.4779   186.3482 </r>
       <r>    -1.4562     6.2255   186.9691 </r>
       <r>    -1.3565     4.5904   187.4269 </r>
       <r>    -1.2567     0.8245   187.5091 </r>
       <r>    -1.1570     4.1014   187.9181 </r>
       <r>    -1.0573    14.2614   189.3404 </r>
       <r>    -0.9575    13.7878   190.7154 </r>
       <r>    -0.8578     6.7482   191.3884 </r>
       <r>    -0.7581    10.8091   192.4664 </r>
       <r>    -0.6584     8.5115   193.3152 </r>
       <r>    -0.5586     6.2419   193.9377 </r>
       <r>    -0.4589     4.1081   194.3474 </r>
       <r>    -0.3592     8.3075   195.1759 </r>
       <r>    -0.2594     8.7593   196.0494 </r>
       <r>    -0.1597    11.1463   197.1610 </r>
       <r>    -0.0600     9.5357   198.1120 </r>
       <r>     0.0397    11.3475   199.2437 </r>
       <r>     0.1395     6.2225   199.8642 </r>
       <r>     0.2392     1.3594   199.9998 </r>
       <r>     0.3389     1.9525   200.1945 </r>
       <r>     0.4387     6.4237   200.8351 </r>
       <r>     0.5384     8.9050   201.7232 </r>
       <r>     0.6381     8.3460   202.5555 </r>
       <r>     0.7378     2.8058   202.8354 </r>
       <r>     0.8376     6.6944   203.5030 </r>
       <r>     0.9373     7.9715   204.2980 </r>
       <r>     1.0370    11.1475   205.4097 </r>
       <r>     1.1367     4.1178   205.8203 </r>
       <r>     1.2365     8.7920   206.6971 </r>
       <r>     1.3362    17.0403   208.3965 </r>
       <r>     1.4359    20.3764   210.4286 </r>
       <r>     1.5357    11.3921   211.5648 </r>
       <r>     1.6354     6.5274   212.2157 </r>
       <r>     1.7351     5.3398   212.7482 </r>
       <r>     1.8348    10.4830   213.7937 </r>
       <r>     1.9346    14.1230   215.2021 </r>
       <r>     2.0343    29.8608   218.1801 </r>
       <r>     2.1340    13.1681   219.4933 </r>
       <r>     2.2338     8.6797   220.3589 </r>
       <r>     2.3335    20.2039   222.3738 </r>
       <r>     2.4332    24.7866   224.8458 </r>
       <r>     2.5329    13.3708   226.1792 </r>
       <r>     2.6327     8.3533   227.0123 </r>
       <r>     2.7324    12.8110   228.2899 </r>
       <r>     2.8321    29.9488   231.2766 </r>
       <r>     2.9319    54.1822   236.6801 </r>
       <r>     3.0316    25.2068   239.1939 </r>
       <r>     3.1313     9.4506   240.1364 </r>
       <r>     3.2310    13.1132   241.4441 </r>
       <r>     3.3308    12.8585   242.7265 </r>
       <r>     3.4305    27.3067   245.4497 </r>
       <r>     3.5302    21.2079   247.5648 </r>
       <r>     3.6299     6.9579   248.2587 </r>
       <r>     3.7297    18.8565   250.1392 </r>
       <r>     3.8294    26.1786   252.7499 </r>
       <r>     3.9291    32.8518   256.0262 </r>
       <r>     4.0289    14.1103   257.4333 </r>
       <r>     4.1286    17.0674   259.1354 </r>
       <r>     4.2283    17.1385   260.8446 </r>
       <r>     4.3280    25.0438   263.3422 </r>
       <r>     4.4278    13.2352   264.6621 </r>
       <r>     4.5275     3.3191   264.9931 </r>
       <r>     4.6272     0.0690   265.0000 </r>
       <r>     4.7270     0.0000   265.0000 </r>
       <r>     4.8267     0.0000   265.0000 </r>
       <r>     4.9264     0.0000   265.0000 </r>
       <r>     5.0261     0.0000   265.0000 </r>
       <r>     5.1259     0.0000   265.0000 </r>
       <r>     5.2256     0.0000   265.0000 </r>
       <r>     5.3253     0.0000   265.0000 </r>
       <r>     5.4251     0.0000   265.0000 </r>
       <r>     5.5248     0.0000   265.0000 </r>
       <r>     5.6245     0.0000   265.0000 </r>
       <r>     5.7242     0.0000   265.0000 </r>
       <r>     5.8240     0.0000   265.0000 </r>
      </set>
     </set>
    </array>
   </total>
  </dos>
 </calculation>
 <structure name="finalpos" >
  <crystal>
   <varray name="basis" >
    <v>      17.27103806       0.00000000       0.00000000 </v>
    <v>      -8.63551903      14.95715771       0.00000000 </v>
    <v>       0.00000000       0.00000000      15.00000000 </v>
   </varray>
   <i name="volume">   3874.88459904 </i>
   <varray name="rec_basis" >
    <v>       0.05790040       0.03342881       0.00000000 </v>
    <v>       0.00000000       0.06685762       0.00000000 </v>
    <v>       0.00000000       0.00000000       0.06666667 </v>
   </varray>
  </crystal>
  <varray name="positions" >
   <v>       0.00140700       0.00063544       0.49969197 </v>
   <v>       0.00088212       0.14310106       0.49976986 </v>
   <v>       0.00053016       0.28594685       0.49979921 </v>
   <v>       0.00088093       0.42913086       0.49986953 </v>
   <v>       0.00138311       0.57210093       0.49986625 </v>
   <v>       0.00175637       0.71495331       0.49981794 </v>
   <v>       0.00179404       0.85819829       0.49976851 </v>
   <v>       0.14519853       0.00181280       0.50008726 </v>
   <v>       0.14473593       0.14449350       0.50028531 </v>
   <v>       0.14286275       0.28593849       0.50049883 </v>
   <v>       0.14283821       0.42830338       0.50051476 </v>
   <v>       0.14473929       0.57158938       0.50046012 </v>
   <v>       0.14517298       0.71472136       0.50020223 </v>
   <v>       0.14510002       0.85822889       0.49999608 </v>
   <v>       0.28807748       0.00185292       0.50025159 </v>
   <v>       0.28836876       0.14654119       0.50071074 </v>
   <v>       0.28761563       0.29265808       0.50156741 </v>
   <v>       0.28540777       0.42839291       0.50210839 </v>
   <v>       0.28765114       0.56634543       0.50165424 </v>
   <v>       0.28838301       0.71324925       0.50084312 </v>
   <v>       0.28808271       0.85763119       0.50022057 </v>
   <v>       0.43060544       0.00098567       0.50024004 </v>
   <v>       0.43125626       0.14563531       0.50035763 </v>
   <v>       0.43049034       0.28723786       0.50047967 </v>
   <v>       0.43046868       0.71460189       0.50061865 </v>
   <v>       0.43129313       0.85701834       0.50043122 </v>
   <v>       0.57291779       0.00055295       0.50007546 </v>
   <v>       0.57290718       0.14372000       0.49999205 </v>
   <v>       0.57658853       0.29022825       0.49998804 </v>
   <v>       0.57661706       0.85770222       0.50016679 </v>
   <v>       0.71580862       0.00095983       0.49982324 </v>
   <v>       0.71564572       0.14347749       0.49975235 </v>
   <v>       0.71582990       0.28618220       0.49974438 </v>
   <v>       0.71184696       0.42566683       0.50003168 </v>
   <v>       0.71612301       0.57238838       0.50124958 </v>
   <v>       0.71614173       0.71505384       0.50133702 </v>
   <v>       0.71188515       0.85752218       0.50012037 </v>
   <v>       0.85818496       0.00024244       0.49963280 </v>
   <v>       0.85817547       0.14330794       0.49958628 </v>
   <v>       0.85817963       0.28617960       0.49964517 </v>
   <v>       0.85817894       0.42926285       0.49973321 </v>
   <v>       0.85739446       0.57150449       0.49982616 </v>
   <v>       0.85879057       0.71507224       0.50005466 </v>
   <v>       0.85742818       0.85724989       0.49985590 </v>
   <v>       0.04920218       0.09608985       0.49986510 </v>
   <v>       0.04773700       0.23811362       0.49996089 </v>
   <v>       0.04774674       0.38098998       0.50000409 </v>
   <v>       0.04918723       0.52445075       0.50003045 </v>
   <v>       0.04954771       0.66743968       0.49994734 </v>
   <v>       0.04943999       0.81039285       0.49985027 </v>
   <v>       0.04958947       0.95348925       0.49979679 </v>
   <v>       0.19281496       0.09725631       0.50041486 </v>
   <v>       0.19170360       0.24000409       0.50070521 </v>
   <v>       0.18976000       0.38057320       0.50085291 </v>
   <v>       0.19172243       0.52306813       0.50078912 </v>
   <v>       0.19280442       0.66691617       0.50060407 </v>
   <v>       0.19280012       0.81034111       0.50013043 </v>
   <v>       0.19281186       0.95382332       0.50012257 </v>
   <v>       0.33588658       0.09826485       0.50043821 </v>
   <v>       0.33690917       0.24310663       0.50107069 </v>
   <v>       0.33689427       0.66519180       0.50118890 </v>
   <v>       0.33589446       0.80904262       0.50049843 </v>
   <v>       0.33522194       0.95332118       0.50022207 </v>
   <v>       0.47792173       0.09650399       0.50019894 </v>
   <v>       0.47873081       0.24160446       0.50023963 </v>
   <v>       0.47874728       0.80848329       0.50040301 </v>
   <v>       0.47794139       0.95281934       0.50024071 </v>
   <v>       0.62021969       0.09578726       0.49992952 </v>
   <v>       0.62105660       0.23929450       0.49988093 </v>
   <v>       0.62107000       0.95310617       0.50002808 </v>
   <v>       0.76331828       0.09618781       0.49970350 </v>
   <v>       0.76333761       0.23844432       0.49967340 </v>
   <v>       0.76269556       0.38102158       0.49980487 </v>
   <v>       0.76084808       0.52395926       0.50026705 </v>
   <v>       0.76292211       0.66712124       0.50090253 </v>
   <v>       0.76088635       0.80823092       0.50037145 </v>
   <v>       0.76271950       0.95301320       0.49980914 </v>
   <v>       0.90563368       0.09528216       0.49960233 </v>
   <v>       0.90549627       0.23838723       0.49960941 </v>
   <v>       0.90562682       0.38166349       0.49970411 </v>
   <v>       0.90584040       0.52462880       0.49972643 </v>
   <v>       0.90586798       0.66702738       0.49983039 </v>
   <v>       0.90590503       0.81021807       0.49985142 </v>
   <v>       0.90587486       0.95258590       0.49962583 </v>
   <v>       0.46862846       0.35994506       0.49974879 </v>
   <v>       0.64321997       0.67731690       0.50278882 </v>
   <v>       0.64319365       0.53722177       0.50271403 </v>
   <v>       0.46856412       0.67998552       0.49989250 </v>
   <v>       0.46354992       0.55996114       0.52697842 </v>
   <v>       0.46294027       0.47432237       0.52673779 </v>
   <v>       0.33169669       0.38297898       0.50278957 </v>
   <v>       0.33172950       0.52010118       0.50282898 </v>
   <v>       0.62186091       0.38056159       0.50001438 </v>
   <v>       0.62188861       0.81264052       0.50018740 </v>
   <v>       0.50603161       0.53829829       0.53488800 </v>
  </varray>
  <varray name="selective"  type="logical" >
   <v type="logical" >  T  T  T </v>
   <v type="logical" >  T  T  T </v>
   <v type="logical" >  T  T  T </v>
   <v type="logical" >  T  T  T </v>
   <v type="logical" >  T  T  T </v>
   <v type="logical" >  T  T  T </v>
   <v type="logical" >  T  T  T </v>
   <v type="logical" >  T  T  T </v>
   <v type="logical" >  T  T  T </v>
   <v type="logical" >  T  T  T </v>
   <v type="logical" >  T  T  T </v>
   <v type="logical" >  T  T  T </v>
   <v type="logical" >  T  T  T </v>
   <v type="logical" >  T  T  T </v>
   <v type="logical" >  T  T  T </v>
   <v type="logical" >  T  T  T </v>
   <v type="logical" >  T  T  T </v>
   <v type="logical" >  T  T  T </v>
   <v type="logical" >  T  T  T </v>
   <v type="logical" >  T  T  T </v>
   <v type="logical" >  T  T  T </v>
   <v type="logical" >  T  T  T </v>
   <v type="logical" >  T  T  T </v>
   <v type="logical" >  T  T  T </v>
   <v type="logical" >  T  T  T </v>
   <v type="logical" >  T  T  T </v>
   <v type="logical" >  T  T  T </v>
   <v type="logical" >  T  T  T </v>
   <v type="logical" >  T  T  T </v>
   <v type="logical" >  T  T  T </v>
   <v type="logical" >  T  T  T </v>
   <v type="logical" >  T  T  T </v>
   <v type="logical" >  T  T  T </v>
   <v type="logical" >  T  T  T </v>
   <v type="logical" >  T  T  T </v>
   <v type="logical" >  T  T  T </v>
   <v type="logical" >  T  T  T </v>
   <v type="logical" >  T  T  T </v>
   <v type="logical" >  T  T  T </v>
   <v type="logical" >  T  T  T </v>
   <v type="logical" >  T  T  T </v>
   <v type="logical" >  T  T  T </v>
   <v type="logical" >  T  T  T </v>
   <v type="logical" >  T  T  T </v>
   <v type="logical" >  T  T  T </v>
   <v type="logical" >  T  T  T </v>
   <v type="logical" >  T  T  T </v>
   <v type="logical" >  T  T  T </v>
   <v type="logical" >  T  T  T </v>
   <v type="logical" >  T  T  T </v>
   <v type="logical" >  T  T  T </v>
   <v type="logical" >  T  T  T </v>
   <v type="logical" >  T  T  T </v>
   <v type="logical" >  T  T  T </v>
   <v type="logical" >  T  T  T </v>
   <v type="logical" >  T  T  T </v>
   <v type="logical" >  T  T  T </v>
   <v type="logical" >  T  T  T </v>
   <v type="logical" >  T  T  T </v>
   <v type="logical" >  T  T  T </v>
   <v type="logical" >  T  T  T </v>
   <v type="logical" >  T  T  T </v>
   <v type="logical" >  T  T  T </v>
   <v type="logical" >  T  T  T </v>
   <v type="logical" >  T  T  T </v>
   <v type="logical" >  T  T  T </v>
   <v type="logical" >  T  T  T </v>
   <v type="logical" >  T  T  T </v>
   <v type="logical" >  T  T  T </v>
   <v type="logical" >  T  T  T </v>
   <v type="logical" >  T  T  T </v>
   <v type="logical" >  T  T  T </v>
   <v type="logical" >  T  T  T </v>
   <v type="logical" >  T  T  T </v>
   <v type="logical" >  T  T  T </v>
   <v type="logical" >  T  T  T </v>
   <v type="logical" >  T  T  T </v>
   <v type="logical" >  T  T  T </v>
   <v type="logical" >  T  T  T </v>
   <v type="logical" >  T  T  T </v>
   <v type="logical" >  T  T  T </v>
   <v type="logical" >  T  T  T </v>
   <v type="logical" >  T  T  T </v>
   <v type="logical" >  T  T  T </v>
   <v type="logical" >  T  T  T </v>
   <v type="logical" >  T  T  T </v>
   <v type="logical" >  T  T  T </v>
   <v type="logical" >  T  T  T </v>
   <v type="logical" >  T  T  T </v>
   <v type="logical" >  T  T  T </v>
   <v type="logical" >  T  T  T </v>
   <v type="logical" >  T  T  T </v>
   <v type="logical" >  T  T  T </v>
   <v type="logical" >  T  T  T </v>
   <v type="logical" >  T  T  F </v>
  </varray>
  <nose>
   <v>      -3.00000000       0.00000000       0.00010000       0.00010000 </v>
  </nose>
 </structure>
</modeling>
