unknown system                          
           1
    17.271038    0.000000    0.000000
    -8.635519   14.957158    0.000000
     0.000000    0.000000   15.000000
   C    H    N    O 
    84     6     4     1
Direct configuration=     1
   0.00140700  0.00063544  0.49969197
   0.00088212  0.14310106  0.49976986
   0.00053016  0.28594685  0.49979921
   0.00088093  0.42913086  0.49986953
   0.00138311  0.57210093  0.49986625
   0.00175637  0.71495331  0.49981794
   0.00179404  0.85819829  0.49976851
   0.14519853  0.00181280  0.50008726
   0.14473593  0.14449350  0.50028531
   0.14286275  0.28593849  0.50049883
   0.14283821  0.42830338  0.50051476
   0.14473929  0.57158938  0.50046012
   0.14517298  0.71472136  0.50020223
   0.14510002  0.85822889  0.49999608
   0.28807748  0.00185292  0.50025159
   0.28836876  0.14654119  0.50071074
   0.28761563  0.29265808  0.50156741
   0.28540777  0.42839291  0.50210839
   0.28765114  0.56634543  0.50165424
   0.28838301  0.71324925  0.50084312
   0.28808271  0.85763119  0.50022057
   0.43060544  0.00098567  0.50024004
   0.43125626  0.14563531  0.50035763
   0.43049034  0.28723786  0.50047967
   0.43046868  0.71460189  0.50061865
   0.43129313  0.85701834  0.50043122
   0.57291779  0.00055295  0.50007546
   0.57290718  0.14372000  0.49999205
   0.57658853  0.29022825  0.49998804
   0.57661706  0.85770222  0.50016679
   0.71580862  0.00095983  0.49982324
   0.71564572  0.14347749  0.49975235
   0.71582990  0.28618220  0.49974438
   0.71184696  0.42566683  0.50003168
   0.71612301  0.57238838  0.50124958
   0.71614173  0.71505384  0.50133702
   0.71188515  0.85752218  0.50012037
   0.85818496  0.00024244  0.49963280
   0.85817547  0.14330794  0.49958628
   0.85817963  0.28617960  0.49964517
   0.85817894  0.42926285  0.49973321
   0.85739446  0.57150449  0.49982616
   0.85879057  0.71507224  0.50005466
   0.85742818  0.85724989  0.49985590
   0.04920218  0.09608985  0.49986510
   0.04773700  0.23811362  0.49996089
   0.04774674  0.38098998  0.50000409
   0.04918723  0.52445075  0.50003045
   0.04954771  0.66743968  0.49994734
   0.04943999  0.81039285  0.49985027
   0.04958947  0.95348925  0.49979679
   0.19281496  0.09725631  0.50041486
   0.19170360  0.24000409  0.50070521
   0.18976000  0.38057320  0.50085291
   0.19172243  0.52306813  0.50078912
   0.19280442  0.66691617  0.50060407
   0.19280012  0.81034111  0.50013043
   0.19281186  0.95382332  0.50012257
   0.33588658  0.09826485  0.50043821
   0.33690917  0.24310663  0.50107069
   0.33689427  0.66519180  0.50118890
   0.33589446  0.80904262  0.50049843
   0.33522194  0.95332118  0.50022207
   0.47792173  0.09650399  0.50019894
   0.47873081  0.24160446  0.50023963
   0.47874728  0.80848329  0.50040301
   0.47794139  0.95281934  0.50024071
   0.62021969  0.09578726  0.49992952
   0.62105660  0.23929450  0.49988093
   0.62107000  0.95310617  0.50002808
   0.76331828  0.09618781  0.49970350
   0.76333761  0.23844432  0.49967340
   0.76269556  0.38102158  0.49980487
   0.76084808  0.52395926  0.50026705
   0.76292211  0.66712124  0.50090253
   0.76088635  0.80823092  0.50037145
   0.76271950  0.95301320  0.49980914
   0.90563368  0.09528216  0.49960233
   0.90549627  0.23838723  0.49960941
   0.90562682  0.38166349  0.49970411
   0.90584040  0.52462880  0.49972643
   0.90586798  0.66702738  0.49983039
   0.90590503  0.81021807  0.49985142
   0.90587486  0.95258590  0.49962583
   0.46862846  0.35994506  0.49974879
   0.64321997  0.67731690  0.50278882
   0.64319365  0.53722177  0.50271403
   0.46856412  0.67998552  0.49989250
   0.46354992  0.55996114  0.52697842
   0.46294027  0.47432237  0.52673779
   0.33169669  0.38297898  0.50278957
   0.33172950  0.52010118  0.50282898
   0.62186091  0.38056159  0.50001438
   0.62188861  0.81264052  0.50018740
   0.50603161  0.53829829  0.53488800
