  97  97   0   0
  0.3994726E+02  0.1727104E-08  0.1727104E-08  0.1500000E-08  0.0000000E+00
  1.000000000000000E-004
  CAR 
 unknown system                          
      5.78591546    -25.42979258  301     -2.44568502      1.00000000
    -25.430  0.0000E+00  0.0000E+00  0.0000E+00  0.0000E+00
    -25.326  0.0000E+00  0.0000E+00  0.0000E+00  0.0000E+00
    -25.222  0.0000E+00  0.0000E+00  0.0000E+00  0.0000E+00
    -25.118  0.0000E+00  0.0000E+00  0.0000E+00  0.0000E+00
    -25.014  0.0000E+00  0.0000E+00  0.0000E+00  0.0000E+00
    -24.910  0.0000E+00  0.0000E+00  0.0000E+00  0.0000E+00
    -24.805  0.0000E+00  0.0000E+00  0.0000E+00  0.0000E+00
    -24.701  0.0000E+00  0.0000E+00  0.0000E+00  0.0000E+00
    -24.597  0.0000E+00  0.0000E+00  0.0000E+00  0.0000E+00
    -24.493  0.0000E+00  0.0000E+00  0.0000E+00  0.0000E+00
    -24.389  0.0000E+00  0.0000E+00  0.0000E+00  0.0000E+00
    -24.285  0.4108E-16  0.4108E-16  0.4274E-17  0.4274E-17
    -24.181  0.7028E-08  0.7028E-08  0.7313E-09  0.7313E-09
    -24.077  0.2933E-03  0.2933E-03  0.3052E-04  0.3052E-04
    -23.973  0.7949E-02  0.7949E-02  0.8576E-03  0.8576E-03
    -23.869  0.1368E-02  0.1368E-02  0.1000E-02  0.1000E-02
    -23.765  0.2883E-06  0.2883E-06  0.1000E-02  0.1000E-02
    -23.661  0.1683E-13  0.1683E-13  0.1000E-02  0.1000E-02
    -23.557  0.0000E+00  0.0000E+00  0.1000E-02  0.1000E-02
    -23.453  0.0000E+00  0.0000E+00  0.1000E-02  0.1000E-02
    -23.349  0.0000E+00  0.0000E+00  0.1000E-02  0.1000E-02
    -23.245  0.0000E+00  0.0000E+00  0.1000E-02  0.1000E-02
    -23.141  0.0000E+00  0.0000E+00  0.1000E-02  0.1000E-02
    -23.037  0.0000E+00  0.0000E+00  0.1000E-02  0.1000E-02
    -22.933  0.0000E+00  0.0000E+00  0.1000E-02  0.1000E-02
    -22.828  0.0000E+00  0.0000E+00  0.1000E-02  0.1000E-02
    -22.724  0.0000E+00  0.0000E+00  0.1000E-02  0.1000E-02
    -22.620  0.0000E+00  0.0000E+00  0.1000E-02  0.1000E-02
    -22.516  0.6061E-13  0.6061E-13  0.1000E-02  0.1000E-02
    -22.412  0.5561E-06  0.5561E-06  0.1000E-02  0.1000E-02
    -22.308  0.1896E-02  0.1896E-02  0.1197E-02  0.1197E-02
    -22.204  0.1547E-01  0.1547E-01  0.2807E-02  0.2807E-02
    -22.100  0.1853E-02  0.1853E-02  0.3000E-02  0.3000E-02
    -21.996  0.5204E-06  0.5204E-06  0.3000E-02  0.3000E-02
    -21.892  0.1063E-09  0.1063E-09  0.3000E-02  0.3000E-02
    -21.788  0.2189E-04  0.2189E-04  0.3002E-02  0.3002E-02
    -21.684  0.3860E-02  0.3860E-02  0.3404E-02  0.3404E-02
    -21.580  0.7249E-02  0.7249E-02  0.4158E-02  0.4158E-02
    -21.476  0.5301E-02  0.5301E-02  0.4710E-02  0.4710E-02
    -21.372  0.6396E-02  0.6396E-02  0.5375E-02  0.5375E-02
    -21.268  0.4289E-02  0.4289E-02  0.5822E-02  0.5822E-02
    -21.164  0.1073E-01  0.1073E-01  0.6938E-02  0.6938E-02
    -21.060  0.1600E-02  0.1600E-02  0.7105E-02  0.7105E-02
    -20.956  0.5647E-02  0.5647E-02  0.7692E-02  0.7692E-02
    -20.851  0.9826E-02  0.9826E-02  0.8714E-02  0.8714E-02
    -20.747  0.6183E-02  0.6183E-02  0.9358E-02  0.9358E-02
    -20.643  0.5192E-02  0.5192E-02  0.9898E-02  0.9898E-02
    -20.539  0.7181E-02  0.7181E-02  0.1065E-01  0.1065E-01
    -20.435  0.3055E-02  0.3055E-02  0.1096E-01  0.1096E-01
    -20.331  0.6846E-02  0.6846E-02  0.1168E-01  0.1168E-01
    -20.227  0.1192E-01  0.1192E-01  0.1292E-01  0.1292E-01
    -20.123  0.9396E-02  0.9396E-02  0.1389E-01  0.1389E-01
    -20.019  0.3992E-02  0.3992E-02  0.1431E-01  0.1431E-01
    -19.915  0.4011E-02  0.4011E-02  0.1473E-01  0.1473E-01
    -19.811  0.3560E-02  0.3560E-02  0.1510E-01  0.1510E-01
    -19.707  0.7362E-02  0.7362E-02  0.1586E-01  0.1586E-01
    -19.603  0.6517E-02  0.6517E-02  0.1654E-01  0.1654E-01
    -19.499  0.1049E-01  0.1049E-01  0.1763E-01  0.1763E-01
    -19.395  0.1299E-01  0.1299E-01  0.1898E-01  0.1898E-01
    -19.291  0.6833E-02  0.6833E-02  0.1969E-01  0.1969E-01
    -19.187  0.1475E-02  0.1475E-02  0.1985E-01  0.1985E-01
    -19.083  0.3996E-02  0.3996E-02  0.2026E-01  0.2026E-01
    -18.979  0.1033E-01  0.1033E-01  0.2134E-01  0.2134E-01
    -18.874  0.5433E-02  0.5433E-02  0.2190E-01  0.2190E-01
    -18.770  0.3688E-02  0.3688E-02  0.2229E-01  0.2229E-01
    -18.666  0.5777E-02  0.5777E-02  0.2289E-01  0.2289E-01
    -18.562  0.1403E-01  0.1403E-01  0.2435E-01  0.2435E-01
    -18.458  0.1117E-01  0.1117E-01  0.2551E-01  0.2551E-01
    -18.354  0.5820E-02  0.5820E-02  0.2612E-01  0.2612E-01
    -18.250  0.6922E-02  0.6922E-02  0.2684E-01  0.2684E-01
    -18.146  0.4623E-02  0.4623E-02  0.2732E-01  0.2732E-01
    -18.042  0.8240E-02  0.8240E-02  0.2818E-01  0.2818E-01
    -17.938  0.7511E-02  0.7511E-02  0.2896E-01  0.2896E-01
    -17.834  0.4642E-02  0.4642E-02  0.2944E-01  0.2944E-01
    -17.730  0.7370E-03  0.7370E-03  0.2952E-01  0.2952E-01
    -17.626  0.9300E-02  0.9300E-02  0.3048E-01  0.3048E-01
    -17.522  0.1195E-01  0.1195E-01  0.3173E-01  0.3173E-01
    -17.418  0.1094E-01  0.1094E-01  0.3287E-01  0.3287E-01
    -17.314  0.1144E-01  0.1144E-01  0.3406E-01  0.3406E-01
    -17.210  0.9703E-02  0.9703E-02  0.3507E-01  0.3507E-01
    -17.106  0.6803E-02  0.6803E-02  0.3577E-01  0.3577E-01
    -17.002  0.8494E-02  0.8494E-02  0.3666E-01  0.3666E-01
    -16.897  0.8869E-02  0.8869E-02  0.3758E-01  0.3758E-01
    -16.793  0.5538E-02  0.5538E-02  0.3816E-01  0.3816E-01
    -16.689  0.1098E-02  0.1098E-02  0.3827E-01  0.3827E-01
    -16.585  0.5353E-02  0.5353E-02  0.3883E-01  0.3883E-01
    -16.481  0.8868E-02  0.8868E-02  0.3975E-01  0.3975E-01
    -16.377  0.1827E-01  0.1827E-01  0.4165E-01  0.4165E-01
    -16.273  0.1064E-01  0.1064E-01  0.4276E-01  0.4276E-01
    -16.169  0.2290E-02  0.2290E-02  0.4300E-01  0.4300E-01
    -16.065  0.2985E-03  0.2985E-03  0.4303E-01  0.4303E-01
    -15.961  0.2713E-02  0.2713E-02  0.4331E-01  0.4331E-01
    -15.857  0.4092E-02  0.4092E-02  0.4374E-01  0.4374E-01
    -15.753  0.4754E-02  0.4754E-02  0.4423E-01  0.4423E-01
    -15.649  0.2221E-02  0.2221E-02  0.4446E-01  0.4446E-01
    -15.545  0.3451E-02  0.3451E-02  0.4482E-01  0.4482E-01
    -15.441  0.8220E-02  0.8220E-02  0.4568E-01  0.4568E-01
    -15.337  0.5761E-02  0.5761E-02  0.4628E-01  0.4628E-01
    -15.233  0.7558E-02  0.7558E-02  0.4706E-01  0.4706E-01
    -15.129  0.5678E-02  0.5678E-02  0.4765E-01  0.4765E-01
    -15.025  0.9107E-02  0.9107E-02  0.4860E-01  0.4860E-01
    -14.921  0.1304E-01  0.1304E-01  0.4996E-01  0.4996E-01
    -14.816  0.9767E-02  0.9767E-02  0.5097E-01  0.5097E-01
    -14.712  0.7964E-02  0.7964E-02  0.5180E-01  0.5180E-01
    -14.608  0.5912E-02  0.5912E-02  0.5242E-01  0.5242E-01
    -14.504  0.1145E-01  0.1145E-01  0.5361E-01  0.5361E-01
    -14.400  0.7053E-02  0.7053E-02  0.5434E-01  0.5434E-01
    -14.296  0.8499E-02  0.8499E-02  0.5523E-01  0.5523E-01
    -14.192  0.1045E-01  0.1045E-01  0.5631E-01  0.5631E-01
    -14.088  0.8657E-02  0.8657E-02  0.5722E-01  0.5722E-01
    -13.984  0.7633E-02  0.7633E-02  0.5801E-01  0.5801E-01
    -13.880  0.5538E-02  0.5538E-02  0.5859E-01  0.5859E-01
    -13.776  0.3242E-02  0.3242E-02  0.5892E-01  0.5892E-01
    -13.672  0.5728E-02  0.5728E-02  0.5952E-01  0.5952E-01
    -13.568  0.7826E-02  0.7826E-02  0.6033E-01  0.6033E-01
    -13.464  0.9566E-02  0.9566E-02  0.6133E-01  0.6133E-01
    -13.360  0.1011E-01  0.1011E-01  0.6238E-01  0.6238E-01
    -13.256  0.5745E-02  0.5745E-02  0.6298E-01  0.6298E-01
    -13.152  0.7785E-02  0.7785E-02  0.6379E-01  0.6379E-01
    -13.048  0.5363E-02  0.5363E-02  0.6435E-01  0.6435E-01
    -12.944  0.1489E-02  0.1489E-02  0.6450E-01  0.6450E-01
    -12.839  0.3273E-02  0.3273E-02  0.6484E-01  0.6484E-01
    -12.735  0.8790E-02  0.8790E-02  0.6576E-01  0.6576E-01
    -12.631  0.6889E-02  0.6889E-02  0.6647E-01  0.6647E-01
    -12.527  0.1157E-01  0.1157E-01  0.6768E-01  0.6768E-01
    -12.423  0.1567E-01  0.1567E-01  0.6931E-01  0.6931E-01
    -12.319  0.1019E-01  0.1019E-01  0.7037E-01  0.7037E-01
    -12.215  0.9369E-02  0.9369E-02  0.7134E-01  0.7134E-01
    -12.111  0.3873E-02  0.3873E-02  0.7175E-01  0.7175E-01
    -12.007  0.4417E-02  0.4417E-02  0.7221E-01  0.7221E-01
    -11.903  0.1302E-01  0.1302E-01  0.7356E-01  0.7356E-01
    -11.799  0.7524E-02  0.7524E-02  0.7434E-01  0.7434E-01
    -11.695  0.7302E-02  0.7302E-02  0.7510E-01  0.7510E-01
    -11.591  0.9701E-02  0.9701E-02  0.7611E-01  0.7611E-01
    -11.487  0.1181E-01  0.1181E-01  0.7734E-01  0.7734E-01
    -11.383  0.1116E-01  0.1116E-01  0.7850E-01  0.7850E-01
    -11.279  0.9851E-02  0.9851E-02  0.7953E-01  0.7953E-01
    -11.175  0.1162E-01  0.1162E-01  0.8074E-01  0.8074E-01
    -11.071  0.8806E-02  0.8806E-02  0.8165E-01  0.8165E-01
    -10.967  0.1015E-01  0.1015E-01  0.8271E-01  0.8271E-01
    -10.862  0.1043E-01  0.1043E-01  0.8379E-01  0.8379E-01
    -10.758  0.1178E-01  0.1178E-01  0.8502E-01  0.8502E-01
    -10.654  0.7424E-02  0.7424E-02  0.8579E-01  0.8579E-01
    -10.550  0.7339E-02  0.7339E-02  0.8656E-01  0.8656E-01
    -10.446  0.6000E-02  0.6000E-02  0.8718E-01  0.8718E-01
    -10.342  0.7908E-03  0.7908E-03  0.8726E-01  0.8726E-01
    -10.238  0.6516E-02  0.6516E-02  0.8794E-01  0.8794E-01
    -10.134  0.1645E-01  0.1645E-01  0.8965E-01  0.8965E-01
    -10.030  0.1698E-01  0.1698E-01  0.9142E-01  0.9142E-01
     -9.926  0.1661E-01  0.1661E-01  0.9315E-01  0.9315E-01
     -9.822  0.1802E-01  0.1802E-01  0.9502E-01  0.9502E-01
     -9.718  0.2050E-01  0.2050E-01  0.9716E-01  0.9716E-01
     -9.614  0.1475E-01  0.1475E-01  0.9869E-01  0.9869E-01
     -9.510  0.1354E-01  0.1354E-01  0.1001E+00  0.1001E+00
     -9.406  0.1731E-01  0.1731E-01  0.1019E+00  0.1019E+00
     -9.302  0.2016E-01  0.2016E-01  0.1040E+00  0.1040E+00
     -9.198  0.1342E-01  0.1342E-01  0.1054E+00  0.1054E+00
     -9.094  0.1344E-01  0.1344E-01  0.1068E+00  0.1068E+00
     -8.990  0.2377E-01  0.2377E-01  0.1093E+00  0.1093E+00
     -8.885  0.3051E-01  0.3051E-01  0.1124E+00  0.1124E+00
     -8.781  0.2406E-01  0.2406E-01  0.1149E+00  0.1149E+00
     -8.677  0.2311E-01  0.2311E-01  0.1173E+00  0.1173E+00
     -8.573  0.1751E-01  0.1751E-01  0.1192E+00  0.1192E+00
     -8.469  0.1832E-01  0.1832E-01  0.1211E+00  0.1211E+00
     -8.365  0.1491E-01  0.1491E-01  0.1226E+00  0.1226E+00
     -8.261  0.2157E-01  0.2157E-01  0.1249E+00  0.1249E+00
     -8.157  0.2226E-01  0.2226E-01  0.1272E+00  0.1272E+00
     -8.053  0.2433E-01  0.2433E-01  0.1297E+00  0.1297E+00
     -7.949  0.1925E-01  0.1925E-01  0.1317E+00  0.1317E+00
     -7.845  0.1597E-01  0.1597E-01  0.1334E+00  0.1334E+00
     -7.741  0.1613E-01  0.1613E-01  0.1351E+00  0.1351E+00
     -7.637  0.1417E-01  0.1417E-01  0.1365E+00  0.1365E+00
     -7.533  0.1298E-01  0.1298E-01  0.1379E+00  0.1379E+00
     -7.429  0.6463E-02  0.6463E-02  0.1386E+00  0.1386E+00
     -7.325  0.1474E-01  0.1474E-01  0.1401E+00  0.1401E+00
     -7.221  0.2365E-01  0.2365E-01  0.1426E+00  0.1426E+00
     -7.117  0.2153E-01  0.2153E-01  0.1448E+00  0.1448E+00
     -7.013  0.1824E-01  0.1824E-01  0.1467E+00  0.1467E+00
     -6.908  0.9806E-02  0.9806E-02  0.1477E+00  0.1477E+00
     -6.804  0.1371E-01  0.1371E-01  0.1491E+00  0.1491E+00
     -6.700  0.1150E-01  0.1150E-01  0.1503E+00  0.1503E+00
     -6.596  0.6098E-02  0.6098E-02  0.1510E+00  0.1510E+00
     -6.492  0.1255E-01  0.1255E-01  0.1523E+00  0.1523E+00
     -6.388  0.1047E-01  0.1047E-01  0.1534E+00  0.1534E+00
     -6.284  0.1425E-01  0.1425E-01  0.1548E+00  0.1548E+00
     -6.180  0.2015E-01  0.2015E-01  0.1569E+00  0.1569E+00
     -6.076  0.1783E-01  0.1783E-01  0.1588E+00  0.1588E+00
     -5.972  0.1251E-01  0.1251E-01  0.1601E+00  0.1601E+00
     -5.868  0.1696E-01  0.1696E-01  0.1619E+00  0.1619E+00
     -5.764  0.1481E-01  0.1481E-01  0.1634E+00  0.1634E+00
     -5.660  0.1577E-01  0.1577E-01  0.1650E+00  0.1650E+00
     -5.556  0.7432E-02  0.7432E-02  0.1658E+00  0.1658E+00
     -5.452  0.6277E-02  0.6277E-02  0.1665E+00  0.1665E+00
     -5.348  0.3016E-02  0.3016E-02  0.1668E+00  0.1668E+00
     -5.244  0.2107E-02  0.2107E-02  0.1670E+00  0.1670E+00
     -5.140  0.4215E-02  0.4215E-02  0.1674E+00  0.1674E+00
     -5.036  0.1861E-01  0.1861E-01  0.1694E+00  0.1694E+00
     -4.931  0.1899E-01  0.1899E-01  0.1714E+00  0.1714E+00
     -4.827  0.1901E-01  0.1901E-01  0.1733E+00  0.1733E+00
     -4.723  0.1337E-01  0.1337E-01  0.1747E+00  0.1747E+00
     -4.619  0.2603E-02  0.2603E-02  0.1750E+00  0.1750E+00
     -4.515  0.7547E-02  0.7547E-02  0.1758E+00  0.1758E+00
     -4.411  0.1344E-01  0.1344E-01  0.1772E+00  0.1772E+00
     -4.307  0.5081E-02  0.5081E-02  0.1777E+00  0.1777E+00
     -4.203  0.7879E-02  0.7879E-02  0.1785E+00  0.1785E+00
     -4.099  0.8604E-02  0.8604E-02  0.1794E+00  0.1794E+00
     -3.995  0.8837E-02  0.8837E-02  0.1803E+00  0.1803E+00
     -3.891  0.1003E-01  0.1003E-01  0.1814E+00  0.1814E+00
     -3.787  0.3601E-02  0.3601E-02  0.1818E+00  0.1818E+00
     -3.683  0.2102E-02  0.2102E-02  0.1820E+00  0.1820E+00
     -3.579  0.1663E-03  0.1663E-03  0.1820E+00  0.1820E+00
     -3.475  0.3129E-03  0.3129E-03  0.1820E+00  0.1820E+00
     -3.371  0.2409E-02  0.2409E-02  0.1823E+00  0.1823E+00
     -3.267  0.5993E-02  0.5993E-02  0.1829E+00  0.1829E+00
     -3.163  0.3341E-02  0.3341E-02  0.1833E+00  0.1833E+00
     -3.059  0.2296E-02  0.2296E-02  0.1835E+00  0.1835E+00
     -2.954  0.6480E-04  0.6480E-04  0.1835E+00  0.1835E+00
     -2.850  0.5844E-07  0.5844E-07  0.1835E+00  0.1835E+00
     -2.746  0.3133E-03  0.3133E-03  0.1835E+00  0.1835E+00
     -2.642  0.2230E-02  0.2230E-02  0.1838E+00  0.1838E+00
     -2.538  0.2136E-02  0.2136E-02  0.1840E+00  0.1840E+00
     -2.434  0.1263E-03  0.1263E-03  0.1840E+00  0.1840E+00
     -2.330  0.4409E-03  0.4409E-03  0.1840E+00  0.1840E+00
     -2.226  0.3833E-02  0.3833E-02  0.1844E+00  0.1844E+00
     -2.122  0.5315E-03  0.5315E-03  0.1845E+00  0.1845E+00
     -2.018  0.2286E-05  0.2286E-05  0.1845E+00  0.1845E+00
     -1.914  0.1023E-02  0.1023E-02  0.1846E+00  0.1846E+00
     -1.810  0.2205E-02  0.2205E-02  0.1848E+00  0.1848E+00
     -1.706  0.3513E-02  0.3513E-02  0.1852E+00  0.1852E+00
     -1.602  0.5437E-02  0.5437E-02  0.1858E+00  0.1858E+00
     -1.498  0.2228E-02  0.2228E-02  0.1860E+00  0.1860E+00
     -1.394  0.4185E-03  0.4185E-03  0.1860E+00  0.1860E+00
     -1.290  0.7125E-02  0.7125E-02  0.1868E+00  0.1868E+00
     -1.186  0.5541E-02  0.5541E-02  0.1874E+00  0.1874E+00
     -1.082  0.1341E-02  0.1341E-02  0.1875E+00  0.1875E+00
     -0.977  0.2516E-02  0.2516E-02  0.1878E+00  0.1878E+00
     -0.873  0.1312E-01  0.1312E-01  0.1891E+00  0.1891E+00
     -0.769  0.1561E-01  0.1561E-01  0.1908E+00  0.1908E+00
     -0.665  0.5253E-02  0.5253E-02  0.1913E+00  0.1913E+00
     -0.561  0.9417E-02  0.9417E-02  0.1923E+00  0.1923E+00
     -0.457  0.1081E-01  0.1081E-01  0.1934E+00  0.1934E+00
     -0.353  0.5482E-02  0.5482E-02  0.1940E+00  0.1940E+00
     -0.249  0.3252E-02  0.3252E-02  0.1943E+00  0.1943E+00
     -0.145  0.8600E-02  0.8600E-02  0.1952E+00  0.1952E+00
     -0.041  0.9944E-02  0.9944E-02  0.1962E+00  0.1962E+00
      0.063  0.1096E-01  0.1096E-01  0.1974E+00  0.1974E+00
      0.167  0.1081E-01  0.1081E-01  0.1985E+00  0.1985E+00
      0.271  0.9037E-02  0.9037E-02  0.1994E+00  0.1994E+00
      0.375  0.4119E-02  0.4119E-02  0.1999E+00  0.1999E+00
      0.479  0.1850E-02  0.1850E-02  0.2001E+00  0.2001E+00
      0.583  0.5645E-02  0.5645E-02  0.2007E+00  0.2007E+00
      0.687  0.5361E-02  0.5361E-02  0.2012E+00  0.2012E+00
      0.791  0.1156E-01  0.1156E-01  0.2024E+00  0.2024E+00
      0.895  0.1201E-01  0.1201E-01  0.2037E+00  0.2037E+00
      1.000  0.5176E-02  0.5176E-02  0.2042E+00  0.2042E+00
      1.104  0.1078E-01  0.1078E-01  0.2053E+00  0.2053E+00
      1.208  0.7826E-02  0.7826E-02  0.2061E+00  0.2061E+00
      1.312  0.6406E-02  0.6406E-02  0.2068E+00  0.2068E+00
      1.416  0.1283E-01  0.1283E-01  0.2081E+00  0.2081E+00
      1.520  0.1668E-01  0.1668E-01  0.2099E+00  0.2099E+00
      1.624  0.1694E-01  0.1694E-01  0.2116E+00  0.2116E+00
      1.728  0.1035E-01  0.1035E-01  0.2127E+00  0.2127E+00
      1.832  0.8081E-02  0.8081E-02  0.2136E+00  0.2136E+00
      1.936  0.1335E-01  0.1335E-01  0.2149E+00  0.2149E+00
      2.040  0.2079E-01  0.2079E-01  0.2171E+00  0.2171E+00
      2.144  0.1395E-01  0.1395E-01  0.2186E+00  0.2186E+00
      2.248  0.1770E-01  0.1770E-01  0.2204E+00  0.2204E+00
      2.352  0.2107E-01  0.2107E-01  0.2226E+00  0.2226E+00
      2.456  0.2735E-01  0.2735E-01  0.2254E+00  0.2254E+00
      2.560  0.6952E-02  0.6952E-02  0.2262E+00  0.2262E+00
      2.664  0.4852E-02  0.4852E-02  0.2267E+00  0.2267E+00
      2.768  0.2093E-01  0.2093E-01  0.2288E+00  0.2288E+00
      2.872  0.3216E-01  0.3216E-01  0.2322E+00  0.2322E+00
      2.977  0.3950E-01  0.3950E-01  0.2363E+00  0.2363E+00
      3.081  0.2299E-01  0.2299E-01  0.2387E+00  0.2387E+00
      3.185  0.1611E-01  0.1611E-01  0.2404E+00  0.2404E+00
      3.289  0.2033E-01  0.2033E-01  0.2425E+00  0.2425E+00
      3.393  0.1211E-01  0.1211E-01  0.2437E+00  0.2437E+00
      3.497  0.2521E-01  0.2521E-01  0.2464E+00  0.2464E+00
      3.601  0.2059E-01  0.2059E-01  0.2485E+00  0.2485E+00
      3.705  0.1753E-01  0.1753E-01  0.2503E+00  0.2503E+00
      3.809  0.2768E-01  0.2768E-01  0.2532E+00  0.2532E+00
      3.913  0.2023E-01  0.2023E-01  0.2553E+00  0.2553E+00
      4.017  0.2475E-01  0.2475E-01  0.2579E+00  0.2579E+00
      4.121  0.1671E-01  0.1671E-01  0.2596E+00  0.2596E+00
      4.225  0.1627E-01  0.1627E-01  0.2613E+00  0.2613E+00
      4.329  0.2727E-01  0.2727E-01  0.2642E+00  0.2642E+00
      4.433  0.7897E-02  0.7897E-02  0.2650E+00  0.2650E+00
      4.537  0.9495E-04  0.9494E-04  0.2650E+00  0.2650E+00
      4.641  0.1850E-08  0.1849E-08  0.2650E+00  0.2650E+00
      4.745  0.1014E-16  0.1014E-16  0.2650E+00  0.2650E+00
      4.849  0.0000E+00  0.0000E+00  0.2650E+00  0.2650E+00
      4.953  0.0000E+00  0.0000E+00  0.2650E+00  0.2650E+00
      5.058  0.0000E+00  0.0000E+00  0.2650E+00  0.2650E+00
      5.162  0.0000E+00  0.0000E+00  0.2650E+00  0.2650E+00
      5.266  0.0000E+00  0.0000E+00  0.2650E+00  0.2650E+00
      5.370  0.0000E+00  0.0000E+00  0.2650E+00  0.2650E+00
      5.474  0.0000E+00  0.0000E+00  0.2650E+00  0.2650E+00
      5.578  0.0000E+00  0.0000E+00  0.2650E+00  0.2650E+00
      5.682  0.0000E+00  0.0000E+00  0.2650E+00  0.2650E+00
      5.786  0.0000E+00  0.0000E+00  0.2650E+00  0.2650E+00
