       N       E                     dE             d eps       ncg     rms          rms(c)
DAV:   1     0.325488860036E+04    0.32549E+04   -0.13766E+05  4590   0.105E+03
DAV:   2    -0.251577787240E+03   -0.35065E+04   -0.33033E+04  6400   0.257E+02
DAV:   3    -0.864402620582E+03   -0.61282E+03   -0.61008E+03  5300   0.111E+02
DAV:   4    -0.886545383988E+03   -0.22143E+02   -0.22065E+02  5450   0.266E+01
DAV:   5    -0.887173933907E+03   -0.62855E+00   -0.62787E+00  6100   0.381E+00    0.518E+01
DAV:   6    -0.869834244197E+03    0.17340E+02   -0.22025E+01  5140   0.722E+00    0.337E+01
DAV:   7    -0.847690898414E+03    0.22143E+02   -0.32480E+01  5030   0.856E+00    0.204E+01
DAV:   8    -0.842864395044E+03    0.48265E+01   -0.24324E+01  5130   0.737E+00    0.817E+00
DAV:   9    -0.842747031399E+03    0.11736E+00   -0.11284E+00  4980   0.191E+00    0.315E+00
DAV:  10    -0.842659212726E+03    0.87819E-01   -0.37929E-01  4930   0.105E+00    0.865E-01
DAV:  11    -0.842647222575E+03    0.11990E-01   -0.67435E-02  4950   0.455E-01    0.288E-01
DAV:  12    -0.842646391685E+03    0.83089E-03   -0.66121E-03  5200   0.158E-01    0.142E-01
DAV:  13    -0.842646255406E+03    0.13628E-03   -0.21185E-03  5190   0.946E-02    0.670E-02
DAV:  14    -0.842646346834E+03   -0.91428E-04   -0.32770E-04  5070   0.341E-02    0.470E-02
DAV:  15    -0.842646389640E+03   -0.42806E-04   -0.78214E-05  4920   0.168E-02    0.212E-02
DAV:  16    -0.842646391550E+03   -0.19101E-05   -0.19188E-05  5150   0.832E-03    0.969E-03
DAV:  17    -0.842646391306E+03    0.24379E-06   -0.69943E-06  5120   0.539E-03
   1 F= -.85038551E+03 E0= -.85038551E+03  d E =-.850386E+03  mag=     0.0003
       N       E                     dE             d eps       ncg     rms          rms(c)
DAV:   1    -0.842646391337E+03    0.21328E-06   -0.42303E-03  4460   0.772E-02    0.122E-02
DAV:   2    -0.842646395829E+03   -0.44920E-05   -0.75754E-05  4610   0.923E-03    0.834E-03
DAV:   3    -0.842646395527E+03    0.30157E-06   -0.12697E-06  3940   0.183E-03
   2 F= -.85038553E+03 E0= -.85038552E+03  d E =-.186385E-04  mag=    -0.0000
       N       E                     dE             d eps       ncg     rms          rms(c)
DAV:   1    -0.842646373579E+03    0.22250E-04   -0.14812E-02  4380   0.133E-01    0.233E-02
DAV:   2    -0.842646385019E+03   -0.11440E-04   -0.23654E-04  4620   0.143E-02    0.157E-02
DAV:   3    -0.842646385676E+03   -0.65722E-06   -0.32886E-06  3850   0.262E-03
   3 F= -.85038554E+03 E0= -.85038554E+03  d E =-.179210E-04  mag=     0.0000
       N       E                     dE             d eps       ncg     rms          rms(c)
DAV:   1    -0.842646357044E+03    0.27975E-04   -0.29228E-02  4380   0.180E-01    0.314E-02
DAV:   2    -0.842646378131E+03   -0.21087E-04   -0.43632E-04  4540   0.180E-02    0.210E-02
DAV:   3    -0.842646379780E+03   -0.16493E-05   -0.49086E-06  3970   0.290E-03    0.160E-02
DAV:   4    -0.842646392659E+03   -0.12879E-04   -0.13557E-05  3930   0.493E-03    0.288E-03
DAV:   5    -0.842646393125E+03   -0.46547E-06   -0.22032E-06  3680   0.166E-03
   4 F= -.85038559E+03 E0= -.85038559E+03  d E =-.443074E-04  mag=     0.0000
       N       E                     dE             d eps       ncg     rms          rms(c)
DAV:   1    -0.842646331263E+03    0.61396E-04   -0.49256E-02  4360   0.233E-01    0.381E-02
DAV:   2    -0.842646379965E+03   -0.48702E-04   -0.78727E-04  4420   0.241E-02    0.251E-02
DAV:   3    -0.842646379805E+03    0.15993E-06   -0.82723E-06  4090   0.374E-03
   5 F= -.85038562E+03 E0= -.85038562E+03  d E =-.322629E-04  mag=    -0.0000
       N       E                     dE             d eps       ncg     rms          rms(c)
DAV:   1    -0.842646314944E+03    0.65020E-04   -0.73769E-02  4360   0.281E-01    0.478E-02
DAV:   2    -0.842646373367E+03   -0.58423E-04   -0.10597E-03  4520   0.274E-02    0.318E-02
DAV:   3    -0.842646376757E+03   -0.33899E-05   -0.11496E-05  4180   0.418E-03    0.244E-02
DAV:   4    -0.842646403236E+03   -0.26478E-04   -0.32558E-05  3970   0.730E-03    0.450E-03
DAV:   5    -0.842646403999E+03   -0.76363E-06   -0.49809E-06  3770   0.235E-03
   6 F= -.85038570E+03 E0= -.85038570E+03  d E =-.817696E-04  mag=    -0.0000
       N       E                     dE             d eps       ncg     rms          rms(c)
DAV:   1    -0.842646271604E+03    0.13163E-03   -0.10942E-01  4320   0.342E-01    0.565E-02
DAV:   2    -0.842646382803E+03   -0.11120E-03   -0.17523E-03  4410   0.352E-02    0.371E-02
DAV:   3    -0.842646383930E+03   -0.11274E-05   -0.18711E-05  4520   0.535E-03    0.289E-02
DAV:   4    -0.842646414714E+03   -0.30784E-04   -0.54017E-05  4040   0.945E-03    0.570E-03
DAV:   5    -0.842646416309E+03   -0.15950E-05   -0.87909E-06  3920   0.319E-03    0.542E-03
DAV:   6    -0.842646416262E+03    0.47869E-07   -0.18075E-06  3310   0.241E-03
   7 F= -.85038579E+03 E0= -.85038579E+03  d E =-.847117E-04  mag=    -0.0000
       N       E                     dE             d eps       ncg     rms          rms(c)
DAV:   1    -0.842646203851E+03    0.21246E-03   -0.17896E-01  4310   0.437E-01    0.727E-02
DAV:   2    -0.842646380609E+03   -0.17676E-03   -0.28473E-03  4390   0.448E-02    0.476E-02
DAV:   3    -0.842646377314E+03    0.32950E-05   -0.32035E-05  4800   0.703E-03    0.368E-02
DAV:   4    -0.842646430467E+03   -0.53153E-04   -0.83285E-05  4115   0.118E-02    0.708E-03
DAV:   5    -0.842646434152E+03   -0.36856E-05   -0.14531E-05  4200   0.403E-03    0.640E-03
DAV:   6    -0.842646434121E+03    0.30865E-07   -0.21058E-06  3380   0.259E-03
   8 F= -.85038590E+03 E0= -.85038590E+03  d E =-.111624E-03  mag=    -0.0000
       N       E                     dE             d eps       ncg     rms          rms(c)
DAV:   1    -0.842646137469E+03    0.29668E-03   -0.27706E-01  4290   0.545E-01    0.896E-02
DAV:   2    -0.842646427329E+03   -0.28986E-03   -0.43723E-03  4465   0.556E-02    0.593E-02
DAV:   3    -0.842646414713E+03    0.12616E-04   -0.48393E-05  5040   0.863E-03    0.460E-02
DAV:   4    -0.842646487904E+03   -0.73191E-04   -0.14049E-04  4200   0.151E-02    0.903E-03
DAV:   5    -0.842646492047E+03   -0.41432E-05   -0.22954E-05  4640   0.504E-03    0.859E-03
DAV:   6    -0.842646491835E+03    0.21233E-06   -0.42222E-06  3740   0.354E-03
   9 F= -.85038607E+03 E0= -.85038607E+03  d E =-.171134E-03  mag=    -0.0000
       N       E                     dE             d eps       ncg     rms          rms(c)
DAV:   1    -0.842646036483E+03    0.45556E-03   -0.42255E-01  4280   0.673E-01    0.109E-01
DAV:   2    -0.842646506007E+03   -0.46952E-03   -0.65865E-03  4475   0.681E-02    0.736E-02
DAV:   3    -0.842646480900E+03    0.25108E-04   -0.72383E-05  5200   0.105E-02    0.575E-02
DAV:   4    -0.842646567927E+03   -0.87028E-04   -0.23714E-04  4310   0.194E-02    0.128E-02
DAV:   5    -0.842646572391E+03   -0.44639E-05   -0.36264E-05  4830   0.638E-03    0.123E-02
DAV:   6    -0.842646572464E+03   -0.73000E-07   -0.12076E-05  4100   0.571E-03    0.431E-03
DAV:   7    -0.842646572240E+03    0.22374E-06   -0.14380E-06  3680   0.174E-03
  10 F= -.85038628E+03 E0= -.85038628E+03  d E =-.215567E-03  mag=     0.0000
       N       E                     dE             d eps       ncg     rms          rms(c)
DAV:   1    -0.842645845163E+03    0.72730E-03   -0.65324E-01  4280   0.844E-01    0.136E-01
DAV:   2    -0.842646618985E+03   -0.77382E-03   -0.10337E-02  4535   0.865E-02    0.918E-02
DAV:   3    -0.842646576394E+03    0.42592E-04   -0.11659E-04  5200   0.135E-02    0.718E-02
DAV:   4    -0.842646667313E+03   -0.90919E-04   -0.36234E-04  4370   0.242E-02    0.148E-02
DAV:   5    -0.842646676609E+03   -0.92958E-05   -0.59038E-05  4820   0.824E-03    0.141E-02
DAV:   6    -0.842646676406E+03    0.20249E-06   -0.11881E-05  4130   0.593E-03    0.568E-03
DAV:   7    -0.842646676127E+03    0.27945E-06   -0.26439E-06  3930   0.229E-03
  11 F= -.85038656E+03 E0= -.85038656E+03  d E =-.271193E-03  mag=    -0.0000
       N       E                     dE             d eps       ncg     rms          rms(c)
DAV:   1    -0.842645494112E+03    0.11823E-02   -0.97219E-01  4280   0.104E+00    0.170E-01
DAV:   2    -0.842646689040E+03   -0.11949E-02   -0.15618E-02  4545   0.108E-01    0.112E-01
DAV:   3    -0.842646627516E+03    0.61524E-04   -0.18543E-04  5200   0.175E-02    0.871E-02
DAV:   4    -0.842646715915E+03   -0.88398E-04   -0.46295E-04  4435   0.285E-02    0.175E-02
DAV:   5    -0.842646741809E+03   -0.25894E-04   -0.84102E-05  4820   0.998E-03    0.156E-02
DAV:   6    -0.842646741939E+03   -0.12995E-06   -0.13086E-05  4100   0.639E-03    0.686E-03
DAV:   7    -0.842646742012E+03   -0.73887E-07   -0.38428E-06  3830   0.283E-03
  12 F= -.85038683E+03 E0= -.85038683E+03  d E =-.271020E-03  mag=     0.0000
       N       E                     dE             d eps       ncg     rms          rms(c)
DAV:   1    -0.842644864112E+03    0.18778E-02   -0.13316E+00  4240   0.127E+00    0.194E-01
DAV:   2    -0.842646591360E+03   -0.17272E-02   -0.21676E-02  4595   0.136E-01    0.136E-01
DAV:   3    -0.842646480286E+03    0.11107E-03   -0.25952E-04  5200   0.220E-02    0.107E-01
DAV:   4    -0.842646553327E+03   -0.73041E-04   -0.84740E-04  4620   0.398E-02    0.253E-02
DAV:   5    -0.842646573228E+03   -0.19902E-04   -0.13813E-04  4760   0.142E-02    0.229E-02
DAV:   6    -0.842646580296E+03   -0.70682E-05   -0.43944E-05  4360   0.112E-02    0.862E-03
DAV:   7    -0.842646579638E+03    0.65856E-06   -0.47509E-06  4030   0.362E-03
  13 F= -.85038688E+03 E0= -.85038688E+03  d E =-.548322E-04  mag=     0.0000
       N       E                     dE             d eps       ncg     rms          rms(c)
DAV:   1    -0.842642893463E+03    0.36868E-02   -0.17104E+00  4240   0.163E+00    0.235E-01
DAV:   2    -0.842645279333E+03   -0.23859E-02   -0.29756E-02  4555   0.191E-01    0.163E-01
DAV:   3    -0.842645112933E+03    0.16640E-03   -0.45095E-04  5300   0.342E-02    0.127E-01
DAV:   4    -0.842645140432E+03   -0.27499E-04   -0.87140E-04  4570   0.502E-02    0.331E-02
DAV:   5    -0.842645181429E+03   -0.40997E-04   -0.18088E-04  4840   0.189E-02    0.239E-02
DAV:   6    -0.842645188760E+03   -0.73312E-05   -0.42683E-05  4560   0.118E-02    0.103E-02
DAV:   7    -0.842645188790E+03   -0.29569E-07   -0.49067E-06  4420   0.421E-03
  14 F= -.85038576E+03 E0= -.85038576E+03  d E =0.112518E-02  mag=    -0.0000
       N       E                     dE             d eps       ncg     rms          rms(c)
DAV:   1    -0.842646418305E+03   -0.12295E-02   -0.77153E-02  4380   0.546E-01    0.615E-02
DAV:   2    -0.842646575734E+03   -0.15743E-03   -0.21387E-03  4880   0.804E-02    0.560E-02
DAV:   3    -0.842646546741E+03    0.28993E-04   -0.69542E-05  5630   0.157E-02    0.451E-02
DAV:   4    -0.842646511903E+03    0.34838E-04   -0.80592E-05  4540   0.189E-02    0.184E-02
DAV:   5    -0.842646512134E+03   -0.23169E-06   -0.27118E-05  4780   0.904E-03    0.764E-03
DAV:   6    -0.842646512492E+03   -0.35758E-06   -0.23246E-06  3240   0.295E-03
  15 F= -.85038708E+03 E0= -.85038708E+03  d E =-.132200E-02  mag=     0.0000
       N       E                     dE             d eps       ncg     rms          rms(c)
DAV:   1    -0.842646511159E+03    0.97573E-06   -0.45617E-05  4360   0.122E-02    0.252E-03
DAV:   2    -0.842646511161E+03   -0.23792E-08   -0.97542E-07  3220   0.176E-03
  16 F= -.85038708E+03 E0= -.85038708E+03  d E =0.176588E-06  mag=    -0.0000
       N       E                     dE             d eps       ncg     rms          rms(c)
DAV:   1    -0.842646505892E+03    0.52667E-05   -0.15812E-04  4320   0.223E-02    0.330E-03
DAV:   2    -0.842646505996E+03   -0.10455E-06   -0.29619E-06  3420   0.292E-03
  17 F= -.85038708E+03 E0= -.85038707E+03  d E =0.303756E-05  mag=    -0.0000
       N       E                     dE             d eps       ncg     rms          rms(c)
DAV:   1    -0.842646494702E+03    0.11190E-04   -0.30892E-04  4280   0.295E-02    0.516E-03
DAV:   2    -0.842646494750E+03   -0.48123E-07   -0.54773E-06  3850   0.372E-03
  18 F= -.85038707E+03 E0= -.85038707E+03  d E =0.811935E-05  mag=    -0.0000
       N       E                     dE             d eps       ncg     rms          rms(c)
DAV:   1    -0.842646477973E+03    0.16729E-04   -0.48553E-04  4270   0.342E-02    0.666E-03
DAV:   2    -0.842646477881E+03    0.91648E-07   -0.77447E-06  3820   0.401E-03
  19 F= -.85038705E+03 E0= -.85038705E+03  d E =0.129261E-04  mag=    -0.0000
       N       E                     dE             d eps       ncg     rms          rms(c)
DAV:   1    -0.842646459063E+03    0.18910E-04   -0.71425E-04  4275   0.385E-02    0.799E-03
DAV:   2    -0.842646458799E+03    0.26412E-06   -0.10928E-05  3860   0.433E-03    0.622E-03
DAV:   3    -0.842646459311E+03   -0.51186E-06   -0.39477E-07  2880   0.132E-03
  20 F= -.85038704E+03 E0= -.85038704E+03  d E =0.139345E-04  mag=     0.0000
       N       E                     dE             d eps       ncg     rms          rms(c)
DAV:   1    -0.842646440024E+03    0.18775E-04   -0.10308E-03  4260   0.453E-02    0.664E-03
DAV:   2    -0.842646440663E+03   -0.63824E-06   -0.16037E-05  4100   0.507E-03    0.463E-03
DAV:   3    -0.842646440817E+03   -0.15419E-06   -0.26541E-07  3215   0.979E-04
  21 F= -.85038703E+03 E0= -.85038703E+03  d E =0.130182E-04  mag=    -0.0000
       N       E                     dE             d eps       ncg     rms          rms(c)
DAV:   1    -0.842646416108E+03    0.24554E-04   -0.18148E-03  4260   0.604E-02    0.865E-03
DAV:   2    -0.842646417376E+03   -0.12674E-05   -0.29745E-05  4330   0.696E-03    0.612E-03
DAV:   3    -0.842646417561E+03   -0.18549E-06   -0.47275E-07  3415   0.129E-03
  22 F= -.85038701E+03 E0= -.85038701E+03  d E =0.161926E-04  mag=    -0.0000
       N       E                     dE             d eps       ncg     rms          rms(c)
DAV:   1    -0.842646384273E+03    0.33102E-04   -0.29844E-03  4260   0.766E-02    0.113E-02
DAV:   2    -0.842646386113E+03   -0.18392E-05   -0.48307E-05  4350   0.876E-03    0.797E-03
DAV:   3    -0.842646386481E+03   -0.36800E-06   -0.79802E-07  3580   0.164E-03
  23 F= -.85038699E+03 E0= -.85038699E+03  d E =0.216674E-04  mag=    -0.0000
       N       E                     dE             d eps       ncg     rms          rms(c)
DAV:   1    -0.842646343557E+03    0.42555E-04   -0.46475E-03  4260   0.938E-02    0.141E-02
DAV:   2    -0.842646346232E+03   -0.26749E-05   -0.73577E-05  4320   0.105E-02    0.993E-03
DAV:   3    -0.842646346783E+03   -0.55046E-06   -0.11481E-06  3680   0.194E-03
  24 F= -.85038696E+03 E0= -.85038696E+03  d E =0.272484E-04  mag=    -0.0000
       N       E                     dE             d eps       ncg     rms          rms(c)
DAV:   1    -0.842646296317E+03    0.49915E-04   -0.69693E-03  4260   0.115E-01    0.170E-02
DAV:   2    -0.842646300386E+03   -0.40689E-05   -0.10812E-04  4380   0.128E-02    0.120E-02
DAV:   3    -0.842646301119E+03   -0.73309E-06   -0.15953E-06  3740   0.227E-03
  25 F= -.85038693E+03 E0= -.85038693E+03  d E =0.301225E-04  mag=    -0.0000
       N       E                     dE             d eps       ncg     rms          rms(c)
DAV:   1    -0.842646241854E+03    0.58532E-04   -0.10517E-02  4260   0.142E-01    0.205E-02
DAV:   2    -0.842646247784E+03   -0.59301E-05   -0.16038E-04  4380   0.157E-02    0.147E-02
DAV:   3    -0.842646248962E+03   -0.11780E-05   -0.23736E-06  3760   0.278E-03    0.111E-02
DAV:   4    -0.842646254811E+03   -0.58489E-05   -0.58518E-06  3860   0.418E-03    0.234E-03
DAV:   5    -0.842646254900E+03   -0.88490E-07   -0.10170E-06  3630   0.159E-03
  26 F= -.85038690E+03 E0= -.85038690E+03  d E =0.279061E-04  mag=     0.0000
       N       E                     dE             d eps       ncg     rms          rms(c)
DAV:   1    -0.842646176784E+03    0.78027E-04   -0.16489E-02  4260   0.176E-01    0.243E-02
DAV:   2    -0.842646189990E+03   -0.13207E-04   -0.27238E-04  4330   0.203E-02    0.176E-02
DAV:   3    -0.842646190402E+03   -0.41170E-06   -0.38903E-06  4000   0.352E-03
  27 F= -.85038686E+03 E0= -.85038686E+03  d E =0.432863E-04  mag=    -0.0000
       N       E                     dE             d eps       ncg     rms          rms(c)
DAV:   1    -0.842646105063E+03    0.84928E-04   -0.25205E-02  4240   0.217E-01    0.318E-02
DAV:   2    -0.842646120102E+03   -0.15039E-04   -0.38082E-04  4380   0.239E-02    0.227E-02
DAV:   3    -0.842646122239E+03   -0.21367E-05   -0.60884E-06  4200   0.429E-03    0.170E-02
DAV:   4    -0.842646135147E+03   -0.12909E-04   -0.12103E-05  3905   0.597E-03    0.340E-03
DAV:   5    -0.842646135668E+03   -0.52033E-06   -0.23738E-06  3720   0.228E-03
  28 F= -.85038683E+03 E0= -.85038683E+03  d E =0.294439E-04  mag=     0.0000
       N       E                     dE             d eps       ncg     rms          rms(c)
DAV:   1    -0.842646010303E+03    0.12484E-03   -0.39672E-02  4260   0.270E-01    0.382E-02
DAV:   2    -0.842646045551E+03   -0.35248E-04   -0.65769E-04  4300   0.311E-02    0.270E-02
DAV:   3    -0.842646045715E+03   -0.16433E-06   -0.96655E-06  4580   0.540E-03
  29 F= -.85038677E+03 E0= -.85038677E+03  d E =0.573134E-04  mag=    -0.0000
       N       E                     dE             d eps       ncg     rms          rms(c)
DAV:   1    -0.842645909627E+03    0.13592E-03   -0.57116E-02  4260   0.327E-01    0.483E-02
DAV:   2    -0.842645952628E+03   -0.43001E-04   -0.85723E-04  4390   0.360E-02    0.346E-02
DAV:   3    -0.842645953973E+03   -0.13453E-05   -0.14089E-05  4880   0.650E-03    0.258E-02
DAV:   4    -0.842645976383E+03   -0.22410E-04   -0.26149E-05  4160   0.872E-03    0.514E-03
DAV:   5    -0.842645977698E+03   -0.13149E-05   -0.54344E-06  4220   0.343E-03    0.382E-03
DAV:   6    -0.842645977589E+03    0.10902E-06   -0.10297E-06  3440   0.189E-03
  30 F= -.85038675E+03 E0= -.85038675E+03  d E =0.266428E-04  mag=     0.0000
       N       E                     dE             d eps       ncg     rms          rms(c)
DAV:   1    -0.842645782836E+03    0.19486E-03   -0.82728E-02  4260   0.399E-01    0.541E-02
DAV:   2    -0.842645865916E+03   -0.83081E-04   -0.13408E-03  4350   0.457E-02    0.395E-02
DAV:   3    -0.842645861558E+03    0.43580E-05   -0.20966E-05  5080   0.805E-03    0.304E-02
DAV:   4    -0.842645882540E+03   -0.20981E-04   -0.52285E-05  4160   0.123E-02    0.709E-03
DAV:   5    -0.842645883762E+03   -0.12225E-05   -0.95415E-06  4640   0.470E-03    0.555E-03
DAV:   6    -0.842645883778E+03   -0.15709E-07   -0.28113E-06  3590   0.306E-03
  31 F= -.85038670E+03 E0= -.85038670E+03  d E =0.467490E-04  mag=    -0.0000
       N       E                     dE             d eps       ncg     rms          rms(c)
DAV:   1    -0.842645621732E+03    0.26203E-03   -0.12206E-01  4260   0.485E-01    0.667E-02
DAV:   2    -0.842645751869E+03   -0.13014E-03   -0.20005E-03  4415   0.561E-02    0.484E-02
DAV:   3    -0.842645745121E+03    0.67482E-05   -0.31452E-05  5140   0.984E-03    0.371E-02
DAV:   4    -0.842645771383E+03   -0.26262E-04   -0.74400E-05  4230   0.147E-02    0.856E-03
DAV:   5    -0.842645773373E+03   -0.19907E-05   -0.14010E-05  4860   0.570E-03    0.658E-03
DAV:   6    -0.842645773311E+03    0.61969E-07   -0.37112E-06  3880   0.355E-03
  32 F= -.85038664E+03 E0= -.85038664E+03  d E =0.578700E-04  mag=    -0.0000
       N       E                     dE             d eps       ncg     rms          rms(c)
DAV:   1    -0.842645409828E+03    0.36355E-03   -0.18060E-01  4260   0.590E-01    0.819E-02
DAV:   2    -0.842645605166E+03   -0.19534E-03   -0.29788E-03  4455   0.683E-02    0.588E-02
DAV:   3    -0.842645596894E+03    0.82720E-05   -0.47143E-05  5180   0.121E-02    0.449E-02
DAV:   4    -0.842645632928E+03   -0.36034E-04   -0.10522E-04  4360   0.176E-02    0.102E-02
DAV:   5    -0.842645635918E+03   -0.29902E-05   -0.20046E-05  4840   0.684E-03    0.775E-03
DAV:   6    -0.842645635751E+03    0.16752E-06   -0.52683E-06  4120   0.421E-03
  33 F= -.85038657E+03 E0= -.85038657E+03  d E =0.715964E-04  mag=    -0.0000
       N       E                     dE             d eps       ncg     rms          rms(c)
DAV:   1    -0.842645066598E+03    0.56932E-03   -0.26381E-01  4260   0.717E-01    0.990E-02
DAV:   2    -0.842645368741E+03   -0.30214E-03   -0.44091E-03  4355   0.836E-02    0.715E-02
DAV:   3    -0.842645349739E+03    0.19002E-04   -0.70851E-05  5160   0.148E-02    0.548E-02
DAV:   4    -0.842645395869E+03   -0.46131E-04   -0.16248E-04  4495   0.220E-02    0.129E-02
DAV:   5    -0.842645399864E+03   -0.39948E-05   -0.30544E-05  4840   0.856E-03    0.991E-03
DAV:   6    -0.842645399552E+03    0.31267E-06   -0.82526E-06  4200   0.531E-03
  34 F= -.85038642E+03 E0= -.85038642E+03  d E =0.153323E-03  mag=    -0.0000
       N       E                     dE             d eps       ncg     rms          rms(c)
DAV:   1    -0.842644499421E+03    0.90044E-03   -0.36172E-01  4260   0.879E-01    0.119E-01
DAV:   2    -0.842644943400E+03   -0.44398E-03   -0.62369E-03  4500   0.105E-01    0.873E-02
DAV:   3    -0.842644909256E+03    0.34143E-04   -0.11105E-04  5240   0.192E-02    0.667E-02
DAV:   4    -0.842644956535E+03   -0.47278E-04   -0.23398E-04  4490   0.280E-02    0.169E-02
DAV:   5    -0.842644962397E+03   -0.58623E-05   -0.45455E-05  4800   0.111E-02    0.121E-02
DAV:   6    -0.842644962139E+03    0.25793E-06   -0.13523E-05  4310   0.671E-03    0.531E-03
DAV:   7    -0.842644962101E+03    0.38170E-07   -0.15724E-06  3680   0.238E-03
  35 F= -.85038608E+03 E0= -.85038608E+03  d E =0.336529E-03  mag=    -0.0000
       N       E                     dE             d eps       ncg     rms          rms(c)
DAV:   1    -0.842645104787E+03   -0.14265E-03   -0.76835E-03  4280   0.179E-01    0.200E-02
DAV:   2    -0.842645118646E+03   -0.13859E-04   -0.19834E-04  5210   0.263E-02    0.179E-02
DAV:   3    -0.842645115088E+03    0.35577E-05   -0.87541E-06  5610   0.566E-03    0.138E-02
DAV:   4    -0.842645111813E+03    0.32752E-05   -0.79547E-06  4300   0.617E-03    0.565E-03
DAV:   5    -0.842645111765E+03    0.47949E-07   -0.23185E-06  3360   0.289E-03
  36 F= -.85038624E+03 E0= -.85038624E+03  d E =-.154947E-03  mag=     0.0000
       N       E                     dE             d eps       ncg     rms          rms(c)
DAV:   1    -0.842644984709E+03    0.12710E-03   -0.89959E-03  4260   0.192E-01    0.216E-02
DAV:   2    -0.842645000356E+03   -0.15646E-04   -0.22084E-04  5200   0.276E-02    0.188E-02
DAV:   3    -0.842644996580E+03    0.37754E-05   -0.97193E-06  5560   0.603E-03    0.143E-02
DAV:   4    -0.842644993744E+03    0.28361E-05   -0.89867E-06  4320   0.653E-03    0.575E-03
DAV:   5    -0.842644993819E+03   -0.75241E-07   -0.24140E-06  3480   0.295E-03
  37 F= -.85038613E+03 E0= -.85038612E+03  d E =0.111313E-03  mag=    -0.0000
       N       E                     dE             d eps       ncg     rms          rms(c)
DAV:   1    -0.842645059019E+03   -0.65275E-04   -0.34572E-04  4280   0.381E-02    0.432E-03
DAV:   2    -0.842645059591E+03   -0.57209E-06   -0.94466E-06  5100   0.572E-03
  38 F= -.85038619E+03 E0= -.85038619E+03  d E =-.648832E-04  mag=    -0.0000
       N       E                     dE             d eps       ncg     rms          rms(c)
DAV:   1    -0.842645167880E+03   -0.10886E-03   -0.10997E-03  4280   0.676E-02    0.102E-02
DAV:   2    -0.842645169063E+03   -0.11829E-05   -0.28086E-05  5220   0.987E-03    0.910E-03
DAV:   3    -0.842645167785E+03    0.12778E-05   -0.21597E-06  3280   0.312E-03    0.600E-03
DAV:   4    -0.842645167305E+03    0.48035E-06   -0.22919E-06  3300   0.317E-03
  39 F= -.85038629E+03 E0= -.85038629E+03  d E =-.104294E-03  mag=     0.0000
       N       E                     dE             d eps       ncg     rms          rms(c)
DAV:   1    -0.842645292092E+03   -0.12431E-03   -0.16615E-03  4335   0.814E-02    0.101E-02
DAV:   2    -0.842645295220E+03   -0.31273E-05   -0.43277E-05  5000   0.119E-02    0.911E-03
DAV:   3    -0.842645294450E+03    0.76977E-06   -0.16175E-06  3740   0.265E-03
  40 F= -.85038641E+03 E0= -.85038641E+03  d E =-.119072E-03  mag=     0.0000
       N       E                     dE             d eps       ncg     rms          rms(c)
DAV:   1    -0.842645444161E+03   -0.14894E-03   -0.17618E-03  4260   0.774E-02    0.127E-02
DAV:   2    -0.842645446781E+03   -0.26199E-05   -0.38567E-05  4940   0.103E-02    0.110E-02
DAV:   3    -0.842645446055E+03    0.72565E-06   -0.16510E-06  3980   0.273E-03
  41 F= -.85038655E+03 E0= -.85038655E+03  d E =-.137013E-03  mag=     0.0000
       N       E                     dE             d eps       ncg     rms          rms(c)
DAV:   1    -0.842645665838E+03   -0.21906E-03   -0.21092E-03  4240   0.692E-02    0.147E-02
DAV:   2    -0.842645668633E+03   -0.27950E-05   -0.38360E-05  4840   0.849E-03    0.120E-02
DAV:   3    -0.842645668511E+03    0.12112E-06   -0.14109E-06  3980   0.234E-03
  42 F= -.85038675E+03 E0= -.85038675E+03  d E =-.199766E-03  mag=     0.0000
       N       E                     dE             d eps       ncg     rms          rms(c)
DAV:   1    -0.842645993685E+03   -0.32505E-03   -0.34536E-03  4240   0.769E-02    0.185E-02
DAV:   2    -0.842645997441E+03   -0.37558E-05   -0.53354E-05  4740   0.879E-03    0.142E-02
DAV:   3    -0.842645997958E+03   -0.51746E-06   -0.14604E-06  3860   0.230E-03
  43 F= -.85038705E+03 E0= -.85038705E+03  d E =-.298327E-03  mag=     0.0000
       N       E                     dE             d eps       ncg     rms          rms(c)
DAV:   1    -0.842646490683E+03   -0.49324E-03   -0.83353E-03  4240   0.126E-01    0.264E-02
DAV:   2    -0.842646500320E+03   -0.96361E-05   -0.13379E-04  4660   0.150E-02    0.196E-02
DAV:   3    -0.842646501142E+03   -0.82215E-06   -0.27356E-06  4060   0.328E-03
  44 F= -.85038751E+03 E0= -.85038751E+03  d E =-.458223E-03  mag=     0.0000
       N       E                     dE             d eps       ncg     rms          rms(c)
DAV:   1    -0.842647167544E+03   -0.66722E-03   -0.19213E-02  4240   0.192E-01    0.378E-02
DAV:   2    -0.842647191485E+03   -0.23940E-04   -0.32482E-04  4700   0.230E-02    0.272E-02
DAV:   3    -0.842647192588E+03   -0.11030E-05   -0.58841E-06  4590   0.455E-03    0.193E-02
DAV:   4    -0.842647198980E+03   -0.63920E-05   -0.11296E-05  4080   0.601E-03    0.381E-03
DAV:   5    -0.842647198782E+03    0.19793E-06   -0.18611E-06  3890   0.247E-03
  45 F= -.85038814E+03 E0= -.85038814E+03  d E =-.634424E-03  mag=    -0.0000
       N       E                     dE             d eps       ncg     rms          rms(c)
DAV:   1    -0.842648018005E+03   -0.81903E-03   -0.38613E-02  4240   0.254E-01    0.503E-02
DAV:   2    -0.842648070561E+03   -0.52556E-04   -0.70159E-04  4700   0.308E-02    0.355E-02
DAV:   3    -0.842648070339E+03    0.22137E-06   -0.11409E-05  4900   0.596E-03    0.257E-02
DAV:   4    -0.842648079882E+03   -0.95423E-05   -0.22539E-05  4240   0.787E-03    0.504E-03
DAV:   5    -0.842648080028E+03   -0.14645E-06   -0.39976E-06  4160   0.312E-03
  46 F= -.85038894E+03 E0= -.85038894E+03  d E =-.795481E-03  mag=    -0.0000
       N       E                     dE             d eps       ncg     rms          rms(c)
DAV:   1    -0.842649062224E+03   -0.98234E-03   -0.63760E-02  4240   0.304E-01    0.649E-02
DAV:   2    -0.842649145834E+03   -0.83610E-04   -0.11636E-03  4640   0.361E-02    0.445E-02
DAV:   3    -0.842649146048E+03   -0.21394E-06   -0.21273E-05  4880   0.743E-03    0.312E-02
DAV:   4    -0.842649159582E+03   -0.13534E-04   -0.26111E-05  4245   0.776E-03    0.687E-03
DAV:   5    -0.842649160912E+03   -0.13299E-05   -0.51011E-06  4040   0.304E-03    0.391E-03
DAV:   6    -0.842649160626E+03    0.28574E-06   -0.97485E-07  3580   0.175E-03
  47 F= -.85038991E+03 E0= -.85038991E+03  d E =-.971239E-03  mag=     0.0000
       N       E                     dE             d eps       ncg     rms          rms(c)
DAV:   1    -0.842650185802E+03   -0.10249E-02   -0.81405E-02  4240   0.364E-01    0.739E-02
DAV:   2    -0.842650290467E+03   -0.10467E-03   -0.15167E-03  4680   0.447E-02    0.506E-02
DAV:   3    -0.842650288142E+03    0.23253E-05   -0.38743E-05  5140   0.104E-02    0.344E-02
DAV:   4    -0.842650301334E+03   -0.13192E-04   -0.27021E-05  4370   0.872E-03    0.109E-02
DAV:   5    -0.842650304656E+03   -0.33224E-05   -0.67695E-06  4020   0.383E-03    0.453E-03
DAV:   6    -0.842650304414E+03    0.24200E-06   -0.15186E-06  3740   0.218E-03
  48 F= -.85039092E+03 E0= -.85039092E+03  d E =-.101650E-02  mag=    -0.0000
       N       E                     dE             d eps       ncg     rms          rms(c)
DAV:   1    -0.842650310689E+03   -0.60327E-05   -0.48109E-05  4120   0.988E-03    0.178E-03
DAV:   2    -0.842650310731E+03   -0.42121E-07   -0.80442E-07  3240   0.130E-03
  49 F= -.85039093E+03 E0= -.85039093E+03  d E =-.696261E-05  mag=     0.0000
       N       E                     dE             d eps       ncg     rms          rms(c)
DAV:   1    -0.842650318797E+03   -0.81085E-05   -0.18763E-04  4300   0.192E-02    0.385E-03
DAV:   2    -0.842650318951E+03   -0.15324E-06   -0.34315E-06  3780   0.246E-03
  50 F= -.85039094E+03 E0= -.85039094E+03  d E =-.956788E-05  mag=    -0.0000
       N       E                     dE             d eps       ncg     rms          rms(c)
DAV:   1    -0.842650322640E+03   -0.38422E-05   -0.38053E-04  4260   0.269E-02    0.601E-03
DAV:   2    -0.842650322881E+03   -0.24091E-06   -0.66250E-06  3980   0.335E-03
  51 F= -.85039095E+03 E0= -.85039095E+03  d E =-.605408E-05  mag=    -0.0000
       N       E                     dE             d eps       ncg     rms          rms(c)
DAV:   1    -0.842650316257E+03    0.63822E-05   -0.57854E-04  4260   0.327E-02    0.788E-03
DAV:   2    -0.842650316553E+03   -0.29588E-06   -0.94840E-06  4040   0.394E-03
  52 F= -.85039094E+03 E0= -.85039094E+03  d E =0.343916E-05  mag=    -0.0000
       N       E                     dE             d eps       ncg     rms          rms(c)
DAV:   1    -0.842650294557E+03    0.21701E-04   -0.74538E-04  4245   0.365E-02    0.937E-03
DAV:   2    -0.842650294862E+03   -0.30486E-06   -0.11521E-05  4080   0.423E-03    0.697E-03
DAV:   3    -0.842650295028E+03   -0.16619E-06   -0.54450E-07  3335   0.142E-03
  53 F= -.85039093E+03 E0= -.85039093E+03  d E =0.178421E-04  mag=    -0.0000
       N       E                     dE             d eps       ncg     rms          rms(c)
DAV:   1    -0.842650254602E+03    0.40260E-04   -0.87523E-04  4240   0.392E-02    0.736E-03
DAV:   2    -0.842650255418E+03   -0.81629E-06   -0.13036E-05  3980   0.433E-03    0.502E-03
DAV:   3    -0.842650255507E+03   -0.88534E-07   -0.24585E-07  3195   0.982E-04
  54 F= -.85039089E+03 E0= -.85039089E+03  d E =0.350053E-04  mag=     0.0000
       N       E                     dE             d eps       ncg     rms          rms(c)
DAV:   1    -0.842650186142E+03    0.69276E-04   -0.12711E-03  4240   0.477E-02    0.877E-03
DAV:   2    -0.842650187466E+03   -0.13235E-05   -0.19916E-05  4300   0.532E-03    0.600E-03
DAV:   3    -0.842650187536E+03   -0.70802E-07   -0.26113E-07  3310   0.958E-04
  55 F= -.85039083E+03 E0= -.85039083E+03  d E =0.618248E-04  mag=     0.0000
       N       E                     dE             d eps       ncg     rms          rms(c)
DAV:   1    -0.842650075865E+03    0.11160E-03   -0.19008E-03  4240   0.595E-02    0.110E-02
DAV:   2    -0.842650077937E+03   -0.20711E-05   -0.30924E-05  4400   0.669E-03    0.772E-03
DAV:   3    -0.842650078021E+03   -0.84903E-07   -0.41085E-07  3670   0.119E-03
  56 F= -.85039073E+03 E0= -.85039073E+03  d E =0.100908E-03  mag=     0.0000
       N       E                     dE             d eps       ncg     rms          rms(c)
DAV:   1    -0.842649906788E+03    0.17115E-03   -0.29748E-03  4240   0.755E-02    0.141E-02
DAV:   2    -0.842649910130E+03   -0.33425E-05   -0.49740E-05  4520   0.860E-03    0.100E-02
DAV:   3    -0.842649910229E+03   -0.98706E-07   -0.67783E-07  3770   0.154E-03
  57 F= -.85039057E+03 E0= -.85039057E+03  d E =0.155494E-03  mag=     0.0000
       N       E                     dE             d eps       ncg     rms          rms(c)
DAV:   1    -0.842649666381E+03    0.24375E-03   -0.48660E-03  4240   0.965E-02    0.182E-02
DAV:   2    -0.842649671836E+03   -0.54550E-05   -0.81388E-05  4510   0.110E-02    0.128E-02
DAV:   3    -0.842649672057E+03   -0.22083E-06   -0.10981E-06  3670   0.196E-03
  58 F= -.85039035E+03 E0= -.85039035E+03  d E =0.220541E-03  mag=     0.0000
       N       E                     dE             d eps       ncg     rms          rms(c)
DAV:   1    -0.842649361140E+03    0.31070E-03   -0.83138E-03  4240   0.125E-01    0.236E-02
DAV:   2    -0.842649370584E+03   -0.94443E-05   -0.14056E-04  4425   0.142E-02    0.162E-02
DAV:   3    -0.842649371068E+03   -0.48350E-06   -0.18554E-06  3820   0.247E-03
  59 F= -.85039008E+03 E0= -.85039008E+03  d E =0.276090E-03  mag=     0.0000
       N       E                     dE             d eps       ncg     rms          rms(c)
DAV:   1    -0.842649016670E+03    0.35391E-03   -0.14521E-02  4240   0.163E-01    0.306E-02
DAV:   2    -0.842649033869E+03   -0.17199E-04   -0.25609E-04  4540   0.188E-02    0.206E-02
DAV:   3    -0.842649034663E+03   -0.79374E-06   -0.37596E-06  4080   0.337E-03
  60 F= -.85038977E+03 E0= -.85038977E+03  d E =0.303075E-03  mag=     0.0000
       N       E                     dE             d eps       ncg     rms          rms(c)
DAV:   1    -0.842648646655E+03    0.38721E-03   -0.23090E-02  4240   0.205E-01    0.385E-02
DAV:   2    -0.842648674621E+03   -0.27966E-04   -0.42452E-04  4620   0.241E-02    0.259E-02
DAV:   3    -0.842648675621E+03   -0.10001E-05   -0.75253E-06  4580   0.468E-03    0.184E-02
DAV:   4    -0.842648680992E+03   -0.53713E-05   -0.86531E-06  4030   0.501E-03    0.380E-03
DAV:   5    -0.842648681603E+03   -0.61095E-06   -0.17638E-06  3680   0.195E-03
  61 F= -.85038946E+03 E0= -.85038946E+03  d E =0.311246E-03  mag=    -0.0000
       N       E                     dE             d eps       ncg     rms          rms(c)
DAV:   1    -0.842648261692E+03    0.41930E-03   -0.28726E-02  4240   0.237E-01    0.416E-02
DAV:   2    -0.842648300345E+03   -0.38653E-04   -0.56765E-04  4420   0.291E-02    0.279E-02
DAV:   3    -0.842648300137E+03    0.20749E-06   -0.10692E-05  4820   0.586E-03    0.198E-02
DAV:   4    -0.842648305056E+03   -0.49188E-05   -0.11540E-05  4090   0.611E-03    0.480E-03
DAV:   5    -0.842648306039E+03   -0.98305E-06   -0.27583E-06  3860   0.247E-03
  62 F= -.85038913E+03 E0= -.85038913E+03  d E =0.328786E-03  mag=     0.0000
       N       E                     dE             d eps       ncg     rms          rms(c)
DAV:   1    -0.842647894659E+03    0.41040E-03   -0.24345E-02  4280   0.238E-01    0.380E-02
DAV:   2    -0.842647926952E+03   -0.32293E-04   -0.46381E-04  4320   0.292E-02    0.270E-02
DAV:   3    -0.842647926867E+03    0.84925E-07   -0.80601E-06  4780   0.563E-03
  63 F= -.85038880E+03 E0= -.85038880E+03  d E =0.335553E-03  mag=     0.0000
       N       E                     dE             d eps       ncg     rms          rms(c)
DAV:   1    -0.842647587571E+03    0.33938E-03   -0.20645E-02  4240   0.240E-01    0.360E-02
DAV:   2    -0.842647609837E+03   -0.22266E-04   -0.33061E-04  4440   0.281E-02    0.283E-02
DAV:   3    -0.842647610764E+03   -0.92749E-06   -0.80015E-06  4820   0.592E-03
  64 F= -.85038852E+03 E0= -.85038852E+03  d E =0.280472E-03  mag=     0.0000
       N       E                     dE             d eps       ncg     rms          rms(c)
DAV:   1    -0.842647351401E+03    0.25844E-03   -0.23684E-02  4260   0.268E-01    0.360E-02
DAV:   2    -0.842647375782E+03   -0.24381E-04   -0.35769E-04  4470   0.312E-02    0.294E-02
DAV:   3    -0.842647375630E+03    0.15181E-06   -0.10159E-05  5040   0.676E-03    0.206E-02
DAV:   4    -0.842647383169E+03   -0.75391E-05   -0.16015E-05  4100   0.794E-03    0.517E-03
DAV:   5    -0.842647382869E+03    0.30002E-06   -0.46741E-06  4540   0.402E-03
  65 F= -.85038831E+03 E0= -.85038831E+03  d E =0.202465E-03  mag=    -0.0000
       N       E                     dE             d eps       ncg     rms          rms(c)
DAV:   1    -0.842647230956E+03    0.15221E-03   -0.34534E-02  4300   0.319E-01    0.405E-02
DAV:   2    -0.842647271148E+03   -0.40193E-04   -0.58948E-04  4450   0.389E-02    0.319E-02
DAV:   3    -0.842647267261E+03    0.38873E-05   -0.15332E-05  5180   0.815E-03    0.229E-02
DAV:   4    -0.842647272411E+03   -0.51502E-05   -0.20681E-05  4200   0.925E-03    0.556E-03
DAV:   5    -0.842647273065E+03   -0.65353E-06   -0.61787E-06  4620   0.410E-03
  66 F= -.85038822E+03 E0= -.85038822E+03  d E =0.922555E-04  mag=    -0.0000
       N       E                     dE             d eps       ncg     rms          rms(c)
DAV:   1    -0.842647282364E+03   -0.99527E-05   -0.41203E-02  4300   0.355E-01    0.443E-02
DAV:   2    -0.842647325268E+03   -0.42904E-04   -0.67544E-04  4465   0.430E-02    0.349E-02
DAV:   3    -0.842647319694E+03    0.55743E-05   -0.22633E-05  5160   0.100E-02    0.240E-02
DAV:   4    -0.842647324111E+03   -0.44163E-05   -0.17953E-05  4410   0.908E-03    0.728E-03
DAV:   5    -0.842647325576E+03   -0.14652E-05   -0.67580E-06  4520   0.421E-03    0.317E-03
DAV:   6    -0.842647325604E+03   -0.28034E-07   -0.62350E-07  3200   0.157E-03
  67 F= -.85038827E+03 E0= -.85038827E+03  d E =-.525526E-04  mag=     0.0000
       N       E                     dE             d eps       ncg     rms          rms(c)
DAV:   1    -0.842647595963E+03   -0.27039E-03   -0.41610E-02  4280   0.374E-01    0.418E-02
DAV:   2    -0.842647629442E+03   -0.33479E-04   -0.57309E-04  4530   0.435E-02    0.364E-02
DAV:   3    -0.842647621828E+03    0.76144E-05   -0.23839E-05  5200   0.105E-02    0.247E-02
DAV:   4    -0.842647627484E+03   -0.56560E-05   -0.25288E-05  4400   0.104E-02    0.731E-03
DAV:   5    -0.842647627724E+03   -0.23980E-06   -0.11092E-05  4730   0.599E-03    0.308E-03
DAV:   6    -0.842647627923E+03   -0.19929E-06   -0.67175E-07  3260   0.155E-03
  68 F= -.85038855E+03 E0= -.85038855E+03  d E =-.271587E-03  mag=     0.0000
       N       E                     dE             d eps       ncg     rms          rms(c)
DAV:   1    -0.842648066804E+03   -0.43908E-03   -0.53813E-02  4300   0.429E-01    0.501E-02
DAV:   2    -0.842648104551E+03   -0.37746E-04   -0.70802E-04  4600   0.493E-02    0.444E-02
DAV:   3    -0.842648093242E+03    0.11309E-04   -0.42448E-05  5240   0.142E-02    0.277E-02
DAV:   4    -0.842648102171E+03   -0.89294E-05   -0.33802E-05  4400   0.115E-02    0.107E-02
DAV:   5    -0.842648101737E+03    0.43400E-06   -0.16888E-05  4720   0.807E-03    0.364E-03
DAV:   6    -0.842648102198E+03   -0.46055E-06   -0.13347E-06  3460   0.222E-03
  69 F= -.85038895E+03 E0= -.85038895E+03  d E =-.407602E-03  mag=     0.0000
       N       E                     dE             d eps       ncg     rms          rms(c)
DAV:   1    -0.842648406823E+03   -0.30509E-03   -0.10359E-01  4320   0.570E-01    0.715E-02
DAV:   2    -0.842648505600E+03   -0.98777E-04   -0.15747E-03  4480   0.677E-02    0.558E-02
DAV:   3    -0.842648489714E+03    0.15887E-04   -0.55158E-05  5240   0.159E-02    0.383E-02
DAV:   4    -0.842648499483E+03   -0.97690E-05   -0.48911E-05  4430   0.149E-02    0.110E-02
DAV:   5    -0.842648501597E+03   -0.21142E-05   -0.17107E-05  4880   0.691E-03    0.523E-03
DAV:   6    -0.842648501605E+03   -0.78653E-08   -0.18159E-06  3420   0.257E-03
  70 F= -.85038929E+03 E0= -.85038929E+03  d E =-.337787E-03  mag=     0.0000
       N       E                     dE             d eps       ncg     rms          rms(c)
DAV:   1    -0.842648283932E+03    0.21766E-03   -0.16747E-01  4260   0.731E-01    0.899E-02
DAV:   2    -0.842648500808E+03   -0.21688E-03   -0.30180E-03  4550   0.913E-02    0.725E-02
DAV:   3    -0.842648466133E+03    0.34675E-04   -0.89055E-05  5300   0.191E-02    0.535E-02
DAV:   4    -0.842648470915E+03   -0.47819E-05   -0.12874E-04  4460   0.231E-02    0.156E-02
DAV:   5    -0.842648472990E+03   -0.20751E-05   -0.32632E-05  4900   0.100E-02    0.873E-03
DAV:   6    -0.842648472873E+03    0.11680E-06   -0.60752E-06  4300   0.454E-03
  71 F= -.85038922E+03 E0= -.85038922E+03  d E =0.675295E-04  mag=    -0.0000
       N       E                     dE             d eps       ncg     rms          rms(c)
DAV:   1    -0.842648586704E+03   -0.11371E-03   -0.91481E-03  4320   0.195E-01    0.219E-02
DAV:   2    -0.842648603510E+03   -0.16806E-04   -0.24490E-04  4920   0.288E-02    0.199E-02
DAV:   3    -0.842648598906E+03    0.46036E-05   -0.10845E-05  5720   0.613E-03    0.153E-02
DAV:   4    -0.842648594879E+03    0.40273E-05   -0.10486E-05  4340   0.685E-03    0.667E-03
DAV:   5    -0.842648594794E+03    0.84670E-07   -0.28192E-06  3460   0.306E-03
  72 F= -.85038935E+03 E0= -.85038935E+03  d E =-.126556E-03  mag=     0.0000
       N       E                     dE             d eps       ncg     rms          rms(c)
DAV:   1    -0.842648282167E+03    0.31271E-03   -0.89384E-03  4320   0.190E-01    0.221E-02
DAV:   2    -0.842648299638E+03   -0.17471E-04   -0.23569E-04  4970   0.278E-02    0.194E-02
DAV:   3    -0.842648295774E+03    0.38636E-05   -0.99920E-06  5700   0.595E-03    0.148E-02
DAV:   4    -0.842648293254E+03    0.25199E-05   -0.10067E-05  4290   0.668E-03    0.631E-03
DAV:   5    -0.842648293336E+03   -0.82116E-07   -0.23406E-06  3240   0.282E-03
  73 F= -.85038906E+03 E0= -.85038906E+03  d E =0.290399E-03  mag=    -0.0000
       N       E                     dE             d eps       ncg     rms          rms(c)
DAV:   1    -0.842648333793E+03   -0.40539E-04   -0.47887E-04  4280   0.439E-02    0.521E-03
DAV:   2    -0.842648334584E+03   -0.79052E-06   -0.12868E-05  5020   0.654E-03    0.480E-03
DAV:   3    -0.842648334293E+03    0.29086E-06   -0.47671E-07  2340   0.146E-03
  74 F= -.85038910E+03 E0= -.85038910E+03  d E =-.431420E-04  mag=    -0.0000
       N       E                     dE             d eps       ncg     rms          rms(c)
DAV:   1    -0.842648352560E+03   -0.17977E-04   -0.14537E-03  4260   0.762E-02    0.962E-03
DAV:   2    -0.842648354903E+03   -0.23422E-05   -0.34392E-05  5040   0.107E-02    0.843E-03
DAV:   3    -0.842648354133E+03    0.76916E-06   -0.15240E-06  3460   0.255E-03
  75 F= -.85038913E+03 E0= -.85038913E+03  d E =-.243928E-04  mag=    -0.0000
       N       E                     dE             d eps       ncg     rms          rms(c)
DAV:   1    -0.842648284104E+03    0.70799E-04   -0.21098E-03  4240   0.905E-02    0.120E-02
DAV:   2    -0.842648287463E+03   -0.33592E-05   -0.46981E-05  4920   0.124E-02    0.103E-02
DAV:   3    -0.842648286529E+03    0.93369E-06   -0.21106E-06  4060   0.298E-03
  76 F= -.85038907E+03 E0= -.85038907E+03  d E =0.602158E-04  mag=    -0.0000
       N       E                     dE             d eps       ncg     rms          rms(c)
DAV:   1    -0.842648125047E+03    0.16242E-03   -0.18760E-03  4240   0.807E-02    0.118E-02
DAV:   2    -0.842648127839E+03   -0.27918E-05   -0.37686E-05  4690   0.106E-02    0.980E-03
DAV:   3    -0.842648127311E+03    0.52740E-06   -0.14051E-06  3920   0.253E-03
  77 F= -.85038892E+03 E0= -.85038892E+03  d E =0.148565E-03  mag=    -0.0000
       N       E                     dE             d eps       ncg     rms          rms(c)
DAV:   1    -0.842647932384E+03    0.19545E-03   -0.15089E-03  4240   0.612E-02    0.109E-02
DAV:   2    -0.842647934402E+03   -0.20176E-05   -0.26458E-05  4480   0.740E-03    0.836E-03
DAV:   3    -0.842647934419E+03   -0.16887E-07   -0.54502E-07  3660   0.156E-03
  78 F= -.85038874E+03 E0= -.85038874E+03  d E =0.179101E-03  mag=    -0.0000
       N       E                     dE             d eps       ncg     rms          rms(c)
DAV:   1    -0.842647745094E+03    0.18931E-03   -0.19249E-03  4240   0.639E-02    0.120E-02
DAV:   2    -0.842647747723E+03   -0.26282E-05   -0.34640E-05  4420   0.777E-03    0.875E-03
DAV:   3    -0.842647747801E+03   -0.78631E-07   -0.60427E-07  3700   0.156E-03
  79 F= -.85038857E+03 E0= -.85038857E+03  d E =0.169695E-03  mag=    -0.0000
       N       E                     dE             d eps       ncg     rms          rms(c)
DAV:   1    -0.842647516532E+03    0.23119E-03   -0.41272E-03  4240   0.104E-01    0.170E-02
DAV:   2    -0.842647522805E+03   -0.62737E-05   -0.81867E-05  4580   0.133E-02    0.126E-02
DAV:   3    -0.842647522581E+03    0.22428E-06   -0.18712E-06  3940   0.276E-03
  80 F= -.85038837E+03 E0= -.85038837E+03  d E =0.202882E-03  mag=    -0.0000
       N       E                     dE             d eps       ncg     rms          rms(c)
DAV:   1    -0.842647165618E+03    0.35719E-03   -0.79238E-03  4240   0.144E-01    0.239E-02
DAV:   2    -0.842647177353E+03   -0.11735E-04   -0.15690E-04  4590   0.185E-02    0.177E-02
DAV:   3    -0.842647177016E+03    0.33742E-06   -0.38488E-06  4280   0.387E-03
  81 F= -.85038805E+03 E0= -.85038805E+03  d E =0.316391E-03  mag=    -0.0000
       N       E                     dE             d eps       ncg     rms          rms(c)
DAV:   1    -0.842646673673E+03    0.50368E-03   -0.12662E-02  4240   0.166E-01    0.307E-02
DAV:   2    -0.842646691017E+03   -0.17344E-04   -0.23457E-04  4580   0.201E-02    0.221E-02
DAV:   3    -0.842646691474E+03   -0.45649E-06   -0.42436E-06  4200   0.394E-03
  82 F= -.85038760E+03 E0= -.85038760E+03  d E =0.448410E-03  mag=    -0.0000
       N       E                     dE             d eps       ncg     rms          rms(c)
DAV:   1    -0.842646106944E+03    0.58407E-03   -0.20519E-02  4240   0.195E-01    0.380E-02
DAV:   2    -0.842646134603E+03   -0.27659E-04   -0.36772E-04  4480   0.228E-02    0.270E-02
DAV:   3    -0.842646135419E+03   -0.81664E-06   -0.55183E-06  4440   0.420E-03
  83 F= -.85038709E+03 E0= -.85038709E+03  d E =0.509102E-03  mag=    -0.0000
       N       E                     dE             d eps       ncg     rms          rms(c)
DAV:   1    -0.842645410505E+03    0.72410E-03   -0.35369E-02  4240   0.269E-01    0.487E-02
DAV:   2    -0.842645460825E+03   -0.50320E-04   -0.64896E-04  4540   0.325E-02    0.355E-02
DAV:   3    -0.842645460371E+03    0.45409E-06   -0.11359E-05  5020   0.621E-03    0.259E-02
DAV:   4    -0.842645469176E+03   -0.88053E-05   -0.22900E-05  4200   0.826E-03    0.549E-03
DAV:   5    -0.842645469079E+03    0.97265E-07   -0.39462E-06  4140   0.339E-03
  84 F= -.85038649E+03 E0= -.85038649E+03  d E =0.607403E-03  mag=    -0.0000
       N       E                     dE             d eps       ncg     rms          rms(c)
DAV:   1    -0.842644370633E+03    0.10985E-02   -0.55478E-02  4240   0.332E-01    0.599E-02
DAV:   2    -0.842644453870E+03   -0.83237E-04   -0.10543E-03  4490   0.410E-02    0.443E-02
DAV:   3    -0.842644450044E+03    0.38258E-05   -0.17753E-05  5140   0.791E-03    0.328E-02
DAV:   4    -0.842644463632E+03   -0.13588E-04   -0.47298E-05  4240   0.115E-02    0.850E-03
DAV:   5    -0.842644462692E+03    0.93989E-06   -0.80441E-06  4720   0.504E-03
  85 F= -.85038556E+03 E0= -.85038556E+03  d E =0.930126E-03  mag=     0.0000
       N       E                     dE             d eps       ncg     rms          rms(c)
DAV:   1    -0.842643194085E+03    0.12695E-02   -0.84703E-02  4260   0.399E-01    0.740E-02
DAV:   2    -0.842643320493E+03   -0.12641E-03   -0.16140E-03  4510   0.484E-02    0.528E-02
DAV:   3    -0.842643317498E+03    0.29954E-05   -0.23592E-05  5160   0.884E-03    0.389E-02
DAV:   4    -0.842643336187E+03   -0.18689E-04   -0.58933E-05  4300   0.125E-02    0.814E-03
DAV:   5    -0.842643335632E+03    0.55487E-06   -0.95378E-06  4760   0.510E-03
  86 F= -.85038452E+03 E0= -.85038452E+03  d E =0.103204E-02  mag=    -0.0000
       N       E                     dE             d eps       ncg     rms          rms(c)
DAV:   1    -0.842641869078E+03    0.14671E-02   -0.13279E-01  4240   0.512E-01    0.916E-02
DAV:   2    -0.842642073823E+03   -0.20474E-03   -0.26592E-03  4550   0.638E-02    0.639E-02
DAV:   3    -0.842642066635E+03    0.71877E-05   -0.46866E-05  5200   0.124E-02    0.463E-02
DAV:   4    -0.842642085535E+03   -0.18900E-04   -0.70746E-05  4390   0.148E-02    0.100E-02
DAV:   5    -0.842642087799E+03   -0.22643E-05   -0.14187E-05  4760   0.581E-03    0.646E-03
DAV:   6    -0.842642087213E+03    0.58643E-06   -0.27245E-06  3900   0.309E-03
  87 F= -.85038338E+03 E0= -.85038338E+03  d E =0.114166E-02  mag=    -0.0000
       N       E                     dE             d eps       ncg     rms          rms(c)
DAV:   1    -0.842642127423E+03   -0.39623E-04   -0.17634E-04  4320   0.270E-02    0.324E-03
DAV:   2    -0.842642127750E+03   -0.32718E-06   -0.44829E-06  4180   0.394E-03
  88 F= -.85038342E+03 E0= -.85038342E+03  d E =-.385749E-04  mag=    -0.0000
       N       E                     dE             d eps       ncg     rms          rms(c)
DAV:   1    -0.842642187020E+03   -0.59598E-04   -0.53363E-04  4260   0.467E-02    0.695E-03
DAV:   2    -0.842642187645E+03   -0.62448E-06   -0.13003E-05  5140   0.674E-03    0.593E-03
DAV:   3    -0.842642187121E+03    0.52371E-06   -0.10059E-06  2440   0.213E-03
  89 F= -.85038348E+03 E0= -.85038348E+03  d E =-.557023E-04  mag=     0.0000
       N       E                     dE             d eps       ncg     rms          rms(c)
DAV:   1    -0.842642245356E+03   -0.57711E-04   -0.69861E-04  4260   0.527E-02    0.706E-03
DAV:   2    -0.842642246420E+03   -0.10638E-05   -0.15062E-05  5060   0.713E-03    0.597E-03
DAV:   3    -0.842642246088E+03    0.33174E-06   -0.68611E-07  2700   0.179E-03
  90 F= -.85038353E+03 E0= -.85038353E+03  d E =-.537730E-04  mag=    -0.0000
       N       E                     dE             d eps       ncg     rms          rms(c)
DAV:   1    -0.842642306146E+03   -0.59726E-04   -0.54438E-04  4260   0.439E-02    0.595E-03
DAV:   2    -0.842642306856E+03   -0.71008E-06   -0.96312E-06  4780   0.549E-03
  91 F= -.85038359E+03 E0= -.85038358E+03  d E =-.547736E-04  mag=    -0.0000
       N       E                     dE             d eps       ncg     rms          rms(c)
DAV:   1    -0.842642381427E+03   -0.75281E-04   -0.44419E-04  4240   0.351E-02    0.746E-03
DAV:   2    -0.842642381576E+03   -0.14866E-06   -0.59787E-06  4420   0.404E-03
  92 F= -.85038365E+03 E0= -.85038365E+03  d E =-.685646E-04  mag=     0.0000
       N       E                     dE             d eps       ncg     rms          rms(c)
DAV:   1    -0.842642467514E+03   -0.86087E-04   -0.59604E-04  4250   0.430E-02    0.770E-03
DAV:   2    -0.842642467975E+03   -0.46103E-06   -0.93049E-06  4920   0.521E-03
  93 F= -.85038373E+03 E0= -.85038373E+03  d E =-.803717E-04  mag=    -0.0000
       N       E                     dE             d eps       ncg     rms          rms(c)
DAV:   1    -0.842642550200E+03   -0.82686E-04   -0.11088E-03  4240   0.627E-02    0.103E-02
DAV:   2    -0.842642551230E+03   -0.10296E-05   -0.20473E-05  5070   0.804E-03    0.864E-03
DAV:   3    -0.842642550965E+03    0.26466E-06   -0.14706E-06  3410   0.253E-03
  94 F= -.85038381E+03 E0= -.85038381E+03  d E =-.765250E-04  mag=     0.0000
       N       E                     dE             d eps       ncg     rms          rms(c)
DAV:   1    -0.842642595970E+03   -0.44740E-04   -0.14236E-03  4300   0.719E-02    0.900E-03
DAV:   2    -0.842642597708E+03   -0.17385E-05   -0.25069E-05  5030   0.894E-03    0.791E-03
DAV:   3    -0.842642597410E+03    0.29841E-06   -0.97126E-07  3630   0.208E-03
  95 F= -.85038385E+03 E0= -.85038385E+03  d E =-.399420E-04  mag=     0.0000
       N       E                     dE             d eps       ncg     rms          rms(c)
DAV:   1    -0.842642604860E+03   -0.71519E-05   -0.13424E-03  4270   0.681E-02    0.846E-03
DAV:   2    -0.842642605928E+03   -0.10684E-05   -0.18472E-05  4880   0.778E-03    0.760E-03
DAV:   3    -0.842642605735E+03    0.19369E-06   -0.98229E-07  3800   0.221E-03
  96 F= -.85038385E+03 E0= -.85038385E+03  d E =-.275219E-05  mag=    -0.0000
       N       E                     dE             d eps       ncg     rms          rms(c)
DAV:   1    -0.842642575617E+03    0.30312E-04   -0.21571E-03  4280   0.865E-02    0.106E-02
DAV:   2    -0.842642577534E+03   -0.19176E-05   -0.31227E-05  4600   0.101E-02    0.936E-03
DAV:   3    -0.842642577141E+03    0.39371E-06   -0.13427E-06  3900   0.259E-03
  97 F= -.85038382E+03 E0= -.85038382E+03  d E =0.313170E-04  mag=    -0.0000
       N       E                     dE             d eps       ncg     rms          rms(c)
DAV:   1    -0.842642459868E+03    0.11767E-03   -0.50160E-03  4240   0.127E-01    0.164E-02
DAV:   2    -0.842642465995E+03   -0.61269E-05   -0.84549E-05  4550   0.154E-02    0.136E-02
DAV:   3    -0.842642465274E+03    0.72096E-06   -0.23933E-06  4180   0.325E-03
  98 F= -.85038371E+03 E0= -.85038371E+03  d E =0.107847E-03  mag=    -0.0000
       N       E                     dE             d eps       ncg     rms          rms(c)
DAV:   1    -0.842642226902E+03    0.23909E-03   -0.10863E-02  4240   0.169E-01    0.251E-02
DAV:   2    -0.842642240286E+03   -0.13384E-04   -0.18421E-04  4420   0.199E-02    0.189E-02
DAV:   3    -0.842642239655E+03    0.63111E-06   -0.37920E-06  4320   0.393E-03
  99 F= -.85038350E+03 E0= -.85038350E+03  d E =0.210722E-03  mag=    -0.0000
       N       E                     dE             d eps       ncg     rms          rms(c)
DAV:   1    -0.842641875073E+03    0.36521E-03   -0.22667E-02  4280   0.234E-01    0.369E-02
DAV:   2    -0.842641903065E+03   -0.27992E-04   -0.39492E-04  4460   0.277E-02    0.266E-02
DAV:   3    -0.842641902140E+03    0.92462E-06   -0.84134E-06  4860   0.558E-03
 100 F= -.85038319E+03 E0= -.85038319E+03  d E =0.309130E-03  mag=    -0.0000
       N       E                     dE             d eps       ncg     rms          rms(c)
DAV:   1    -0.842641336803E+03    0.56626E-03   -0.40053E-02  4280   0.307E-01    0.505E-02
DAV:   2    -0.842641386505E+03   -0.49702E-04   -0.70282E-04  4480   0.363E-02    0.363E-02
DAV:   3    -0.842641384873E+03    0.16323E-05   -0.14528E-05  4980   0.727E-03    0.258E-02
DAV:   4    -0.842641392531E+03   -0.76584E-05   -0.19202E-05  4190   0.831E-03    0.521E-03
DAV:   5    -0.842641393112E+03   -0.58048E-06   -0.41817E-06  4300   0.333E-03
 101 F= -.85038272E+03 E0= -.85038272E+03  d E =0.469443E-03  mag=    -0.0000
       N       E                     dE             d eps       ncg     rms          rms(c)
DAV:   1    -0.842640681979E+03    0.71055E-03   -0.55532E-02  4300   0.364E-01    0.560E-02
DAV:   2    -0.842640758982E+03   -0.77003E-04   -0.10238E-03  4410   0.444E-02    0.412E-02
DAV:   3    -0.842640753728E+03    0.52540E-05   -0.18825E-05  5180   0.848E-03    0.303E-02
DAV:   4    -0.842640762590E+03   -0.88620E-05   -0.37880E-05  4170   0.113E-02    0.671E-03
DAV:   5    -0.842640762755E+03   -0.16562E-06   -0.74116E-06  4760   0.465E-03
 102 F= -.85038214E+03 E0= -.85038213E+03  d E =0.588948E-03  mag=    -0.0000
       N       E                     dE             d eps       ncg     rms          rms(c)
DAV:   1    -0.842639918166E+03    0.84442E-03   -0.72093E-02  4300   0.421E-01    0.635E-02
DAV:   2    -0.842640019968E+03   -0.10180E-03   -0.13310E-03  4430   0.516E-02    0.482E-02
DAV:   3    -0.842640012191E+03    0.77767E-05   -0.24185E-05  5200   0.974E-03    0.359E-02
DAV:   4    -0.842640024892E+03   -0.12701E-04   -0.59354E-05  4240   0.139E-02    0.843E-03
DAV:   5    -0.842640024405E+03    0.48750E-06   -0.11217E-05  4880   0.588E-03    0.582E-03
DAV:   6    -0.842640024148E+03    0.25675E-06   -0.36067E-06  4000   0.334E-03
 103 F= -.85038145E+03 E0= -.85038145E+03  d E =0.689625E-03  mag=    -0.0000
       N       E                     dE             d eps       ncg     rms          rms(c)
DAV:   1    -0.842639132807E+03    0.89160E-03   -0.90392E-02  4300   0.487E-01    0.716E-02
DAV:   2    -0.842639256053E+03   -0.12325E-03   -0.16595E-03  4390   0.600E-02    0.539E-02
DAV:   3    -0.842639246514E+03    0.95386E-05   -0.35512E-05  5140   0.119E-02    0.392E-02
DAV:   4    -0.842639260542E+03   -0.14028E-04   -0.59850E-05  4370   0.150E-02    0.898E-03
DAV:   5    -0.842639261092E+03   -0.54976E-06   -0.13410E-05  4860   0.638E-03    0.569E-03
DAV:   6    -0.842639260832E+03    0.25965E-06   -0.27341E-06  3860   0.313E-03
 104 F= -.85038073E+03 E0= -.85038073E+03  d E =0.719042E-03  mag=     0.0000
       N       E                     dE             d eps       ncg     rms          rms(c)
DAV:   1    -0.842638379399E+03    0.88169E-03   -0.11625E-01  4280   0.563E-01    0.790E-02
DAV:   2    -0.842638542404E+03   -0.16301E-03   -0.21600E-03  4450   0.702E-02    0.615E-02
DAV:   3    -0.842638525775E+03    0.16629E-04   -0.49310E-05  5260   0.140E-02    0.454E-02
DAV:   4    -0.842638539778E+03   -0.14003E-04   -0.90522E-05  4410   0.183E-02    0.112E-02
DAV:   5    -0.842638540601E+03   -0.82279E-06   -0.20035E-05  4860   0.777E-03    0.713E-03
DAV:   6    -0.842638540344E+03    0.25735E-06   -0.41474E-06  4240   0.377E-03
 105 F= -.85038004E+03 E0= -.85038004E+03  d E =0.685640E-03  mag=     0.0000
       N       E                     dE             d eps       ncg     rms          rms(c)
DAV:   1    -0.842637494773E+03    0.10458E-02   -0.13786E-01  4240   0.646E-01    0.867E-02
DAV:   2    -0.842637682520E+03   -0.18775E-03   -0.25289E-03  4460   0.817E-02    0.701E-02
DAV:   3    -0.842637659058E+03    0.23462E-04   -0.72579E-05  5280   0.173E-02    0.514E-02
DAV:   4    -0.842637676248E+03   -0.17190E-04   -0.11690E-04  4400   0.216E-02    0.150E-02
DAV:   5    -0.842637676296E+03   -0.47461E-07   -0.26645E-05  4820   0.966E-03    0.840E-03
DAV:   6    -0.842637676426E+03   -0.13076E-06   -0.65564E-06  4300   0.451E-03
 106 F= -.85037921E+03 E0= -.85037921E+03  d E =0.834133E-03  mag=     0.0000
       N       E                     dE             d eps       ncg     rms          rms(c)
DAV:   1    -0.842637829505E+03   -0.15321E-03   -0.43344E-03  4280   0.135E-01    0.155E-02
DAV:   2    -0.842637836820E+03   -0.73150E-05   -0.11135E-04  5200   0.198E-02    0.135E-02
DAV:   3    -0.842637834422E+03    0.23982E-05   -0.61290E-06  5340   0.470E-03    0.976E-03
DAV:   4    -0.842637832992E+03    0.14302E-05   -0.36589E-06  3940   0.412E-03    0.478E-03
DAV:   5    -0.842637832903E+03    0.88898E-07   -0.10925E-06  2740   0.215E-03
 107 F= -.85037936E+03 E0= -.85037936E+03  d E =-.152336E-03  mag=     0.0000
       N       E                     dE             d eps       ncg     rms          rms(c)
DAV:   1    -0.842637855990E+03   -0.22998E-04   -0.61497E-03  4270   0.158E-01    0.185E-02
DAV:   2    -0.842637866820E+03   -0.10830E-04   -0.15427E-04  5180   0.228E-02    0.155E-02
DAV:   3    -0.842637863886E+03    0.29342E-05   -0.82022E-06  5360   0.552E-03    0.111E-02
DAV:   4    -0.842637862438E+03    0.14479E-05   -0.43307E-06  4220   0.446E-03    0.559E-03
DAV:   5    -0.842637862409E+03    0.28944E-07   -0.13146E-06  2940   0.237E-03
 108 F= -.85037938E+03 E0= -.85037938E+03  d E =-.200062E-04  mag=     0.0000
       N       E                     dE             d eps       ncg     rms          rms(c)
DAV:   1    -0.842637895627E+03   -0.33189E-04   -0.15055E-04  4280   0.253E-02    0.301E-03
DAV:   2    -0.842637895841E+03   -0.21360E-06   -0.40001E-06  3840   0.383E-03
 109 F= -.85037941E+03 E0= -.85037941E+03  d E =-.328817E-04  mag=     0.0000
       N       E                     dE             d eps       ncg     rms          rms(c)
DAV:   1    -0.842637941381E+03   -0.45754E-04   -0.47846E-04  4280   0.450E-02    0.673E-03
DAV:   2    -0.842637941857E+03   -0.47572E-06   -0.11752E-05  5360   0.655E-03    0.582E-03
DAV:   3    -0.842637941305E+03    0.55116E-06   -0.11984E-06  2320   0.231E-03
 110 F= -.85037946E+03 E0= -.85037946E+03  d E =-.441190E-04  mag=     0.0000
       N       E                     dE             d eps       ncg     rms          rms(c)
DAV:   1    -0.842637973500E+03   -0.31643E-04   -0.71073E-04  4280   0.549E-02    0.724E-03
DAV:   2    -0.842637974656E+03   -0.11558E-05   -0.16719E-05  5260   0.773E-03    0.632E-03
DAV:   3    -0.842637974235E+03    0.42080E-06   -0.90484E-07  2460   0.203E-03
 111 F= -.85037949E+03 E0= -.85037949E+03  d E =-.303333E-04  mag=     0.0000
       N       E                     dE             d eps       ncg     rms          rms(c)
DAV:   1    -0.842637987860E+03   -0.13204E-04   -0.56575E-04  4290   0.488E-02    0.628E-03
DAV:   2    -0.842637988820E+03   -0.95944E-06   -0.12778E-05  5240   0.669E-03    0.547E-03
DAV:   3    -0.842637988589E+03    0.23021E-06   -0.59322E-07  2400   0.167E-03
 112 F= -.85037950E+03 E0= -.85037950E+03  d E =-.103090E-04  mag=     0.0000
       N       E                     dE             d eps       ncg     rms          rms(c)
DAV:   1    -0.842637990536E+03   -0.17162E-05   -0.44610E-06  4100   0.440E-03    0.142E-03
DAV:   2    -0.842637990522E+03    0.13926E-07   -0.31603E-07  2230   0.114E-03
 113 F= -.85037950E+03 E0= -.85037950E+03  d E =-.168294E-05  mag=    -0.0000
       N       E                     dE             d eps       ncg     rms          rms(c)
DAV:   1    -0.842637993564E+03   -0.30278E-05   -0.76401E-06  4090   0.571E-03    0.744E-04
DAV:   2    -0.842637993572E+03   -0.85784E-08   -0.16885E-07  2210   0.823E-04
 114 F= -.85037950E+03 E0= -.85037950E+03  d E =-.257874E-05  mag=     0.0000
       N       E                     dE             d eps       ncg     rms          rms(c)
DAV:   1    -0.842637996370E+03   -0.28062E-05   -0.16564E-05  4360   0.840E-03    0.125E-03
DAV:   2    -0.842637996383E+03   -0.13686E-07   -0.35989E-07  2215   0.122E-03
 115 F= -.85037950E+03 E0= -.85037950E+03  d E =-.215883E-05  mag=    -0.0000
       N       E                     dE             d eps       ncg     rms          rms(c)
DAV:   1    -0.842637997014E+03   -0.64468E-06   -0.25782E-05  4280   0.105E-02    0.173E-03
DAV:   2    -0.842637997031E+03   -0.16247E-07   -0.54119E-07  2280   0.150E-03
 116 F= -.85037950E+03 E0= -.85037950E+03  d E =0.129315E-06  mag=    -0.0000
       N       E                     dE             d eps       ncg     rms          rms(c)
DAV:   1    -0.842637993137E+03    0.38773E-05   -0.33926E-05  4380   0.120E-02    0.203E-03
DAV:   2    -0.842637993162E+03   -0.25204E-07   -0.69525E-07  2480   0.169E-03
 117 F= -.85037950E+03 E0= -.85037950E+03  d E =0.467546E-05  mag=    -0.0000
       N       E                     dE             d eps       ncg     rms          rms(c)
DAV:   1    -0.842637982406E+03    0.10731E-04   -0.39406E-05  4360   0.128E-02    0.229E-03
DAV:   2    -0.842637982435E+03   -0.29177E-07   -0.80599E-07  2960   0.180E-03
 118 F= -.85037949E+03 E0= -.85037949E+03  d E =0.114930E-04  mag=     0.0000
       N       E                     dE             d eps       ncg     rms          rms(c)
DAV:   1    -0.842637960033E+03    0.22373E-04   -0.53062E-05  4420   0.146E-02    0.273E-03
DAV:   2    -0.842637960074E+03   -0.40694E-07   -0.10988E-06  3140   0.203E-03
 119 F= -.85037946E+03 E0= -.85037946E+03  d E =0.229567E-04  mag=    -0.0000
       N       E                     dE             d eps       ncg     rms          rms(c)
DAV:   1    -0.842637920131E+03    0.39902E-04   -0.72961E-05  4440   0.165E-02    0.348E-03
DAV:   2    -0.842637920173E+03   -0.41546E-07   -0.14487E-06  3450   0.222E-03
 120 F= -.85037942E+03 E0= -.85037942E+03  d E =0.401548E-04  mag=    -0.0000
       N       E                     dE             d eps       ncg     rms          rms(c)
DAV:   1    -0.842637855006E+03    0.65125E-04   -0.11108E-04  4430   0.191E-02    0.447E-03
DAV:   2    -0.842637855075E+03   -0.69602E-07   -0.21189E-06  3620   0.245E-03
 121 F= -.85037936E+03 E0= -.85037936E+03  d E =0.645602E-04  mag=    -0.0000
       N       E                     dE             d eps       ncg     rms          rms(c)
DAV:   1    -0.842637754202E+03    0.10080E-03   -0.19809E-04  4390   0.240E-02    0.615E-03
DAV:   2    -0.842637754326E+03   -0.12408E-06   -0.36310E-06  3990   0.295E-03
 122 F= -.85037926E+03 E0= -.85037926E+03  d E =0.989290E-04  mag=    -0.0000
       N       E                     dE             d eps       ncg     rms          rms(c)
DAV:   1    -0.842637604903E+03    0.14930E-03   -0.39925E-04  4260   0.327E-02    0.860E-03
DAV:   2    -0.842637605159E+03   -0.25626E-06   -0.68501E-06  4500   0.390E-03
 123 F= -.85037912E+03 E0= -.85037911E+03  d E =0.145332E-03  mag=    -0.0000
       N       E                     dE             d eps       ncg     rms          rms(c)
DAV:   1    -0.842637392973E+03    0.21193E-03   -0.86046E-04  4240   0.469E-02    0.121E-02
DAV:   2    -0.842637393625E+03   -0.65155E-06   -0.14169E-05  4840   0.553E-03    0.996E-03
DAV:   3    -0.842637393704E+03   -0.79061E-07   -0.16362E-06  3490   0.238E-03
 124 F= -.85037891E+03 E0= -.85037891E+03  d E =0.204578E-03  mag=    -0.0000
       N       E                     dE             d eps       ncg     rms          rms(c)
DAV:   1    -0.842637106531E+03    0.28709E-03   -0.19267E-03  4240   0.676E-02    0.132E-02
DAV:   2    -0.842637109031E+03   -0.25002E-05   -0.33481E-05  4610   0.804E-03    0.104E-02
DAV:   3    -0.842637108969E+03    0.62057E-07   -0.76899E-07  3920   0.179E-03
 125 F= -.85037864E+03 E0= -.85037864E+03  d E =0.273439E-03  mag=    -0.0000
       N       E                     dE             d eps       ncg     rms          rms(c)
DAV:   1    -0.842636742133E+03    0.36690E-03   -0.42412E-03  4240   0.961E-02    0.179E-02
DAV:   2    -0.842636747527E+03   -0.53940E-05   -0.71398E-05  4440   0.111E-02    0.136E-02
DAV:   3    -0.842636747466E+03    0.60259E-07   -0.12555E-06  3840   0.226E-03
 126 F= -.85037829E+03 E0= -.85037829E+03  d E =0.344470E-03  mag=    -0.0000
       N       E                     dE             d eps       ncg     rms          rms(c)
DAV:   1    -0.842636299044E+03    0.44848E-03   -0.91305E-03  4240   0.135E-01    0.252E-02
DAV:   2    -0.842636311066E+03   -0.12022E-04   -0.15738E-04  4420   0.156E-02    0.185E-02
DAV:   3    -0.842636310948E+03    0.11733E-06   -0.23571E-06  4120   0.292E-03
 127 F= -.85037788E+03 E0= -.85037788E+03  d E =0.412225E-03  mag=    -0.0000
       N       E                     dE             d eps       ncg     rms          rms(c)
DAV:   1    -0.842635757406E+03    0.55366E-03   -0.18352E-02  4240   0.187E-01    0.349E-02
DAV:   2    -0.842635782031E+03   -0.24625E-04   -0.32253E-04  4470   0.215E-02    0.252E-02
DAV:   3    -0.842635781624E+03    0.40671E-06   -0.47623E-06  4440   0.396E-03
 128 F= -.85037739E+03 E0= -.85037738E+03  d E =0.495762E-03  mag=    -0.0000
       N       E                     dE             d eps       ncg     rms          rms(c)
DAV:   1    -0.842635115225E+03    0.66681E-03   -0.34720E-02  4240   0.253E-01    0.476E-02
DAV:   2    -0.842635162776E+03   -0.47551E-04   -0.62546E-04  4560   0.293E-02    0.339E-02
DAV:   3    -0.842635161493E+03    0.12833E-05   -0.99413E-06  4840   0.553E-03    0.245E-02
DAV:   4    -0.842635168550E+03   -0.70578E-05   -0.18042E-05  4060   0.681E-03    0.424E-03
DAV:   5    -0.842635168903E+03   -0.35226E-06   -0.31423E-06  4080   0.255E-03
 129 F= -.85037682E+03 E0= -.85037682E+03  d E =0.567856E-03  mag=    -0.0000
       N       E                     dE             d eps       ncg     rms          rms(c)
DAV:   1    -0.842634328921E+03    0.83963E-03   -0.59009E-02  4240   0.327E-01    0.601E-02
DAV:   2    -0.842634418193E+03   -0.89272E-04   -0.11511E-03  4500   0.396E-02    0.426E-02
DAV:   3    -0.842634413132E+03    0.50619E-05   -0.18456E-05  5040   0.754E-03    0.311E-02
DAV:   4    -0.842634420674E+03   -0.75430E-05   -0.33780E-05  4240   0.938E-03    0.607E-03
DAV:   5    -0.842634421696E+03   -0.10216E-05   -0.64164E-06  4520   0.354E-03    0.425E-03
DAV:   6    -0.842634421407E+03    0.28946E-06   -0.10164E-06  3440   0.188E-03
 130 F= -.85037613E+03 E0= -.85037613E+03  d E =0.691036E-03  mag=    -0.0000
       N       E                     dE             d eps       ncg     rms          rms(c)
DAV:   1    -0.842633402705E+03    0.10190E-02   -0.83566E-02  4240   0.393E-01    0.713E-02
DAV:   2    -0.842633528395E+03   -0.12569E-03   -0.16362E-03  4520   0.476E-02    0.505E-02
DAV:   3    -0.842633519695E+03    0.86994E-05   -0.28537E-05  5120   0.940E-03    0.365E-02
DAV:   4    -0.842633527450E+03   -0.77549E-05   -0.45843E-05  4340   0.111E-02    0.777E-03
DAV:   5    -0.842633529429E+03   -0.19786E-05   -0.94046E-06  4600   0.422E-03    0.501E-03
DAV:   6    -0.842633529075E+03    0.35400E-06   -0.13642E-06  3500   0.219E-03
 131 F= -.85037530E+03 E0= -.85037530E+03  d E =0.826821E-03  mag=    -0.0000
       N       E                     dE             d eps       ncg     rms          rms(c)
DAV:   1    -0.842632386423E+03    0.11430E-02   -0.90264E-02  4260   0.427E-01    0.739E-02
DAV:   2    -0.842632522113E+03   -0.13569E-03   -0.17479E-03  4480   0.519E-02    0.536E-02
DAV:   3    -0.842632512241E+03    0.98717E-05   -0.30147E-05  5180   0.102E-02    0.390E-02
DAV:   4    -0.842632521764E+03   -0.95226E-05   -0.56611E-05  4360   0.128E-02    0.780E-03
DAV:   5    -0.842632523348E+03   -0.15846E-05   -0.11222E-05  4720   0.491E-03    0.542E-03
DAV:   6    -0.842632522937E+03    0.41191E-06   -0.16033E-06  3620   0.243E-03
 132 F= -.85037436E+03 E0= -.85037436E+03  d E =0.943420E-03  mag=    -0.0000
       N       E                     dE             d eps       ncg     rms          rms(c)
DAV:   1    -0.842632536642E+03   -0.13294E-04   -0.35709E-05  4120   0.888E-03    0.211E-03
DAV:   2    -0.842632536654E+03   -0.11569E-07   -0.63358E-07  3240   0.128E-03
 133 F= -.85037437E+03 E0= -.85037437E+03  d E =-.120672E-04  mag=    -0.0000
       N       E                     dE             d eps       ncg     rms          rms(c)
DAV:   1    -0.842632560421E+03   -0.23779E-04   -0.13461E-04  4200   0.168E-02    0.343E-03
DAV:   2    -0.842632560527E+03   -0.10550E-06   -0.24342E-06  3660   0.214E-03
 134 F= -.85037439E+03 E0= -.85037439E+03  d E =-.207019E-04  mag=    -0.0000
       N       E                     dE             d eps       ncg     rms          rms(c)
DAV:   1    -0.842632589093E+03   -0.28671E-04   -0.26690E-04  4320   0.236E-02    0.544E-03
DAV:   2    -0.842632589199E+03   -0.10661E-06   -0.47202E-06  3930   0.295E-03
 135 F= -.85037441E+03 E0= -.85037441E+03  d E =-.242304E-04  mag=    -0.0000
       N       E                     dE             d eps       ncg     rms          rms(c)
DAV:   1    -0.842632615427E+03   -0.26334E-04   -0.38836E-04  4330   0.288E-02    0.693E-03
DAV:   2    -0.842632615523E+03   -0.96145E-07   -0.66833E-06  4140   0.354E-03
 136 F= -.85037443E+03 E0= -.85037443E+03  d E =-.209434E-04  mag=    -0.0000
       N       E                     dE             d eps       ncg     rms          rms(c)
DAV:   1    -0.842632630411E+03   -0.14984E-04   -0.44532E-04  4330   0.320E-02    0.782E-03
DAV:   2    -0.842632630463E+03   -0.51921E-07   -0.74702E-06  4520   0.389E-03
 137 F= -.85037444E+03 E0= -.85037444E+03  d E =-.934962E-05  mag=    -0.0000
       N       E                     dE             d eps       ncg     rms          rms(c)
DAV:   1    -0.842632625789E+03    0.46218E-05   -0.43669E-04  4380   0.337E-02    0.807E-03
DAV:   2    -0.842632625779E+03    0.10070E-07   -0.68856E-06  4600   0.403E-03
 138 F= -.85037443E+03 E0= -.85037443E+03  d E =0.984315E-05  mag=    -0.0000
       N       E                     dE             d eps       ncg     rms          rms(c)
DAV:   1    -0.842632588967E+03    0.36822E-04   -0.50074E-04  4450   0.391E-02    0.844E-03
DAV:   2    -0.842632588965E+03    0.17681E-08   -0.74030E-06  4740   0.461E-03
 139 F= -.85037439E+03 E0= -.85037439E+03  d E =0.412521E-04  mag=    -0.0000
       N       E                     dE             d eps       ncg     rms          rms(c)
DAV:   1    -0.842632501456E+03    0.87511E-04   -0.68080E-04  4430   0.474E-02    0.925E-03
DAV:   2    -0.842632501599E+03   -0.14286E-06   -0.93544E-06  4920   0.543E-03
 140 F= -.85037430E+03 E0= -.85037430E+03  d E =0.898600E-04  mag=    -0.0000
       N       E                     dE             d eps       ncg     rms          rms(c)
DAV:   1    -0.842632342876E+03    0.15858E-03   -0.13240E-03  4280   0.644E-02    0.115E-02
DAV:   2    -0.842632343677E+03   -0.80121E-06   -0.18034E-05  4860   0.731E-03    0.973E-03
DAV:   3    -0.842632343889E+03   -0.21214E-06   -0.15237E-06  3530   0.265E-03
 141 F= -.85037415E+03 E0= -.85037415E+03  d E =0.156399E-03  mag=    -0.0000
       N       E                     dE             d eps       ncg     rms          rms(c)
DAV:   1    -0.842632092570E+03    0.25111E-03   -0.33875E-03  4300   0.965E-02    0.150E-02
DAV:   2    -0.842632096338E+03   -0.37682E-05   -0.53177E-05  4440   0.112E-02    0.121E-02
DAV:   3    -0.842632096177E+03    0.16146E-06   -0.11862E-06  3940   0.233E-03
 142 F= -.85037391E+03 E0= -.85037390E+03  d E =0.240335E-03  mag=    -0.0000
       N       E                     dE             d eps       ncg     rms          rms(c)
DAV:   1    -0.842631727499E+03    0.36884E-03   -0.84861E-03  4260   0.144E-01    0.233E-02
DAV:   2    -0.842631737899E+03   -0.10400E-04   -0.14119E-04  4400   0.167E-02    0.178E-02
DAV:   3    -0.842631737505E+03    0.39368E-06   -0.25886E-06  4240   0.321E-03
 143 F= -.85037356E+03 E0= -.85037356E+03  d E =0.342661E-03  mag=    -0.0000
       N       E                     dE             d eps       ncg     rms          rms(c)
DAV:   1    -0.842631223928E+03    0.51397E-03   -0.19625E-02  4260   0.209E-01    0.350E-02
DAV:   2    -0.842631249531E+03   -0.25604E-04   -0.34122E-04  4430   0.243E-02    0.261E-02
DAV:   3    -0.842631248601E+03    0.93017E-06   -0.58130E-06  4660   0.456E-03
 144 F= -.85037310E+03 E0= -.85037310E+03  d E =0.461112E-03  mag=    -0.0000
       N       E                     dE             d eps       ncg     rms          rms(c)
DAV:   1    -0.842630550850E+03    0.69868E-03   -0.39795E-02  4260   0.290E-01    0.500E-02
DAV:   2    -0.842630604322E+03   -0.53473E-04   -0.70669E-04  4500   0.338E-02    0.366E-02
DAV:   3    -0.842630602257E+03    0.20649E-05   -0.12143E-05  5020   0.639E-03    0.264E-02
DAV:   4    -0.842630610015E+03   -0.77579E-05   -0.22179E-05  4230   0.802E-03    0.470E-03
DAV:   5    -0.842630610419E+03   -0.40396E-06   -0.41703E-06  4300   0.308E-03
 145 F= -.85037250E+03 E0= -.85037250E+03  d E =0.597123E-03  mag=    -0.0000
       N       E                     dE             d eps       ncg     rms          rms(c)
DAV:   1    -0.842629665236E+03    0.94478E-03   -0.69040E-02  4280   0.379E-01    0.641E-02
DAV:   2    -0.842629766124E+03   -0.10089E-03   -0.13102E-03  4460   0.458E-02    0.465E-02
DAV:   3    -0.842629759580E+03    0.65445E-05   -0.21745E-05  5180   0.862E-03    0.340E-02
DAV:   4    -0.842629768680E+03   -0.90999E-05   -0.43291E-05  4270   0.112E-02    0.649E-03
DAV:   5    -0.842629769542E+03   -0.86222E-06   -0.82114E-06  4700   0.433E-03
 146 F= -.85037172E+03 E0= -.85037172E+03  d E =0.787234E-03  mag=    -0.0000
       N       E                     dE             d eps       ncg     rms          rms(c)
DAV:   1    -0.842628573792E+03    0.11949E-02   -0.98617E-02  4280   0.461E-01    0.770E-02
DAV:   2    -0.842628716337E+03   -0.14254E-03   -0.18543E-03  4435   0.557E-02    0.561E-02
DAV:   3    -0.842628707842E+03    0.84950E-05   -0.31289E-05  5140   0.105E-02    0.409E-02
DAV:   4    -0.842628721144E+03   -0.13303E-04   -0.61905E-05  4420   0.137E-02    0.778E-03
DAV:   5    -0.842628722119E+03   -0.97477E-06   -0.11614E-05  4760   0.535E-03    0.563E-03
DAV:   6    -0.842628721633E+03    0.48618E-06   -0.20950E-06  3840   0.278E-03
 147 F= -.85037073E+03 E0= -.85037073E+03  d E =0.988018E-03  mag=    -0.0000
       N       E                     dE             d eps       ncg     rms          rms(c)
DAV:   1    -0.842627346166E+03    0.13760E-02   -0.11726E-01  4280   0.525E-01    0.823E-02
DAV:   2    -0.842627507329E+03   -0.16116E-03   -0.21128E-03  4440   0.630E-02    0.624E-02
DAV:   3    -0.842627493914E+03    0.13415E-04   -0.37864E-05  5100   0.121E-02    0.457E-02
DAV:   4    -0.842627510419E+03   -0.16505E-04   -0.91708E-05  4520   0.169E-02    0.949E-03
DAV:   5    -0.842627510146E+03    0.27310E-06   -0.16587E-05  4840   0.690E-03    0.683E-03
DAV:   6    -0.842627509656E+03    0.48994E-06   -0.39180E-06  4180   0.361E-03
 148 F= -.85036958E+03 E0= -.85036957E+03  d E =0.115360E-02  mag=    -0.0000
       N       E                     dE             d eps       ncg     rms          rms(c)
DAV:   1    -0.842626031918E+03    0.14782E-02   -0.13369E-01  4280   0.588E-01    0.869E-02
DAV:   2    -0.842626202379E+03   -0.17046E-03   -0.22892E-03  4440   0.704E-02    0.688E-02
DAV:   3    -0.842626185075E+03    0.17304E-04   -0.48109E-05  5080   0.142E-02    0.500E-02
DAV:   4    -0.842626207395E+03   -0.22320E-04   -0.11538E-04  4650   0.196E-02    0.119E-02
DAV:   5    -0.842626205593E+03    0.18014E-05   -0.22391E-05  4880   0.874E-03    0.754E-03
DAV:   6    -0.842626205614E+03   -0.20162E-07   -0.55491E-06  4240   0.406E-03
 149 F= -.85036832E+03 E0= -.85036832E+03  d E =0.125120E-02  mag=    -0.0000
       N       E                     dE             d eps       ncg     rms          rms(c)
DAV:   1    -0.842624879771E+03    0.13258E-02   -0.18166E-01  4300   0.687E-01    0.991E-02
DAV:   2    -0.842625114099E+03   -0.23433E-03   -0.31927E-03  4460   0.829E-02    0.762E-02
DAV:   3    -0.842625091693E+03    0.22406E-04   -0.68066E-05  5100   0.166E-02    0.550E-02
DAV:   4    -0.842625113682E+03   -0.21990E-04   -0.12006E-04  4630   0.208E-02    0.115E-02
DAV:   5    -0.842625115741E+03   -0.20581E-05   -0.26345E-05  4840   0.850E-03    0.766E-03
DAV:   6    -0.842625115209E+03    0.53144E-06   -0.39136E-06  4240   0.380E-03
 150 F= -.85036728E+03 E0= -.85036728E+03  d E =0.104393E-02  mag=    -0.0000
       N       E                     dE             d eps       ncg     rms          rms(c)
DAV:   1    -0.842625180113E+03   -0.64372E-04   -0.12387E-04  4320   0.210E-02    0.298E-03
DAV:   2    -0.842625180297E+03   -0.18395E-06   -0.27392E-06  3940   0.296E-03
 151 F= -.85036734E+03 E0= -.85036734E+03  d E =-.611864E-04  mag=    -0.0000
       N       E                     dE             d eps       ncg     rms          rms(c)
DAV:   1    -0.842625301585E+03   -0.12147E-03   -0.41083E-04  4260   0.368E-02    0.631E-03
DAV:   2    -0.842625301868E+03   -0.28256E-06   -0.70358E-06  4700   0.471E-03
 152 F= -.85036746E+03 E0= -.85036745E+03  d E =-.113761E-03  mag=    -0.0000
       N       E                     dE             d eps       ncg     rms          rms(c)
DAV:   1    -0.842625471449E+03   -0.16986E-03   -0.77201E-04  4240   0.468E-02    0.962E-03
DAV:   2    -0.842625471654E+03   -0.20470E-06   -0.10669E-05  4840   0.545E-03    0.789E-03
DAV:   3    -0.842625471765E+03   -0.11155E-06   -0.10254E-06  3195   0.229E-03
 153 F= -.85036761E+03 E0= -.85036761E+03  d E =-.158318E-03  mag=    -0.0000
       N       E                     dE             d eps       ncg     rms          rms(c)
DAV:   1    -0.842625685554E+03   -0.21390E-03   -0.13288E-03  4280   0.563E-02    0.932E-03
DAV:   2    -0.842625686644E+03   -0.10894E-05   -0.17540E-05  4680   0.617E-03    0.725E-03
DAV:   3    -0.842625686722E+03   -0.78631E-07   -0.39832E-07  3690   0.135E-03
 154 F= -.85036781E+03 E0= -.85036781E+03  d E =-.199704E-03  mag=    -0.0000
       N       E                     dE             d eps       ncg     rms          rms(c)
DAV:   1    -0.842625932701E+03   -0.24606E-03   -0.23032E-03  4240   0.722E-02    0.115E-02
[...]
DAV:   5    -0.842626738262E+03    0.13306E-06   -0.99775E-06  4840   0.571E-03
 163 F= -.85036873E+03 E0= -.85036873E+03  d E =0.317914E-03  mag=    -0.0000
       N       E                     dE             d eps       ncg     rms          rms(c)
DAV:   1    -0.842626120219E+03    0.61818E-03   -0.85662E-02  4300   0.502E-01    0.642E-02
DAV:   2    -0.842626207054E+03   -0.86836E-04   -0.13190E-03  4350   0.596E-02    0.524E-02
DAV:   3    -0.842626194424E+03    0.12630E-04   -0.35623E-05  5080   0.124E-02    0.373E-02
DAV:   4    -0.842626208639E+03   -0.14216E-04   -0.62562E-05  4520   0.156E-02    0.873E-03
DAV:   5    -0.842626208386E+03    0.25307E-06   -0.15523E-05  4860   0.714E-03    0.508E-03
DAV:   6    -0.842626208536E+03   -0.14964E-06   -0.22626E-06  3800   0.282E-03
 164 F= -.85036822E+03 E0= -.85036822E+03  d E =0.513042E-03  mag=    -0.0000
       N       E                     dE             d eps       ncg     rms          rms(c)
DAV:   1    -0.842625370990E+03    0.83740E-03   -0.14521E-01  4280   0.641E-01    0.840E-02
DAV:   2    -0.842625531854E+03   -0.16086E-03   -0.23589E-03  4420   0.768E-02    0.670E-02
DAV:   3    -0.842625509464E+03    0.22390E-04   -0.60482E-05  5080   0.158E-02    0.480E-02
DAV:   4    -0.842625527646E+03   -0.18182E-04   -0.96530E-05  4670   0.193E-02    0.109E-02
DAV:   5    -0.842625529248E+03   -0.16027E-05   -0.23110E-05  4820   0.814E-03    0.667E-03
DAV:   6    -0.842625529156E+03    0.92296E-07   -0.32253E-06  4180   0.349E-03
 165 F= -.85036757E+03 E0= -.85036757E+03  d E =0.650239E-03  mag=    -0.0000
       N       E                     dE             d eps       ncg     rms          rms(c)
DAV:   1    -0.842624573076E+03    0.95617E-03   -0.19935E-01  4280   0.757E-01    0.973E-02
DAV:   2    -0.842624793391E+03   -0.22032E-03   -0.32408E-03  4450   0.914E-02    0.780E-02
DAV:   3    -0.842624760158E+03    0.33233E-04   -0.88925E-05  5120   0.191E-02    0.560E-02
DAV:   4    -0.842624781176E+03   -0.21018E-04   -0.13253E-04  4710   0.229E-02    0.135E-02
DAV:   5    -0.842624784285E+03   -0.31086E-05   -0.32839E-05  4800   0.965E-03    0.804E-03
DAV:   6    -0.842624784160E+03    0.12476E-06   -0.46112E-06  4240   0.407E-03
 166 F= -.85036686E+03 E0= -.85036686E+03  d E =0.703009E-03  mag=    -0.0000
       N       E                     dE             d eps       ncg     rms          rms(c)
DAV:   1    -0.842623866974E+03    0.91731E-03   -0.23635E-01  4260   0.871E-01    0.102E-01
DAV:   2    -0.842624124395E+03   -0.25742E-03   -0.38198E-03  4410   0.107E-01    0.871E-02
DAV:   3    -0.842624073574E+03    0.50821E-04   -0.12723E-04  5260   0.229E-02    0.633E-02
DAV:   4    -0.842624088189E+03   -0.14615E-04   -0.18388E-04  4600   0.280E-02    0.174E-02
DAV:   5    -0.842624090912E+03   -0.27233E-05   -0.46963E-05  4820   0.121E-02    0.976E-03
DAV:   6    -0.842624091872E+03   -0.96014E-06   -0.69284E-06  4460   0.481E-03
 167 F= -.85036616E+03 E0= -.85036616E+03  d E =0.704327E-03  mag=    -0.0000
       N       E                     dE             d eps       ncg     rms          rms(c)
DAV:   1    -0.842624371652E+03   -0.28074E-03   -0.10738E-02  4260   0.213E-01    0.239E-02
DAV:   2    -0.842624389849E+03   -0.18196E-04   -0.27382E-04  5280   0.313E-02    0.215E-02
DAV:   3    -0.842624384114E+03    0.57341E-05   -0.14597E-05  5680   0.719E-03    0.161E-02
DAV:   4    -0.842624379445E+03    0.46696E-05   -0.10587E-05  4280   0.706E-03    0.710E-03
DAV:   5    -0.842624379194E+03    0.25099E-06   -0.32056E-06  3320   0.340E-03
 168 F= -.85036645E+03 E0= -.85036645E+03  d E =-.293431E-03  mag=    -0.0000
       N       E                     dE             d eps       ncg     rms          rms(c)
DAV:   1    -0.842624281969E+03    0.97476E-04   -0.12038E-02  4240   0.226E-01    0.255E-02
DAV:   2    -0.842624303029E+03   -0.21060E-04   -0.30028E-04  5240   0.327E-02    0.224E-02
DAV:   3    -0.842624297223E+03    0.58053E-05   -0.15873E-05  5660   0.757E-03    0.167E-02
DAV:   4    -0.842624293294E+03    0.39290E-05   -0.11630E-05  4320   0.734E-03    0.737E-03
DAV:   5    -0.842624293185E+03    0.10974E-06   -0.31108E-06  3280   0.334E-03
 169 F= -.85036637E+03 E0= -.85036637E+03  d E =0.851053E-04  mag=    -0.0000
       N       E                     dE             d eps       ncg     rms          rms(c)
DAV:   1    -0.842624370611E+03   -0.77317E-04   -0.51008E-04  4340   0.465E-02    0.527E-03
DAV:   2    -0.842624371414E+03   -0.80252E-06   -0.13629E-05  5260   0.694E-03    0.488E-03
DAV:   3    -0.842624371076E+03    0.33745E-06   -0.61464E-07  2300   0.165E-03
 170 F= -.85036644E+03 E0= -.85036644E+03  d E =-.752380E-04  mag=    -0.0000
       N       E                     dE             d eps       ncg     rms          rms(c)
DAV:   1    -0.842624453076E+03   -0.81663E-04   -0.15517E-03  4260   0.811E-02    0.992E-03
DAV:   2    -0.842624455499E+03   -0.24225E-05   -0.37198E-05  5480   0.115E-02    0.880E-03
DAV:   3    -0.842624454516E+03    0.98276E-06   -0.18149E-06  2980   0.283E-03
 171 F= -.85036652E+03 E0= -.85036652E+03  d E =-.787017E-04  mag=    -0.0000
       N       E                     dE             d eps       ncg     rms          rms(c)
DAV:   1    -0.842624452953E+03    0.25457E-05   -0.22159E-03  4260   0.969E-02    0.122E-02
DAV:   2    -0.842624456398E+03   -0.34444E-05   -0.50740E-05  5460   0.134E-02    0.107E-02
DAV:   3    -0.842624455087E+03    0.13105E-05   -0.26771E-06  3580   0.341E-03    0.759E-03
DAV:   4    -0.842624454509E+03    0.57831E-06   -0.36418E-06  3900   0.399E-03
 172 F= -.85036652E+03 E0= -.85036651E+03  d E =0.585500E-05  mag=    -0.0000
       N       E                     dE             d eps       ncg     rms          rms(c)
DAV:   1    -0.842624449839E+03    0.52482E-05   -0.23237E-06  2970   0.315E-03    0.143E-03
DAV:   2    -0.842624449856E+03   -0.17360E-07   -0.17876E-07  2210   0.874E-04
 173 F= -.85036651E+03 E0= -.85036651E+03  d E =0.449403E-05  mag=    -0.0000
       N       E                     dE             d eps       ncg     rms          rms(c)
DAV:   1    -0.842624438114E+03    0.11725E-04   -0.73010E-06  4220   0.534E-03    0.900E-04
DAV:   2    -0.842624438125E+03   -0.10696E-07   -0.17217E-07  2230   0.807E-04
 174 F= -.85036650E+03 E0= -.85036650E+03  d E =0.113576E-04  mag=    -0.0000
       N       E                     dE             d eps       ncg     rms          rms(c)
DAV:   1    -0.842624418889E+03    0.19225E-04   -0.15593E-05  4440   0.775E-03    0.140E-03
DAV:   2    -0.842624418900E+03   -0.11009E-07   -0.33893E-07  2430   0.110E-03
 175 F= -.85036648E+03 E0= -.85036648E+03  d E =0.186266E-04  mag=    -0.0000
       N       E                     dE             d eps       ncg     rms          rms(c)
DAV:   1    -0.842624391769E+03    0.27120E-04   -0.25821E-05  4460   0.985E-03    0.192E-03
DAV:   2    -0.842624391781E+03   -0.11169E-07   -0.49174E-07  2820   0.132E-03
 176 F= -.85036645E+03 E0= -.85036645E+03  d E =0.262846E-04  mag=    -0.0000
       N       E                     dE             d eps       ncg     rms          rms(c)
DAV:   1    -0.842624356501E+03    0.35269E-04   -0.37476E-05  4430   0.117E-02    0.230E-03
DAV:   2    -0.842624356516E+03   -0.15498E-07   -0.65799E-07  3170   0.151E-03
 177 F= -.85036642E+03 E0= -.85036642E+03  d E =0.341961E-04  mag=    -0.0000
       N       E                     dE             d eps       ncg     rms          rms(c)
DAV:   1    -0.842624313061E+03    0.43440E-04   -0.50871E-05  4310   0.134E-02    0.270E-03
DAV:   2    -0.842624313082E+03   -0.20955E-07   -0.86130E-07  3280   0.169E-03
 178 F= -.85036638E+03 E0= -.85036638E+03  d E =0.421113E-04  mag=    -0.0000
       N       E                     dE             d eps       ncg     rms          rms(c)
DAV:   1    -0.842624255764E+03    0.57297E-04   -0.83212E-05  4270   0.168E-02    0.335E-03
DAV:   2    -0.842624255803E+03   -0.38548E-07   -0.13507E-06  3520   0.207E-03
 179 F= -.85036632E+03 E0= -.85036632E+03  d E =0.554886E-04  mag=    -0.0000
       N       E                     dE             d eps       ncg     rms          rms(c)
DAV:   1    -0.842624182116E+03    0.73648E-04   -0.13889E-04  4250   0.211E-02    0.432E-03
DAV:   2    -0.842624182181E+03   -0.64130E-07   -0.22103E-06  3720   0.254E-03
 180 F= -.85036625E+03 E0= -.85036625E+03  d E =0.711953E-04  mag=    -0.0000
       N       E                     dE             d eps       ncg     rms          rms(c)
DAV:   1    -0.842624089653E+03    0.92464E-04   -0.23951E-04  4280   0.269E-02    0.562E-03
DAV:   2    -0.842624089762E+03   -0.10971E-06   -0.36264E-06  3980   0.312E-03
 181 F= -.85036616E+03 E0= -.85036616E+03  d E =0.891725E-04  mag=    -0.0000
       N       E                     dE             d eps       ncg     rms          rms(c)
DAV:   1    -0.842623976343E+03    0.11331E-03   -0.43101E-04  4280   0.350E-02    0.741E-03
DAV:   2    -0.842623976580E+03   -0.23673E-06   -0.66370E-06  4190   0.405E-03
 182 F= -.85036605E+03 E0= -.85036605E+03  d E =0.108806E-03  mag=    -0.0000
       N       E                     dE             d eps       ncg     rms          rms(c)
DAV:   1    -0.842623839870E+03    0.13647E-03   -0.78834E-04  4240   0.461E-02    0.990E-03
DAV:   2    -0.842623840387E+03   -0.51731E-06   -0.12713E-05  4360   0.538E-03    0.781E-03
DAV:   3    -0.842623840581E+03   -0.19361E-06   -0.53515E-07  3160   0.159E-03
 183 F= -.85036592E+03 E0= -.85036592E+03  d E =0.130056E-03  mag=    -0.0000
       N       E                     dE             d eps       ncg     rms          rms(c)
DAV:   1    -0.842623677264E+03    0.16312E-03   -0.14375E-03  4280   0.607E-02    0.959E-03
DAV:   2    -0.842623678972E+03   -0.17082E-05   -0.24338E-05  4440   0.705E-03    0.709E-03
DAV:   3    -0.842623678972E+03   -0.29104E-09   -0.40884E-07  3490   0.133E-03
 184 F= -.85036577E+03 E0= -.85036577E+03  d E =0.153519E-03  mag=    -0.0000
       N       E                     dE             d eps       ncg     rms          rms(c)
DAV:   1    -0.842623483309E+03    0.19566E-03   -0.25598E-03  4240   0.790E-02    0.125E-02
DAV:   2    -0.842623486486E+03   -0.31766E-05   -0.44660E-05  4440   0.926E-03    0.912E-03
DAV:   3    -0.842623486389E+03    0.96865E-07   -0.78065E-07  3780   0.178E-03
 185 F= -.85036559E+03 E0= -.85036559E+03  d E =0.181607E-03  mag=    -0.0000
       N       E                     dE             d eps       ncg     rms          rms(c)
DAV:   1    -0.842623250427E+03    0.23606E-03   -0.43058E-03  4240   0.101E-01    0.163E-02
DAV:   2    -0.842623255783E+03   -0.53554E-05   -0.76055E-05  4490   0.118E-02    0.118E-02
DAV:   3    -0.842623255621E+03    0.16209E-06   -0.13944E-06  3940   0.229E-03
 186 F= -.85036537E+03 E0= -.85036537E+03  d E =0.216388E-03  mag=    -0.0000
       N       E                     dE             d eps       ncg     rms          rms(c)
DAV:   1    -0.842622969643E+03    0.28614E-03   -0.67934E-03  4280   0.126E-01    0.207E-02
DAV:   2    -0.842622977951E+03   -0.83074E-05   -0.12005E-04  4510   0.147E-02    0.149E-02
DAV:   3    -0.842622977689E+03    0.26135E-06   -0.23043E-06  4100   0.291E-03
 187 F= -.85036511E+03 E0= -.85036511E+03  d E =0.259615E-03  mag=    -0.0000
       N       E                     dE             d eps       ncg     rms          rms(c)
DAV:   1    -0.842622626014E+03    0.35194E-03   -0.99747E-03  4240   0.153E-01    0.252E-02
DAV:   2    -0.842622638085E+03   -0.12071E-04   -0.17637E-04  4510   0.180E-02    0.182E-02
DAV:   3    -0.842622637755E+03    0.33018E-06   -0.35470E-06  4300   0.361E-03
 188 F= -.85036479E+03 E0= -.85036479E+03  d E =0.317856E-03  mag=    -0.0000
       N       E                     dE             d eps       ncg     rms          rms(c)
DAV:   1    -0.842622205631E+03    0.43245E-03   -0.13050E-02  4240   0.180E-01    0.288E-02
DAV:   2    -0.842622221011E+03   -0.15381E-04   -0.22568E-04  4440   0.211E-02    0.212E-02
DAV:   3    -0.842622220636E+03    0.37537E-06   -0.45216E-06  4440   0.417E-03
 189 F= -.85036440E+03 E0= -.85036440E+03  d E =0.392158E-03  mag=    -0.0000
       N       E                     dE             d eps       ncg     rms          rms(c)
DAV:   1    -0.842621714017E+03    0.50699E-03   -0.15534E-02  4240   0.204E-01    0.310E-02
DAV:   2    -0.842621731493E+03   -0.17477E-04   -0.25664E-04  4360   0.238E-02    0.235E-02
DAV:   3    -0.842621731069E+03    0.42426E-06   -0.53075E-06  4560   0.468E-03
 190 F= -.85036394E+03 E0= -.85036394E+03  d E =0.463604E-03  mag=    -0.0000
       N       E                     dE             d eps       ncg     rms          rms(c)
DAV:   1    -0.842621153243E+03    0.57825E-03   -0.19409E-02  4240   0.236E-01    0.340E-02
DAV:   2    -0.842621174326E+03   -0.21082E-04   -0.30937E-04  4360   0.274E-02    0.265E-02
DAV:   3    -0.842621173567E+03    0.75946E-06   -0.70674E-06  4700   0.549E-03
 191 F= -.85036341E+03 E0= -.85036341E+03  d E =0.529916E-03  mag=    -0.0000
       N       E                     dE             d eps       ncg     rms          rms(c)
DAV:   1    -0.842620524560E+03    0.64977E-03   -0.27472E-02  4260   0.283E-01    0.400E-02
DAV:   2    -0.842620553882E+03   -0.29323E-04   -0.43216E-04  4330   0.329E-02    0.312E-02
DAV:   3    -0.842620552483E+03    0.13992E-05   -0.10207E-05  4820   0.661E-03    0.219E-02
DAV:   4    -0.842620560299E+03   -0.78159E-05   -0.16908E-05  4140   0.808E-03    0.468E-03
DAV:   5    -0.842620560091E+03    0.20834E-06   -0.39962E-06  4560   0.364E-03
 192 F= -.85036283E+03 E0= -.85036283E+03  d E =0.581795E-03  mag=     0.0000
       N       E                     dE             d eps       ncg     rms          rms(c)
DAV:   1    -0.842619854713E+03    0.70559E-03   -0.42448E-02  4300   0.349E-01    0.473E-02
DAV:   2    -0.842619904235E+03   -0.49522E-04   -0.72303E-04  4310   0.421E-02    0.365E-02
DAV:   3    -0.842619898601E+03    0.56342E-05   -0.16344E-05  4980   0.841E-03    0.260E-02
DAV:   4    -0.842619906608E+03   -0.80075E-05   -0.29660E-05  4150   0.107E-02    0.589E-03
DAV:   5    -0.842619906585E+03    0.23174E-07   -0.68962E-06  4720   0.465E-03
 193 F= -.85036221E+03 E0= -.85036221E+03  d E =0.616425E-03  mag=    -0.0000
       N       E                     dE             d eps       ncg     rms          rms(c)
DAV:   1    -0.842619173504E+03    0.73310E-03   -0.63615E-02  4300   0.424E-01    0.579E-02
DAV:   2    -0.842619249229E+03   -0.75725E-04   -0.11050E-03  4350   0.514E-02    0.438E-02
DAV:   3    -0.842619240490E+03    0.87388E-05   -0.25909E-05  5060   0.105E-02    0.310E-02
DAV:   4    -0.842619250116E+03   -0.96256E-05   -0.37795E-05  4350   0.123E-02    0.705E-03
DAV:   5    -0.842619250970E+03   -0.85370E-06   -0.93431E-06  4800   0.513E-03
 194 F= -.85036159E+03 E0= -.85036159E+03  d E =0.616309E-03  mag=    -0.0000
       N       E                     dE             d eps       ncg     rms          rms(c)
DAV:   1    -0.842618531290E+03    0.71883E-03   -0.75574E-02  4320   0.475E-01    0.616E-02
DAV:   2    -0.842618616091E+03   -0.84802E-04   -0.12603E-03  4340   0.574E-02    0.480E-02
DAV:   3    -0.842618604813E+03    0.11278E-04   -0.31760E-05  4980   0.118E-02    0.338E-02
DAV:   4    -0.842618616170E+03   -0.11356E-04   -0.47705E-05  4430   0.140E-02    0.784E-03
DAV:   5    -0.842618616808E+03   -0.63809E-06   -0.12350E-05  4820   0.610E-03    0.462E-03
DAV:   6    -0.842618616781E+03    0.26324E-07   -0.17822E-06  3700   0.258E-03
 195 F= -.85036100E+03 E0= -.85036100E+03  d E =0.598479E-03  mag=    -0.0000
       N       E                     dE             d eps       ncg     rms          rms(c)
DAV:   1    -0.842617996890E+03    0.61992E-03   -0.76330E-02  4320   0.499E-01    0.595E-02
DAV:   2    -0.842618066981E+03   -0.70090E-04   -0.11386E-03  4340   0.590E-02    0.498E-02
DAV:   3    -0.842618052055E+03    0.14925E-04   -0.37853E-05  4980   0.133E-02    0.339E-02
DAV:   4    -0.842618063928E+03   -0.11873E-04   -0.55899E-05  4550   0.152E-02    0.927E-03
DAV:   5    -0.842618063267E+03    0.66130E-06   -0.18956E-05  4740   0.834E-03    0.412E-03
DAV:   6    -0.842618063703E+03   -0.43685E-06   -0.17003E-06  3540   0.235E-03
 196 F= -.85036047E+03 E0= -.85036046E+03  d E =0.530684E-03  mag=     0.0000
       N       E                     dE             d eps       ncg     rms          rms(c)
DAV:   1    -0.842617657187E+03    0.40608E-03   -0.93758E-02  4320   0.558E-01    0.650E-02
DAV:   2    -0.842617736603E+03   -0.79416E-04   -0.13406E-03  4390   0.655E-02    0.549E-02
DAV:   3    -0.842617718214E+03    0.18388E-04   -0.50119E-05  5000   0.153E-02    0.363E-02
DAV:   4    -0.842617732070E+03   -0.13855E-04   -0.59277E-05  4370   0.158E-02    0.981E-03
DAV:   5    -0.842617732164E+03   -0.94049E-07   -0.23108E-05  4740   0.861E-03    0.437E-03
DAV:   6    -0.842617732627E+03   -0.46361E-06   -0.14527E-06  3500   0.224E-03
 197 F= -.85036014E+03 E0= -.85036014E+03  d E =0.323571E-03  mag=     0.0000
       N       E                     dE             d eps       ncg     rms          rms(c)
DAV:   1    -0.842617593992E+03    0.13817E-03   -0.12507E-01  4320   0.646E-01    0.757E-02
DAV:   2    -0.842617700508E+03   -0.10652E-03   -0.18260E-03  4390   0.765E-02    0.630E-02
DAV:   3    -0.842617674420E+03    0.26088E-04   -0.74854E-05  5120   0.188E-02    0.408E-02
DAV:   4    -0.842617689130E+03   -0.14711E-04   -0.64128E-05  4450   0.168E-02    0.122E-02
DAV:   5    -0.842617691756E+03   -0.26257E-05   -0.23065E-05  4700   0.810E-03    0.525E-03
DAV:   6    -0.842617692257E+03   -0.50110E-06   -0.17416E-06  3360   0.247E-03
 198 F= -.85036010E+03 E0= -.85036010E+03  d E =0.409065E-04  mag=    -0.0000
       N       E                     dE             d eps       ncg     rms          rms(c)
DAV:   1    -0.842617847976E+03   -0.15622E-03   -0.14227E-01  4300   0.705E-01    0.787E-02
DAV:   2    -0.842617959062E+03   -0.11109E-03   -0.19773E-03  4420   0.826E-02    0.691E-02
DAV:   3    -0.842617925575E+03    0.33487E-04   -0.99240E-05  5160   0.217E-02    0.432E-02
DAV:   4    -0.842617944915E+03   -0.19340E-04   -0.82597E-05  4430   0.185E-02    0.138E-02
DAV:   5    -0.842617945944E+03   -0.10289E-05   -0.33683E-05  4620   0.105E-02    0.552E-03
DAV:   6    -0.842617946994E+03   -0.10496E-05   -0.20706E-06  3560   0.281E-03    0.315E-03
DAV:   7    -0.842617946895E+03    0.98611E-07   -0.34033E-07  3360   0.132E-03
 199 F= -.85036033E+03 E0= -.85036033E+03  d E =-.233536E-03  mag=     0.0000
       N       E                     dE             d eps       ncg     rms          rms(c)
DAV:   1    -0.842618072531E+03   -0.12554E-03   -0.19340E-01  4280   0.839E-01    0.942E-02
DAV:   2    -0.842618250055E+03   -0.17752E-03   -0.30048E-03  4500   0.102E-01    0.844E-02
DAV:   3    -0.842618192522E+03    0.57533E-04   -0.16010E-04  5300   0.268E-02    0.545E-02
DAV:   4    -0.842618211471E+03   -0.18950E-04   -0.12862E-04  4530   0.235E-02    0.193E-02
DAV:   5    -0.842618213916E+03   -0.24452E-05   -0.54522E-05  4520   0.135E-02    0.692E-03
DAV:   6    -0.842618215686E+03   -0.17691E-05   -0.34869E-06  3900   0.383E-03    0.419E-03
DAV:   7    -0.842618215464E+03    0.22205E-06   -0.47143E-07  3520   0.163E-03
 200 F= -.85036055E+03 E0= -.85036055E+03  d E =-.212500E-03  mag=    -0.0000
       N       E                     dE             d eps       ncg     rms          rms(c)
DAV:   1    -0.842618450695E+03   -0.23501E-03   -0.13286E-02  4260   0.237E-01    0.262E-02
DAV:   2    -0.842618473897E+03   -0.23202E-04   -0.33690E-04  5300   0.345E-02    0.235E-02
DAV:   3    -0.842618467072E+03    0.68244E-05   -0.16765E-05  5760   0.768E-03    0.177E-02
DAV:   4    -0.842618461741E+03    0.53317E-05   -0.13431E-05  4320   0.783E-03    0.777E-03
DAV:   5    -0.842618461488E+03    0.25260E-06   -0.36168E-06  3380   0.356E-03
 201 F= -.85036080E+03 E0= -.85036080E+03  d E =-.251736E-03  mag=    -0.0000
