<?xml version="1.0" encoding="ISO-8859-1"?>
<modeling>
 <generator>
  <i name="program" type="string">vasp </i>
  <i name="version" type="string">6.4.2  </i>
  <i name="subversion" type="string">20Jul23 (build Aug 26 2025 15:10:52) complex                          parallel </i>
  <i name="platform" type="string">LinuxIFC </i>
  <i name="date" type="string">2025 12 07 </i>
  <i name="time" type="string">12:50:49 </i>
 </generator>
 <incar>
  <i type="int" name="ISTART">     0</i>
  <i type="string" name="ALGO">Normal</i>
  <i type="logical" name="ADDGRID"> T  </i>
  <i type="int" name="ISPIN">     2</i>
  <i type="int" name="IMIX">     4</i>
  <i name="AMIX">      0.20000000</i>
  <i name="BMIX">      0.00010000</i>
  <i name="AMIX_MAG">      0.80000000</i>
  <i name="BMIX_MAG">      0.00010000</i>
  <i type="int" name="ICHARG">     2</i>
  <i type="int" name="NELM">   200</i>
  <i type="int" name="IBRION">     3</i>
  <i name="EDIFF">      0.00000100</i>
  <i name="EDIFFG">     -0.03000000</i>
  <i type="int" name="NSW">  1000</i>
  <i type="int" name="ISIF">     2</i>
  <i type="int" name="ISYM">     0</i>
  <i name="ENCUT">    520.00000000</i>
  <i name="POTIM">      0.00000000</i>
  <v name="MAGMOM">      0.60000000      0.60000000      0.60000000      0.60000000      0.60000000      0.60000000      0.60000000      0.60000000      0.60000000      0.60000000      0.60000000      0.60000000      0.60000000      0.60000000      0.60000000      0.60000000      0.60000000      0.60000000      0.60000000      0.60000000
      0.60000000      0.60000000      0.60000000      0.60000000      0.60000000      0.60000000      0.60000000      0.60000000      0.60000000      0.60000000      0.60000000      0.60000000      0.60000000      0.60000000      0.60000000      0.60000000      0.60000000      0.60000000      0.60000000      0.60000000
      0.60000000      0.60000000      0.60000000      0.60000000      0.60000000      0.60000000      0.60000000      0.60000000      0.60000000      0.60000000      0.60000000      0.60000000      0.60000000      0.60000000      0.60000000      0.60000000      0.60000000      0.60000000      0.60000000      0.60000000
      0.60000000      0.60000000      0.60000000      0.60000000      0.60000000      0.60000000      0.60000000      0.60000000      0.60000000      0.60000000      0.60000000      0.60000000      0.60000000      0.60000000      0.60000000      0.60000000      0.60000000      0.60000000      0.60000000      0.60000000
      0.60000000      0.60000000      0.60000000      0.60000000      0.60000000      0.60000000      0.60000000      0.60000000      0.60000000      0.60000000      0.60000000      0.60000000      0.60000000      0.60000000      0.60000000      0.60000000      0.60000000</v>
  <i type="string" name="LREAL">Auto</i>
  <i type="int" name="ISMEAR">     0</i>
  <i name="SIGMA">      0.05000000</i>
  <i type="logical" name="LWAVE"> F  </i>
  <i type="logical" name="LCHARG"> F  </i>
  <i type="logical" name="LASPH"> T  </i>
  <i type="int" name="IVDW">    12</i>
  <i name="SPRING">     -5.00000000</i>
 </incar>
 <primitive_cell>
  <structure name="primitive_cell" >
   <crystal>
    <varray name="basis" >
     <v>      17.27103806       0.00000000       0.00000000 </v>
     <v>      -8.63551903      14.95715771       0.00000000 </v>
     <v>       0.00000000       0.00000000      15.00000000 </v>
    </varray>
    <i name="volume">   3874.88459904 </i>
    <varray name="rec_basis" >
     <v>       0.05790040       0.03342881       0.00000000 </v>
     <v>       0.00000000       0.06685762       0.00000000 </v>
     <v>       0.00000000       0.00000000       0.06666667 </v>
    </varray>
   </crystal>
   <varray name="positions" >
    <v>       0.99939306       0.99904279       0.49521262 </v>
    <v>       0.99927557       0.14175484       0.49592219 </v>
    <v>       0.99946024       0.28479183       0.49677792 </v>
    <v>       0.99941679       0.42768003       0.49736578 </v>
    <v>       0.99933452       0.57043396       0.49730184 </v>
    <v>       0.99961537       0.71325633       0.49661400 </v>
    <v>       0.99982386       0.85651379       0.49551018 </v>
    <v>       0.14296007       0.00014079       0.49595951 </v>
    <v>       0.14282112       0.14284723       0.49514608 </v>
    <v>       0.14228553       0.28523145       0.49495154 </v>
    <v>       0.14246091       0.42857017       0.49557386 </v>
    <v>       0.14255571       0.57090219       0.49662612 </v>
    <v>       0.14247930       0.71368468       0.49725132 </v>
    <v>       0.14250385       0.85687961       0.49703081 </v>
    <v>       0.28578261       0.00018850       0.49616210 </v>
    <v>       0.28648394       0.14344310       0.49473716 </v>
    <v>       0.28648151       0.28758922       0.49266396 </v>
    <v>       0.28466328       0.42868361       0.49098864 </v>
    <v>       0.28712814       0.57185414       0.49288906 </v>
    <v>       0.28542562       0.71464811       0.49539322 </v>
    <v>       0.28485745       0.85723961       0.49654192 </v>
    <v>       0.42830771       0.99961632       0.49570051 </v>
    <v>       0.42952446       0.14335656       0.49514154 </v>
    <v>       0.42888002       0.28388716       0.49408245 </v>
    <v>       0.42701999       0.85621009       0.49492534 </v>
    <v>       0.57042936       0.99871301       0.49536680 </v>
    <v>       0.57125110       0.14181313       0.49592092 </v>
    <v>       0.57510682       0.28794953       0.49456823 </v>
    <v>       0.56921266       0.85446734       0.49304574 </v>
    <v>       0.71256397       0.99757043       0.49461166 </v>
    <v>       0.71377393       0.14114119       0.49645082 </v>
    <v>       0.71436199       0.28396324       0.49623807 </v>
    <v>       0.71033928       0.42326800       0.49333597 </v>
    <v>       0.71536054       0.57003176       0.48477415 </v>
    <v>       0.71642383       0.71339882       0.48205424 </v>
    <v>       0.71136832       0.85458482       0.49015209 </v>
    <v>       0.85591487       0.99826771       0.49425919 </v>
    <v>       0.85614541       0.14119333       0.49619905 </v>
    <v>       0.85670862       0.28425391       0.49708876 </v>
    <v>       0.85652744       0.42711206       0.49656928 </v>
    <v>       0.85578253       0.56936359       0.49459427 </v>
    <v>       0.85735714       0.71300229       0.49175423 </v>
    <v>       0.85633375       0.85544347       0.49227092 </v>
    <v>       0.04734092       0.09454997       0.49560587 </v>
    <v>       0.04677756       0.23699613       0.49612664 </v>
    <v>       0.04690927       0.38024569       0.49691107 </v>
    <v>       0.04721355       0.52304668       0.49733742 </v>
    <v>       0.04710547       0.66581794       0.49734671 </v>
    <v>       0.04711371       0.80870713       0.49658807 </v>
    <v>       0.04740927       0.95177659       0.49569128 </v>
    <v>       0.19079828       0.09531856       0.49521133 </v>
    <v>       0.19041946       0.23819699       0.49428058 </v>
    <v>       0.18914200       0.38042947       0.49405841 </v>
    <v>       0.19075295       0.52407879       0.49531020 </v>
    <v>       0.19006178       0.66633934       0.49647273 </v>
    <v>       0.18989798       0.80922335       0.49712043 </v>
    <v>       0.19051330       0.95232136       0.49647805 </v>
    <v>       0.33408476       0.09589134       0.49532960 </v>
    <v>       0.33538143       0.23905476       0.49373768 </v>
    <v>       0.33067831       0.38054458       0.49026723 </v>
    <v>       0.33125644       0.52325557       0.48945401 </v>
    <v>       0.33626686       0.67005793       0.49391916 </v>
    <v>       0.33225228       0.80947050       0.49572713 </v>
    <v>       0.33287464       0.95231486       0.49622605 </v>
    <v>       0.47622362       0.09476387       0.49561834 </v>
    <v>       0.47738261       0.23903451       0.49458858 </v>
    <v>       0.47150276       0.80548913       0.49396283 </v>
    <v>       0.47541852       0.95163512       0.49530451 </v>
    <v>       0.61837029       0.09385621       0.49605832 </v>
    <v>       0.61961612       0.23722669       0.49568856 </v>
    <v>       0.61787358       0.80979592       0.49049030 </v>
    <v>       0.61711735       0.95012159       0.49442284 </v>
    <v>       0.76089424       0.09328807       0.49586805 </v>
    <v>       0.76177788       0.23621152       0.49684068 </v>
    <v>       0.76120311       0.37879486       0.49563952 </v>
    <v>       0.75943526       0.52149829       0.49125049 </v>
    <v>       0.76183991       0.66468743       0.48567721 </v>
    <v>       0.76036727       0.80618534       0.48797581 </v>
    <v>       0.76024798       0.95013237       0.49314134 </v>
    <v>       0.90373382       0.09341246       0.49562148 </v>
    <v>       0.90409493       0.23660905       0.49689039 </v>
    <v>       0.90408572       0.37978848       0.49726549 </v>
    <v>       0.90396776       0.52253416       0.49655701 </v>
    <v>       0.90403968       0.66489416       0.49454284 </v>
    <v>       0.90428642       0.80823598       0.49325999 </v>
    <v>       0.90391419       0.95076832       0.49418690 </v>
    <v>       0.46770817       0.35654397       0.49438754 </v>
    <v>       0.40330201       0.41966140       0.48967087 </v>
    <v>       0.40392273       0.55886887       0.48569008 </v>
    <v>       0.64403558       0.67554709       0.47463609 </v>
    <v>       0.64271415       0.53286927       0.47818109 </v>
    <v>       0.57885451       0.73714765       0.48862569 </v>
    <v>       0.51368052       0.59900038       0.59651500 </v>
    <v>       0.58196634       0.56930212       0.57334553 </v>
    <v>       0.42633444       0.71503877       0.49379498 </v>
    <v>       0.62033845       0.37835517       0.49308384 </v>
    <v>       0.51877023       0.55044876       0.56977595 </v>
   </varray>
  </structure>
  <varray name="primitive_index" >
   <v type="int" >        1 </v>
   <v type="int" >        2 </v>
   <v type="int" >        3 </v>
   <v type="int" >        4 </v>
   <v type="int" >        5 </v>
   <v type="int" >        6 </v>
   <v type="int" >        7 </v>
   <v type="int" >        8 </v>
   <v type="int" >        9 </v>
   <v type="int" >       10 </v>
   <v type="int" >       11 </v>
   <v type="int" >       12 </v>
   <v type="int" >       13 </v>
   <v type="int" >       14 </v>
   <v type="int" >       15 </v>
   <v type="int" >       16 </v>
   <v type="int" >       17 </v>
   <v type="int" >       18 </v>
   <v type="int" >       19 </v>
   <v type="int" >       20 </v>
   <v type="int" >       21 </v>
   <v type="int" >       22 </v>
   <v type="int" >       23 </v>
   <v type="int" >       24 </v>
   <v type="int" >       25 </v>
   <v type="int" >       26 </v>
   <v type="int" >       27 </v>
   <v type="int" >       28 </v>
   <v type="int" >       29 </v>
   <v type="int" >       30 </v>
   <v type="int" >       31 </v>
   <v type="int" >       32 </v>
   <v type="int" >       33 </v>
   <v type="int" >       34 </v>
   <v type="int" >       35 </v>
   <v type="int" >       36 </v>
   <v type="int" >       37 </v>
   <v type="int" >       38 </v>
   <v type="int" >       39 </v>
   <v type="int" >       40 </v>
   <v type="int" >       41 </v>
   <v type="int" >       42 </v>
   <v type="int" >       43 </v>
   <v type="int" >       44 </v>
   <v type="int" >       45 </v>
   <v type="int" >       46 </v>
   <v type="int" >       47 </v>
   <v type="int" >       48 </v>
   <v type="int" >       49 </v>
   <v type="int" >       50 </v>
   <v type="int" >       51 </v>
   <v type="int" >       52 </v>
   <v type="int" >       53 </v>
   <v type="int" >       54 </v>
   <v type="int" >       55 </v>
   <v type="int" >       56 </v>
   <v type="int" >       57 </v>
   <v type="int" >       58 </v>
   <v type="int" >       59 </v>
   <v type="int" >       60 </v>
   <v type="int" >       61 </v>
   <v type="int" >       62 </v>
   <v type="int" >       63 </v>
   <v type="int" >       64 </v>
   <v type="int" >       65 </v>
   <v type="int" >       66 </v>
   <v type="int" >       67 </v>
   <v type="int" >       68 </v>
   <v type="int" >       69 </v>
   <v type="int" >       70 </v>
   <v type="int" >       71 </v>
   <v type="int" >       72 </v>
   <v type="int" >       73 </v>
   <v type="int" >       74 </v>
   <v type="int" >       75 </v>
   <v type="int" >       76 </v>
   <v type="int" >       77 </v>
   <v type="int" >       78 </v>
   <v type="int" >       79 </v>
   <v type="int" >       80 </v>
   <v type="int" >       81 </v>
   <v type="int" >       82 </v>
   <v type="int" >       83 </v>
   <v type="int" >       84 </v>
   <v type="int" >       85 </v>
   <v type="int" >       86 </v>
   <v type="int" >       87 </v>
   <v type="int" >       88 </v>
   <v type="int" >       89 </v>
   <v type="int" >       90 </v>
   <v type="int" >       91 </v>
   <v type="int" >       92 </v>
   <v type="int" >       93 </v>
   <v type="int" >       94 </v>
   <v type="int" >       95 </v>
   <v type="int" >       96 </v>
   <v type="int" >       97 </v>
  </varray>
 </primitive_cell>
 <kpoints>
  <generation param="Gamma">
   <v type="int" name="divisions">       2        2        1 </v>
   <v name="usershift">      0.00000000       0.00000000       0.00000000 </v>
   <v name="genvec1">      0.50000000       0.00000000       0.00000000 </v>
   <v name="genvec2">      0.00000000       0.50000000       0.00000000 </v>
   <v name="genvec3">      0.00000000       0.00000000       1.00000000 </v>
   <v name="shift">      0.00000000       0.00000000       0.00000000 </v>
  </generation>
  <varray name="kpointlist" >
   <v>       0.00000000       0.00000000       0.00000000 </v>
   <v>       0.50000000       0.00000000       0.00000000 </v>
   <v>       0.00000000       0.50000000       0.00000000 </v>
   <v>       0.50000000       0.50000000       0.00000000 </v>
  </varray>
  <varray name="weights" >
   <v>       0.25000000 </v>
   <v>       0.25000000 </v>
   <v>       0.25000000 </v>
   <v>       0.25000000 </v>
  </varray>
 </kpoints>
 <parameters>
  <separator name="general" >
   <i type="string" name="SYSTEM">unknown system</i>
   <i type="logical" name="LCOMPAT"> F  </i>
  </separator>
  <separator name="electronic" >
   <i type="string" name="PREC">normal</i>
   <i name="ENMAX">    520.00000000</i>
   <i name="ENAUG">    644.87300000</i>
   <i name="EDIFF">      0.00000100</i>
   <i type="int" name="IALGO">    38</i>
   <i type="int" name="IWAVPR">    11</i>
   <i type="int" name="NBANDS">   265</i>
   <i type="int" name="NBANDSLOW">    -1</i>
   <i type="int" name="NBANDSHIGH">    -1</i>
   <i name="NELECT">    368.00000000</i>
   <i type="int" name="TURBO">     0</i>
   <i type="int" name="IRESTART">     0</i>
   <i type="int" name="NREBOOT">     0</i>
   <i type="int" name="NMIN">     0</i>
   <i name="EREF">      0.00000000</i>
   <separator name="electronic smearing" >
    <i type="int" name="ISMEAR">     0</i>
    <i name="SIGMA">      0.05000000</i>
    <i name="KSPACING">      0.50000000</i>
    <i type="logical" name="KGAMMA"> T  </i>
    <i type="logical" name="KBLOWUP"> T  </i>
   </separator>
   <separator name="electronic projectors" >
    <i type="logical" name="LREAL"> T  </i>
    <v name="ROPT">     -0.00050000     -0.00050000     -0.00050000     -0.00050000</v>
    <i type="int" name="LMAXPAW">  -100</i>
    <i type="int" name="LMAXMIX">     2</i>
    <i type="logical" name="NLSPLINE"> F  </i>
   </separator>
   <separator name="electronic startup" >
    <i type="int" name="ISTART">     0</i>
    <i type="int" name="ICHARG">     2</i>
    <i type="int" name="INIWAV">     1</i>
   </separator>
   <separator name="electronic spin" >
    <i type="int" name="ISPIN">     2</i>
    <i type="logical" name="LNONCOLLINEAR"> F  </i>
    <v name="MAGMOM">      0.60000000      0.60000000      0.60000000      0.60000000      0.60000000      0.60000000      0.60000000      0.60000000      0.60000000      0.60000000      0.60000000      0.60000000      0.60000000      0.60000000      0.60000000      0.60000000      0.60000000      0.60000000      0.60000000      0.60000000
      0.60000000      0.60000000      0.60000000      0.60000000      0.60000000      0.60000000      0.60000000      0.60000000      0.60000000      0.60000000      0.60000000      0.60000000      0.60000000      0.60000000      0.60000000      0.60000000      0.60000000      0.60000000      0.60000000      0.60000000
      0.60000000      0.60000000      0.60000000      0.60000000      0.60000000      0.60000000      0.60000000      0.60000000      0.60000000      0.60000000      0.60000000      0.60000000      0.60000000      0.60000000      0.60000000      0.60000000      0.60000000      0.60000000      0.60000000      0.60000000
      0.60000000      0.60000000      0.60000000      0.60000000      0.60000000      0.60000000      0.60000000      0.60000000      0.60000000      0.60000000      0.60000000      0.60000000      0.60000000      0.60000000      0.60000000      0.60000000      0.60000000      0.60000000      0.60000000      0.60000000
      0.60000000      0.60000000      0.60000000      0.60000000      0.60000000      0.60000000      0.60000000      0.60000000      0.60000000      0.60000000      0.60000000      0.60000000      0.60000000      0.60000000      0.60000000      0.60000000      0.60000000</v>
    <i name="NUPDOWN">     -1.00000000</i>
    <i type="logical" name="LSORBIT"> F  </i>
    <v name="SAXIS">      0.00000000      0.00000000      1.00000000</v>
    <i type="logical" name="LSPIRAL"> F  </i>
    <v name="QSPIRAL">      0.00000000      0.00000000      0.00000000</v>
    <i type="logical" name="LZEROZ"> F  </i>
   </separator>
   <separator name="electronic exchange-correlation" >
    <i type="logical" name="LASPH"> T  </i>
    <i type="logical" name="LMETAGGA"> F  </i>
   </separator>
   <separator name="electronic convergence" >
    <i type="int" name="NELM">   200</i>
    <i type="int" name="NELMDL">    -5</i>
    <i type="int" name="NELMIN">     2</i>
    <i name="ENINI">    520.00000000</i>
    <separator name="electronic convergence detail" >
     <i type="logical" name="LDIAG"> T  </i>
     <i type="logical" name="LSUBROT"> F  </i>
     <i name="WEIMIN">      0.00100000</i>
     <i name="EBREAK">      0.00000000</i>
     <i name="DEPER">      0.30000000</i>
     <i type="int" name="NRMM">     4</i>
     <i name="TIME">      0.40000000</i>
    </separator>
   </separator>
   <separator name="electronic mixer" >
    <i name="AMIX">      0.20000000</i>
    <i name="BMIX">      0.00010000</i>
    <i name="AMIN">      0.10000000</i>
    <i name="AMIX_MAG">      0.80000000</i>
    <i name="BMIX_MAG">      0.00010000</i>
    <separator name="electronic mixer details" >
     <i type="int" name="IMIX">     4</i>
     <i type="logical" name="MIXFIRST"> F  </i>
     <i type="int" name="MAXMIX">   -45</i>
     <i name="WC">    100.00000000</i>
     <i type="int" name="INIMIX">     1</i>
     <i type="int" name="MIXPRE">     1</i>
     <i type="int" name="MREMOVE">     5</i>
    </separator>
   </separator>
   <separator name="electronic dipolcorrection" >
    <i type="logical" name="LDIPOL"> F  </i>
    <i type="logical" name="LMONO"> F  </i>
    <i type="int" name="IDIPOL">     0</i>
    <i name="EPSILON">      1.00000000</i>
    <v name="DIPOL">   -100.00000000   -100.00000000   -100.00000000</v>
    <i name="EFIELD">      0.00000000</i>
   </separator>
  </separator>
  <separator name="grids" >
   <i type="int" name="NGX">    96</i>
   <i type="int" name="NGY">    96</i>
   <i type="int" name="NGZ">    84</i>
   <i type="int" name="NGXF">   192</i>
   <i type="int" name="NGYF">   192</i>
   <i type="int" name="NGZF">   168</i>
   <i type="logical" name="ADDGRID"> T  </i>
  </separator>
  <separator name="ionic" >
   <i type="int" name="NSW">  1000</i>
   <i type="int" name="IBRION">     3</i>
   <i type="int" name="MDALGO">     0</i>
   <i type="int" name="ISIF">     2</i>
   <i name="PSTRESS">      0.00000000</i>
   <i name="EDIFFG">     -0.03000000</i>
   <i type="int" name="NFREE">     0</i>
   <i name="POTIM">      0.00000000</i>
   <i name="SMASS">     -3.00000000</i>
   <i name="SCALEE">      1.00000000</i>
  </separator>
  <separator name="ionic md" >
   <i name="TEBEG">      0.00010000</i>
   <i name="TEEND">      0.00010000</i>
   <i type="int" name="NBLOCK">     1</i>
   <i type="int" name="KBLOCK">  1000</i>
   <i type="int" name="NPACO">   256</i>
   <i name="APACO">     10.00000000</i>
  </separator>
  <separator name="symmetry" >
   <i type="int" name="ISYM">     0</i>
   <i name="SYMPREC">      0.00001000</i>
  </separator>
  <separator name="dos" >
   <i type="int" name="LORBIT">     0</i>
   <v name="RWIGS">     -1.00000000     -1.00000000     -1.00000000     -1.00000000</v>
   <i type="int" name="NEDOS">   301</i>
   <i name="EMIN">     10.00000000</i>
   <i name="EMAX">    -10.00000000</i>
   <i name="EFERMI">      0.00000000</i>
  </separator>
  <separator name="writing" >
   <i type="int" name="NWRITE">     2</i>
   <i type="logical" name="LWAVE"> F  </i>
   <i type="logical" name="LDOWNSAMPLE"> F  </i>
   <i type="logical" name="LCHARG"> F  </i>
   <i type="logical" name="LPARD"> F  </i>
   <i type="logical" name="LVTOT"> F  </i>
   <i type="logical" name="LVHAR"> F  </i>
   <i type="logical" name="LELF"> F  </i>
   <i type="logical" name="LOPTICS"> F  </i>
   <v name="STM">      0.00000000      0.00000000      0.00000000      0.00000000      0.00000000      0.00000000      0.00000000</v>
  </separator>
  <separator name="performance" >
   <i type="int" name="NPAR">     5</i>
   <i type="int" name="NSIM">     4</i>
   <i type="int" name="NBLK">    -1</i>
   <i type="logical" name="LPLANE"> T  </i>
   <i type="logical" name="LSCALAPACK"> T  </i>
   <i type="logical" name="LSCAAWARE"> F  </i>
   <i type="logical" name="LSCALU"> F  </i>
   <i type="logical" name="LASYNC"> F  </i>
   <i type="logical" name="LORBITALREAL"> F  </i>
  </separator>
  <separator name="miscellaneous" >
   <i type="int" name="IDIOT">     3</i>
   <i type="int" name="PHON_NSTRUCT">    -1</i>
   <i type="logical" name="LMUSIC"> F  </i>
   <v name="POMASS">     12.01100000      1.00000000     14.00100000     16.00000000</v>
   <v name="DARWINR">      0.00000000      0.00000000      0.00000000      0.00000000</v>
   <v name="DARWINV">      1.00000000      1.00000000      1.00000000      1.00000000</v>
   <i type="logical" name="LCORR"> T  </i>
  </separator>
  <i type="logical" name="GGA_COMPAT"> T  </i>
  <i type="logical" name="LBERRY"> F  </i>
  <i type="int" name="ICORELEVEL">     0</i>
  <i type="logical" name="LDAU"> F  </i>
  <i type="int" name="I_CONSTRAINED_M">     0</i>
  <separator name="electronic exchange-correlation" >
   <i type="string" name="GGA">--</i>
   <i type="int" name="VOSKOWN">     0</i>
   <i type="logical" name="LHFCALC"> F  </i>
   <i type="string" name="PRECFOCK"></i>
   <i type="logical" name="LSYMGRAD"> F  </i>
   <i type="logical" name="LHFONE"> F  </i>
   <i type="logical" name="LRHFCALC"> F  </i>
   <i type="logical" name="LTHOMAS"> F  </i>
   <i type="logical" name="LMODELHF"> F  </i>
   <i type="logical" name="LFOCKACE"> F  </i>
   <i name="ENCUT4O">     -1.00000000</i>
   <i type="int" name="EXXOEP">     0</i>
   <i type="int" name="FOURORBIT">     0</i>
   <i name="AEXX">      0.00000000</i>
   <i name="HFALPHA">      0.00000000</i>
   <i name="MCALPHA">      0.00000000</i>
   <i name="ALDAX">      1.00000000</i>
   <i name="AGGAX">      1.00000000</i>
   <i name="ALDAC">      1.00000000</i>
   <i name="AGGAC">      1.00000000</i>
   <i type="int" name="NKREDX">     1</i>
   <i type="int" name="NKREDY">     1</i>
   <i type="int" name="NKREDZ">     1</i>
   <i type="logical" name="SHIFTRED"> F  </i>
   <i type="logical" name="ODDONLY"> F  </i>
   <i type="logical" name="EVENONLY"> F  </i>
   <i type="int" name="LMAXFOCK">     0</i>
   <i type="int" name="NMAXFOCKAE">     0</i>
   <i type="logical" name="LFOCKAEDFT"> F  </i>
   <i name="HFSCREEN">      0.00000000</i>
   <i name="HFSCREENC">      0.00000000</i>
   <i type="int" name="NBANDSGWLOW">     0</i>
  </separator>
  <separator name="vdW DFT" >
   <i type="logical" name="LUSE_VDW"> F  </i>
   <i type="int" name="IVDW_NL">     1</i>
   <i type="logical" name="LSPIN_VDW"> F  </i>
   <i name="Zab_VDW">     -0.84910000</i>
   <i name="PARAM1">      0.12340000</i>
   <i name="PARAM2">      1.00000000</i>
   <i name="PARAM3">      0.00000000</i>
  </separator>
  <separator name="model GW" >
   <i type="int" name="MODEL_GW">     0</i>
   <i name="MODEL_EPS0">     23.96835834</i>
   <i name="MODEL_ALPHA">      1.00000000</i>
  </separator>
  <separator name="linear response parameters" >
   <i type="logical" name="LEPSILON"> F  </i>
   <i type="logical" name="LRPA"> F  </i>
   <i type="logical" name="LNABLA"> F  </i>
   <i type="logical" name="LVEL"> F  </i>
   <i name="CSHIFT">      0.10000000</i>
   <i name="OMEGAMAX">     -1.00000000</i>
   <i name="DEG_THRESHOLD">      0.00200000</i>
   <i name="RTIME">     -0.10000000</i>
   <i name="WPLASMAI">      0.00000000</i>
   <v name="DFIELD">      0.00000000      0.00000000      0.00000000</v>
   <v name="WPLASMA">      0.00000000      0.00000000      0.00000000      0.00000000      0.00000000      0.00000000      0.00000000      0.00000000      0.00000000</v>
  </separator>
  <separator name="orbital magnetization" >
   <i type="logical" name="NUCIND"> F  </i>
   <v name="MAGPOS">      0.00000000      0.00000000      0.00000000</v>
   <i type="logical" name="LNICSALL"> T  </i>
   <i type="logical" name="ORBITALMAG"> F  </i>
   <i type="logical" name="LMAGBLOCH"> F  </i>
   <i type="logical" name="LCHIMAG"> F  </i>
   <i type="logical" name="LGAUGE"> T  </i>
   <i type="int" name="MAGATOM">     0</i>
   <v name="MAGDIPOL">      0.00000000      0.00000000      0.00000000</v>
   <v name="AVECCONST">      0.00000000      0.00000000      0.00000000</v>
  </separator>
  <separator name="response functions" >
   <i type="logical" name="LALL_IN_ONE"> F  </i>
   <i type="int" name="IALL_IN_ONE">    -1</i>
   <i type="int" name="NBANDS_WAVE">    -1</i>
   <i type="logical" name="LFINITE_TEMPERATURE"> F  </i>
   <i type="logical" name="LADDER"> F  </i>
   <i type="logical" name="LRPAFORCE"> F  </i>
   <i type="logical" name="LFXC"> F  </i>
   <i type="logical" name="LHARTREE"> T  </i>
   <i type="int" name="IBSE">     0</i>
   <v type="int" name="KPOINT">    -1     0     0     0</v>
   <i type="logical" name="LTCTC"> F  </i>
   <i type="logical" name="LTCTE"> F  </i>
   <i type="logical" name="LTETE"> F  </i>
   <i type="logical" name="LTRIPLET"> F  </i>
   <i type="logical" name="LFXCEPS"> F  </i>
   <i type="logical" name="LFXHEG"> F  </i>
   <i type="int" name="NATURALO">     2</i>
   <i type="logical" name="LHOLEGF"> F  </i>
   <i type="logical" name="L2ORDER"> F  </i>
   <i type="logical" name="LDMP1"> F  </i>
   <i type="logical" name="LMP2LT"> F  </i>
   <i type="logical" name="LSMP2LT"> F  </i>
   <i type="logical" name="LGWLF"> F  </i>
   <i name="ENCUTGW">     -1.60000002</i>
   <i name="ENCUTGWSOFT">     -1.60000002</i>
   <i name="ENCUTLF">     -1.00000000</i>
   <i type="logical" name="LESF_SPLINES"> F  </i>
   <i type="int" name="LMAXMP2">    -1</i>
   <i name="SCISSOR">      0.00000000</i>
   <i type="int" name="NOMEGA">     0</i>
   <i type="int" name="NOMEGAR">     0</i>
   <i type="int" name="NBANDSGW">    -1</i>
   <i type="int" name="NBANDSO">    -1</i>
   <i type="int" name="NBANDSV">    -1</i>
   <i type="int" name="NELMGW">     1</i>
   <i type="int" name="NELMHF">     1</i>
   <i type="int" name="DIM">     3</i>
   <i type="int" name="IESPILON">     4</i>
   <i type="int" name="ANTIRES">     0</i>
   <i name="OMEGAMAX">    -30.00000000</i>
   <i name="OMEGAMIN">    -30.00000000</i>
   <i name="OMEGATL">   -200.00000000</i>
   <i type="int" name="OMEGAGRID">     0</i>
   <i name="CSHIFT">     -0.10000000</i>
   <i type="logical" name="LSELFENERGY"> F  </i>
   <i type="logical" name="LSPECTRAL"> F  </i>
   <i type="logical" name="LSPECTRALGW"> F  </i>
   <i type="logical" name="LSINGLES"> F  </i>
   <i type="logical" name="LFERMIGW"> F  </i>
   <i type="logical" name="ODDONLYGW"> F  </i>
   <i type="logical" name="EVENONLYGW"> F  </i>
   <i type="int" name="NKREDLFX">     1</i>
   <i type="int" name="NKREDLFY">     1</i>
   <i type="int" name="NKREDLFZ">     1</i>
   <i type="int" name="MAXMEM">  2800</i>
   <i type="int" name="TELESCOPE">     0</i>
   <i type="int" name="NTAUPAR">    -1</i>
   <i type="int" name="NOMEGAPAR">    -1</i>
   <i name="DAMP_NEWTON">      0.80000001</i>
   <i name="LAMBDA">      1.00000000</i>
  </separator>
  <separator name="External order field" >
   <i name="OFIELD_KAPPA">      0.00000000</i>
   <v name="OFIELD_K">      0.00000000      0.00000000      0.00000000</v>
   <i name="OFIELD_Q6_NEAR">      0.00000000</i>
   <i name="OFIELD_Q6_FAR">      0.00000000</i>
   <i name="OFIELD_A">      0.00000000</i>
  </separator>
  <separator name="optional k-points parameters" >
   <i type="int" name="KPOINTS_OPT_MODE">     1</i>
   <i type="logical" name="LKPOINTS_OPT"> F  </i>
  </separator>
 </parameters>
 <atominfo>
  <atoms>      97 </atoms>
  <types>       4 </types>
  <array name="atoms" >
   <dimension dim="1">ion</dimension>
   <field type="string">element</field>
   <field type="int">atomtype</field>
   <set>
    <rc><c>C </c><c>   1</c></rc>
    <rc><c>C </c><c>   1</c></rc>
    <rc><c>C </c><c>   1</c></rc>
    <rc><c>C </c><c>   1</c></rc>
    <rc><c>C </c><c>   1</c></rc>
    <rc><c>C </c><c>   1</c></rc>
    <rc><c>C </c><c>   1</c></rc>
    <rc><c>C </c><c>   1</c></rc>
    <rc><c>C </c><c>   1</c></rc>
    <rc><c>C </c><c>   1</c></rc>
    <rc><c>C </c><c>   1</c></rc>
    <rc><c>C </c><c>   1</c></rc>
    <rc><c>C </c><c>   1</c></rc>
    <rc><c>C </c><c>   1</c></rc>
    <rc><c>C </c><c>   1</c></rc>
    <rc><c>C </c><c>   1</c></rc>
    <rc><c>C </c><c>   1</c></rc>
    <rc><c>C </c><c>   1</c></rc>
    <rc><c>C </c><c>   1</c></rc>
    <rc><c>C </c><c>   1</c></rc>
    <rc><c>C </c><c>   1</c></rc>
    <rc><c>C </c><c>   1</c></rc>
    <rc><c>C </c><c>   1</c></rc>
    <rc><c>C </c><c>   1</c></rc>
    <rc><c>C </c><c>   1</c></rc>
    <rc><c>C </c><c>   1</c></rc>
    <rc><c>C </c><c>   1</c></rc>
    <rc><c>C </c><c>   1</c></rc>
    <rc><c>C </c><c>   1</c></rc>
    <rc><c>C </c><c>   1</c></rc>
    <rc><c>C </c><c>   1</c></rc>
    <rc><c>C </c><c>   1</c></rc>
    <rc><c>C </c><c>   1</c></rc>
    <rc><c>C </c><c>   1</c></rc>
    <rc><c>C </c><c>   1</c></rc>
    <rc><c>C </c><c>   1</c></rc>
    <rc><c>C </c><c>   1</c></rc>
    <rc><c>C </c><c>   1</c></rc>
    <rc><c>C </c><c>   1</c></rc>
    <rc><c>C </c><c>   1</c></rc>
    <rc><c>C </c><c>   1</c></rc>
    <rc><c>C </c><c>   1</c></rc>
    <rc><c>C </c><c>   1</c></rc>
    <rc><c>C </c><c>   1</c></rc>
    <rc><c>C </c><c>   1</c></rc>
    <rc><c>C </c><c>   1</c></rc>
    <rc><c>C </c><c>   1</c></rc>
    <rc><c>C </c><c>   1</c></rc>
    <rc><c>C </c><c>   1</c></rc>
    <rc><c>C </c><c>   1</c></rc>
    <rc><c>C </c><c>   1</c></rc>
    <rc><c>C </c><c>   1</c></rc>
    <rc><c>C </c><c>   1</c></rc>
    <rc><c>C </c><c>   1</c></rc>
    <rc><c>C </c><c>   1</c></rc>
    <rc><c>C </c><c>   1</c></rc>
    <rc><c>C </c><c>   1</c></rc>
    <rc><c>C </c><c>   1</c></rc>
    <rc><c>C </c><c>   1</c></rc>
    <rc><c>C </c><c>   1</c></rc>
    <rc><c>C </c><c>   1</c></rc>
    <rc><c>C </c><c>   1</c></rc>
    <rc><c>C </c><c>   1</c></rc>
    <rc><c>C </c><c>   1</c></rc>
    <rc><c>C </c><c>   1</c></rc>
    <rc><c>C </c><c>   1</c></rc>
    <rc><c>C </c><c>   1</c></rc>
    <rc><c>C </c><c>   1</c></rc>
    <rc><c>C </c><c>   1</c></rc>
    <rc><c>C </c><c>   1</c></rc>
    <rc><c>C </c><c>   1</c></rc>
    <rc><c>C </c><c>   1</c></rc>
    <rc><c>C </c><c>   1</c></rc>
    <rc><c>C </c><c>   1</c></rc>
    <rc><c>C </c><c>   1</c></rc>
    <rc><c>C </c><c>   1</c></rc>
    <rc><c>C </c><c>   1</c></rc>
    <rc><c>C </c><c>   1</c></rc>
    <rc><c>C </c><c>   1</c></rc>
    <rc><c>C </c><c>   1</c></rc>
    <rc><c>C </c><c>   1</c></rc>
    <rc><c>C </c><c>   1</c></rc>
    <rc><c>C </c><c>   1</c></rc>
    <rc><c>C </c><c>   1</c></rc>
    <rc><c>C </c><c>   1</c></rc>
    <rc><c>C </c><c>   1</c></rc>
    <rc><c>H </c><c>   2</c></rc>
    <rc><c>H </c><c>   2</c></rc>
    <rc><c>H </c><c>   2</c></rc>
    <rc><c>H </c><c>   2</c></rc>
    <rc><c>H </c><c>   2</c></rc>
    <rc><c>H </c><c>   2</c></rc>
    <rc><c>H </c><c>   2</c></rc>
    <rc><c>H </c><c>   2</c></rc>
    <rc><c>N </c><c>   3</c></rc>
    <rc><c>N </c><c>   3</c></rc>
    <rc><c>O </c><c>   4</c></rc>
   </set>
  </array>
  <array name="atomtypes" >
   <dimension dim="1">type</dimension>
   <field type="int">atomspertype</field>
   <field type="string">element</field>
   <field>mass</field>
   <field>valence</field>
   <field type="string">pseudopotential</field>
   <set>
    <rc><c>  86</c><c>C </c><c>     12.01100000</c><c>      4.00000000</c><c>  PAW_PBE C 08Apr2002                   </c></rc>
    <rc><c>   8</c><c>H </c><c>      1.00000000</c><c>      1.00000000</c><c>  PAW_PBE H 15Jun2001                   </c></rc>
    <rc><c>   2</c><c>N </c><c>     14.00100000</c><c>      5.00000000</c><c>  PAW_PBE N 08Apr2002                   </c></rc>
    <rc><c>   1</c><c>O </c><c>     16.00000000</c><c>      6.00000000</c><c>  PAW_PBE O 08Apr2002                   </c></rc>
   </set>
  </array>
 </atominfo>
 <structure name="initialpos" >
  <crystal>
   <varray name="basis" >
    <v>      17.27103806       0.00000000       0.00000000 </v>
    <v>      -8.63551903      14.95715771       0.00000000 </v>
    <v>       0.00000000       0.00000000      15.00000000 </v>
   </varray>
   <i name="volume">   3874.88459904 </i>
   <varray name="rec_basis" >
    <v>       0.05790040       0.03342881       0.00000000 </v>
    <v>       0.00000000       0.06685762       0.00000000 </v>
    <v>       0.00000000       0.00000000       0.06666667 </v>
   </varray>
  </crystal>
  <varray name="positions" >
   <v>       0.99939306       0.99904279       0.49521262 </v>
   <v>       0.99927557       0.14175484       0.49592219 </v>
   <v>       0.99946024       0.28479183       0.49677792 </v>
   <v>       0.99941679       0.42768003       0.49736578 </v>
   <v>       0.99933452       0.57043396       0.49730184 </v>
   <v>       0.99961537       0.71325633       0.49661400 </v>
   <v>       0.99982386       0.85651379       0.49551018 </v>
   <v>       0.14296007       0.00014079       0.49595951 </v>
   <v>       0.14282112       0.14284723       0.49514608 </v>
   <v>       0.14228553       0.28523145       0.49495154 </v>
   <v>       0.14246091       0.42857017       0.49557386 </v>
   <v>       0.14255571       0.57090219       0.49662612 </v>
   <v>       0.14247930       0.71368468       0.49725132 </v>
   <v>       0.14250385       0.85687961       0.49703081 </v>
   <v>       0.28578261       0.00018850       0.49616210 </v>
   <v>       0.28648394       0.14344310       0.49473716 </v>
   <v>       0.28648151       0.28758922       0.49266396 </v>
   <v>       0.28466328       0.42868361       0.49098864 </v>
   <v>       0.28712814       0.57185414       0.49288906 </v>
   <v>       0.28542562       0.71464811       0.49539322 </v>
   <v>       0.28485745       0.85723961       0.49654192 </v>
   <v>       0.42830771       0.99961632       0.49570051 </v>
   <v>       0.42952446       0.14335656       0.49514154 </v>
   <v>       0.42888002       0.28388716       0.49408245 </v>
   <v>       0.42701999       0.85621009       0.49492534 </v>
   <v>       0.57042936       0.99871301       0.49536680 </v>
   <v>       0.57125110       0.14181313       0.49592092 </v>
   <v>       0.57510682       0.28794953       0.49456823 </v>
   <v>       0.56921266       0.85446734       0.49304574 </v>
   <v>       0.71256397       0.99757043       0.49461166 </v>
   <v>       0.71377393       0.14114119       0.49645082 </v>
   <v>       0.71436199       0.28396324       0.49623807 </v>
   <v>       0.71033928       0.42326800       0.49333597 </v>
   <v>       0.71536054       0.57003176       0.48477415 </v>
   <v>       0.71642383       0.71339882       0.48205424 </v>
   <v>       0.71136832       0.85458482       0.49015209 </v>
   <v>       0.85591487       0.99826771       0.49425919 </v>
   <v>       0.85614541       0.14119333       0.49619905 </v>
   <v>       0.85670862       0.28425391       0.49708876 </v>
   <v>       0.85652744       0.42711206       0.49656928 </v>
   <v>       0.85578253       0.56936359       0.49459427 </v>
   <v>       0.85735714       0.71300229       0.49175423 </v>
   <v>       0.85633375       0.85544347       0.49227092 </v>
   <v>       0.04734092       0.09454997       0.49560587 </v>
   <v>       0.04677756       0.23699613       0.49612664 </v>
   <v>       0.04690927       0.38024569       0.49691107 </v>
   <v>       0.04721355       0.52304668       0.49733742 </v>
   <v>       0.04710547       0.66581794       0.49734671 </v>
   <v>       0.04711371       0.80870713       0.49658807 </v>
   <v>       0.04740927       0.95177659       0.49569128 </v>
   <v>       0.19079828       0.09531856       0.49521133 </v>
   <v>       0.19041946       0.23819699       0.49428058 </v>
   <v>       0.18914200       0.38042947       0.49405841 </v>
   <v>       0.19075295       0.52407879       0.49531020 </v>
   <v>       0.19006178       0.66633934       0.49647273 </v>
   <v>       0.18989798       0.80922335       0.49712043 </v>
   <v>       0.19051330       0.95232136       0.49647805 </v>
   <v>       0.33408476       0.09589134       0.49532960 </v>
   <v>       0.33538143       0.23905476       0.49373768 </v>
   <v>       0.33067831       0.38054458       0.49026723 </v>
   <v>       0.33125644       0.52325557       0.48945401 </v>
   <v>       0.33626686       0.67005793       0.49391916 </v>
   <v>       0.33225228       0.80947050       0.49572713 </v>
   <v>       0.33287464       0.95231486       0.49622605 </v>
   <v>       0.47622362       0.09476387       0.49561834 </v>
   <v>       0.47738261       0.23903451       0.49458858 </v>
   <v>       0.47150276       0.80548913       0.49396283 </v>
   <v>       0.47541852       0.95163512       0.49530451 </v>
   <v>       0.61837029       0.09385621       0.49605832 </v>
   <v>       0.61961612       0.23722669       0.49568856 </v>
   <v>       0.61787358       0.80979592       0.49049030 </v>
   <v>       0.61711735       0.95012159       0.49442284 </v>
   <v>       0.76089424       0.09328807       0.49586805 </v>
   <v>       0.76177788       0.23621152       0.49684068 </v>
   <v>       0.76120311       0.37879486       0.49563952 </v>
   <v>       0.75943526       0.52149829       0.49125049 </v>
   <v>       0.76183991       0.66468743       0.48567721 </v>
   <v>       0.76036727       0.80618534       0.48797581 </v>
   <v>       0.76024798       0.95013237       0.49314134 </v>
   <v>       0.90373382       0.09341246       0.49562148 </v>
   <v>       0.90409493       0.23660905       0.49689039 </v>
   <v>       0.90408572       0.37978848       0.49726549 </v>
   <v>       0.90396776       0.52253416       0.49655701 </v>
   <v>       0.90403968       0.66489416       0.49454284 </v>
   <v>       0.90428642       0.80823598       0.49325999 </v>
   <v>       0.90391419       0.95076832       0.49418690 </v>
   <v>       0.46770817       0.35654397       0.49438754 </v>
   <v>       0.40330201       0.41966140       0.48967087 </v>
   <v>       0.40392273       0.55886887       0.48569008 </v>
   <v>       0.64403558       0.67554709       0.47463609 </v>
   <v>       0.64271415       0.53286927       0.47818109 </v>
   <v>       0.57885451       0.73714765       0.48862569 </v>
   <v>       0.51368052       0.59900038       0.59651500 </v>
   <v>       0.58196634       0.56930212       0.57334553 </v>
   <v>       0.42633444       0.71503877       0.49379498 </v>
   <v>       0.62033845       0.37835517       0.49308384 </v>
   <v>       0.51877023       0.55044876       0.56977595 </v>
  </varray>
  <varray name="selective"  type="logical" >
   <v type="logical" >  T  T  T </v>
   <v type="logical" >  T  T  T </v>
   <v type="logical" >  T  T  T </v>
   <v type="logical" >  T  T  T </v>
   <v type="logical" >  T  T  T </v>
   <v type="logical" >  T  T  T </v>
   <v type="logical" >  T  T  T </v>
   <v type="logical" >  T  T  T </v>
   <v type="logical" >  T  T  T </v>
   <v type="logical" >  T  T  T </v>
   <v type="logical" >  T  T  T </v>
   <v type="logical" >  T  T  T </v>
   <v type="logical" >  T  T  T </v>
   <v type="logical" >  T  T  T </v>
   <v type="logical" >  T  T  T </v>
   <v type="logical" >  T  T  T </v>
   <v type="logical" >  T  T  T </v>
   <v type="logical" >  T  T  T </v>
   <v type="logical" >  T  T  T </v>
   <v type="logical" >  T  T  T </v>
   <v type="logical" >  T  T  T </v>
   <v type="logical" >  T  T  T </v>
   <v type="logical" >  T  T  T </v>
   <v type="logical" >  T  T  T </v>
   <v type="logical" >  T  T  T </v>
   <v type="logical" >  T  T  T </v>
   <v type="logical" >  T  T  T </v>
   <v type="logical" >  T  T  T </v>
   <v type="logical" >  T  T  T </v>
   <v type="logical" >  T  T  T </v>
   <v type="logical" >  T  T  T </v>
   <v type="logical" >  T  T  T </v>
   <v type="logical" >  T  T  T </v>
   <v type="logical" >  T  T  T </v>
   <v type="logical" >  T  T  T </v>
   <v type="logical" >  T  T  T </v>
   <v type="logical" >  T  T  T </v>
   <v type="logical" >  T  T  T </v>
   <v type="logical" >  T  T  T </v>
   <v type="logical" >  T  T  T </v>
   <v type="logical" >  T  T  T </v>
   <v type="logical" >  T  T  T </v>
   <v type="logical" >  T  T  T </v>
   <v type="logical" >  T  T  T </v>
   <v type="logical" >  T  T  T </v>
   <v type="logical" >  T  T  T </v>
   <v type="logical" >  T  T  T </v>
   <v type="logical" >  T  T  T </v>
   <v type="logical" >  T  T  T </v>
   <v type="logical" >  T  T  T </v>
   <v type="logical" >  T  T  T </v>
   <v type="logical" >  T  T  T </v>
   <v type="logical" >  T  T  T </v>
   <v type="logical" >  T  T  T </v>
   <v type="logical" >  T  T  T </v>
   <v type="logical" >  T  T  T </v>
   <v type="logical" >  T  T  T </v>
   <v type="logical" >  T  T  T </v>
   <v type="logical" >  T  T  T </v>
   <v type="logical" >  T  T  T </v>
   <v type="logical" >  T  T  T </v>
   <v type="logical" >  T  T  T </v>
   <v type="logical" >  T  T  T </v>
   <v type="logical" >  T  T  T </v>
   <v type="logical" >  T  T  T </v>
   <v type="logical" >  T  T  T </v>
   <v type="logical" >  T  T  T </v>
   <v type="logical" >  T  T  T </v>
   <v type="logical" >  T  T  T </v>
   <v type="logical" >  T  T  T </v>
   <v type="logical" >  T  T  T </v>
   <v type="logical" >  T  T  T </v>
   <v type="logical" >  T  T  T </v>
   <v type="logical" >  T  T  T </v>
   <v type="logical" >  T  T  T </v>
   <v type="logical" >  T  T  T </v>
   <v type="logical" >  T  T  T </v>
   <v type="logical" >  T  T  T </v>
   <v type="logical" >  T  T  T </v>
   <v type="logical" >  T  T  T </v>
   <v type="logical" >  T  T  T </v>
   <v type="logical" >  T  T  T </v>
   <v type="logical" >  T  T  T </v>
   <v type="logical" >  T  T  T </v>
   <v type="logical" >  T  T  T </v>
   <v type="logical" >  T  T  T </v>
   <v type="logical" >  T  T  T </v>
   <v type="logical" >  T  T  T </v>
   <v type="logical" >  T  T  T </v>
   <v type="logical" >  T  T  T </v>
   <v type="logical" >  T  T  T </v>
   <v type="logical" >  T  T  T </v>
   <v type="logical" >  T  T  T </v>
   <v type="logical" >  T  T  T </v>
   <v type="logical" >  T  T  T </v>
   <v type="logical" >  T  T  T </v>
   <v type="logical" >  T  T  T </v>
  </varray>
  <nose>
   <v>      -3.00000000       0.00000000       0.00010000       0.00010000 </v>
  </nose>
 </structure>
 <calculation>
  <scstep>
   <time name="dav">   78.10   79.31</time>
   <time name="total">   83.59   84.92</time>
   <energy>
    <i name="alphaZ">    175.87611319 </i>
    <i name="ewald">  36453.45149280 </i>
    <i name="hartreedc"> -46654.21314634 </i>
    <i name="XCdc">   1223.78445411 </i>
    <i name="pawpsdc">  10101.41315093 </i>
    <i name="pawaedc"> -10154.35997595 </i>
    <i name="eentropy">     -0.04861551 </i>
    <i name="bandstr">  -1607.14559202 </i>
    <i name="atom">  13716.13071916 </i>
    <i name="e_fr_energy">   3254.88860036 </i>
    <i name="e_wo_entrp">   3254.93721587 </i>
    <i name="e_0_energy">   3254.91290812 </i>
   </energy>
  </scstep>
  <scstep>
   <time name="dav">  101.40  103.09</time>
   <time name="total">  101.40  103.09</time>
   <energy>
    <i name="e_fr_energy">   -251.57778724 </i>
    <i name="e_wo_entrp">   -251.57778062 </i>
    <i name="e_0_energy">   -251.57778393 </i>
   </energy>
  </scstep>
  <scstep>
   <time name="dav">   87.44   88.74</time>
   <time name="total">   87.44   88.75</time>
   <energy>
    <i name="e_fr_energy">   -864.40262058 </i>
    <i name="e_wo_entrp">   -864.40260956 </i>
    <i name="e_0_energy">   -864.40261507 </i>
   </energy>
  </scstep>
  <scstep>
   <time name="dav">   88.68   90.09</time>
   <time name="total">   88.68   90.09</time>
   <energy>
    <i name="e_fr_energy">   -886.54538399 </i>
    <i name="e_wo_entrp">   -886.54535336 </i>
    <i name="e_0_energy">   -886.54536867 </i>
   </energy>
  </scstep>
  <scstep>
   <time name="dav">   96.84   98.42</time>
   <time name="total">  102.50  104.15</time>
   <energy>
    <i name="e_fr_energy">   -887.17393391 </i>
    <i name="e_wo_entrp">   -887.17390043 </i>
    <i name="e_0_energy">   -887.17391717 </i>
   </energy>
  </scstep>
  <scstep>
   <time name="dav">   84.74   86.00</time>
   <time name="total">   96.36   97.77</time>
   <energy>
    <i name="e_fr_energy">   -869.83424420 </i>
    <i name="e_wo_entrp">   -869.82894973 </i>
    <i name="e_0_energy">   -869.83159696 </i>
   </energy>
  </scstep>
  <scstep>
   <time name="dav">   83.06   84.48</time>
   <time name="total">   94.79   96.42</time>
   <energy>
    <i name="e_fr_energy">   -847.69089841 </i>
    <i name="e_wo_entrp">   -847.69082925 </i>
    <i name="e_0_energy">   -847.69086383 </i>
   </energy>
  </scstep>
  <scstep>
   <time name="dav">   85.06   86.42</time>
   <time name="total">   96.72   98.28</time>
   <energy>
    <i name="e_fr_energy">   -842.86439504 </i>
    <i name="e_wo_entrp">   -842.86439258 </i>
    <i name="e_0_energy">   -842.86439381 </i>
   </energy>
  </scstep>
  <scstep>
   <time name="dav">   84.30   85.64</time>
   <time name="total">   95.62   97.10</time>
   <energy>
    <i name="e_fr_energy">   -842.74703140 </i>
    <i name="e_wo_entrp">   -842.74702946 </i>
    <i name="e_0_energy">   -842.74703043 </i>
   </energy>
  </scstep>
  <scstep>
   <time name="dav">   82.65   84.03</time>
   <time name="total">   93.33   94.89</time>
   <energy>
    <i name="e_fr_energy">   -842.65921273 </i>
    <i name="e_wo_entrp">   -842.65921073 </i>
    <i name="e_0_energy">   -842.65921173 </i>
   </energy>
  </scstep>
  <scstep>
   <time name="dav">   82.86   84.23</time>
   <time name="total">   93.97   95.46</time>
   <energy>
    <i name="e_fr_energy">   -842.64722258 </i>
    <i name="e_wo_entrp">   -842.64722085 </i>
    <i name="e_0_energy">   -842.64722171 </i>
   </energy>
  </scstep>
  <scstep>
   <time name="dav">   86.54   88.04</time>
   <time name="total">   98.00   99.67</time>
   <energy>
    <i name="e_fr_energy">   -842.64639169 </i>
    <i name="e_wo_entrp">   -842.64639000 </i>
    <i name="e_0_energy">   -842.64639084 </i>
   </energy>
  </scstep>
  <scstep>
   <time name="dav">   86.02   87.56</time>
   <time name="total">   98.24   99.95</time>
   <energy>
    <i name="e_fr_energy">   -842.64625541 </i>
    <i name="e_wo_entrp">   -842.64625368 </i>
    <i name="e_0_energy">   -842.64625454 </i>
   </energy>
  </scstep>
  <scstep>
   <time name="dav">   84.43   85.67</time>
   <time name="total">   96.60   98.07</time>
   <energy>
    <i name="e_fr_energy">   -842.64634683 </i>
    <i name="e_wo_entrp">   -842.64634511 </i>
    <i name="e_0_energy">   -842.64634597 </i>
   </energy>
  </scstep>
  <scstep>
   <time name="dav">   82.44   83.79</time>
   <time name="total">   94.63   96.15</time>
   <energy>
    <i name="e_fr_energy">   -842.64638964 </i>
    <i name="e_wo_entrp">   -842.64638791 </i>
    <i name="e_0_energy">   -842.64638878 </i>
   </energy>
  </scstep>
  <scstep>
   <time name="dav">   85.20   86.53</time>
   <time name="total">   97.38   98.95</time>
   <energy>
    <i name="e_fr_energy">   -842.64639155 </i>
    <i name="e_wo_entrp">   -842.64638982 </i>
    <i name="e_0_energy">   -842.64639068 </i>
   </energy>
  </scstep>
  <scstep>
   <time name="dav">   84.56   85.78</time>
   <time name="total">   90.73   92.02</time>
   <energy>
    <i name="alphaZ">    175.87611319 </i>
    <i name="ewald">  36453.45149280 </i>
    <i name="hartreedc"> -48165.39279163 </i>
    <i name="XCdc">   1273.79928326 </i>
    <i name="pawpsdc">  37251.28469836 </i>
    <i name="pawaedc"> -37315.09469829 </i>
    <i name="eentropy">     -0.00000173 </i>
    <i name="bandstr">  -4232.70120641 </i>
    <i name="atom">  13716.13071916 </i>
    <i name="e_fr_energy">   -842.64639131 </i>
    <i name="e_wo_entrp">   -842.64638958 </i>
    <i name="e_0_energy">   -842.64639044 </i>
   </energy>
  </scstep>
  <structure>
   <crystal>
    <varray name="basis" >
     <v>      17.27103806       0.00000000       0.00000000 </v>
     <v>      -8.63551903      14.95715771       0.00000000 </v>
     <v>       0.00000000       0.00000000      15.00000000 </v>
    </varray>
    <i name="volume">   3874.88459904 </i>
    <varray name="rec_basis" >
     <v>       0.05790040       0.03342881       0.00000000 </v>
     <v>       0.00000000       0.06685762       0.00000000 </v>
     <v>       0.00000000       0.00000000       0.06666667 </v>
    </varray>
   </crystal>
   <varray name="positions" >
    <v>       0.99939306       0.99904279       0.49521262 </v>
    <v>       0.99927557       0.14175484       0.49592219 </v>
    <v>       0.99946024       0.28479183       0.49677792 </v>
    <v>       0.99941679       0.42768003       0.49736578 </v>
    <v>       0.99933452       0.57043396       0.49730184 </v>
    <v>       0.99961537       0.71325633       0.49661400 </v>
    <v>       0.99982386       0.85651379       0.49551018 </v>
    <v>       0.14296007       0.00014079       0.49595951 </v>
    <v>       0.14282112       0.14284723       0.49514608 </v>
    <v>       0.14228553       0.28523145       0.49495154 </v>
    <v>       0.14246091       0.42857017       0.49557386 </v>
    <v>       0.14255571       0.57090219       0.49662612 </v>
    <v>       0.14247930       0.71368468       0.49725132 </v>
    <v>       0.14250385       0.85687961       0.49703081 </v>
    <v>       0.28578261       0.00018850       0.49616210 </v>
    <v>       0.28648394       0.14344310       0.49473716 </v>
    <v>       0.28648151       0.28758922       0.49266396 </v>
    <v>       0.28466328       0.42868361       0.49098864 </v>
    <v>       0.28712814       0.57185414       0.49288906 </v>
    <v>       0.28542562       0.71464811       0.49539322 </v>
    <v>       0.28485745       0.85723961       0.49654192 </v>
    <v>       0.42830771       0.99961632       0.49570051 </v>
    <v>       0.42952446       0.14335656       0.49514154 </v>
    <v>       0.42888002       0.28388716       0.49408245 </v>
    <v>       0.42701999       0.85621009       0.49492534 </v>
    <v>       0.57042936       0.99871301       0.49536680 </v>
    <v>       0.57125110       0.14181313       0.49592092 </v>
    <v>       0.57510682       0.28794953       0.49456823 </v>
    <v>       0.56921266       0.85446734       0.49304574 </v>
    <v>       0.71256397       0.99757043       0.49461166 </v>
    <v>       0.71377393       0.14114119       0.49645082 </v>
    <v>       0.71436199       0.28396324       0.49623807 </v>
    <v>       0.71033928       0.42326800       0.49333597 </v>
    <v>       0.71536054       0.57003176       0.48477415 </v>
    <v>       0.71642383       0.71339882       0.48205424 </v>
    <v>       0.71136832       0.85458482       0.49015209 </v>
    <v>       0.85591487       0.99826771       0.49425919 </v>
    <v>       0.85614541       0.14119333       0.49619905 </v>
    <v>       0.85670862       0.28425391       0.49708876 </v>
    <v>       0.85652744       0.42711206       0.49656928 </v>
    <v>       0.85578253       0.56936359       0.49459427 </v>
    <v>       0.85735714       0.71300229       0.49175423 </v>
    <v>       0.85633375       0.85544347       0.49227092 </v>
    <v>       0.04734092       0.09454997       0.49560587 </v>
    <v>       0.04677756       0.23699613       0.49612664 </v>
    <v>       0.04690927       0.38024569       0.49691107 </v>
    <v>       0.04721355       0.52304668       0.49733742 </v>
    <v>       0.04710547       0.66581794       0.49734671 </v>
    <v>       0.04711371       0.80870713       0.49658807 </v>
    <v>       0.04740927       0.95177659       0.49569128 </v>
    <v>       0.19079828       0.09531856       0.49521133 </v>
    <v>       0.19041946       0.23819699       0.49428058 </v>
    <v>       0.18914200       0.38042947       0.49405841 </v>
    <v>       0.19075295       0.52407879       0.49531020 </v>
    <v>       0.19006178       0.66633934       0.49647273 </v>
    <v>       0.18989798       0.80922335       0.49712043 </v>
    <v>       0.19051330       0.95232136       0.49647805 </v>
    <v>       0.33408476       0.09589134       0.49532960 </v>
    <v>       0.33538143       0.23905476       0.49373768 </v>
    <v>       0.33067831       0.38054458       0.49026723 </v>
    <v>       0.33125644       0.52325557       0.48945401 </v>
    <v>       0.33626686       0.67005793       0.49391916 </v>
    <v>       0.33225228       0.80947050       0.49572713 </v>
    <v>       0.33287464       0.95231486       0.49622605 </v>
    <v>       0.47622362       0.09476387       0.49561834 </v>
    <v>       0.47738261       0.23903451       0.49458858 </v>
    <v>       0.47150276       0.80548913       0.49396283 </v>
    <v>       0.47541852       0.95163512       0.49530451 </v>
    <v>       0.61837029       0.09385621       0.49605832 </v>
    <v>       0.61961612       0.23722669       0.49568856 </v>
    <v>       0.61787358       0.80979592       0.49049030 </v>
    <v>       0.61711735       0.95012159       0.49442284 </v>
    <v>       0.76089424       0.09328807       0.49586805 </v>
    <v>       0.76177788       0.23621152       0.49684068 </v>
    <v>       0.76120311       0.37879486       0.49563952 </v>
    <v>       0.75943526       0.52149829       0.49125049 </v>
    <v>       0.76183991       0.66468743       0.48567721 </v>
    <v>       0.76036727       0.80618534       0.48797581 </v>
    <v>       0.76024798       0.95013237       0.49314134 </v>
    <v>       0.90373382       0.09341246       0.49562148 </v>
    <v>       0.90409493       0.23660905       0.49689039 </v>
    <v>       0.90408572       0.37978848       0.49726549 </v>
    <v>       0.90396776       0.52253416       0.49655701 </v>
    <v>       0.90403968       0.66489416       0.49454284 </v>
    <v>       0.90428642       0.80823598       0.49325999 </v>
    <v>       0.90391419       0.95076832       0.49418690 </v>
    <v>       0.46770817       0.35654397       0.49438754 </v>
    <v>       0.40330201       0.41966140       0.48967087 </v>
    <v>       0.40392273       0.55886887       0.48569008 </v>
    <v>       0.64403558       0.67554709       0.47463609 </v>
    <v>       0.64271415       0.53286927       0.47818109 </v>
    <v>       0.57885451       0.73714765       0.48862569 </v>
    <v>       0.51368052       0.59900038       0.59651500 </v>
    <v>       0.58196634       0.56930212       0.57334553 </v>
    <v>       0.42633444       0.71503877       0.49379498 </v>
    <v>       0.62033845       0.37835517       0.49308384 </v>
    <v>       0.51877023       0.55044876       0.56977595 </v>
   </varray>
  </structure>
  <varray name="forces" >
   <v>       0.00115954       0.00122099       0.00047897 </v>
   <v>      -0.00405958       0.00254739      -0.00065771 </v>
   <v>      -0.00136266       0.00007061      -0.00189236 </v>
   <v>      -0.00189830      -0.00200841      -0.00622640 </v>
   <v>      -0.00190956       0.00044033      -0.00377064 </v>
   <v>       0.00066253       0.00071533      -0.00140980 </v>
   <v>       0.00191747      -0.00100956      -0.00372197 </v>
   <v>       0.00133596      -0.00202311      -0.00198540 </v>
   <v>      -0.00060857       0.00295641      -0.00104157 </v>
   <v>       0.00029658       0.00445686      -0.00011906 </v>
   <v>       0.00102624      -0.00276993      -0.00246112 </v>
   <v>       0.00112703       0.00065075      -0.00054246 </v>
   <v>      -0.00129964       0.00305895      -0.00260989 </v>
   <v>       0.00116235      -0.00349874       0.00078485 </v>
   <v>      -0.00414161      -0.00038785      -0.00167710 </v>
   <v>      -0.00138127       0.00119591      -0.00078288 </v>
   <v>       0.00192499       0.00051720       0.00058000 </v>
   <v>       0.00405786       0.00292564       0.00109164 </v>
   <v>      -0.00011756      -0.00359486       0.00042763 </v>
   <v>       0.00109181       0.00050122      -0.00032021 </v>
   <v>      -0.00110822      -0.00234489      -0.00075871 </v>
   <v>      -0.00235352      -0.00256737      -0.00132118 </v>
   <v>       0.00042214       0.00060111      -0.00094071 </v>
   <v>      -0.00374143       0.00409828      -0.00001828 </v>
   <v>      -0.00053531       0.00004395      -0.00148008 </v>
   <v>       0.00140455       0.00023424      -0.00132399 </v>
   <v>       0.00240100       0.00524470       0.00008397 </v>
   <v>       0.00135581      -0.00403610      -0.00147766 </v>
   <v>       0.00125277      -0.00188579      -0.00031485 </v>
   <v>      -0.00476754      -0.00081387      -0.00150861 </v>
   <v>       0.00146286       0.00302294      -0.00299317 </v>
   <v>       0.00284310       0.00394745      -0.00131800 </v>
   <v>       0.00227558       0.00149249      -0.00293706 </v>
   <v>       0.00221753      -0.00285311      -0.00670609 </v>
   <v>      -0.00206956       0.00131247      -0.00559213 </v>
   <v>      -0.00028806      -0.00035532      -0.00196597 </v>
   <v>      -0.00046213       0.00070034      -0.00499180 </v>
   <v>       0.00099224       0.00411112      -0.00234978 </v>
   <v>      -0.00180464       0.00325996      -0.00101418 </v>
   <v>       0.00078254      -0.00049195      -0.00268721 </v>
   <v>      -0.00274843      -0.00193804      -0.00322609 </v>
   <v>      -0.00051040      -0.00135933      -0.00330974 </v>
   <v>       0.00118285      -0.00206534      -0.00266476 </v>
   <v>      -0.00112748      -0.00167865      -0.00402175 </v>
   <v>       0.00036556      -0.00125312      -0.00311582 </v>
   <v>       0.00136686       0.00004420      -0.00637100 </v>
   <v>       0.00256672       0.00274894      -0.00092798 </v>
   <v>      -0.00002795       0.00003181      -0.00197131 </v>
   <v>      -0.00162123       0.00056197      -0.00222071 </v>
   <v>      -0.00172115       0.00109487      -0.00332440 </v>
   <v>       0.00138446      -0.00032736      -0.00176741 </v>
   <v>       0.00064107      -0.00140118      -0.00284223 </v>
   <v>      -0.00325856       0.00144862       0.00178137 </v>
   <v>       0.00179668       0.00180452       0.00148743 </v>
   <v>      -0.00110703      -0.00289789      -0.00225769 </v>
   <v>      -0.00041358      -0.00061417      -0.00039592 </v>
   <v>       0.00032604       0.00061706      -0.00250042 </v>
   <v>       0.00059686      -0.00047922      -0.00113338 </v>
   <v>      -0.00044927      -0.00318303       0.00170830 </v>
   <v>      -0.00508736      -0.00202003       0.00488131 </v>
   <v>      -0.00137901       0.00042878       0.00456836 </v>
   <v>       0.00019457      -0.00212598       0.00220777 </v>
   <v>       0.00126913       0.00065975      -0.00108218 </v>
   <v>      -0.00087838       0.00026855       0.00021824 </v>
   <v>       0.00001016      -0.00010583      -0.00194797 </v>
   <v>       0.00193404      -0.00497102      -0.00079973 </v>
   <v>      -0.00024754       0.00073069      -0.00048582 </v>
   <v>       0.00102564      -0.00096213      -0.00061248 </v>
   <v>      -0.00233386      -0.00198260      -0.00212978 </v>
   <v>       0.00022827      -0.00235348      -0.00162017 </v>
   <v>      -0.00068476       0.00028856      -0.00011208 </v>
   <v>      -0.00053987       0.00114913      -0.00167848 </v>
   <v>      -0.00144503      -0.00076270      -0.00233160 </v>
   <v>      -0.00308515      -0.00500954       0.00002608 </v>
   <v>      -0.00201455      -0.00120411      -0.00242499 </v>
   <v>      -0.00267548       0.00180761      -0.00390570 </v>
   <v>      -0.00250831       0.00143356      -0.00420082 </v>
   <v>      -0.00050453      -0.00080586      -0.00266106 </v>
   <v>       0.00015054      -0.00306612      -0.00203450 </v>
   <v>      -0.00369226      -0.00233214      -0.00144232 </v>
   <v>       0.00027928       0.00044785      -0.00201969 </v>
   <v>       0.00086961      -0.00112753      -0.00285205 </v>
   <v>       0.00012275       0.00170231      -0.00224977 </v>
   <v>      -0.00216028       0.00109313      -0.00089978 </v>
   <v>      -0.00236020       0.00046159      -0.00214812 </v>
   <v>      -0.00077634       0.00005929      -0.00112559 </v>
   <v>      -0.00005334      -0.00312660      -0.00059212 </v>
   <v>       0.00293195       0.00146818       0.00721028 </v>
   <v>       0.00321505       0.00132269       0.00615007 </v>
   <v>       0.00077771      -0.00449599      -0.00564089 </v>
   <v>      -0.00177545       0.00093680      -0.01812268 </v>
   <v>       0.00075270      -0.00062251      -0.00035026 </v>
   <v>      -0.02658884       0.00914804       0.03971107 </v>
   <v>       0.04852436      -0.00628694       0.13221643 </v>
   <v>       0.00057051       0.00020268       0.00027651 </v>
   <v>      -0.00148092      -0.00100258      -0.00129440 </v>
   <v>       0.00290984       0.01091407      -0.02615662 </v>
  </varray>
  <varray name="stress" >
   <v>       1.05667069      -3.42119833       0.01993335 </v>
   <v>      -3.42119823      -5.27303725       0.00257200 </v>
   <v>       0.01993266       0.00257269      -0.18791163 </v>
  </varray>
  <energy>
   <i name="e_fr_energy">   -850.38550705 </i>
   <i name="e_wo_entrp">   -850.38550532 </i>
   <i name="e_0_energy">   -850.38550619 </i>
  </energy>
  <time name="totalsc"> 1786.39 1814.64</time>
 </calculation>
 <calculation>
  <scstep>
   <time name="dav">   78.00   79.25</time>
   <time name="total">   89.62   91.05</time>
   <energy>
    <i name="alphaZ">    175.87611319 </i>
    <i name="ewald">  36453.60451963 </i>
    <i name="hartreedc"> -48165.55407934 </i>
    <i name="XCdc">   1273.79925243 </i>
    <i name="pawpsdc">  37251.44858121 </i>
    <i name="pawaedc"> -37315.25838280 </i>
    <i name="eentropy">     -0.00000173 </i>
    <i name="bandstr">  -4232.69311308 </i>
    <i name="atom">  13716.13071916 </i>
    <i name="e_fr_energy">   -842.64639134 </i>
    <i name="e_wo_entrp">   -842.64638961 </i>
    <i name="e_0_energy">   -842.64639047 </i>
   </energy>
  </scstep>
  <scstep>
   <time name="dav">   78.96   80.21</time>
   <time name="total">   90.32   91.72</time>
   <energy>
    <i name="e_fr_energy">   -842.64639583 </i>
    <i name="e_wo_entrp">   -842.64639410 </i>
    <i name="e_0_energy">   -842.64639496 </i>
   </energy>
  </scstep>
  <scstep>
   <time name="dav">   70.41   71.43</time>
   <time name="total">   75.96   77.04</time>
   <energy>
    <i name="alphaZ">    175.87611319 </i>
    <i name="ewald">  36453.60451963 </i>
    <i name="hartreedc"> -48165.54603648 </i>
    <i name="XCdc">   1273.79852760 </i>
    <i name="pawpsdc">  37251.21260072 </i>
    <i name="pawaedc"> -37315.02229378 </i>
    <i name="eentropy">     -0.00000173 </i>
    <i name="bandstr">  -4232.70054382 </i>
    <i name="atom">  13716.13071916 </i>
    <i name="e_fr_energy">   -842.64639553 </i>
    <i name="e_wo_entrp">   -842.64639380 </i>
    <i name="e_0_energy">   -842.64639466 </i>
   </energy>
  </scstep>
  <structure>
   <crystal>
    <varray name="basis" >
     <v>      17.27103806       0.00000000       0.00000000 </v>
     <v>      -8.63551903      14.95715771       0.00000000 </v>
     <v>       0.00000000       0.00000000      15.00000000 </v>
    </varray>
    <i name="volume">   3874.88459904 </i>
    <varray name="rec_basis" >
     <v>       0.05790040       0.03342881       0.00000000 </v>
     <v>       0.00000000       0.06685762       0.00000000 </v>
     <v>       0.00000000       0.00000000       0.06666667 </v>
    </varray>
   </crystal>
   <varray name="positions" >
    <v>       0.99939445       0.99904392       0.49521341 </v>
    <v>       0.99927416       0.14175675       0.49592185 </v>
    <v>       0.99945953       0.28479208       0.49677672 </v>
    <v>       0.99941517       0.42767894       0.49736215 </v>
    <v>       0.99933395       0.57043459       0.49729990 </v>
    <v>       0.99961646       0.71325717       0.49661355 </v>
    <v>       0.99982506       0.85651345       0.49550822 </v>
    <v>       0.14296047       0.00013972       0.49595824 </v>
    <v>       0.14282179       0.14284931       0.49514513 </v>
    <v>       0.14228708       0.28523448       0.49495031 </v>
    <v>       0.14246052       0.42856847       0.49557123 </v>
    <v>       0.14255673       0.57090288       0.49662577 </v>
    <v>       0.14247994       0.71368705       0.49724983 </v>
    <v>       0.14250374       0.85687761       0.49703155 </v>
    <v>       0.28578039       0.00018857       0.49616115 </v>
    <v>       0.28648372       0.14344417       0.49473623 </v>
    <v>       0.28648244       0.28758938       0.49266225 </v>
    <v>       0.28466614       0.42868543       0.49098566 </v>
    <v>       0.28712671       0.57185185       0.49288734 </v>
    <v>       0.28542668       0.71464870       0.49539275 </v>
    <v>       0.28485637       0.85723837       0.49654162 </v>
    <v>       0.42830576       0.99961495       0.49569988 </v>
    <v>       0.42952516       0.14335738       0.49514112 </v>
    <v>       0.42887935       0.28389030       0.49408244 </v>
    <v>       0.42701997       0.85621042       0.49492430 </v>
    <v>       0.57043047       0.99871351       0.49536613 </v>
    <v>       0.57125445       0.14181699       0.49592154 </v>
    <v>       0.57510653       0.28794724       0.49456806 </v>
    <v>       0.56921303       0.85446646       0.49304578 </v>
    <v>       0.71256116       0.99757022       0.49461106 </v>
    <v>       0.71377596       0.14114350       0.49644937 </v>
    <v>       0.71436518       0.28396617       0.49623829 </v>
    <v>       0.71034151       0.42326930       0.49333575 </v>
    <v>       0.71536154       0.57003008       0.48477502 </v>
    <v>       0.71642440       0.71340064       0.48205502 </v>
    <v>       0.71136846       0.85458502       0.49015229 </v>
    <v>       0.85591511       0.99826851       0.49425658 </v>
    <v>       0.85614750       0.14119634       0.49619792 </v>
    <v>       0.85670882       0.28425635       0.49708891 </v>
    <v>       0.85652805       0.42711204       0.49656857 </v>
    <v>       0.85578093       0.56936265       0.49459319 </v>
    <v>       0.85735689       0.71300173       0.49175387 </v>
    <v>       0.85633442       0.85544267       0.49227059 </v>
    <v>       0.04733984       0.09454908       0.49560333 </v>
    <v>       0.04677734       0.23699544       0.49612425 </v>
    <v>       0.04691012       0.38024592       0.49690675 </v>
    <v>       0.04721617       0.52304878       0.49733727 </v>
    <v>       0.04710588       0.66581829       0.49734580 </v>
    <v>       0.04711338       0.80870784       0.49658695 </v>
    <v>       0.04740896       0.95177763       0.49568938 </v>
    <v>       0.19079916       0.09531858       0.49520992 </v>
    <v>       0.19041918       0.23819603       0.49427763 </v>
    <v>       0.18914034       0.38043045       0.49405767 </v>
    <v>       0.19075456       0.52408017       0.49531030 </v>
    <v>       0.19006044       0.66633766       0.49647129 </v>
    <v>       0.18989790       0.80922326       0.49712041 </v>
    <v>       0.19051403       0.95232210       0.49647652 </v>
    <v>       0.33408520       0.09589136       0.49532889 </v>
    <v>       0.33538017       0.23905286       0.49373792 </v>
    <v>       0.33067397       0.38054282       0.49026608 </v>
    <v>       0.33125523       0.52325577       0.48945322 </v>
    <v>       0.33626645       0.67005670       0.49391941 </v>
    <v>       0.33225351       0.80947122       0.49572641 </v>
    <v>       0.33287452       0.95231537       0.49622643 </v>
    <v>       0.47622382       0.09476417       0.49561738 </v>
    <v>       0.47738229       0.23903163       0.49458834 </v>
    <v>       0.47150310       0.80548987       0.49396206 </v>
    <v>       0.47541902       0.95163478       0.49530427 </v>
    <v>       0.61836847       0.09385522       0.49605733 </v>
    <v>       0.61961570       0.23722549       0.49568843 </v>
    <v>       0.61787373       0.80979665       0.49049140 </v>
    <v>       0.61711766       0.95012273       0.49442198 </v>
    <v>       0.76089333       0.09328786       0.49586694 </v>
    <v>       0.76177461       0.23620844       0.49684153 </v>
    <v>       0.76120187       0.37879434       0.49563923 </v>
    <v>       0.75943508       0.52149984       0.49125029 </v>
    <v>       0.76183936       0.66468855       0.48567851 </v>
    <v>       0.76036755       0.80618561       0.48797652 </v>
    <v>       0.76024735       0.95013072       0.49314078 </v>
    <v>       0.90373106       0.09341117       0.49562092 </v>
    <v>       0.90409535       0.23660959       0.49688954 </v>
    <v>       0.90408605       0.37978798       0.49726448 </v>
    <v>       0.90396887       0.52253562       0.49655627 </v>
    <v>       0.90403931       0.66489523       0.49454330 </v>
    <v>       0.90428568       0.80823665       0.49325977 </v>
    <v>       0.90391417       0.95076882       0.49418697 </v>
    <v>       0.46770712       0.35654231       0.49438795 </v>
    <v>       0.40330324       0.41966159       0.48966977 </v>
    <v>       0.40392431       0.55886949       0.48569017 </v>
    <v>       0.64403594       0.67554723       0.47463834 </v>
    <v>       0.64271403       0.53286891       0.47818094 </v>
    <v>       0.57885473       0.73714780       0.48862723 </v>
    <v>       0.51367831       0.59899054       0.59652203 </v>
    <v>       0.58196614       0.56929927       0.57334185 </v>
    <v>       0.42633506       0.71503913       0.49379371 </v>
    <v>       0.62033768       0.37835492       0.49308408 </v>
    <v>       0.51877004       0.55044346       0.56972060 </v>
   </varray>
  </structure>
  <varray name="forces" >
   <v>      -0.00019485       0.00048243      -0.00003993 </v>
   <v>      -0.00260544       0.00003426      -0.00109527 </v>
   <v>      -0.00029920       0.00009806      -0.00238945 </v>
   <v>       0.00015399      -0.00006381      -0.00612247 </v>
   <v>      -0.00017140       0.00083229      -0.00357067 </v>
   <v>      -0.00036157       0.00028375      -0.00148788 </v>
   <v>      -0.00024434       0.00013372      -0.00376429 </v>
   <v>       0.00034516      -0.00086033      -0.00227340 </v>
   <v>      -0.00061758       0.00067098      -0.00153433 </v>
   <v>      -0.00043319      -0.00012397      -0.00070572 </v>
   <v>      -0.00000848      -0.00015820      -0.00240261 </v>
   <v>       0.00131665       0.00028355      -0.00059510 </v>
   <v>      -0.00055150       0.00054114      -0.00262780 </v>
   <v>      -0.00039934       0.00061363      -0.00006628 </v>
   <v>      -0.00200415       0.00023875      -0.00171107 </v>
   <v>      -0.00019652      -0.00058206      -0.00077447 </v>
   <v>       0.00023838      -0.00114789       0.00058259 </v>
   <v>      -0.00064627       0.00022056       0.00275162 </v>
   <v>      -0.00063159      -0.00156055       0.00074652 </v>
   <v>       0.00048016      -0.00061403      -0.00039008 </v>
   <v>      -0.00022840      -0.00083004      -0.00076712 </v>
   <v>      -0.00089203      -0.00121156      -0.00131035 </v>
   <v>       0.00046910      -0.00103152      -0.00104847 </v>
   <v>       0.00015199      -0.00127115       0.00159714 </v>
   <v>       0.00010332       0.00047134      -0.00145966 </v>
   <v>      -0.00003575      -0.00004942      -0.00145756 </v>
   <v>       0.00081115       0.00139750      -0.00022340 </v>
   <v>       0.00072037      -0.00299075      -0.00152381 </v>
   <v>       0.00027228      -0.00054686      -0.00038044 </v>
   <v>      -0.00222882      -0.00077906      -0.00166888 </v>
   <v>      -0.00043670      -0.00045111      -0.00290719 </v>
   <v>       0.00044987       0.00059985      -0.00132965 </v>
   <v>      -0.00057557       0.00032173      -0.00301639 </v>
   <v>      -0.00099663      -0.00051752      -0.00698275 </v>
   <v>      -0.00230491       0.00007388      -0.00553876 </v>
   <v>       0.00006907      -0.00044695      -0.00191554 </v>
   <v>      -0.00094386      -0.00070118      -0.00468494 </v>
   <v>      -0.00065807       0.00135392      -0.00236567 </v>
   <v>      -0.00149600       0.00021252      -0.00113281 </v>
   <v>       0.00017146       0.00004336      -0.00273146 </v>
   <v>       0.00061069      -0.00039460      -0.00189646 </v>
   <v>      -0.00156399      -0.00024739      -0.00313429 </v>
   <v>      -0.00009466      -0.00059967      -0.00256568 </v>
   <v>      -0.00141220       0.00057740      -0.00358652 </v>
   <v>      -0.00132882       0.00053333      -0.00141342 </v>
   <v>      -0.00007133      -0.00047060      -0.00628916 </v>
   <v>       0.00052005       0.00068450      -0.00145555 </v>
   <v>      -0.00049212       0.00077507      -0.00217139 </v>
   <v>      -0.00004642      -0.00009807      -0.00219089 </v>
   <v>      -0.00011341       0.00005290      -0.00319656 </v>
   <v>       0.00038625      -0.00014075      -0.00179718 </v>
   <v>       0.00037437       0.00081230      -0.00270472 </v>
   <v>      -0.00023615       0.00176112       0.00121991 </v>
   <v>       0.00110773      -0.00018870       0.00103970 </v>
   <v>      -0.00067841      -0.00007846      -0.00223782 </v>
   <v>      -0.00043650      -0.00063901      -0.00046565 </v>
   <v>      -0.00037434      -0.00138232      -0.00238075 </v>
   <v>      -0.00062017      -0.00008262      -0.00125551 </v>
   <v>      -0.00027735      -0.00023495       0.00142993 </v>
   <v>       0.00249854       0.00139336       0.00550913 </v>
   <v>       0.00169938       0.00047824       0.00412668 </v>
   <v>       0.00028194      -0.00155081       0.00186960 </v>
   <v>       0.00027245       0.00009085      -0.00116843 </v>
   <v>      -0.00188044      -0.00102678      -0.00002024 </v>
   <v>       0.00054630       0.00019742      -0.00184318 </v>
   <v>      -0.00045137      -0.00141591      -0.00084234 </v>
   <v>      -0.00008040       0.00004900      -0.00056193 </v>
   <v>      -0.00100874      -0.00030653       0.00075811 </v>
   <v>      -0.00037423       0.00010497      -0.00210905 </v>
   <v>       0.00179222       0.00049922      -0.00158159 </v>
   <v>      -0.00042662      -0.00068527      -0.00016295 </v>
   <v>      -0.00068622      -0.00020098      -0.00167880 </v>
   <v>      -0.00053864       0.00062992      -0.00248206 </v>
   <v>      -0.00105473      -0.00036758      -0.00018848 </v>
   <v>       0.00016435       0.00057792      -0.00244175 </v>
   <v>      -0.00059161      -0.00013983      -0.00382059 </v>
   <v>      -0.00148626       0.00010951      -0.00432743 </v>
   <v>      -0.00056042      -0.00021477      -0.00275553 </v>
   <v>      -0.00096556      -0.00149429      -0.00224244 </v>
   <v>      -0.00266405       0.00000631      -0.00170701 </v>
   <v>      -0.00071470       0.00183636      -0.00205246 </v>
   <v>      -0.00035030      -0.00033685      -0.00306756 </v>
   <v>      -0.00080142       0.00022286      -0.00254868 </v>
   <v>      -0.00106664      -0.00013811      -0.00118206 </v>
   <v>      -0.00039448      -0.00032869      -0.00235755 </v>
   <v>      -0.00014145      -0.00003683      -0.00134759 </v>
   <v>      -0.00019298      -0.00088091      -0.00063094 </v>
   <v>       0.00073732       0.00015813       0.00718828 </v>
   <v>       0.00192902       0.00097160       0.00612991 </v>
   <v>       0.00065540      -0.00439906      -0.00563746 </v>
   <v>      -0.00123679       0.00102257      -0.01805705 </v>
   <v>       0.00072058      -0.00048317      -0.00033509 </v>
   <v>      -0.02070473      -0.00228717       0.03388513 </v>
   <v>       0.04917834      -0.00763711       0.13195958 </v>
   <v>       0.00053228      -0.00028291       0.00037622 </v>
   <v>      -0.00018149      -0.00093101      -0.00134560 </v>
   <v>      -0.00329783       0.02318760      -0.01993698 </v>
  </varray>
  <varray name="stress" >
   <v>       1.04894213      -3.42068819       0.01972859 </v>
   <v>      -3.42068808      -5.27893075       0.00020473 </v>
   <v>       0.01972790       0.00020542      -0.18714309 </v>
  </varray>
  <energy>
   <i name="e_fr_energy">   -850.38552569 </i>
   <i name="e_wo_entrp">   -850.38552396 </i>
   <i name="e_0_energy">   -850.38552483 </i>
  </energy>
  <time name="totalsc">  483.51  490.31</time>
 </calculation>
 <calculation>
  <scstep>
   <time name="dav">   76.67   77.94</time>
   <time name="total">   88.37   89.79</time>
   <energy>
    <i name="alphaZ">    175.87611319 </i>
    <i name="ewald">  36453.92001064 </i>
    <i name="hartreedc"> -48165.88813049 </i>
    <i name="XCdc">   1273.79808996 </i>
    <i name="pawpsdc">  37250.91000904 </i>
    <i name="pawaedc"> -37314.71960366 </i>
    <i name="eentropy">     -0.00000173 </i>
    <i name="bandstr">  -4232.67357968 </i>
    <i name="atom">  13716.13071916 </i>
    <i name="e_fr_energy">   -842.64637358 </i>
    <i name="e_wo_entrp">   -842.64637185 </i>
    <i name="e_0_energy">   -842.64637271 </i>
   </energy>
  </scstep>
  <scstep>
   <time name="dav">   78.68   79.95</time>
   <time name="total">   89.78   91.24</time>
   <energy>
    <i name="e_fr_energy">   -842.64638502 </i>
    <i name="e_wo_entrp">   -842.64638329 </i>
    <i name="e_0_energy">   -842.64638415 </i>
   </energy>
  </scstep>
  <scstep>
   <time name="dav">   68.58   69.66</time>
   <time name="total">   74.01   75.16</time>
   <energy>
    <i name="alphaZ">    175.87611319 </i>
    <i name="ewald">  36453.92001064 </i>
    <i name="hartreedc"> -48165.89486299 </i>
    <i name="XCdc">   1273.79727182 </i>
    <i name="pawpsdc">  37250.79402241 </i>
    <i name="pawaedc"> -37314.60343822 </i>
    <i name="eentropy">     -0.00000173 </i>
    <i name="bandstr">  -4232.66621996 </i>
    <i name="atom">  13716.13071916 </i>
    <i name="e_fr_energy">   -842.64638568 </i>
    <i name="e_wo_entrp">   -842.64638395 </i>
    <i name="e_0_energy">   -842.64638481 </i>
   </energy>
  </scstep>
  <structure>
   <crystal>
    <varray name="basis" >
[...]
       <r>   -14.0881     8.6572    57.2156 </r>
       <r>   -13.9840     7.6326    58.0098 </r>
       <r>   -13.8800     5.5377    58.5860 </r>
       <r>   -13.7759     3.2421    58.9233 </r>
       <r>   -13.6719     5.7281    59.5193 </r>
       <r>   -13.5678     7.8263    60.3337 </r>
       <r>   -13.4638     9.5658    61.3290 </r>
       <r>   -13.3597    10.1123    62.3812 </r>
       <r>   -13.2557     5.7448    62.9790 </r>
       <r>   -13.1516     7.7846    63.7890 </r>
       <r>   -13.0476     5.3633    64.3471 </r>
       <r>   -12.9435     1.4886    64.5020 </r>
       <r>   -12.8395     3.2731    64.8425 </r>
       <r>   -12.7354     8.7902    65.7572 </r>
       <r>   -12.6314     6.8889    66.4740 </r>
       <r>   -12.5273    11.5739    67.6783 </r>
       <r>   -12.4232    15.6723    69.3090 </r>
       <r>   -12.3192    10.1938    70.3697 </r>
       <r>   -12.2151     9.3694    71.3446 </r>
       <r>   -12.1111     3.8732    71.7476 </r>
       <r>   -12.0070     4.4167    72.2072 </r>
       <r>   -11.9030    13.0175    73.5617 </r>
       <r>   -11.7989     7.5237    74.3445 </r>
       <r>   -11.6949     7.3024    75.1044 </r>
       <r>   -11.5908     9.7007    76.1137 </r>
       <r>   -11.4868    11.8075    77.3423 </r>
       <r>   -11.3827    11.1579    78.5033 </r>
       <r>   -11.2787     9.8505    79.5283 </r>
       <r>   -11.1746    11.6203    80.7374 </r>
       <r>   -11.0706     8.8061    81.6537 </r>
       <r>   -10.9665    10.1469    82.7095 </r>
       <r>   -10.8625    10.4259    83.7944 </r>
       <r>   -10.7584    11.7777    85.0199 </r>
       <r>   -10.6544     7.4238    85.7923 </r>
       <r>   -10.5503     7.3386    86.5559 </r>
       <r>   -10.4463     5.9995    87.1802 </r>
       <r>   -10.3422     0.7908    87.2625 </r>
       <r>   -10.2381     6.5156    87.9404 </r>
       <r>   -10.1341    16.4525    89.6524 </r>
       <r>   -10.0300    16.9767    91.4188 </r>
       <r>    -9.9260    16.6125    93.1474 </r>
       <r>    -9.8219    18.0248    95.0229 </r>
       <r>    -9.7179    20.4972    97.1557 </r>
       <r>    -9.6138    14.7527    98.6908 </r>
       <r>    -9.5098    13.5365   100.0993 </r>
       <r>    -9.4057    17.3145   101.9009 </r>
       <r>    -9.3017    20.1608   103.9987 </r>
       <r>    -9.1976    13.4177   105.3948 </r>
       <r>    -9.0936    13.4396   106.7933 </r>
       <r>    -8.9895    23.7739   109.2670 </r>
       <r>    -8.8855    30.5087   112.4415 </r>
       <r>    -8.7814    24.0572   114.9447 </r>
       <r>    -8.6774    23.1099   117.3493 </r>
       <r>    -8.5733    17.5124   119.1715 </r>
       <r>    -8.4693    18.3177   121.0775 </r>
       <r>    -8.3652    14.9145   122.6294 </r>
       <r>    -8.2612    21.5687   124.8737 </r>
       <r>    -8.1571    22.2625   127.1902 </r>
       <r>    -8.0530    24.3345   129.7222 </r>
       <r>    -7.9490    19.2463   131.7249 </r>
       <r>    -7.8449    15.9675   133.3863 </r>
       <r>    -7.7409    16.1306   135.0647 </r>
       <r>    -7.6368    14.1658   136.5387 </r>
       <r>    -7.5328    12.9758   137.8889 </r>
       <r>    -7.4287     6.4630   138.5614 </r>
       <r>    -7.3247    14.7427   140.0954 </r>
       <r>    -7.2206    23.6503   142.5563 </r>
       <r>    -7.1166    21.5265   144.7961 </r>
       <r>    -7.0125    18.2422   146.6943 </r>
       <r>    -6.9085     9.8064   147.7147 </r>
       <r>    -6.8044    13.7060   149.1408 </r>
       <r>    -6.7004    11.4971   150.3371 </r>
       <r>    -6.5963     6.0981   150.9716 </r>
       <r>    -6.4923    12.5467   152.2771 </r>
       <r>    -6.3882    10.4662   153.3662 </r>
       <r>    -6.2842    14.2531   154.8492 </r>
       <r>    -6.1801    20.1526   156.9462 </r>
       <r>    -6.0761    17.8312   158.8016 </r>
       <r>    -5.9720    12.5080   160.1030 </r>
       <r>    -5.8679    16.9589   161.8677 </r>
       <r>    -5.7639    14.8054   163.4082 </r>
       <r>    -5.6598    15.7656   165.0486 </r>
       <r>    -5.5558     7.4318   165.8219 </r>
       <r>    -5.4517     6.2766   166.4750 </r>
       <r>    -5.3477     3.0157   166.7888 </r>
       <r>    -5.2436     2.1067   167.0080 </r>
       <r>    -5.1396     4.2152   167.4466 </r>
       <r>    -5.0355    18.6126   169.3833 </r>
       <r>    -4.9315    18.9855   171.3588 </r>
       <r>    -4.8274    19.0090   173.3367 </r>
       <r>    -4.7234    13.3711   174.7280 </r>
       <r>    -4.6193     2.6029   174.9989 </r>
       <r>    -4.5153     7.5470   175.7841 </r>
       <r>    -4.4112    13.4399   177.1826 </r>
       <r>    -4.3072     5.0808   177.7113 </r>
       <r>    -4.2031     7.8792   178.5311 </r>
       <r>    -4.0991     8.6035   179.4263 </r>
       <r>    -3.9950     8.8374   180.3459 </r>
       <r>    -3.8910    10.0283   181.3893 </r>
       <r>    -3.7869     3.6009   181.7640 </r>
       <r>    -3.6828     2.1015   181.9827 </r>
       <r>    -3.5788     0.1663   182.0000 </r>
       <r>    -3.4747     0.3129   182.0326 </r>
       <r>    -3.3707     2.4085   182.2832 </r>
       <r>    -3.2666     5.9934   182.9068 </r>
       <r>    -3.1626     3.3406   183.2544 </r>
       <r>    -3.0585     2.2955   183.4933 </r>
       <r>    -2.9545     0.0648   183.5000 </r>
       <r>    -2.8504     0.0001   183.5000 </r>
       <r>    -2.7464     0.3133   183.5326 </r>
       <r>    -2.6423     2.2299   183.7646 </r>
       <r>    -2.5383     2.1357   183.9869 </r>
       <r>    -2.4342     0.1263   184.0000 </r>
       <r>    -2.3302     0.4409   184.0459 </r>
       <r>    -2.2261     3.8326   184.4447 </r>
       <r>    -2.1221     0.5315   184.5000 </r>
       <r>    -2.0180     0.0023   184.5002 </r>
       <r>    -1.9140     1.0231   184.6067 </r>
       <r>    -1.8099     2.2054   184.8361 </r>
       <r>    -1.7059     3.5132   185.2017 </r>
       <r>    -1.6018     5.4371   185.7675 </r>
       <r>    -1.4977     2.2284   185.9993 </r>
       <r>    -1.3937     0.4185   186.0429 </r>
       <r>    -1.2896     7.1248   186.7842 </r>
       <r>    -1.1856     5.5413   187.3608 </r>
       <r>    -1.0815     1.3409   187.5003 </r>
       <r>    -0.9775     2.5157   187.7621 </r>
       <r>    -0.8734    13.1211   189.1274 </r>
       <r>    -0.7694    15.6146   190.7521 </r>
       <r>    -0.6653     5.2528   191.2987 </r>
       <r>    -0.5613     9.4171   192.2785 </r>
       <r>    -0.4572    10.8085   193.4032 </r>
       <r>    -0.3532     5.4820   193.9736 </r>
       <r>    -0.2491     3.2525   194.3120 </r>
       <r>    -0.1451     8.5996   195.2068 </r>
       <r>    -0.0410     9.9442   196.2416 </r>
       <r>     0.0630    10.9589   197.3819 </r>
       <r>     0.1671    10.8066   198.5063 </r>
       <r>     0.2711     9.0367   199.4466 </r>
       <r>     0.3752     4.1186   199.8751 </r>
       <r>     0.4792     1.8499   200.0676 </r>
       <r>     0.5833     5.6453   200.6550 </r>
       <r>     0.6873     5.3606   201.2128 </r>
       <r>     0.7914    11.5561   202.4153 </r>
       <r>     0.8955    12.0138   203.6653 </r>
       <r>     0.9995     5.1762   204.2039 </r>
       <r>     1.1036    10.7826   205.3259 </r>
       <r>     1.2076     7.8260   206.1402 </r>
       <r>     1.3117     6.4062   206.8068 </r>
       <r>     1.4157    12.8301   208.1418 </r>
       <r>     1.5198    16.6838   209.8777 </r>
       <r>     1.6238    16.9360   211.6400 </r>
       <r>     1.7279    10.3535   212.7173 </r>
       <r>     1.8319     8.0813   213.5582 </r>
       <r>     1.9360    13.3516   214.9474 </r>
       <r>     2.0400    20.7853   217.1102 </r>
       <r>     2.1441    13.9507   218.5618 </r>
       <r>     2.2481    17.7030   220.4038 </r>
       <r>     2.3522    21.0705   222.5963 </r>
       <r>     2.4562    27.3547   225.4426 </r>
       <r>     2.5603     6.9515   226.1659 </r>
       <r>     2.6643     4.8518   226.6707 </r>
       <r>     2.7684    20.9296   228.8485 </r>
       <r>     2.8724    32.1603   232.1949 </r>
       <r>     2.9765    39.4952   236.3044 </r>
       <r>     3.0806    22.9936   238.6970 </r>
       <r>     3.1846    16.1132   240.3736 </r>
       <r>     3.2887    20.3273   242.4887 </r>
       <r>     3.3927    12.1129   243.7491 </r>
       <r>     3.4968    25.2081   246.3720 </r>
       <r>     3.6008    20.5865   248.5141 </r>
       <r>     3.7049    17.5286   250.3380 </r>
       <r>     3.8089    27.6784   253.2180 </r>
       <r>     3.9130    20.2326   255.3233 </r>
       <r>     4.0170    24.7496   257.8985 </r>
       <r>     4.1211    16.7131   259.6376 </r>
       <r>     4.2251    16.2736   261.3309 </r>
       <r>     4.3292    27.2701   264.1684 </r>
       <r>     4.4332     7.8974   264.9901 </r>
       <r>     4.5373     0.0949   265.0000 </r>
       <r>     4.6413     0.0000   265.0000 </r>
       <r>     4.7454     0.0000   265.0000 </r>
       <r>     4.8494     0.0000   265.0000 </r>
       <r>     4.9535     0.0000   265.0000 </r>
       <r>     5.0575     0.0000   265.0000 </r>
       <r>     5.1616     0.0000   265.0000 </r>
       <r>     5.2657     0.0000   265.0000 </r>
       <r>     5.3697     0.0000   265.0000 </r>
       <r>     5.4738     0.0000   265.0000 </r>
       <r>     5.5778     0.0000   265.0000 </r>
       <r>     5.6819     0.0000   265.0000 </r>
       <r>     5.7859     0.0000   265.0000 </r>
      </set>
     </set>
    </array>
   </total>
  </dos>
 </calculation>
 <structure name="finalpos" >
  <crystal>
   <varray name="basis" >
    <v>      17.27103806       0.00000000       0.00000000 </v>
    <v>      -8.63551903      14.95715771       0.00000000 </v>
    <v>       0.00000000       0.00000000      15.00000000 </v>
   </varray>
   <i name="volume">   3874.88459904 </i>
   <varray name="rec_basis" >
    <v>       0.05790040       0.03342881       0.00000000 </v>
    <v>       0.00000000       0.06685762       0.00000000 </v>
    <v>       0.00000000       0.00000000       0.06666667 </v>
   </varray>
  </crystal>
  <varray name="positions" >
   <v>       0.99972181       0.99936185       0.49437094 </v>
   <v>       0.99956882       0.14203527       0.49440884 </v>
   <v>       0.99978556       0.28507084       0.49477829 </v>
   <v>       0.99971310       0.42793321       0.49525558 </v>
   <v>       0.99963552       0.57071398       0.49578456 </v>
   <v>       0.99992137       0.71353289       0.49571943 </v>
   <v>       1.00011615       0.85678489       0.49494760 </v>
   <v>       0.14326741       0.00040868       0.49505689 </v>
   <v>       0.14310775       0.14310333       0.49391118 </v>
   <v>       0.14255911       0.28548226       0.49303034 </v>
   <v>       0.14273388       0.42884596       0.49326836 </v>
   <v>       0.14282757       0.57120374       0.49469468 </v>
   <v>       0.14276189       0.71397176       0.49584776 </v>
   <v>       0.14280591       0.85716434       0.49599883 </v>
   <v>       0.28607886       0.00043876       0.49562139 </v>
   <v>       0.28678955       0.14369956       0.49414620 </v>
   <v>       0.28668846       0.28775711       0.49143791 </v>
   <v>       0.28490817       0.42893584       0.48888312 </v>
   <v>       0.28728103       0.57211196       0.49087513 </v>
   <v>       0.28568731       0.71491913       0.49400904 </v>
   <v>       0.28514562       0.85749823       0.49566929 </v>
   <v>       0.42860095       0.99987086       0.49533366 </v>
   <v>       0.42981718       0.14360215       0.49495829 </v>
   <v>       0.42916828       0.28414729       0.49397258 </v>
   <v>       0.42730907       0.85647809       0.49428737 </v>
   <v>       0.57072762       0.99894813       0.49467619 </v>
   <v>       0.57153990       0.14204189       0.49543581 </v>
   <v>       0.57538461       0.28814852       0.49467437 </v>
   <v>       0.56953105       0.85471368       0.49296144 </v>
   <v>       0.71288574       0.99787190       0.49390459 </v>
   <v>       0.71406890       0.14139603       0.49540375 </v>
   <v>       0.71466198       0.28419799       0.49546544 </v>
   <v>       0.71062850       0.42348343       0.49381349 </v>
   <v>       0.71560921       0.57027900       0.48824769 </v>
   <v>       0.71650971       0.71358349       0.48662257 </v>
   <v>       0.71164451       0.85485777       0.49142964 </v>
   <v>       0.85622840       0.99855047       0.49366995 </v>
   <v>       0.85647087       0.14149111       0.49482924 </v>
   <v>       0.85700602       0.28451116       0.49559095 </v>
   <v>       0.85682084       0.42735240       0.49545708 </v>
   <v>       0.85610030       0.56960751       0.49460259 </v>
   <v>       0.85761228       0.71324755       0.49287132 </v>
   <v>       0.85664155       0.85572665       0.49285921 </v>
   <v>       0.04763990       0.09484826       0.49430728 </v>
   <v>       0.04707471       0.23726305       0.49424202 </v>
   <v>       0.04721634       0.38052080       0.49465018 </v>
   <v>       0.04750919       0.52331411       0.49538626 </v>
   <v>       0.04740845       0.66610052       0.49601528 </v>
   <v>       0.04741377       0.80899085       0.49571945 </v>
   <v>       0.04771921       0.95205795       0.49487070 </v>
   <v>       0.19110300       0.09558583       0.49431956 </v>
   <v>       0.19066353       0.23841477       0.49279866 </v>
   <v>       0.18939429       0.38067856       0.49193058 </v>
   <v>       0.19097012       0.52435322       0.49317934 </v>
   <v>       0.19032898       0.66662335       0.49486404 </v>
   <v>       0.19019618       0.80950170       0.49598225 </v>
   <v>       0.19081912       0.95259269       0.49567047 </v>
   <v>       0.33438563       0.09614007       0.49495502 </v>
   <v>       0.33567314       0.23930282       0.49315053 </v>
   <v>       0.33082906       0.38066488       0.48852458 </v>
   <v>       0.33142457       0.52355988       0.48712129 </v>
   <v>       0.33652657       0.67035442       0.49235105 </v>
   <v>       0.33253558       0.80973817       0.49474940 </v>
   <v>       0.33316943       0.95256505       0.49569709 </v>
   <v>       0.47652241       0.09501522       0.49532304 </v>
   <v>       0.47767482       0.23927675       0.49458115 </v>
   <v>       0.47179356       0.80575318       0.49326848 </v>
   <v>       0.47570686       0.95188736       0.49485251 </v>
   <v>       0.61865103       0.09407676       0.49530622 </v>
   <v>       0.61990398       0.23743948       0.49527526 </v>
   <v>       0.61813614       0.80994888       0.49167319 </v>
   <v>       0.61744189       0.95038294       0.49385506 </v>
   <v>       0.76119799       0.09357846       0.49475446 </v>
   <v>       0.76207310       0.23645899       0.49569831 </v>
   <v>       0.76149568       0.37901391       0.49507538 </v>
   <v>       0.75974558       0.52171846       0.49258504 </v>
   <v>       0.76198650       0.66491986       0.48905552 </v>
   <v>       0.76065307       0.80647375       0.49024984 </v>
   <v>       0.76055483       0.95041973       0.49303924 </v>
   <v>       0.90403939       0.09368979       0.49439732 </v>
   <v>       0.90443125       0.23690467       0.49520529 </v>
   <v>       0.90438218       0.38003587       0.49560397 </v>
   <v>       0.90428333       0.52278511       0.49553695 </v>
   <v>       0.90433588       0.66515226       0.49452902 </v>
   <v>       0.90456612       0.80848764       0.49360827 </v>
   <v>       0.90423637       0.95106603       0.49378371 </v>
   <v>       0.46797824       0.35680197       0.49432949 </v>
   <v>       0.40340409       0.41969648       0.48801831 </v>
   <v>       0.40404687       0.55948291       0.48310574 </v>
   <v>       0.64393447       0.67582481       0.48182087 </v>
   <v>       0.64289820       0.53277614       0.48268888 </v>
   <v>       0.57910108       0.73726563       0.49088088 </v>
   <v>       0.50058979       0.58011310       0.60364036 </v>
   <v>       0.57447438       0.56401966       0.56565422 </v>
   <v>       0.42657385       0.71531299       0.49250461 </v>
   <v>       0.62062813       0.37857873       0.49381102 </v>
   <v>       0.51365843       0.55075921       0.55547850 </v>
  </varray>
  <varray name="selective"  type="logical" >
   <v type="logical" >  T  T  T </v>
   <v type="logical" >  T  T  T </v>
   <v type="logical" >  T  T  T </v>
   <v type="logical" >  T  T  T </v>
   <v type="logical" >  T  T  T </v>
   <v type="logical" >  T  T  T </v>
   <v type="logical" >  T  T  T </v>
   <v type="logical" >  T  T  T </v>
   <v type="logical" >  T  T  T </v>
   <v type="logical" >  T  T  T </v>
   <v type="logical" >  T  T  T </v>
   <v type="logical" >  T  T  T </v>
   <v type="logical" >  T  T  T </v>
   <v type="logical" >  T  T  T </v>
   <v type="logical" >  T  T  T </v>
   <v type="logical" >  T  T  T </v>
   <v type="logical" >  T  T  T </v>
   <v type="logical" >  T  T  T </v>
   <v type="logical" >  T  T  T </v>
   <v type="logical" >  T  T  T </v>
   <v type="logical" >  T  T  T </v>
   <v type="logical" >  T  T  T </v>
   <v type="logical" >  T  T  T </v>
   <v type="logical" >  T  T  T </v>
   <v type="logical" >  T  T  T </v>
   <v type="logical" >  T  T  T </v>
   <v type="logical" >  T  T  T </v>
   <v type="logical" >  T  T  T </v>
   <v type="logical" >  T  T  T </v>
   <v type="logical" >  T  T  T </v>
   <v type="logical" >  T  T  T </v>
   <v type="logical" >  T  T  T </v>
   <v type="logical" >  T  T  T </v>
   <v type="logical" >  T  T  T </v>
   <v type="logical" >  T  T  T </v>
   <v type="logical" >  T  T  T </v>
   <v type="logical" >  T  T  T </v>
   <v type="logical" >  T  T  T </v>
   <v type="logical" >  T  T  T </v>
   <v type="logical" >  T  T  T </v>
   <v type="logical" >  T  T  T </v>
   <v type="logical" >  T  T  T </v>
   <v type="logical" >  T  T  T </v>
   <v type="logical" >  T  T  T </v>
   <v type="logical" >  T  T  T </v>
   <v type="logical" >  T  T  T </v>
   <v type="logical" >  T  T  T </v>
   <v type="logical" >  T  T  T </v>
   <v type="logical" >  T  T  T </v>
   <v type="logical" >  T  T  T </v>
   <v type="logical" >  T  T  T </v>
   <v type="logical" >  T  T  T </v>
   <v type="logical" >  T  T  T </v>
   <v type="logical" >  T  T  T </v>
   <v type="logical" >  T  T  T </v>
   <v type="logical" >  T  T  T </v>
   <v type="logical" >  T  T  T </v>
   <v type="logical" >  T  T  T </v>
   <v type="logical" >  T  T  T </v>
   <v type="logical" >  T  T  T </v>
   <v type="logical" >  T  T  T </v>
   <v type="logical" >  T  T  T </v>
   <v type="logical" >  T  T  T </v>
   <v type="logical" >  T  T  T </v>
   <v type="logical" >  T  T  T </v>
   <v type="logical" >  T  T  T </v>
   <v type="logical" >  T  T  T </v>
   <v type="logical" >  T  T  T </v>
   <v type="logical" >  T  T  T </v>
   <v type="logical" >  T  T  T </v>
   <v type="logical" >  T  T  T </v>
   <v type="logical" >  T  T  T </v>
   <v type="logical" >  T  T  T </v>
   <v type="logical" >  T  T  T </v>
   <v type="logical" >  T  T  T </v>
   <v type="logical" >  T  T  T </v>
   <v type="logical" >  T  T  T </v>
   <v type="logical" >  T  T  T </v>
   <v type="logical" >  T  T  T </v>
   <v type="logical" >  T  T  T </v>
   <v type="logical" >  T  T  T </v>
   <v type="logical" >  T  T  T </v>
   <v type="logical" >  T  T  T </v>
   <v type="logical" >  T  T  T </v>
   <v type="logical" >  T  T  T </v>
   <v type="logical" >  T  T  T </v>
   <v type="logical" >  T  T  T </v>
   <v type="logical" >  T  T  T </v>
   <v type="logical" >  T  T  T </v>
   <v type="logical" >  T  T  T </v>
   <v type="logical" >  T  T  T </v>
   <v type="logical" >  T  T  T </v>
   <v type="logical" >  T  T  T </v>
   <v type="logical" >  T  T  T </v>
   <v type="logical" >  T  T  T </v>
   <v type="logical" >  T  T  T </v>
   <v type="logical" >  T  T  T </v>
  </varray>
  <nose>
   <v>      -3.00000000       0.00000000       0.00010000       0.00010000 </v>
  </nose>
 </structure>
</modeling>
