unknown system                          
           1
    17.271038    0.000000    0.000000
    -8.635519   14.957158    0.000000
     0.000000    0.000000   15.000000
   C    H    N    O 
    86     8     2     1
Direct configuration=     1
   0.99939445  0.99904392  0.49521341
   0.99927416  0.14175675  0.49592185
   0.99945953  0.28479208  0.49677672
   0.99941517  0.42767894  0.49736215
   0.99933395  0.57043459  0.49729990
   0.99961646  0.71325717  0.49661355
   0.99982506  0.85651345  0.49550822
   0.14296047  0.00013972  0.49595824
   0.14282179  0.14284931  0.49514513
   0.14228708  0.28523448  0.49495031
   0.14246052  0.42856847  0.49557123
   0.14255673  0.57090288  0.49662577
   0.14247994  0.71368705  0.49724983
   0.14250374  0.85687761  0.49703155
   0.28578039  0.00018857  0.49616115
   0.28648372  0.14344417  0.49473623
   0.28648244  0.28758938  0.49266225
   0.28466614  0.42868543  0.49098566
   0.28712671  0.57185185  0.49288734
   0.28542668  0.71464870  0.49539275
   0.28485637  0.85723837  0.49654162
   0.42830576  0.99961495  0.49569988
   0.42952516  0.14335738  0.49514112
   0.42887935  0.28389030  0.49408244
   0.42701997  0.85621042  0.49492430
   0.57043047  0.99871351  0.49536613
   0.57125445  0.14181699  0.49592154
   0.57510653  0.28794724  0.49456806
   0.56921303  0.85446646  0.49304578
   0.71256116  0.99757022  0.49461106
   0.71377596  0.14114350  0.49644937
   0.71436518  0.28396617  0.49623829
   0.71034151  0.42326930  0.49333575
   0.71536154  0.57003008  0.48477502
   0.71642440  0.71340064  0.48205502
   0.71136846  0.85458502  0.49015229
   0.85591511  0.99826851  0.49425658
   0.85614750  0.14119634  0.49619792
   0.85670882  0.28425635  0.49708891
   0.85652805  0.42711204  0.49656857
   0.85578093  0.56936265  0.49459319
   0.85735689  0.71300173  0.49175387
   0.85633442  0.85544267  0.49227059
   0.04733984  0.09454908  0.49560333
   0.04677734  0.23699544  0.49612425
   0.04691012  0.38024592  0.49690675
   0.04721617  0.52304878  0.49733727
   0.04710588  0.66581829  0.49734580
   0.04711338  0.80870784  0.49658695
   0.04740896  0.95177763  0.49568938
   0.19079916  0.09531858  0.49520992
   0.19041918  0.23819603  0.49427763
   0.18914034  0.38043045  0.49405767
   0.19075456  0.52408017  0.49531030
   0.19006044  0.66633766  0.49647129
   0.18989790  0.80922326  0.49712041
   0.19051403  0.95232210  0.49647652
   0.33408520  0.09589136  0.49532889
   0.33538017  0.23905286  0.49373792
   0.33067397  0.38054282  0.49026608
   0.33125523  0.52325577  0.48945322
   0.33626645  0.67005670  0.49391941
   0.33225351  0.80947122  0.49572641
   0.33287452  0.95231537  0.49622643
   0.47622382  0.09476417  0.49561738
   0.47738229  0.23903163  0.49458834
   0.47150310  0.80548987  0.49396206
   0.47541902  0.95163478  0.49530427
   0.61836847  0.09385522  0.49605733
   0.61961570  0.23722549  0.49568843
   0.61787373  0.80979665  0.49049140
   0.61711766  0.95012273  0.49442198
   0.76089333  0.09328786  0.49586694
   0.76177461  0.23620844  0.49684153
   0.76120187  0.37879434  0.49563923
   0.75943508  0.52149984  0.49125029
   0.76183936  0.66468855  0.48567851
   0.76036755  0.80618561  0.48797652
   0.76024735  0.95013072  0.49314078
   0.90373106  0.09341117  0.49562092
   0.90409535  0.23660959  0.49688954
   0.90408605  0.37978798  0.49726448
   0.90396887  0.52253562  0.49655627
   0.90403931  0.66489523  0.49454330
   0.90428568  0.80823665  0.49325977
   0.90391417  0.95076882  0.49418697
   0.46770712  0.35654231  0.49438795
   0.40330324  0.41966159  0.48966977
   0.40392431  0.55886949  0.48569017
   0.64403594  0.67554723  0.47463834
   0.64271403  0.53286891  0.47818094
   0.57885473  0.73714780  0.48862723
   0.51367831  0.59899054  0.59652203
   0.58196614  0.56929927  0.57334185
   0.42633506  0.71503913  0.49379371
   0.62033768  0.37835492  0.49308408
   0.51877004  0.55044346  0.56972060
Direct configuration=     2
   0.99939611  0.99904565  0.49521461
   0.99927134  0.14175870  0.49592085
   0.99945880  0.28479260  0.49677393
   0.99941397  0.42767819  0.49735493
   0.99933406  0.57043615  0.49729614
   0.99961784  0.71325853  0.49661261
   0.99982649  0.85651360  0.49550424
   0.14296104  0.00013843  0.49595550
   0.14282229  0.14285181  0.49514284
   0.14228801  0.28523719  0.49494739
   0.14246004  0.42856701  0.49556598
   0.14255877  0.57090399  0.49662502
   0.14248077  0.71368993  0.49724681
   0.14250405  0.85687664  0.49703240
   0.28577753  0.00018919  0.49615921
   0.28648340  0.14344500  0.49473439
   0.28648262  0.28758847  0.49265882
   0.28466788  0.42868709  0.49098092
   0.28712426  0.57184876  0.49288413
   0.28542800  0.71464906  0.49539175
   0.28485531  0.85723699  0.49654102
   0.42830327  0.99961321  0.49569861
   0.42952598  0.14335782  0.49514019
   0.42887852  0.28389264  0.49408359
   0.42702049  0.85621138  0.49492224
   0.57043167  0.99871431  0.49536467
   0.57125874  0.14182189  0.49592255
   0.57510593  0.28794341  0.49456767
   0.56921365  0.85446568  0.49304579
   0.71255716  0.99756983  0.49460974
   0.71377753  0.14114556  0.49644651
   0.71436882  0.28396958  0.49623872
   0.71034373  0.42327105  0.49333526
   0.71536233  0.57002844  0.48477655
   0.71642493  0.71340339  0.48205661
   0.71136895  0.85458536  0.49015274
   0.85591476  0.99826907  0.49425155
   0.85614963  0.14120033  0.49619563
   0.85670830  0.28425898  0.49708910
   0.85652909  0.42711239  0.49656709
   0.85578044  0.56936190  0.49459201
   0.85735613  0.71300142  0.49175327
   0.85633549  0.85544216  0.49227000
   0.04733832  0.09454895  0.49559855
   0.04677648  0.23699538  0.49612072
   0.04691071  0.38024599  0.49689814
   0.04721937  0.52305145  0.49733659
   0.04710668  0.66581956  0.49734382
   0.04711349  0.80870878  0.49658470
   0.04740898  0.95177894  0.49568566
   0.19080035  0.09531876  0.49520705
   0.19041927  0.23819573  0.49427181
   0.18913905  0.38043265  0.49405579
   0.19075660  0.52408146  0.49531017
   0.19005908  0.66633639  0.49646841
   0.18989772  0.80922306  0.49712031
   0.19051430  0.95232209  0.49647353
   0.33408544  0.09589169  0.49532735
   0.33537887  0.23905123  0.49373821
   0.33067140  0.38054181  0.49026426
   0.33125481  0.52325620  0.48945132
   0.33626590  0.67005466  0.49391966
   0.33225514  0.80947223  0.49572489
   0.33287315  0.95231543  0.49622702
   0.47622467  0.09476501  0.49561554
   0.47738142  0.23902848  0.49458784
   0.47150364  0.80549085  0.49396047
   0.47541896  0.95163459  0.49530480
   0.61836685  0.09385478  0.49605535
   0.61961692  0.23722517  0.49568819
   0.61787384  0.80979738  0.49049355
   0.61711769  0.95012401  0.49442023
   0.76089261  0.09328847  0.49586459
   0.76177105  0.23620568  0.49684307
   0.76120144  0.37879459  0.49563865
   0.75943533  0.52150151  0.49124993
   0.76183843  0.66468984  0.48568104
   0.76036829  0.80618660  0.48797787
   0.76024593  0.95012857  0.49313949
   0.90372703  0.09341031  0.49561959
   0.90409608  0.23661170  0.49688779
   0.90408623  0.37978756  0.49726229
   0.90396997  0.52253745  0.49655456
   0.90403882  0.66489647  0.49454400
   0.90428516  0.80823742  0.49325918
   0.90391452  0.95076974  0.49418696
   0.46770575  0.35654062  0.49438872
   0.40330382  0.41966099  0.48966757
   0.40392652  0.55887048  0.48569034
   0.64403661  0.67554757  0.47464287
   0.64271417  0.53286827  0.47818065
   0.57885520  0.73714819  0.48863033
   0.51367338  0.59896235  0.59653188
   0.58196569  0.56929254  0.57333455
   0.42633609  0.71503948  0.49379125
   0.62033700  0.37835447  0.49308452
   0.51877025  0.55044197  0.56961431
Direct configuration=     3
   0.99939549  0.99904634  0.49521467
   0.99926814  0.14175870  0.49591766
   0.99945874  0.28479369  0.49676917
   0.99941519  0.42767935  0.49734451
   0.99933601  0.57043864  0.49729104
   0.99961833  0.71325994  0.49661121
   0.99982702  0.85651491  0.49549845
   0.14296145  0.00013804  0.49595110
   0.14282180  0.14285300  0.49513998
   0.14228756  0.28523819  0.49494260
   0.14245967  0.42856790  0.49555843
   0.14256052  0.57090449  0.49662274
   0.14248122  0.71369112  0.49724247
   0.14250467  0.85687754  0.49703304
   0.28577793  0.00018880  0.49615602
   0.28648321  0.14344448  0.49473179
   0.28648124  0.28758646  0.49265391
   0.28466665  0.42868790  0.49097504
   0.28712222  0.57184684  0.49288005
   0.28542865  0.71464851  0.49539029
   0.28485525  0.85723667  0.49654029
   0.42830189  0.99961262  0.49569700
   0.42952603  0.14335660  0.49513875
   0.42887787  0.28389108  0.49408479
   0.42702184  0.85621292  0.49491945
   0.57043151  0.99871523  0.49536252
   0.57126098  0.14182427  0.49592368
   0.57510744  0.28794347  0.49456620
   0.56921422  0.85446603  0.49304583
   0.71255464  0.99756964  0.49460763
   0.71377614  0.14114491  0.49644258
   0.71437021  0.28397114  0.49623948
   0.71034354  0.42327205  0.49333454
   0.71536189  0.57002883  0.48477858
   0.71642486  0.71340572  0.48205921
   0.71136966  0.85458564  0.49015363
   0.85591288  0.99826844  0.49424478
   0.85614923  0.14120312  0.49619236
   0.85670622  0.28425945  0.49708929
   0.85652886  0.42711317  0.49656566
   0.85578179  0.56936291  0.49459095
   0.85735476  0.71300205  0.49175285
   0.85633664  0.85544321  0.49226942
   0.04733709  0.09455134  0.49559232
   0.04677665  0.23699656  0.49611674
   0.04691010  0.38024586  0.49688564
   0.04722090  0.52305295  0.49733478
   0.04710775  0.66582203  0.49734071
   0.04711469  0.80870966  0.49658152
   0.04740993  0.95177977  0.49568049
   0.19080074  0.09531901  0.49520287
   0.19041978  0.23819744  0.49426356
   0.18913980  0.38043529  0.49405230
   0.19075730  0.52408091  0.49530937
   0.19005945  0.66633775  0.49646434
   0.18989767  0.80922311  0.49712016
   0.19051304  0.95232038  0.49646943
   0.33408487  0.09589234  0.49532503
   0.33537860  0.23905163  0.49373842
   0.33067277  0.38054218  0.49026159
   0.33125678  0.52325679  0.48944814
   0.33626675  0.67005546  0.49391885
   0.33225616  0.80947281  0.49572264
   0.33286977  0.95231444  0.49622761
   0.47622650  0.09476620  0.49561312
   0.47738004  0.23902773  0.49458726
   0.47150418  0.80549130  0.49395813
   0.47541833  0.95163492  0.49530587
   0.61836745  0.09385619  0.49605259
   0.61962134  0.23722767  0.49568802
   0.61787386  0.80979733  0.49049681
   0.61711660  0.95012422  0.49441779
   0.76089289  0.09329047  0.49586099
   0.76177057  0.23620629  0.49684391
   0.76120379  0.37879692  0.49563787
   0.75943662  0.52150193  0.49124965
   0.76183722  0.66469032  0.48568466
   0.76036973  0.80618874  0.48797982
   0.76024373  0.95012760  0.49313735
   0.90372365  0.09341143  0.49561727
   0.90409656  0.23661587  0.49688526
   0.90408592  0.37978810  0.49725880
   0.90397036  0.52253844  0.49655175
   0.90403869  0.66489705  0.49454475
   0.90428588  0.80823770  0.49325808
   0.90391544  0.95077095  0.49418669
   0.46770476  0.35654037  0.49439000
   0.40330247  0.41965898  0.48966452
   0.40392831  0.55887154  0.48569071
   0.64403739  0.67554811  0.47464966
   0.64271491  0.53286742  0.47818020
   0.57885589  0.73714883  0.48863511
   0.51366418  0.59890567  0.59653951
   0.58196234  0.56927910  0.57332450
   0.42633686  0.71503950  0.49378791
   0.62033711  0.37835333  0.49308522
   0.51877436  0.55045633  0.56946465
Direct configuration=     4
   0.99939371  0.99904687  0.49521288
   0.99926536  0.14175754  0.49591213
   0.99945932  0.28479547  0.49676203
   0.99941772  0.42768211  0.49733149
   0.99933737  0.57043926  0.49728663
   0.99961758  0.71326133  0.49660923
   0.99982694  0.85651687  0.49549113
   0.14296160  0.00013902  0.49594483
   0.14282033  0.14285262  0.49513575
   0.14228635  0.28523809  0.49493569
   0.14245924  0.42857075  0.49554894
   0.14256246  0.57090553  0.49662027
   0.14248135  0.71369049  0.49723700
   0.14250517  0.85687937  0.49703288
   0.28577800  0.00018953  0.49615217
   0.28648320  0.14344338  0.49472848
   0.28647977  0.28758571  0.49264770
   0.28466425  0.42868751  0.49096856
   0.28712300  0.57184754  0.49287557
   0.28542870  0.71464819  0.49538820
   0.28485580  0.85723705  0.49653944
   0.42830193  0.99961386  0.49569526
   0.42952509  0.14335443  0.49513663
   0.42887765  0.28388683  0.49408592
   0.42702331  0.85621400  0.49491619
   0.57042958  0.99871621  0.49535966
   0.57126077  0.14182370  0.49592432
   0.57510798  0.28794323  0.49456486
   0.56921443  0.85446742  0.49304570
   0.71255529  0.99757057  0.49460452
   0.71377283  0.14114286  0.49643783
   0.71437039  0.28397163  0.49624036
   0.71034184  0.42327215  0.49333355
   0.71536082  0.57003116  0.48478097
   0.71642625  0.71340732  0.48206218
   0.71136967  0.85458565  0.49015493
   0.85590978  0.99826754  0.49423709
   0.85614614  0.14120496  0.49618823
   0.85670373  0.28425865  0.49708909
   0.85652862  0.42711512  0.49656409
   0.85578456  0.56936557  0.49458996
   0.85735356  0.71300325  0.49175289
   0.85633796  0.85544602  0.49226895
   0.04733607  0.09455522  0.49558540
   0.04677709  0.23699849  0.49611231
   0.04690895  0.38024639  0.49686992
   0.04722088  0.52305283  0.49733222
   0.04710879  0.66582494  0.49733628
   0.04711634  0.80871074  0.49657747
   0.04741151  0.95177917  0.49567487
   0.19079938  0.09531915  0.49519752
   0.19042055  0.23820148  0.49425453
   0.18914164  0.38043700  0.49404669
   0.19075596  0.52407891  0.49530713
   0.19006178  0.66634107  0.49645924
   0.18989826  0.80922381  0.49711975
   0.19051140  0.95231855  0.49646576
   0.33408405  0.09589231  0.49532180
   0.33537896  0.23905291  0.49373817
   0.33067545  0.38054255  0.49025789
   0.33126027  0.52325789  0.48944368
   0.33626851  0.67005786  0.49391657
   0.33225643  0.80947270  0.49571965
   0.33286673  0.95231306  0.49622770
   0.47622863  0.09476682  0.49561036
   0.47737957  0.23902931  0.49458657
   0.47150481  0.80549081  0.49395631
   0.47541830  0.95163602  0.49530554
   0.61836959  0.09385859  0.49604915
   0.61962687  0.23723220  0.49568785
   0.61787423  0.80979665  0.49050087
   0.61711421  0.95012339  0.49441472
   0.76089324  0.09329254  0.49585605
   0.76177272  0.23620963  0.49684375
   0.76120736  0.37880075  0.49563689
   0.75943827  0.52150163  0.49124933
   0.76183572  0.66469038  0.48568888
   0.76037199  0.80619177  0.48798207
   0.76024129  0.95012877  0.49313410
   0.90372444  0.09341465  0.49561253
   0.90409615  0.23662042  0.49688187
   0.90408563  0.37979021  0.49725383
   0.90397108  0.52253900  0.49654767
   0.90403905  0.66489756  0.49454511
   0.90428755  0.80823787  0.49325611
   0.90391610  0.95077220  0.49418569
   0.46770403  0.35654107  0.49439162
   0.40330018  0.41965617  0.48966065
   0.40392969  0.55887275  0.48569105
   0.64403784  0.67554874  0.47465842
   0.64271606  0.53286640  0.47817921
   0.57885662  0.73714934  0.48864146
   0.51364793  0.59882072  0.59654461
   0.58195262  0.56925565  0.57331161
   0.42633708  0.71503949  0.49378394
   0.62033803  0.37835207  0.49308591
   0.51878730  0.55049134  0.56927535
Direct configuration=     5
   0.99939301  0.99904828  0.49520861
   0.99926394  0.14175865  0.49590550
   0.99945979  0.28479791  0.49675181
   0.99941870  0.42768454  0.49731599
   0.99933769  0.57043872  0.49728282
   0.99961690  0.71326305  0.49660645
   0.99982676  0.85651700  0.49548376
   0.14296133  0.00014036  0.49593649
   0.14281891  0.14285311  0.49512914
   0.14228560  0.28523874  0.49492624
   0.14245864  0.42857290  0.49553726
   0.14256375  0.57090730  0.49661736
   0.14248167  0.71369015  0.49723045
   0.14250484  0.85687859  0.49703193
   0.28577623  0.00018989  0.49614781
   0.28648158  0.14344344  0.49472552
   0.28648015  0.28758797  0.49264020
   0.28466421  0.42868659  0.49096146
   0.28712697  0.57185047  0.49287226
   0.28542926  0.71464977  0.49538513
   0.28485601  0.85723738  0.49653850
   0.42830236  0.99961572  0.49569351
   0.42952496  0.14335458  0.49513510
   0.42887735  0.28388512  0.49408563
   0.42702419  0.85621362  0.49491412
   0.57042736  0.99871726  0.49535597
   0.57126084  0.14182320  0.49592400
   0.57510818  0.28794342  0.49456392
   0.56921420  0.85446855  0.49304537
   0.71255727  0.99757266  0.49460001
   0.71377123  0.14114322  0.49643238
   0.71437252  0.28397403  0.49624125
   0.71034139  0.42327210  0.49333243
   0.71536070  0.57003329  0.48478405
   0.71642834  0.71340877  0.48206597
   0.71136863  0.85458574  0.49015680
   0.85590743  0.99826869  0.49422900
   0.85614335  0.14120747  0.49618307
   0.85670329  0.28426015  0.49708796
   0.85652956  0.42711830  0.49656194
   0.85578736  0.56936813  0.49458893
   0.85735355  0.71300419  0.49175383
   0.85633971  0.85544933  0.49226872
   0.04733536  0.09455762  0.49557952
   0.04677644  0.23699978  0.49610674
   0.04690871  0.38024854  0.49685103
   0.04722137  0.52305305  0.49732772
   0.04710907  0.66582644  0.49733044
   0.04711712  0.80871239  0.49657244
   0.04741219  0.95177905  0.49566850
   0.19079691  0.09531929  0.49519085
   0.19042015  0.23820479  0.49424622
   0.18914206  0.38043738  0.49403815
   0.19075453  0.52407821  0.49530258
   0.19006468  0.66634359  0.49645324
   0.18989933  0.80922492  0.49711882
   0.19051099  0.95231915  0.49646229
   0.33408376  0.09589123  0.49531745
   0.33537857  0.23905239  0.49373706
   0.33067542  0.38054168  0.49025266
   0.33126264  0.52325936  0.48943792
   0.33626878  0.67005676  0.49391348
   0.33225677  0.80947252  0.49571591
   0.33286885  0.95231530  0.49622718
   0.47623050  0.09476727  0.49560880
   0.47738065  0.23902975  0.49458585
   0.47150572  0.80549046  0.49395479
   0.47541843  0.95163783  0.49530343
   0.61837046  0.09385998  0.49604507
   0.61962915  0.23723491  0.49568773
   0.61787405  0.80979558  0.49050441
   0.61711195  0.95012323  0.49441105
   0.76089197  0.09329321  0.49584962
   0.76177400  0.23621189  0.49684254
   0.76120902  0.37880394  0.49563586
   0.75943905  0.52150264  0.49124900
   0.76183484  0.66469126  0.48569367
   0.76037468  0.80619476  0.48798459
   0.76023959  0.95013132  0.49312946
   0.90372610  0.09341739  0.49560474
   0.90409460  0.23662279  0.49687737
   0.90408585  0.37979345  0.49724710
   0.90397313  0.52254053  0.49654238
   0.90403949  0.66489915  0.49454480
   0.90428873  0.80823890  0.49325298
   0.90391549  0.95077360  0.49418342
   0.46770275  0.35654066  0.49439364
   0.40329895  0.41965366  0.48965608
   0.40393148  0.55887448  0.48569106
   0.64403824  0.67554971  0.47466931
   0.64271700  0.53286513  0.47817766
   0.57885707  0.73714908  0.48864961
   0.51362022  0.59871944  0.59655545
   0.58193464  0.56921903  0.57329622
   0.42633721  0.71503969  0.49377941
   0.62033862  0.37835093  0.49308648
   0.51881551  0.55053682  0.56904017
Direct configuration=     6
   0.99939642  0.99905130  0.49520430
   0.99926498  0.14176308  0.49589796
   0.99945913  0.28480022  0.49673852
   0.99941705  0.42768566  0.49729882
   0.99933821  0.57043900  0.49727924
   0.99961759  0.71326498  0.49660256
   0.99982632  0.85651842  0.49547761
   0.14295943  0.00013934  0.49592731
   0.14281828  0.14285622  0.49512006
   0.14228529  0.28524091  0.49491455
   0.14245884  0.42857254  0.49552496
   0.14256441  0.57090952  0.49661352
   0.14248189  0.71369120  0.49722457
   0.14250511  0.85687878  0.49702931
   0.28577650  0.00018741  0.49614266
   0.28647887  0.14344414  0.49472256
   0.28648129  0.28759065  0.49263192
   0.28466703  0.42868667  0.49095374
   0.28713076  0.57185251  0.49286981
   0.28543125  0.71465218  0.49538077
   0.28485723  0.85723882  0.49653727
   0.42830322  0.99961756  0.49569170
   0.42952630  0.14335673  0.49513388
   0.42887716  0.28388722  0.49408400
   0.42702455  0.85621291  0.49491303
   0.57042677  0.99871838  0.49535134
   0.57126293  0.14182540  0.49592236
   0.57510854  0.28794359  0.49456346
   0.56921439  0.85446869  0.49304463
   0.71255675  0.99757496  0.49459386
   0.71377308  0.14114738  0.49642642
   0.71437649  0.28397881  0.49624174
   0.71034332  0.42327312  0.49333114
   0.71536187  0.57003335  0.48478774
   0.71642774  0.71341116  0.48207097
   0.71136753  0.85458686  0.49015893
   0.85590764  0.99827290  0.49422097
   0.85614161  0.14120632  0.49617575
   0.85670578  0.28426571  0.49708524
   0.85653177  0.42712212  0.49655873
   0.85578673  0.56936975  0.49458637
   0.85735468  0.71300499  0.49175557
   0.85634183  0.85545199  0.49226851
   0.04733484  0.09455736  0.49557451
   0.04677442  0.23700058  0.49609938
   0.04690959  0.38025189  0.49682995
   0.04722359  0.52305523  0.49732061
   0.04710715  0.66582525  0.49732473
   0.04711659  0.80871378  0.49656655
   0.04741083  0.95178054  0.49566115
   0.19079420  0.09532170  0.49518427
   0.19041898  0.23820513  0.49424116
   0.18914155  0.38043653  0.49402692
   0.19075620  0.52408157  0.49529537
   0.19006632  0.66634283  0.49644813
   0.18990026  0.80922551  0.49711698
   0.19051140  0.95232172  0.49645868
   0.33408367  0.09589068  0.49531216
   0.33537716  0.23905041  0.49373457
   0.33067318  0.38054094  0.49024564
   0.33126323  0.52326040  0.48943132
   0.33626848  0.67005458  0.49390948
   0.33225804  0.80947341  0.49571165
   0.33287156  0.95231767  0.49622537
   0.47623109  0.09476837  0.49560837
   0.47738260  0.23902811  0.49458498
   0.47150640  0.80549056  0.49395319
   0.47541757  0.95163862  0.49529953
   0.61836889  0.09385963  0.49604040
   0.61962713  0.23723380  0.49568753
   0.61787316  0.80979503  0.49050728
   0.61711172  0.95012528  0.49440682
   0.76088936  0.09329320  0.49584185
   0.76177310  0.23621170  0.49684028
   0.76120832  0.37880548  0.49563484
   0.75943759  0.52150641  0.49124837
   0.76183624  0.66469378  0.48569876
   0.76037715  0.80619680  0.48798717
   0.76023936  0.95013350  0.49312346
   0.90372168  0.09341767  0.49559500
   0.90409332  0.23662296  0.49687155
   0.90408848  0.37979793  0.49723957
   0.90397619  0.52254375  0.49653626
   0.90403999  0.66490200  0.49454364
   0.90428862  0.80824095  0.49324879
   0.90391408  0.95077628  0.49417945
   0.46770076  0.35653862  0.49439569
   0.40329949  0.41965191  0.48965048
   0.40393415  0.55887689  0.48569007
   0.64403950  0.67555145  0.47468234
   0.64271793  0.53286393  0.47817561
   0.57885710  0.73714758  0.48865939
   0.51357891  0.59861050  0.59657495
   0.58192013  0.56917182  0.57327521
   0.42633744  0.71503992  0.49377458
   0.62033858  0.37835093  0.49308671
   0.51884872  0.55058173  0.56875590
Direct configuration=     7
   0.99939954  0.99905461  0.49519883
   0.99926529  0.14176692  0.49588848
   0.99945670  0.28480217  0.49671979
   0.99941667  0.42768816  0.49727792
   0.99934004  0.57044115  0.49727461
   0.99961920  0.71326651  0.49659659
   0.99982524  0.85652141  0.49547168
   0.14295695  0.00013895  0.49591644
   0.14281753  0.14286075  0.49510778
   0.14228446  0.28524277  0.49489943
   0.14246119  0.42857254  0.49550931
   0.14256536  0.57091117  0.49660723
   0.14248194  0.71369210  0.49721885
   0.14250534  0.85687884  0.49702476
   0.28577667  0.00018805  0.49613690
   0.28647561  0.14344444  0.49472036
   0.28648027  0.28758976  0.49262248
   0.28466736  0.42868832  0.49094498
   0.28713103  0.57185201  0.49286712
   0.28543389  0.71465278  0.49537422
   0.28486031  0.85724160  0.49653520
   0.42830759  0.99962062  0.49569130
   0.42952786  0.14335862  0.49513257
   0.42887761  0.28388761  0.49408288
   0.42702506  0.85621355  0.49491232
   0.57042750  0.99871926  0.49534484
   0.57126472  0.14182846  0.49591901
   0.57510899  0.28794315  0.49456368
   0.56921536  0.85446892  0.49304321
   0.71255259  0.99757652  0.49458468
   0.71377533  0.14115200  0.49641917
   0.71437732  0.28398191  0.49624151
   0.71034528  0.42327614  0.49332959
   0.71536209  0.57003407  0.48479217
   0.71642882  0.71341494  0.48207754
   0.71136811  0.85458977  0.49016118
   0.85590896  0.99827781  0.49421191
   0.85614177  0.14120785  0.49616588
   0.85670950  0.28427235  0.49707967
   0.85653450  0.42712658  0.49655336
   0.85578634  0.56937135  0.49458323
   0.85735627  0.71300749  0.49175816
   0.85634121  0.85545332  0.49226673
   0.04733496  0.09455785  0.49556904
   0.04677261  0.23700307  0.49608769
   0.04691046  0.38025510  0.49680430
   0.04722469  0.52305658  0.49731013
   0.04710520  0.66582363  0.49731869
   0.04711575  0.80871533  0.49655913
   0.04740867  0.95178552  0.49565304
   0.19079134  0.09532467  0.49517646
   0.19041836  0.23820490  0.49423746
   0.18914195  0.38043629  0.49401071
   0.19076132  0.52408728  0.49528423
   0.19006647  0.66634201  0.49644345
   0.18990091  0.80922591  0.49711348
   0.19051200  0.95232381  0.49645372
   0.33408271  0.09589115  0.49530553
   0.33537616  0.23905026  0.49372968
   0.33067322  0.38054218  0.49023518
   0.33126448  0.52326071  0.48942347
   0.33626977  0.67005447  0.49390587
   0.33226007  0.80947582  0.49570671
   0.33287333  0.95231787  0.49622174
   0.47623112  0.09477096  0.49560887
   0.47738371  0.23902813  0.49458385
   0.47150644  0.80549078  0.49395111
   0.47541497  0.95163824  0.49529540
   0.61836736  0.09385979  0.49603440
   0.61962562  0.23723243  0.49568718
   0.61787134  0.80979437  0.49051007
   0.61711321  0.95012842  0.49440129
   0.76088695  0.09329443  0.49583156
   0.76177364  0.23621477  0.49683850
   0.76120884  0.37880745  0.49563380
   0.75943886  0.52150949  0.49124825
   0.76183920  0.66469774  0.48570486
   0.76037837  0.80619861  0.48799045
   0.76024004  0.95013519  0.49311535
   0.90371565  0.09341836  0.49558187
   0.90409276  0.23662242  0.49686270
   0.90409162  0.37980303  0.49722976
   0.90397759  0.52254808  0.49652882
   0.90404089  0.66490478  0.49454129
   0.90428818  0.80824389  0.49324363
   0.90391506  0.95078185  0.49417294
   0.46769895  0.35653694  0.49439778
   0.40330023  0.41964990  0.48964278
   0.40393685  0.55887988  0.48568720
   0.64404073  0.67555367  0.47469948
   0.64271980  0.53286323  0.47817291
   0.57885683  0.73714476  0.48867225
   0.51351587  0.59846859  0.59659980
   0.58191571  0.56910722  0.57324417
   0.42633775  0.71503981  0.49376906
   0.62033932  0.37835308  0.49308663
   0.51888135  0.55063631  0.56839159
Direct configuration=     8
   0.99939684  0.99905883  0.49519151
   0.99926078  0.14176606  0.49587671
   0.99945453  0.28480494  0.49669448
   0.99942155  0.42769402  0.49725296
   0.99934165  0.57044415  0.49726775
   0.99961967  0.71326739  0.49658811
   0.99982569  0.85652320  0.49546376
   0.14295549  0.00014127  0.49590624
   0.14281550  0.14286328  0.49509399
   0.14228301  0.28524258  0.49488136
   0.14246547  0.42857732  0.49548800
   0.14256714  0.57091165  0.49659713
   0.14248179  0.71369164  0.49721365
   0.14250550  0.85688055  0.49701780
   0.28577763  0.00019305  0.49613069
   0.28647543  0.14344395  0.49471594
   0.28647746  0.28758732  0.49261286
   0.28466549  0.42869097  0.49093417
   0.28712980  0.57185131  0.49286306
   0.28543208  0.71465015  0.49536620
   0.28486311  0.85724393  0.49653168
   0.42830838  0.99962282  0.49568997
   0.42952636  0.14335868  0.49513104
   0.42887700  0.28388373  0.49408255
   0.42702560  0.85621609  0.49491142
   0.57042718  0.99871987  0.49533629
   0.57126268  0.14182898  0.49591436
   0.57510991  0.28794433  0.49456491
   0.56921633  0.85447085  0.49304109
   0.71255600  0.99757983  0.49457128
   0.71377427  0.14115435  0.49641071
   0.71437294  0.28398143  0.49624056
   0.71034541  0.42327930  0.49333032
   0.71536239  0.57003908  0.48479724
   0.71643144  0.71341857  0.48208601
   0.71137018  0.85459362  0.49016303
   0.85590850  0.99828029  0.49420104
   0.85613938  0.14121175  0.49615249
   0.85670980  0.28427161  0.49707088
   0.85653588  0.42713131  0.49654517
   0.85578827  0.56937569  0.49457953
   0.85735824  0.71301293  0.49176128
   0.85633951  0.85545800  0.49226285
   0.04733539  0.09456437  0.49556174
   0.04677252  0.23700816  0.49606935
   0.04691102  0.38025730  0.49677393
   0.04722441  0.52305797  0.49729518
   0.04710747  0.66582628  0.49731259
   0.04711571  0.80871836  0.49655034
   0.04740773  0.95178674  0.49564221
   0.19078866  0.09532569  0.49516672
   0.19041834  0.23820811  0.49423260
   0.18914355  0.38043823  0.49398903
   0.19076507  0.52408913  0.49526936
   0.19006668  0.66634507  0.49643916
   0.18990185  0.80922727  0.49710793
   0.19051099  0.95232358  0.49644647
   0.33408108  0.09589403  0.49529864
   0.33537684  0.23905335  0.49372245
   0.33067578  0.38054387  0.49022130
   0.33126777  0.52326191  0.48941584
   0.33627276  0.67005751  0.49390269
   0.33226167  0.80947756  0.49570173
   0.33287502  0.95231881  0.49621660
   0.47623171  0.09477149  0.49560950
   0.47738360  0.23903217  0.49458297
   0.47150638  0.80549133  0.49394855
   0.47541600  0.95163882  0.49529192
   0.61836928  0.09386331  0.49602670
   0.61962881  0.23723582  0.49568664
   0.61786991  0.80979298  0.49051354
   0.61711280  0.95012921  0.49439398
   0.76088688  0.09329910  0.49581831
   0.76177911  0.23622513  0.49683699
   0.76121282  0.37881196  0.49563267
   0.75944302  0.52151041  0.49124902
   0.76184121  0.66470194  0.48571222
   0.76037769  0.80620242  0.48799494
   0.76023960  0.95013792  0.49310527
   0.90372230  0.09342589  0.49556375
   0.90409280  0.23662566  0.49684913
   0.90409332  0.37980809  0.49721653
   0.90397289  0.52254733  0.49652160
   0.90404270  0.66490702  0.49453781
   0.90428443  0.80824104  0.49323813
   0.90391910  0.95078810  0.49416371
   0.46769829  0.35653757  0.49439985
   0.40330045  0.41964775  0.48963297
   0.40393841  0.55888342  0.48568196
   0.64404151  0.67555615  0.47472171
   0.64272277  0.53286381  0.47816852
   0.57885683  0.73714172  0.48868907
   0.51342540  0.59826955  0.59662224
   0.58190926  0.56901484  0.57320781
   0.42633924  0.71504069  0.49376370
   0.62034111  0.37835655  0.49308670
   0.51893133  0.55072512  0.56794241
Direct configuration=     9
   0.99939793  0.99906836  0.49518297