  93  93   0   0
  0.4166543E+02  0.1727104E-08  0.1727104E-08  0.1500000E-08  0.0000000E+00
  1.000000000000000E-004
  CAR 
 unknown system                          
      5.74490973    -30.91515427  301     -2.87979975      1.00000000
    -30.915  0.0000E+00  0.0000E+00  0.0000E+00  0.0000E+00
    -30.793  0.0000E+00  0.0000E+00  0.0000E+00  0.0000E+00
    -30.671  0.0000E+00  0.0000E+00  0.0000E+00  0.0000E+00
    -30.549  0.0000E+00  0.0000E+00  0.0000E+00  0.0000E+00
    -30.426  0.0000E+00  0.0000E+00  0.0000E+00  0.0000E+00
    -30.304  0.0000E+00  0.0000E+00  0.0000E+00  0.0000E+00
    -30.182  0.0000E+00  0.0000E+00  0.0000E+00  0.0000E+00
    -30.060  0.0000E+00  0.0000E+00  0.0000E+00  0.0000E+00
    -29.938  0.0000E+00  0.0000E+00  0.0000E+00  0.0000E+00
    -29.815  0.0000E+00  0.0000E+00  0.0000E+00  0.0000E+00
    -29.693  0.0000E+00  0.0000E+00  0.0000E+00  0.0000E+00
    -29.571  0.0000E+00  0.0000E+00  0.0000E+00  0.0000E+00
    -29.449  0.1003E-09  0.1003E-09  0.1226E-10  0.1226E-10
    -29.327  0.2036E-03  0.2036E-03  0.2488E-04  0.2488E-04
    -29.204  0.1431E-01  0.1431E-01  0.1774E-02  0.1774E-02
    -29.082  0.1853E-02  0.1853E-02  0.2000E-02  0.2000E-02
    -28.960  0.2560E-07  0.2560E-07  0.2000E-02  0.2000E-02
    -28.838  0.0000E+00  0.0000E+00  0.2000E-02  0.2000E-02
    -28.716  0.0000E+00  0.0000E+00  0.2000E-02  0.2000E-02
    -28.593  0.0000E+00  0.0000E+00  0.2000E-02  0.2000E-02
    -28.471  0.0000E+00  0.0000E+00  0.2000E-02  0.2000E-02
    -28.349  0.0000E+00  0.0000E+00  0.2000E-02  0.2000E-02
    -28.227  0.0000E+00  0.0000E+00  0.2000E-02  0.2000E-02
    -28.105  0.0000E+00  0.0000E+00  0.2000E-02  0.2000E-02
    -27.982  0.0000E+00  0.0000E+00  0.2000E-02  0.2000E-02
    -27.860  0.0000E+00  0.0000E+00  0.2000E-02  0.2000E-02
    -27.738  0.0000E+00  0.0000E+00  0.2000E-02  0.2000E-02
    -27.616  0.0000E+00  0.0000E+00  0.2000E-02  0.2000E-02
    -27.494  0.0000E+00  0.0000E+00  0.2000E-02  0.2000E-02
    -27.371  0.0000E+00  0.0000E+00  0.2000E-02  0.2000E-02
    -27.249  0.0000E+00  0.0000E+00  0.2000E-02  0.2000E-02
    -27.127  0.0000E+00  0.0000E+00  0.2000E-02  0.2000E-02
    -27.005  0.0000E+00  0.0000E+00  0.2000E-02  0.2000E-02
    -26.883  0.0000E+00  0.0000E+00  0.2000E-02  0.2000E-02
    -26.760  0.0000E+00  0.0000E+00  0.2000E-02  0.2000E-02
    -26.638  0.0000E+00  0.0000E+00  0.2000E-02  0.2000E-02
    -26.516  0.0000E+00  0.0000E+00  0.2000E-02  0.2000E-02
    -26.394  0.0000E+00  0.0000E+00  0.2000E-02  0.2000E-02
    -26.272  0.0000E+00  0.0000E+00  0.2000E-02  0.2000E-02
    -26.149  0.0000E+00  0.0000E+00  0.2000E-02  0.2000E-02
    -26.027  0.0000E+00  0.0000E+00  0.2000E-02  0.2000E-02
    -25.905  0.0000E+00  0.0000E+00  0.2000E-02  0.2000E-02
    -25.783  0.0000E+00  0.0000E+00  0.2000E-02  0.2000E-02
    -25.661  0.0000E+00  0.0000E+00  0.2000E-02  0.2000E-02
    -25.538  0.0000E+00  0.0000E+00  0.2000E-02  0.2000E-02
    -25.416  0.0000E+00  0.0000E+00  0.2000E-02  0.2000E-02
    -25.294  0.0000E+00  0.0000E+00  0.2000E-02  0.2000E-02
    -25.172  0.0000E+00  0.0000E+00  0.2000E-02  0.2000E-02
    -25.050  0.0000E+00  0.0000E+00  0.2000E-02  0.2000E-02
    -24.927  0.0000E+00  0.0000E+00  0.2000E-02  0.2000E-02
    -24.805  0.0000E+00  0.0000E+00  0.2000E-02  0.2000E-02
    -24.683  0.0000E+00  0.0000E+00  0.2000E-02  0.2000E-02
    -24.561  0.0000E+00  0.0000E+00  0.2000E-02  0.2000E-02
    -24.439  0.0000E+00  0.0000E+00  0.2000E-02  0.2000E-02
    -24.316  0.0000E+00  0.0000E+00  0.2000E-02  0.2000E-02
    -24.194  0.0000E+00  0.0000E+00  0.2000E-02  0.2000E-02
    -24.072  0.0000E+00  0.0000E+00  0.2000E-02  0.2000E-02
    -23.950  0.0000E+00  0.0000E+00  0.2000E-02  0.2000E-02
    -23.828  0.0000E+00  0.0000E+00  0.2000E-02  0.2000E-02
    -23.705  0.0000E+00  0.0000E+00  0.2000E-02  0.2000E-02
    -23.583  0.0000E+00  0.0000E+00  0.2000E-02  0.2000E-02
    -23.461  0.0000E+00  0.0000E+00  0.2000E-02  0.2000E-02
    -23.339  0.0000E+00  0.0000E+00  0.2000E-02  0.2000E-02
    -23.217  0.0000E+00  0.0000E+00  0.2000E-02  0.2000E-02
    -23.094  0.0000E+00  0.0000E+00  0.2000E-02  0.2000E-02
    -22.972  0.0000E+00  0.0000E+00  0.2000E-02  0.2000E-02
    -22.850  0.7282E-10  0.7282E-10  0.2000E-02  0.2000E-02
    -22.728  0.8713E-04  0.8713E-04  0.2011E-02  0.2011E-02
    -22.606  0.1071E-01  0.1071E-01  0.3319E-02  0.3319E-02
    -22.483  0.5805E-02  0.5805E-02  0.4028E-02  0.4028E-02
    -22.361  0.1021E-01  0.1021E-01  0.5276E-02  0.5276E-02
    -22.239  0.5909E-02  0.5909E-02  0.5998E-02  0.5998E-02
    -22.117  0.8115E-03  0.8115E-03  0.6098E-02  0.6098E-02
    -21.995  0.7596E-02  0.7596E-02  0.7026E-02  0.7026E-02
    -21.872  0.1162E-01  0.1162E-01  0.8446E-02  0.8446E-02
    -21.750  0.1134E-01  0.1134E-01  0.9832E-02  0.9832E-02
    -21.628  0.5589E-02  0.5589E-02  0.1052E-01  0.1052E-01
    -21.506  0.5500E-02  0.5500E-02  0.1119E-01  0.1119E-01
    -21.384  0.7291E-02  0.7291E-02  0.1208E-01  0.1208E-01
    -21.261  0.5109E-02  0.5109E-02  0.1270E-01  0.1270E-01
    -21.139  0.2513E-02  0.2513E-02  0.1301E-01  0.1301E-01
    -21.017  0.6549E-02  0.6549E-02  0.1381E-01  0.1381E-01
    -20.895  0.6857E-02  0.6857E-02  0.1465E-01  0.1465E-01
    -20.773  0.4964E-02  0.4964E-02  0.1525E-01  0.1525E-01
    -20.650  0.6157E-02  0.6157E-02  0.1601E-01  0.1601E-01
    -20.528  0.6784E-02  0.6784E-02  0.1684E-01  0.1684E-01
    -20.406  0.7400E-02  0.7400E-02  0.1774E-01  0.1774E-01
    -20.284  0.5913E-02  0.5913E-02  0.1846E-01  0.1846E-01
    -20.162  0.5684E-02  0.5684E-02  0.1916E-01  0.1916E-01
    -20.039  0.6445E-02  0.6445E-02  0.1994E-01  0.1994E-01
    -19.917  0.3457E-02  0.3457E-02  0.2037E-01  0.2037E-01
    -19.795  0.7780E-02  0.7780E-02  0.2132E-01  0.2132E-01
    -19.673  0.1025E-01  0.1025E-01  0.2257E-01  0.2257E-01
    -19.551  0.9223E-02  0.9223E-02  0.2370E-01  0.2370E-01
    -19.428  0.3179E-02  0.3179E-02  0.2409E-01  0.2409E-01
    -19.306  0.5973E-02  0.5973E-02  0.2482E-01  0.2482E-01
    -19.184  0.4987E-02  0.4987E-02  0.2542E-01  0.2542E-01
    -19.062  0.4107E-02  0.4107E-02  0.2593E-01  0.2593E-01
    -18.940  0.5202E-02  0.5202E-02  0.2656E-01  0.2656E-01
    -18.817  0.1403E-01  0.1403E-01  0.2828E-01  0.2828E-01
    -18.695  0.9310E-02  0.9310E-02  0.2941E-01  0.2941E-01
    -18.573  0.5777E-02  0.5777E-02  0.3012E-01  0.3012E-01
    -18.451  0.5663E-02  0.5663E-02  0.3081E-01  0.3081E-01
    -18.329  0.6711E-02  0.6711E-02  0.3163E-01  0.3163E-01
    -18.206  0.6542E-02  0.6542E-02  0.3243E-01  0.3243E-01
    -18.084  0.6195E-02  0.6195E-02  0.3319E-01  0.3319E-01
    -17.962  0.5045E-02  0.5045E-02  0.3381E-01  0.3381E-01
    -17.840  0.7511E-02  0.7511E-02  0.3472E-01  0.3472E-01
    -17.718  0.1354E-01  0.1354E-01  0.3638E-01  0.3638E-01
    -17.595  0.1280E-01  0.1280E-01  0.3794E-01  0.3794E-01
    -17.473  0.3416E-02  0.3416E-02  0.3836E-01  0.3836E-01
    -17.351  0.7042E-02  0.7042E-02  0.3922E-01  0.3922E-01
    -17.229  0.8544E-02  0.8544E-02  0.4026E-01  0.4026E-01
    -17.107  0.7057E-02  0.7057E-02  0.4113E-01  0.4113E-01
    -16.984  0.5011E-02  0.5011E-02  0.4174E-01  0.4174E-01
    -16.862  0.4637E-02  0.4637E-02  0.4231E-01  0.4231E-01
    -16.740  0.1348E-01  0.1348E-01  0.4395E-01  0.4395E-01
    -16.618  0.1188E-01  0.1188E-01  0.4541E-01  0.4541E-01
    -16.496  0.4642E-02  0.4642E-02  0.4597E-01  0.4597E-01
    -16.373  0.2106E-02  0.2106E-02  0.4623E-01  0.4623E-01
    -16.251  0.2411E-03  0.2411E-03  0.4626E-01  0.4626E-01
    -16.129  0.1894E-02  0.1894E-02  0.4649E-01  0.4649E-01
    -16.007  0.4023E-02  0.4023E-02  0.4698E-01  0.4698E-01
    -15.885  0.6204E-02  0.6204E-02  0.4774E-01  0.4774E-01
    -15.762  0.8126E-02  0.8126E-02  0.4873E-01  0.4873E-01
    -15.640  0.2514E-02  0.2514E-02  0.4904E-01  0.4904E-01
    -15.518  0.6779E-02  0.6779E-02  0.4987E-01  0.4987E-01
    -15.396  0.1186E-01  0.1186E-01  0.5132E-01  0.5132E-01
    -15.274  0.1089E-01  0.1089E-01  0.5265E-01  0.5265E-01
    -15.151  0.7377E-02  0.7377E-02  0.5355E-01  0.5355E-01
    -15.029  0.6950E-02  0.6950E-02  0.5440E-01  0.5440E-01
    -14.907  0.9165E-02  0.9165E-02  0.5552E-01  0.5552E-01
    -14.785  0.8161E-02  0.8161E-02  0.5652E-01  0.5652E-01
    -14.663  0.1160E-01  0.1160E-01  0.5793E-01  0.5793E-01
    -14.540  0.1102E-01  0.1102E-01  0.5928E-01  0.5928E-01
    -14.418  0.5649E-02  0.5649E-02  0.5997E-01  0.5997E-01
    -14.296  0.5859E-02  0.5859E-02  0.6069E-01  0.6069E-01
    -14.174  0.1902E-02  0.1902E-02  0.6092E-01  0.6092E-01
    -14.052  0.6082E-02  0.6082E-02  0.6166E-01  0.6166E-01
    -13.929  0.9003E-02  0.9003E-02  0.6276E-01  0.6276E-01
    -13.807  0.1079E-01  0.1079E-01  0.6408E-01  0.6408E-01
    -13.685  0.1033E-01  0.1033E-01  0.6534E-01  0.6534E-01
    -13.563  0.6534E-02  0.6534E-02  0.6614E-01  0.6614E-01
    -13.441  0.2724E-02  0.2724E-02  0.6647E-01  0.6647E-01
    -13.318  0.1589E-02  0.1589E-02  0.6667E-01  0.6667E-01
    -13.196  0.6642E-02  0.6642E-02  0.6748E-01  0.6748E-01
    -13.074  0.5997E-02  0.5997E-02  0.6821E-01  0.6821E-01
    -12.952  0.7426E-02  0.7426E-02  0.6912E-01  0.6912E-01
    -12.830  0.1974E-01  0.1974E-01  0.7153E-01  0.7153E-01
    -12.707  0.5961E-02  0.5961E-02  0.7226E-01  0.7226E-01
    -12.585  0.8740E-02  0.8740E-02  0.7333E-01  0.7333E-01
    -12.463  0.8566E-02  0.8566E-02  0.7438E-01  0.7438E-01
    -12.341  0.7909E-02  0.7909E-02  0.7534E-01  0.7534E-01
    -12.219  0.2995E-02  0.2995E-02  0.7571E-01  0.7571E-01
    -12.096  0.7450E-02  0.7450E-02  0.7662E-01  0.7662E-01
    -11.974  0.6226E-02  0.6226E-02  0.7738E-01  0.7738E-01
    -11.852  0.1483E-01  0.1483E-01  0.7919E-01  0.7919E-01
    -11.730  0.9473E-02  0.9473E-02  0.8035E-01  0.8035E-01
    -11.608  0.1325E-01  0.1325E-01  0.8197E-01  0.8197E-01
    -11.485  0.9162E-02  0.9162E-02  0.8309E-01  0.8309E-01
    -11.363  0.1149E-01  0.1149E-01  0.8449E-01  0.8449E-01
    -11.241  0.1291E-01  0.1291E-01  0.8607E-01  0.8607E-01
    -11.119  0.9251E-02  0.9251E-02  0.8720E-01  0.8720E-01
    -10.997  0.6530E-02  0.6530E-02  0.8800E-01  0.8800E-01
    -10.874  0.2681E-02  0.2681E-02  0.8833E-01  0.8833E-01
    -10.752  0.4128E-02  0.4128E-02  0.8883E-01  0.8883E-01
    -10.630  0.1551E-01  0.1551E-01  0.9073E-01  0.9073E-01
    -10.508  0.1552E-01  0.1552E-01  0.9262E-01  0.9262E-01
    -10.386  0.9980E-02  0.9980E-02  0.9384E-01  0.9384E-01
    -10.263  0.1799E-01  0.1799E-01  0.9604E-01  0.9604E-01
    -10.141  0.1667E-01  0.1667E-01  0.9808E-01  0.9808E-01
    -10.019  0.1577E-01  0.1577E-01  0.1000E+00  0.1000E+00
     -9.897  0.1869E-01  0.1869E-01  0.1023E+00  0.1023E+00
     -9.775  0.2180E-01  0.2180E-01  0.1050E+00  0.1050E+00
     -9.652  0.1822E-01  0.1822E-01  0.1072E+00  0.1072E+00
     -9.530  0.2785E-01  0.2785E-01  0.1106E+00  0.1106E+00
     -9.408  0.2029E-01  0.2029E-01  0.1131E+00  0.1131E+00
     -9.286  0.1546E-01  0.1546E-01  0.1149E+00  0.1149E+00
     -9.164  0.2922E-01  0.2922E-01  0.1185E+00  0.1185E+00
     -9.041  0.1947E-01  0.1947E-01  0.1209E+00  0.1209E+00
     -8.919  0.2245E-01  0.2245E-01  0.1236E+00  0.1236E+00
     -8.797  0.1508E-01  0.1508E-01  0.1255E+00  0.1255E+00
     -8.675  0.1000E-01  0.1000E-01  0.1267E+00  0.1267E+00
     -8.553  0.2185E-01  0.2185E-01  0.1294E+00  0.1294E+00
     -8.430  0.2704E-01  0.2704E-01  0.1327E+00  0.1327E+00
     -8.308  0.1897E-01  0.1897E-01  0.1350E+00  0.1350E+00
     -8.186  0.1222E-01  0.1222E-01  0.1365E+00  0.1365E+00
     -8.064  0.9269E-02  0.9269E-02  0.1376E+00  0.1376E+00
     -7.942  0.1154E-01  0.1154E-01  0.1390E+00  0.1390E+00
     -7.819  0.9158E-02  0.9158E-02  0.1402E+00  0.1402E+00
     -7.697  0.1401E-01  0.1401E-01  0.1419E+00  0.1419E+00
     -7.575  0.1801E-01  0.1801E-01  0.1441E+00  0.1441E+00
     -7.453  0.2321E-01  0.2321E-01  0.1469E+00  0.1469E+00
     -7.331  0.1622E-01  0.1622E-01  0.1489E+00  0.1489E+00
     -7.208  0.1356E-01  0.1356E-01  0.1505E+00  0.1505E+00
     -7.086  0.1467E-01  0.1467E-01  0.1523E+00  0.1523E+00
     -6.964  0.7251E-02  0.7251E-02  0.1532E+00  0.1532E+00
     -6.842  0.9524E-02  0.9524E-02  0.1544E+00  0.1544E+00
     -6.720  0.1435E-01  0.1435E-01  0.1561E+00  0.1561E+00
     -6.597  0.1148E-01  0.1148E-01  0.1575E+00  0.1575E+00
     -6.475  0.1981E-01  0.1981E-01  0.1600E+00  0.1600E+00
     -6.353  0.1235E-01  0.1235E-01  0.1615E+00  0.1615E+00
     -6.231  0.1083E-01  0.1083E-01  0.1628E+00  0.1628E+00
     -6.109  0.1440E-01  0.1440E-01  0.1646E+00  0.1646E+00
     -5.986  0.9527E-02  0.9527E-02  0.1657E+00  0.1657E+00
     -5.864  0.1002E-01  0.1002E-01  0.1669E+00  0.1669E+00
     -5.742  0.6867E-02  0.6867E-02  0.1678E+00  0.1678E+00
     -5.620  0.3549E-02  0.3549E-02  0.1682E+00  0.1682E+00
     -5.498  0.6888E-02  0.6888E-02  0.1691E+00  0.1691E+00
     -5.375  0.7813E-02  0.7813E-02  0.1700E+00  0.1700E+00
     -5.253  0.1962E-01  0.1962E-01  0.1724E+00  0.1724E+00
     -5.131  0.1908E-01  0.1908E-01  0.1747E+00  0.1747E+00
     -5.009  0.1196E-01  0.1196E-01  0.1762E+00  0.1762E+00
     -4.887  0.4025E-03  0.4025E-03  0.1763E+00  0.1763E+00
     -4.764  0.2808E-02  0.2808E-02  0.1766E+00  0.1766E+00
     -4.642  0.1289E-01  0.1289E-01  0.1782E+00  0.1782E+00
     -4.520  0.1235E-01  0.1235E-01  0.1797E+00  0.1797E+00
     -4.398  0.1671E-01  0.1671E-01  0.1817E+00  0.1817E+00
     -4.276  0.2061E-01  0.2061E-01  0.1842E+00  0.1842E+00
     -4.153  0.1518E-01  0.1518E-01  0.1861E+00  0.1861E+00
     -4.031  0.7391E-02  0.7391E-02  0.1870E+00  0.1870E+00
     -3.909  0.2624E-02  0.2624E-02  0.1873E+00  0.1873E+00
     -3.787  0.8260E-02  0.8260E-02  0.1883E+00  0.1883E+00
     -3.665  0.4789E-02  0.4789E-02  0.1889E+00  0.1889E+00
     -3.542  0.2807E-02  0.2807E-02  0.1893E+00  0.1893E+00
     -3.420  0.1873E-02  0.1873E-02  0.1895E+00  0.1895E+00
     -3.298  0.1022E-03  0.1022E-03  0.1895E+00  0.1895E+00
     -3.176  0.5584E-05  0.5584E-05  0.1895E+00  0.1895E+00
     -3.054  0.2345E-02  0.2345E-02  0.1898E+00  0.1898E+00
     -2.931  0.1740E-02  0.1740E-02  0.1900E+00  0.1900E+00
     -2.809  0.9395E-05  0.9395E-05  0.1900E+00  0.1900E+00
     -2.687  0.2228E-02  0.2228E-02  0.1903E+00  0.1903E+00
     -2.565  0.1852E-02  0.1852E-02  0.1905E+00  0.1905E+00
     -2.443  0.3261E-05  0.3261E-05  0.1905E+00  0.1905E+00
     -2.320  0.3399E-03  0.3399E-03  0.1905E+00  0.1905E+00
     -2.198  0.3534E-02  0.3534E-02  0.1910E+00  0.1910E+00
     -2.076  0.1699E-02  0.1699E-02  0.1912E+00  0.1912E+00
     -1.954  0.6546E-02  0.6546E-02  0.1920E+00  0.1920E+00
     -1.832  0.1765E-03  0.1765E-03  0.1920E+00  0.1920E+00
     -1.709  0.3751E-02  0.3751E-02  0.1925E+00  0.1925E+00
     -1.587  0.7068E-02  0.7068E-02  0.1933E+00  0.1933E+00
     -1.465  0.1436E-02  0.1436E-02  0.1935E+00  0.1935E+00
     -1.343  0.7563E-03  0.7563E-03  0.1936E+00  0.1936E+00
     -1.221  0.1070E-01  0.1070E-01  0.1949E+00  0.1949E+00
     -1.098  0.1514E-01  0.1514E-01  0.1967E+00  0.1967E+00
     -0.976  0.7287E-02  0.7287E-02  0.1976E+00  0.1976E+00
     -0.854  0.8095E-02  0.8095E-02  0.1986E+00  0.1986E+00
     -0.732  0.1018E-01  0.1018E-01  0.1999E+00  0.1999E+00
     -0.610  0.3199E-02  0.3199E-02  0.2003E+00  0.2003E+00
     -0.487  0.7595E-02  0.7595E-02  0.2012E+00  0.2012E+00
     -0.365  0.9209E-02  0.9209E-02  0.2023E+00  0.2023E+00
     -0.243  0.1069E-01  0.1069E-01  0.2036E+00  0.2036E+00
     -0.121  0.1268E-01  0.1268E-01  0.2052E+00  0.2052E+00
      0.001  0.6077E-02  0.6077E-02  0.2059E+00  0.2059E+00
      0.124  0.1043E-02  0.1043E-02  0.2060E+00  0.2060E+00
      0.246  0.5042E-02  0.5042E-02  0.2067E+00  0.2067E+00
      0.368  0.5470E-02  0.5470E-02  0.2073E+00  0.2073E+00
      0.490  0.8708E-02  0.8708E-02  0.2084E+00  0.2084E+00
      0.613  0.4882E-02  0.4882E-02  0.2090E+00  0.2090E+00
      0.735  0.3978E-02  0.3978E-02  0.2095E+00  0.2095E+00
      0.857  0.7863E-02  0.7863E-02  0.2104E+00  0.2104E+00
      0.979  0.9061E-02  0.9061E-02  0.2115E+00  0.2115E+00
      1.101  0.8831E-02  0.8831E-02  0.2126E+00  0.2126E+00
      1.224  0.1328E-01  0.1328E-01  0.2142E+00  0.2142E+00
      1.346  0.1649E-01  0.1649E-01  0.2163E+00  0.2163E+00
      1.468  0.1180E-01  0.1180E-01  0.2177E+00  0.2177E+00
      1.590  0.6615E-02  0.6615E-02  0.2185E+00  0.2185E+00
      1.712  0.5684E-02  0.5684E-02  0.2192E+00  0.2192E+00
      1.835  0.1223E-01  0.1223E-01  0.2207E+00  0.2207E+00
      1.957  0.2671E-01  0.2671E-01  0.2240E+00  0.2240E+00
      2.079  0.1297E-01  0.1297E-01  0.2255E+00  0.2255E+00
      2.201  0.6442E-02  0.6442E-02  0.2263E+00  0.2263E+00
      2.323  0.2124E-01  0.2124E-01  0.2289E+00  0.2289E+00
      2.446  0.2065E-01  0.2065E-01  0.2315E+00  0.2315E+00
      2.568  0.1519E-01  0.1519E-01  0.2333E+00  0.2333E+00
      2.690  0.9139E-02  0.9139E-02  0.2344E+00  0.2344E+00
      2.812  0.3311E-01  0.3311E-01  0.2385E+00  0.2385E+00
      2.934  0.4664E-01  0.4664E-01  0.2442E+00  0.2442E+00
      3.057  0.1609E-01  0.1609E-01  0.2461E+00  0.2461E+00
      3.179  0.6707E-02  0.6707E-02  0.2470E+00  0.2470E+00
      3.301  0.1753E-01  0.1753E-01  0.2491E+00  0.2491E+00
      3.423  0.2363E-01  0.2363E-01  0.2520E+00  0.2520E+00
      3.545  0.1486E-01  0.1486E-01  0.2538E+00  0.2538E+00
      3.668  0.1446E-01  0.1446E-01  0.2556E+00  0.2556E+00
      3.790  0.2576E-01  0.2576E-01  0.2587E+00  0.2587E+00
      3.912  0.3351E-01  0.3351E-01  0.2628E+00  0.2628E+00
      4.034  0.1539E-01  0.1539E-01  0.2647E+00  0.2647E+00
      4.156  0.2480E-02  0.2480E-02  0.2650E+00  0.2650E+00
      4.279  0.2849E-04  0.2849E-04  0.2650E+00  0.2650E+00
      4.401  0.1586E-10  0.1586E-10  0.2650E+00  0.2650E+00
      4.523  0.0000E+00  0.0000E+00  0.2650E+00  0.2650E+00
      4.645  0.0000E+00  0.0000E+00  0.2650E+00  0.2650E+00
      4.767  0.0000E+00  0.0000E+00  0.2650E+00  0.2650E+00
      4.890  0.0000E+00  0.0000E+00  0.2650E+00  0.2650E+00
      5.012  0.0000E+00  0.0000E+00  0.2650E+00  0.2650E+00
      5.134  0.0000E+00  0.0000E+00  0.2650E+00  0.2650E+00
      5.256  0.0000E+00  0.0000E+00  0.2650E+00  0.2650E+00
      5.378  0.0000E+00  0.0000E+00  0.2650E+00  0.2650E+00
      5.501  0.0000E+00  0.0000E+00  0.2650E+00  0.2650E+00
      5.623  0.0000E+00  0.0000E+00  0.2650E+00  0.2650E+00
      5.745  0.0000E+00  0.0000E+00  0.2650E+00  0.2650E+00
