       N       E                     dE             d eps       ncg     rms          rms(c)
DAV:   1     0.349090515262E+04    0.34909E+04   -0.14363E+05  4590   0.109E+03
DAV:   2    -0.182963662645E+03   -0.36739E+04   -0.34643E+04  6350   0.268E+02
DAV:   3    -0.840457078611E+03   -0.65749E+03   -0.65437E+03  5240   0.118E+02
DAV:   4    -0.863167658862E+03   -0.22711E+02   -0.22603E+02  5200   0.276E+01
DAV:   5    -0.863886013416E+03   -0.71835E+00   -0.71733E+00  5980   0.417E+00    0.512E+01
DAV:   6    -0.715664485824E+03    0.14822E+03   -0.16644E+02  4870   0.204E+01    0.281E+01
DAV:   7    -0.751926669897E+03   -0.36262E+02   -0.52718E+01  4810   0.116E+01    0.139E+01
DAV:   8    -0.784540499594E+03   -0.32614E+02   -0.22240E+01  4790   0.718E+00    0.685E+00
DAV:   9    -0.800087591840E+03   -0.15547E+02   -0.60236E+00  4620   0.357E+00    0.393E+00
DAV:  10    -0.812283137619E+03   -0.12196E+02   -0.45130E+00  4590   0.269E+00    0.222E+00
DAV:  11    -0.818795770720E+03   -0.65126E+01   -0.23844E+00  4590   0.179E+00    0.126E+00
DAV:  12    -0.821335726038E+03   -0.25400E+01   -0.83389E-01  4620   0.106E+00    0.726E-01
DAV:  13    -0.822646212040E+03   -0.13105E+01   -0.38961E-01  4700   0.712E-01    0.229E-01
DAV:  14    -0.822886812965E+03   -0.24060E+00   -0.47676E-02  4730   0.293E-01    0.115E-01
DAV:  15    -0.822906035033E+03   -0.19222E-01   -0.80478E-03  4750   0.129E-01    0.854E-02
DAV:  16    -0.822912527661E+03   -0.64926E-02   -0.21622E-03  4500   0.882E-02    0.571E-02
DAV:  17    -0.822926451066E+03   -0.13923E-01   -0.20294E-03  4635   0.717E-02    0.480E-02
DAV:  18    -0.822942026453E+03   -0.15575E-01   -0.10762E-03  4760   0.531E-02    0.311E-02
DAV:  19    -0.822948528727E+03   -0.65023E-02   -0.75763E-04  4670   0.338E-02    0.190E-02
DAV:  20    -0.822950003583E+03   -0.14749E-02   -0.87674E-05  4790   0.202E-02    0.111E-02
DAV:  21    -0.822951652616E+03   -0.16490E-02   -0.72331E-05  4630   0.138E-02    0.651E-03
DAV:  22    -0.822952040243E+03   -0.38763E-03   -0.10210E-05  4190   0.717E-03    0.371E-03
DAV:  23    -0.822952251851E+03   -0.21161E-03   -0.39662E-06  3870   0.460E-03    0.270E-03
DAV:  24    -0.822952350710E+03   -0.98860E-04   -0.27476E-06  3820   0.422E-03    0.154E-03
DAV:  25    -0.822952376135E+03   -0.25425E-04   -0.14211E-06  3630   0.274E-03    0.163E-03
DAV:  26    -0.822952387183E+03   -0.11048E-04   -0.43285E-07  3150   0.165E-03    0.119E-03
DAV:  27    -0.822952397290E+03   -0.10107E-04   -0.33589E-07  3070   0.127E-03    0.106E-03
DAV:  28    -0.822952402066E+03   -0.47761E-05   -0.13474E-07  2970   0.782E-04    0.102E-03
DAV:  29    -0.822952404274E+03   -0.22081E-05   -0.70762E-08  2870   0.535E-04    0.983E-04
DAV:  30    -0.822952405055E+03   -0.78081E-06   -0.26448E-08  2940   0.302E-04
   1 F= -.83044973E+03 E0= -.83044973E+03  d E =-.830450E+03  mag=    -0.0000
       N       E                     dE             d eps       ncg     rms          rms(c)
DAV:   1    -0.822952419711E+03   -0.15436E-04   -0.21790E-04  4490   0.244E-02    0.313E-03
DAV:   2    -0.822952420141E+03   -0.42990E-06   -0.39685E-06  3790   0.324E-03
   2 F= -.83044975E+03 E0= -.83044975E+03  d E =-.148969E-04  mag=    -0.0000
       N       E                     dE             d eps       ncg     rms          rms(c)
DAV:   1    -0.822952448377E+03   -0.28666E-04   -0.79608E-04  4610   0.446E-02    0.636E-03
DAV:   2    -0.822952449399E+03   -0.10221E-05   -0.13365E-05  4660   0.566E-03    0.413E-03
DAV:   3    -0.822952449397E+03    0.15280E-08   -0.38697E-07  3070   0.128E-03
   3 F= -.83044978E+03 E0= -.83044978E+03  d E =-.281645E-04  mag=    -0.0000
       N       E                     dE             d eps       ncg     rms          rms(c)
DAV:   1    -0.822952489982E+03   -0.40584E-04   -0.17585E-03  4460   0.650E-02    0.853E-03
DAV:   2    -0.822952492331E+03   -0.23490E-05   -0.29411E-05  4860   0.820E-03    0.531E-03
DAV:   3    -0.822952492209E+03    0.12255E-06   -0.70628E-07  3230   0.165E-03
   4 F= -.83044982E+03 E0= -.83044982E+03  d E =-.406620E-04  mag=    -0.0000
       N       E                     dE             d eps       ncg     rms          rms(c)
DAV:   1    -0.822952544645E+03   -0.52313E-04   -0.29082E-03  4480   0.835E-02    0.110E-02
DAV:   2    -0.822952548484E+03   -0.38396E-05   -0.47972E-05  4780   0.105E-02    0.680E-03
DAV:   3    -0.822952548262E+03    0.22274E-06   -0.11597E-06  3290   0.208E-03
   5 F= -.83044987E+03 E0= -.83044987E+03  d E =-.536138E-04  mag=    -0.0000
       N       E                     dE             d eps       ncg     rms          rms(c)
DAV:   1    -0.822952612933E+03   -0.64448E-04   -0.44300E-03  4430   0.101E-01    0.136E-02
DAV:   2    -0.822952618712E+03   -0.57796E-05   -0.72980E-05  4780   0.126E-02    0.826E-03
DAV:   3    -0.822952618373E+03    0.33959E-06   -0.17296E-06  3365   0.248E-03
   6 F= -.83044994E+03 E0= -.83044994E+03  d E =-.666433E-04  mag=    -0.0000
       N       E                     dE             d eps       ncg     rms          rms(c)
DAV:   1    -0.822952695696E+03   -0.76983E-04   -0.64769E-03  4410   0.119E-01    0.163E-02
DAV:   2    -0.822952704184E+03   -0.84889E-05   -0.10618E-04  4660   0.151E-02    0.993E-03
DAV:   3    -0.822952703667E+03    0.51732E-06   -0.24900E-06  3450   0.292E-03
   7 F= -.83045002E+03 E0= -.83045002E+03  d E =-.808587E-04  mag=    -0.0000
       N       E                     dE             d eps       ncg     rms          rms(c)
DAV:   1    -0.822952803296E+03   -0.99112E-04   -0.10747E-02  4400   0.148E-01    0.210E-02
DAV:   2    -0.822952817199E+03   -0.13903E-04   -0.17405E-04  4540   0.187E-02    0.128E-02
DAV:   3    -0.822952816310E+03    0.88938E-06   -0.41415E-06  3580   0.370E-03
   8 F= -.83045012E+03 E0= -.83045012E+03  d E =-.104890E-03  mag=    -0.0000
       N       E                     dE             d eps       ncg     rms          rms(c)
DAV:   1    -0.822952946371E+03   -0.12917E-03   -0.16752E-02  4380   0.181E-01    0.267E-02
DAV:   2    -0.822952967974E+03   -0.21603E-04   -0.27314E-04  4520   0.229E-02    0.159E-02
DAV:   3    -0.822952966885E+03    0.10888E-05   -0.62491E-06  3880   0.447E-03    0.871E-03
DAV:   4    -0.822952967659E+03   -0.77339E-06   -0.45803E-06  3380   0.332E-03
   9 F= -.83045026E+03 E0= -.83045026E+03  d E =-.137920E-03  mag=    -0.0000
       N       E                     dE             d eps       ncg     rms          rms(c)
DAV:   1    -0.822953126986E+03   -0.16010E-03   -0.24904E-02  4390   0.220E-01    0.322E-02
DAV:   2    -0.822953161248E+03   -0.34263E-04   -0.41871E-04  4575   0.282E-02    0.196E-02
DAV:   3    -0.822953159481E+03    0.17671E-05   -0.97881E-06  4040   0.555E-03    0.108E-02
DAV:   4    -0.822953160678E+03   -0.11964E-05   -0.68691E-06  3740   0.410E-03    0.275E-03
DAV:   5    -0.822953160790E+03   -0.11209E-06   -0.15648E-06  3095   0.204E-03
  10 F= -.83045043E+03 E0= -.83045043E+03  d E =-.174704E-03  mag=    -0.0000
       N       E                     dE             d eps       ncg     rms          rms(c)
DAV:   1    -0.822953354016E+03   -0.19334E-03   -0.42727E-02  4390   0.286E-01    0.418E-02
DAV:   2    -0.822953414689E+03   -0.60673E-04   -0.74722E-04  4575   0.379E-02    0.254E-02
DAV:   3    -0.822953411094E+03    0.35950E-05   -0.16199E-05  4265   0.712E-03    0.145E-02
DAV:   4    -0.822953413031E+03   -0.19367E-05   -0.14441E-05  4140   0.579E-03    0.367E-03
DAV:   5    -0.822953413169E+03   -0.13774E-06   -0.29361E-06  3165   0.263E-03
  11 F= -.83045066E+03 E0= -.83045066E+03  d E =-.228995E-03  mag=    -0.0000
       N       E                     dE             d eps       ncg     rms          rms(c)
DAV:   1    -0.822953666985E+03   -0.25395E-03   -0.61252E-02  4360   0.346E-01    0.516E-02
DAV:   2    -0.822953755789E+03   -0.88804E-04   -0.10992E-03  4590   0.465E-02    0.305E-02
DAV:   3    -0.822953751117E+03    0.46724E-05   -0.23679E-05  4650   0.879E-03    0.174E-02
DAV:   4    -0.822953754913E+03   -0.37968E-05   -0.19227E-05  4240   0.722E-03    0.453E-03
DAV:   5    -0.822953755023E+03   -0.10983E-06   -0.40760E-06  3390   0.343E-03
  12 F= -.83045096E+03 E0= -.83045096E+03  d E =-.299456E-03  mag=    -0.0000
       N       E                     dE             d eps       ncg     rms          rms(c)
DAV:   1    -0.822954025493E+03   -0.27058E-03   -0.10182E-01  4360   0.452E-01    0.656E-02
DAV:   2    -0.822954180236E+03   -0.15474E-03   -0.18804E-03  4590   0.623E-02    0.398E-02
DAV:   3    -0.822954169632E+03    0.10604E-04   -0.40060E-05  4660   0.116E-02    0.231E-02
DAV:   4    -0.822954174684E+03   -0.50527E-05   -0.37379E-05  4690   0.997E-03    0.603E-03
DAV:   5    -0.822954174930E+03   -0.24571E-06   -0.75380E-06  3820   0.456E-03
  13 F= -.83045134E+03 E0= -.83045134E+03  d E =-.377423E-03  mag=    -0.0000
       N       E                     dE             d eps       ncg     rms          rms(c)
DAV:   1    -0.822954368510E+03   -0.19383E-03   -0.13314E-01  4320   0.560E-01    0.788E-02
DAV:   2    -0.822954583808E+03   -0.21530E-03   -0.26695E-03  4570   0.794E-02    0.473E-02
DAV:   3    -0.822954570399E+03    0.13409E-04   -0.68014E-05  4740   0.159E-02    0.271E-02
DAV:   4    -0.822954575494E+03   -0.50945E-05   -0.38269E-05  4720   0.112E-02    0.671E-03
DAV:   5    -0.822954576007E+03   -0.51365E-06   -0.82100E-06  4210   0.535E-03
  14 F= -.83045167E+03 E0= -.83045167E+03  d E =-.327091E-03  mag=    -0.0000
       N       E                     dE             d eps       ncg     rms          rms(c)
DAV:   1    -0.822954708423E+03   -0.13293E-03   -0.86429E-03  4460   0.193E-01    0.214E-02
DAV:   2    -0.822954723397E+03   -0.14974E-04   -0.23943E-04  4610   0.305E-02    0.143E-02
DAV:   3    -0.822954721125E+03    0.22717E-05   -0.12395E-05  4960   0.723E-03    0.804E-03
DAV:   4    -0.822954720888E+03    0.23720E-06   -0.20817E-06  3440   0.312E-03
  15 F= -.83045182E+03 E0= -.83045182E+03  d E =-.154361E-03  mag=    -0.0000
       N       E                     dE             d eps       ncg     rms          rms(c)
DAV:   1    -0.822954619775E+03    0.10135E-03   -0.81039E-03  4540   0.184E-01    0.208E-02
DAV:   2    -0.822954634388E+03   -0.14613E-04   -0.22443E-04  4700   0.293E-02    0.136E-02
DAV:   3    -0.822954632255E+03    0.21328E-05   -0.97933E-06  4920   0.659E-03    0.794E-03
DAV:   4    -0.822954631712E+03    0.54274E-06   -0.21501E-06  3380   0.335E-03
  16 F= -.83045174E+03 E0= -.83045174E+03  d E =0.843598E-04  mag=    -0.0000
       N       E                     dE             d eps       ncg     rms          rms(c)
DAV:   1    -0.822954687953E+03   -0.55698E-04   -0.40742E-04  4600   0.423E-02    0.478E-03
DAV:   2    -0.822954688920E+03   -0.96737E-06   -0.12551E-05  4600   0.694E-03    0.341E-03
DAV:   3    -0.822954688881E+03    0.39254E-07   -0.54545E-07  2940   0.168E-03
  17 F= -.83045179E+03 E0= -.83045179E+03  d E =-.548334E-04  mag=    -0.0000
       N       E                     dE             d eps       ncg     rms          rms(c)
DAV:   1    -0.822954754507E+03   -0.65587E-04   -0.12362E-03  4500   0.736E-02    0.855E-03
DAV:   2    -0.822954756639E+03   -0.21319E-05   -0.34272E-05  4800   0.117E-02    0.577E-03
DAV:   3    -0.822954756236E+03    0.40243E-06   -0.16257E-06  3080   0.283E-03
  18 F= -.83045186E+03 E0= -.83045186E+03  d E =-.629644E-04  mag=    -0.0000
       N       E                     dE             d eps       ncg     rms          rms(c)
DAV:   1    -0.822954780050E+03   -0.23411E-04   -0.16901E-03  4500   0.861E-02    0.101E-02
DAV:   2    -0.822954782643E+03   -0.25930E-05   -0.46107E-05  4720   0.136E-02    0.681E-03
DAV:   3    -0.822954782009E+03    0.63395E-06   -0.23729E-06  3460   0.335E-03
  19 F= -.83045188E+03 E0= -.83045188E+03  d E =-.200448E-04  mag=    -0.0000
       N       E                     dE             d eps       ncg     rms          rms(c)
DAV:   1    -0.822954784265E+03   -0.16217E-05   -0.36381E-06  4040   0.399E-03    0.143E-03
DAV:   2    -0.822954784290E+03   -0.25131E-07   -0.24000E-07  3020   0.106E-03
  20 F= -.83045188E+03 E0= -.83045188E+03  d E =-.225182E-05  mag=    -0.0000
       N       E                     dE             d eps       ncg     rms          rms(c)
DAV:   1    -0.822954789359E+03   -0.50947E-05   -0.95111E-06  4260   0.607E-03    0.121E-03
DAV:   2    -0.822954789400E+03   -0.40876E-07   -0.25530E-07  3040   0.101E-03
  21 F= -.83045188E+03 E0= -.83045188E+03  d E =-.499575E-05  mag=    -0.0000
       N       E                     dE             d eps       ncg     rms          rms(c)
DAV:   1    -0.822954796753E+03   -0.73934E-05   -0.20409E-05  4460   0.883E-03    0.151E-03
DAV:   2    -0.822954796800E+03   -0.47607E-07   -0.49572E-07  3060   0.138E-03
  22 F= -.83045189E+03 E0= -.83045189E+03  d E =-.718128E-05  mag=    -0.0000
       N       E                     dE             d eps       ncg     rms          rms(c)
DAV:   1    -0.822954806020E+03   -0.92668E-05   -0.33686E-05  4540   0.112E-02    0.181E-03
DAV:   2    -0.822954806076E+03   -0.56389E-07   -0.79018E-07  3260   0.170E-03
  23 F= -.83045190E+03 E0= -.83045190E+03  d E =-.890955E-05  mag=    -0.0000
       N       E                     dE             d eps       ncg     rms          rms(c)
DAV:   1    -0.822954817099E+03   -0.11079E-04   -0.47944E-05  4540   0.131E-02    0.208E-03
DAV:   2    -0.822954817168E+03   -0.69289E-07   -0.11232E-06  3380   0.198E-03
  24 F= -.83045191E+03 E0= -.83045191E+03  d E =-.105371E-04  mag=    -0.0000
       N       E                     dE             d eps       ncg     rms          rms(c)
DAV:   1    -0.822954829770E+03   -0.12672E-04   -0.61452E-05  4550   0.146E-02    0.231E-03
DAV:   2    -0.822954829855E+03   -0.84161E-07   -0.14264E-06  3470   0.218E-03
  25 F= -.83045192E+03 E0= -.83045192E+03  d E =-.119108E-04  mag=    -0.0000
       N       E                     dE             d eps       ncg     rms          rms(c)
DAV:   1    -0.822954845630E+03   -0.15860E-04   -0.90679E-05  4420   0.172E-02    0.266E-03
DAV:   2    -0.822954845759E+03   -0.12862E-06   -0.20768E-06  3600   0.253E-03
  26 F= -.83045194E+03 E0= -.83045194E+03  d E =-.147407E-04  mag=    -0.0000
       N       E                     dE             d eps       ncg     rms          rms(c)
DAV:   1    -0.822954865529E+03   -0.19899E-04   -0.12661E-04  4390   0.198E-02    0.305E-03
DAV:   2    -0.822954865716E+03   -0.18669E-06   -0.28526E-06  3760   0.287E-03
  27 F= -.83045195E+03 E0= -.83045195E+03  d E =-.182872E-04  mag=    -0.0000
       N       E                     dE             d eps       ncg     rms          rms(c)
DAV:   1    -0.822954890809E+03   -0.25279E-04   -0.17716E-04  4320   0.230E-02    0.351E-03
DAV:   2    -0.822954891084E+03   -0.27492E-06   -0.39051E-06  3980   0.325E-03
  28 F= -.83045198E+03 E0= -.83045198E+03  d E =-.230959E-04  mag=    -0.0000
       N       E                     dE             d eps       ncg     rms          rms(c)
DAV:   1    -0.822954922590E+03   -0.31782E-04   -0.25588E-04  4310   0.275E-02    0.413E-03
DAV:   2    -0.822954922999E+03   -0.40816E-06   -0.56057E-06  4160   0.384E-03
  29 F= -.83045201E+03 E0= -.83045201E+03  d E =-.289290E-04  mag=    -0.0000
       N       E                     dE             d eps       ncg     rms          rms(c)
DAV:   1    -0.822954961147E+03   -0.38557E-04   -0.38171E-04  4290   0.341E-02    0.499E-03
DAV:   2    -0.822954961777E+03   -0.62990E-06   -0.84675E-06  4440   0.476E-03
  30 F= -.83045204E+03 E0= -.83045204E+03  d E =-.349484E-04  mag=    -0.0000
       N       E                     dE             d eps       ncg     rms          rms(c)
DAV:   1    -0.822955007425E+03   -0.46278E-04   -0.56779E-04  4340   0.414E-02    0.610E-03
DAV:   2    -0.822955008350E+03   -0.92484E-06   -0.12444E-05  4520   0.577E-03    0.383E-03
DAV:   3    -0.822955008396E+03   -0.46013E-07   -0.26416E-07  3060   0.111E-03
  31 F= -.83045208E+03 E0= -.83045208E+03  d E =-.418310E-04  mag=    -0.0000
       N       E                     dE             d eps       ncg     rms          rms(c)
DAV:   1    -0.822955061875E+03   -0.53525E-04   -0.84846E-04  4300   0.497E-02    0.633E-03
DAV:   2    -0.822955063386E+03   -0.15102E-05   -0.18957E-05  4580   0.699E-03    0.359E-03
DAV:   3    -0.822955063363E+03    0.22970E-07   -0.29135E-07  3200   0.113E-03
  32 F= -.83045213E+03 E0= -.83045213E+03  d E =-.493531E-04  mag=    -0.0000
       N       E                     dE             d eps       ncg     rms          rms(c)
DAV:   1    -0.822955125242E+03   -0.61857E-04   -0.12611E-03  4330   0.589E-02    0.767E-03
DAV:   2    -0.822955127430E+03   -0.21876E-05   -0.27591E-05  4540   0.822E-03    0.427E-03
DAV:   3    -0.822955127399E+03    0.31177E-07   -0.41923E-07  3240   0.129E-03
  33 F= -.83045219E+03 E0= -.83045219E+03  d E =-.578748E-04  mag=    -0.0000
       N       E                     dE             d eps       ncg     rms          rms(c)
DAV:   1    -0.822955198522E+03   -0.71091E-04   -0.18104E-03  4330   0.696E-02    0.910E-03
DAV:   2    -0.822955201638E+03   -0.31165E-05   -0.38984E-05  4440   0.964E-03    0.503E-03
DAV:   3    -0.822955201594E+03    0.43896E-07   -0.58378E-07  3160   0.150E-03
  34 F= -.83045226E+03 E0= -.83045226E+03  d E =-.675379E-04  mag=    -0.0000
       N       E                     dE             d eps       ncg     rms          rms(c)
DAV:   1    -0.822955282863E+03   -0.81225E-04   -0.26013E-03  4300   0.833E-02    0.108E-02
DAV:   2    -0.822955287382E+03   -0.45194E-05   -0.55867E-05  4560   0.115E-02    0.598E-03
DAV:   3    -0.822955287310E+03    0.72294E-07   -0.84931E-07  3260   0.181E-03
  35 F= -.83045234E+03 E0= -.83045234E+03  d E =-.783533E-04  mag=    -0.0000
       N       E                     dE             d eps       ncg     rms          rms(c)
DAV:   1    -0.822955378521E+03   -0.91139E-04   -0.36814E-03  4320   0.984E-02    0.127E-02
DAV:   2    -0.822955384936E+03   -0.64152E-05   -0.78092E-05  4520   0.135E-02    0.705E-03
DAV:   3    -0.822955384838E+03    0.97898E-07   -0.11623E-06  3400   0.211E-03
  36 F= -.83045243E+03 E0= -.83045242E+03  d E =-.887685E-04  mag=     0.0000
       N       E                     dE             d eps       ncg     rms          rms(c)
DAV:   1    -0.822955485739E+03   -0.10080E-03   -0.50292E-03  4320   0.114E-01    0.145E-02
DAV:   2    -0.822955494547E+03   -0.88076E-05   -0.10468E-04  4450   0.155E-02    0.815E-03
DAV:   3    -0.822955494397E+03    0.14946E-06   -0.14938E-06  3460   0.237E-03
  37 F= -.83045252E+03 E0= -.83045252E+03  d E =-.994072E-04  mag=    -0.0000
       N       E                     dE             d eps       ncg     rms          rms(c)
DAV:   1    -0.822955602729E+03   -0.10818E-03   -0.68943E-03  4320   0.135E-01    0.168E-02
DAV:   2    -0.822955614943E+03   -0.12214E-04   -0.14288E-04  4490   0.182E-02    0.941E-03
DAV:   3    -0.822955614738E+03    0.20474E-06   -0.19988E-06  3660   0.273E-03
  38 F= -.83045263E+03 E0= -.83045263E+03  d E =-.109003E-03  mag=    -0.0000
       N       E                     dE             d eps       ncg     rms          rms(c)
DAV:   1    -0.822955723202E+03   -0.10826E-03   -0.98907E-03  4320   0.161E-01    0.196E-02
DAV:   2    -0.822955740801E+03   -0.17599E-04   -0.20278E-04  4490   0.216E-02    0.111E-02
DAV:   3    -0.822955740438E+03    0.36275E-06   -0.27723E-06  3880   0.319E-03
  39 F= -.83045275E+03 E0= -.83045275E+03  d E =-.115992E-03  mag=    -0.0000
       N       E                     dE             d eps       ncg     rms          rms(c)
DAV:   1    -0.822955846979E+03   -0.10618E-03   -0.13716E-02  4320   0.188E-01    0.227E-02
DAV:   2    -0.822955870880E+03   -0.23901E-04   -0.27338E-04  4385   0.250E-02    0.131E-02
DAV:   3    -0.822955870299E+03    0.58149E-06   -0.37907E-06  3960   0.370E-03
  40 F= -.83045287E+03 E0= -.83045287E+03  d E =-.121761E-03  mag=    -0.0000
       N       E                     dE             d eps       ncg     rms          rms(c)
DAV:   1    -0.822955970254E+03   -0.99374E-04   -0.19241E-02  4320   0.224E-01    0.267E-02
DAV:   2    -0.822956004142E+03   -0.33887E-04   -0.38554E-04  4540   0.301E-02    0.155E-02
DAV:   3    -0.822956003304E+03    0.83805E-06   -0.53767E-06  4240   0.448E-03
  41 F= -.83045300E+03 E0= -.83045300E+03  d E =-.125401E-03  mag=    -0.0000
       N       E                     dE             d eps       ncg     rms          rms(c)
DAV:   1    -0.822956105463E+03   -0.10132E-03   -0.25429E-02  4320   0.259E-01    0.310E-02
DAV:   2    -0.822956149651E+03   -0.44187E-04   -0.50367E-04  4420   0.345E-02    0.181E-02
DAV:   3    -0.822956148498E+03    0.11526E-05   -0.75317E-06  4340   0.528E-03    0.108E-02
DAV:   4    -0.822956149616E+03   -0.11179E-05   -0.58764E-06  3630   0.438E-03    0.230E-03
DAV:   5    -0.822956149759E+03   -0.14308E-06   -0.12475E-06  3240   0.191E-03
  42 F= -.83045313E+03 E0= -.83045313E+03  d E =-.136648E-03  mag=    -0.0000
       N       E                     dE             d eps       ncg     rms          rms(c)
DAV:   1    -0.822956249281E+03   -0.99665E-04   -0.36705E-02  4320   0.308E-01    0.363E-02
DAV:   2    -0.822956316104E+03   -0.66823E-04   -0.74666E-04  4500   0.419E-02    0.218E-02
DAV:   3    -0.822956313852E+03    0.22519E-05   -0.10700E-05  4430   0.631E-03    0.133E-02
DAV:   4    -0.822956315044E+03   -0.11913E-05   -0.93588E-06  4120   0.572E-03    0.281E-03
DAV:   5    -0.822956315216E+03   -0.17224E-06   -0.19601E-06  3370   0.249E-03
  43 F= -.83045329E+03 E0= -.83045329E+03  d E =-.155778E-03  mag=    -0.0000
       N       E                     dE             d eps       ncg     rms          rms(c)
DAV:   1    -0.822956410620E+03   -0.95576E-04   -0.55080E-02  4320   0.382E-01    0.439E-02
DAV:   2    -0.822956513240E+03   -0.10262E-03   -0.11362E-03  4530   0.526E-02    0.265E-02
DAV:   3    -0.822956509855E+03    0.33855E-05   -0.15913E-05  4700   0.785E-03    0.163E-02
DAV:   4    -0.822956511383E+03   -0.15283E-05   -0.13603E-05  4140   0.697E-03    0.325E-03
DAV:   5    -0.822956511661E+03   -0.27783E-06   -0.29040E-06  3520   0.309E-03
  44 F= -.83045348E+03 E0= -.83045348E+03  d E =-.187437E-03  mag=    -0.0000
       N       E                     dE             d eps       ncg     rms          rms(c)
DAV:   1    -0.822956619451E+03   -0.10807E-03   -0.73088E-02  4320   0.440E-01    0.529E-02
DAV:   2    -0.822956753241E+03   -0.13379E-03   -0.15194E-03  4490   0.610E-02    0.316E-02
DAV:   3    -0.822956748490E+03    0.47511E-05   -0.23610E-05  4670   0.978E-03    0.192E-02
DAV:   4    -0.822956750672E+03   -0.21813E-05   -0.20240E-05  4360   0.908E-03    0.418E-03
DAV:   5    -0.822956750983E+03   -0.31105E-06   -0.42615E-06  3940   0.388E-03
  45 F= -.83045370E+03 E0= -.83045370E+03  d E =-.228335E-03  mag=    -0.0000
       N       E                     dE             d eps       ncg     rms          rms(c)
DAV:   1    -0.822956883038E+03   -0.13237E-03   -0.10099E-01  4320   0.529E-01    0.638E-02
DAV:   2    -0.822957071827E+03   -0.18879E-03   -0.21747E-03  4530   0.747E-02    0.386E-02
DAV:   3    -0.822957064443E+03    0.73831E-05   -0.38110E-05  4670   0.128E-02    0.235E-02
DAV:   4    -0.822957067660E+03   -0.32166E-05   -0.31119E-05  4680   0.119E-02    0.564E-03
DAV:   5    -0.822957068050E+03   -0.38985E-06   -0.63479E-06  4235   0.515E-03
  46 F= -.83045400E+03 E0= -.83045400E+03  d E =-.294662E-03  mag=     0.0000
       N       E                     dE             d eps       ncg     rms          rms(c)
DAV:   1    -0.822957135096E+03   -0.67436E-04   -0.15692E-01  4280   0.682E-01    0.804E-02
DAV:   2    -0.822957433691E+03   -0.29859E-03   -0.35012E-03  4570   0.973E-02    0.494E-02
DAV:   3    -0.822957418418E+03    0.15273E-04   -0.74291E-05  4660   0.177E-02    0.300E-02
DAV:   4    -0.822957421909E+03   -0.34911E-05   -0.47140E-05  4600   0.142E-02    0.719E-03
DAV:   5    -0.822957422784E+03   -0.87484E-06   -0.92378E-06  4400   0.631E-03
  47 F= -.83045434E+03 E0= -.83045434E+03  d E =-.335985E-03  mag=    -0.0000
       N       E                     dE             d eps       ncg     rms          rms(c)
DAV:   1    -0.822957579808E+03   -0.15790E-03   -0.76432E-03  4300   0.184E-01    0.210E-02
DAV:   2    -0.822957590174E+03   -0.10366E-04   -0.19650E-04  4820   0.280E-02    0.137E-02
DAV:   3    -0.822957587657E+03    0.25175E-05   -0.15947E-05  4900   0.790E-03    0.719E-03
DAV:   4    -0.822957587489E+03    0.16734E-06   -0.17930E-06  3280   0.280E-03
  48 F= -.83045450E+03 E0= -.83045450E+03  d E =-.159873E-03  mag=    -0.0000
       N       E                     dE             d eps       ncg     rms          rms(c)
DAV:   1    -0.822957548347E+03    0.39309E-04   -0.84733E-03  4320   0.192E-01    0.214E-02
DAV:   2    -0.822957561720E+03   -0.13373E-04   -0.21233E-04  5040   0.289E-02    0.135E-02
DAV:   3    -0.822957559463E+03    0.22571E-05   -0.12874E-05  4840   0.721E-03    0.740E-03
DAV:   4    -0.822957559186E+03    0.27708E-06   -0.17648E-06  3460   0.297E-03
  49 F= -.83045446E+03 E0= -.83045446E+03  d E =0.349181E-04  mag=    -0.0000
       N       E                     dE             d eps       ncg     rms          rms(c)
DAV:   1    -0.822957617994E+03   -0.58531E-04   -0.43079E-04  4460   0.438E-02    0.496E-03
DAV:   2    -0.822957618692E+03   -0.69803E-06   -0.12163E-05  4760   0.693E-03    0.349E-03
DAV:   3    -0.822957618580E+03    0.11231E-06   -0.74435E-07  2820   0.189E-03
  50 F= -.83045452E+03 E0= -.83045452E+03  d E =-.598870E-04  mag=     0.0000
       N       E                     dE             d eps       ncg     rms          rms(c)
DAV:   1    -0.822957688873E+03   -0.70181E-04   -0.13080E-03  4300   0.764E-02    0.881E-03
DAV:   2    -0.822957690801E+03   -0.19283E-05   -0.33182E-05  4860   0.115E-02    0.585E-03
DAV:   3    -0.822957690357E+03    0.44441E-06   -0.21688E-06  3200   0.316E-03
  51 F= -.83045459E+03 E0= -.83045459E+03  d E =-.725707E-04  mag=    -0.0000
       N       E                     dE             d eps       ncg     rms          rms(c)
DAV:   1    -0.822957725931E+03   -0.35129E-04   -0.19037E-03  4380   0.922E-02    0.107E-02
DAV:   2    -0.822957728828E+03   -0.28974E-05   -0.47726E-05  4940   0.138E-02    0.699E-03
DAV:   3    -0.822957728204E+03    0.62471E-06   -0.30640E-06  3700   0.368E-03
  52 F= -.83045463E+03 E0= -.83045463E+03  d E =-.384749E-04  mag=     0.0000
       N       E                     dE             d eps       ncg     rms          rms(c)
DAV:   1    -0.822957731153E+03   -0.23244E-05   -0.41361E-06  4130   0.434E-03    0.163E-03
DAV:   2    -0.822957731183E+03   -0.29846E-07   -0.23052E-07  2940   0.108E-03
  53 F= -.83045463E+03 E0= -.83045463E+03  d E =-.285955E-05  mag=     0.0000
       N       E                     dE             d eps       ncg     rms          rms(c)
DAV:   1    -0.822957737288E+03   -0.61358E-05   -0.12359E-05  4200   0.709E-03    0.126E-03
DAV:   2    -0.822957737323E+03   -0.34204E-07   -0.34060E-07  2970   0.123E-03
  54 F= -.83045464E+03 E0= -.83045464E+03  d E =-.591275E-05  mag=    -0.0000
       N       E                     dE             d eps       ncg     rms          rms(c)
DAV:   1    -0.822957745958E+03   -0.86697E-05   -0.26434E-05  4350   0.103E-02    0.160E-03
DAV:   2    -0.822957746008E+03   -0.49942E-07   -0.65713E-07  3150   0.159E-03
  55 F= -.83045465E+03 E0= -.83045465E+03  d E =-.836080E-05  mag=    -0.0000
       N       E                     dE             d eps       ncg     rms          rms(c)
DAV:   1    -0.822957756629E+03   -0.10671E-04   -0.43866E-05  4400   0.131E-02    0.193E-03
DAV:   2    -0.822957756706E+03   -0.76179E-07   -0.10483E-06  3470   0.194E-03
  56 F= -.83045466E+03 E0= -.83045466E+03  d E =-.102899E-04  mag=    -0.0000
       N       E                     dE             d eps       ncg     rms          rms(c)
DAV:   1    -0.822957769022E+03   -0.12392E-04   -0.63025E-05  4340   0.155E-02    0.223E-03
DAV:   2    -0.822957769132E+03   -0.10996E-06   -0.15044E-06  3580   0.228E-03
  57 F= -.83045467E+03 E0= -.83045467E+03  d E =-.119621E-04  mag=    -0.0000
       N       E                     dE             d eps       ncg     rms          rms(c)
DAV:   1    -0.822957782935E+03   -0.13914E-04   -0.83202E-05  4320   0.175E-02    0.248E-03
DAV:   2    -0.822957783082E+03   -0.14660E-06   -0.19615E-06  3600   0.254E-03
  58 F= -.83045468E+03 E0= -.83045468E+03  d E =-.135003E-04  mag=    -0.0000
       N       E                     dE             d eps       ncg     rms          rms(c)
DAV:   1    -0.822957800107E+03   -0.17172E-04   -0.12883E-04  4260   0.212E-02    0.289E-03
DAV:   2    -0.822957800344E+03   -0.23641E-06   -0.30083E-06  3740   0.303E-03
  59 F= -.83045470E+03 E0= -.83045470E+03  d E =-.167909E-04  mag=    -0.0000
       N       E                     dE             d eps       ncg     rms          rms(c)
DAV:   1    -0.822957821094E+03   -0.20987E-04   -0.19563E-04  4260   0.253E-02    0.342E-03
DAV:   2    -0.822957821453E+03   -0.35889E-06   -0.44552E-06  3960   0.356E-03
  60 F= -.83045472E+03 E0= -.83045472E+03  d E =-.205919E-04  mag=    -0.0000
       N       E                     dE             d eps       ncg     rms          rms(c)
DAV:   1    -0.822957847470E+03   -0.26376E-04   -0.28495E-04  4260   0.300E-02    0.405E-03
DAV:   2    -0.822957847989E+03   -0.51966E-06   -0.63352E-06  4220   0.414E-03
  61 F= -.83045475E+03 E0= -.83045475E+03  d E =-.259184E-04  mag=    -0.0000
       N       E                     dE             d eps       ncg     rms          rms(c)
DAV:   1    -0.822957879935E+03   -0.32466E-04   -0.40807E-04  4280   0.356E-02    0.484E-03
DAV:   2    -0.822957880672E+03   -0.73692E-06   -0.89607E-06  4460   0.491E-03
  62 F= -.83045478E+03 E0= -.83045478E+03  d E =-.317989E-04  mag=    -0.0000
       N       E                     dE             d eps       ncg     rms          rms(c)
DAV:   1    -0.822957919826E+03   -0.39890E-04   -0.60311E-04  4320   0.435E-02    0.592E-03
DAV:   2    -0.822957920898E+03   -0.10722E-05   -0.13193E-05  4560   0.601E-03    0.387E-03
DAV:   3    -0.822957920901E+03   -0.25248E-08   -0.24321E-07  2940   0.109E-03
  63 F= -.83045482E+03 E0= -.83045482E+03  d E =-.391323E-04  mag=    -0.0000
       N       E                     dE             d eps       ncg     rms          rms(c)
DAV:   1    -0.822957967262E+03   -0.46364E-04   -0.88679E-04  4300   0.525E-02    0.612E-03
DAV:   2    -0.822957968947E+03   -0.16843E-05   -0.19621E-05  4600   0.726E-03    0.366E-03
DAV:   3    -0.822957968908E+03    0.38221E-07   -0.29062E-07  3000   0.115E-03
  64 F= -.83045487E+03 E0= -.83045486E+03  d E =-.466086E-04  mag=    -0.0000
       N       E                     dE             d eps       ncg     rms          rms(c)
DAV:   1    -0.822958023591E+03   -0.54645E-04   -0.12959E-03  4300   0.627E-02    0.738E-03
DAV:   2    -0.822958025994E+03   -0.24028E-05   -0.28316E-05  4400   0.864E-03    0.440E-03
DAV:   3    -0.822958025933E+03    0.61416E-07   -0.43544E-07  3140   0.138E-03
  65 F= -.83045492E+03 E0= -.83045492E+03  d E =-.551025E-04  mag=    -0.0000
       N       E                     dE             d eps       ncg     rms          rms(c)
DAV:   1    -0.822958091174E+03   -0.65180E-04   -0.18498E-03  4300   0.740E-02    0.882E-03
DAV:   2    -0.822958094548E+03   -0.33740E-05   -0.39909E-05  4380   0.102E-02    0.517E-03
DAV:   3    -0.822958094469E+03    0.79155E-07   -0.61911E-07  3140   0.159E-03
  66 F= -.83045499E+03 E0= -.83045499E+03  d E =-.658397E-04  mag=     0.0000
       N       E                     dE             d eps       ncg     rms          rms(c)
DAV:   1    -0.822958171889E+03   -0.77342E-04   -0.26897E-03  4320   0.888E-02    0.106E-02
DAV:   2    -0.822958176763E+03   -0.48738E-05   -0.57690E-05  4370   0.122E-02    0.618E-03
DAV:   3    -0.822958176640E+03    0.12357E-06   -0.89974E-07  3300   0.190E-03
  67 F= -.83045506E+03 E0= -.83045506E+03  d E =-.787192E-04  mag=     0.0000
       N       E                     dE             d eps       ncg     rms          rms(c)
DAV:   1    -0.822958265798E+03   -0.89034E-04   -0.40116E-03  4300   0.108E-01    0.128E-02
DAV:   2    -0.822958273094E+03   -0.72961E-05   -0.85977E-05  4400   0.149E-02    0.749E-03
DAV:   3    -0.822958272885E+03    0.20871E-06   -0.13548E-06  3360   0.233E-03
  68 F= -.83045516E+03 E0= -.83045516E+03  d E =-.922176E-04  mag=     0.0000
       N       E                     dE             d eps       ncg     rms          rms(c)
DAV:   1    -0.822958373712E+03   -0.10062E-03   -0.59497E-03  4320   0.131E-01    0.154E-02
DAV:   2    -0.822958384574E+03   -0.10862E-04   -0.12638E-04  4370   0.179E-02    0.900E-03
DAV:   3    -0.822958384249E+03    0.32465E-06   -0.19071E-06  3720   0.272E-03
  69 F= -.83045526E+03 E0= -.83045526E+03  d E =-.106904E-03  mag=    -0.0000
       N       E                     dE             d eps       ncg     rms          rms(c)
DAV:   1    -0.822958495079E+03   -0.11051E-03   -0.84896E-03  4320   0.156E-01    0.181E-02
DAV:   2    -0.822958510635E+03   -0.15556E-04   -0.17879E-04  4390   0.213E-02    0.107E-02
DAV:   3    -0.822958510142E+03    0.49320E-06   -0.26896E-06  3920   0.323E-03
  70 F= -.83045539E+03 E0= -.83045539E+03  d E =-.121785E-03  mag=     0.0000
       N       E                     dE             d eps       ncg     rms          rms(c)
DAV:   1    -0.822958624822E+03   -0.11419E-03   -0.11379E-02  4320   0.179E-01    0.212E-02
DAV:   2    -0.822958645187E+03   -0.20365E-04   -0.23460E-04  4400   0.242E-02    0.126E-02
DAV:   3    -0.822958644491E+03    0.69587E-06   -0.37134E-06  3960   0.377E-03
  71 F= -.83045552E+03 E0= -.83045552E+03  d E =-.131016E-03  mag=    -0.0000
       N       E                     dE             d eps       ncg     rms          rms(c)
DAV:   1    -0.822958771701E+03   -0.12651E-03   -0.14285E-02  4320   0.197E-01    0.243E-02
DAV:   2    -0.822958796128E+03   -0.24427E-04   -0.28463E-04  4340   0.265E-02    0.146E-02
DAV:   3    -0.822958795258E+03    0.86946E-06   -0.48232E-06  4000   0.427E-03
  72 F= -.83045566E+03 E0= -.83045566E+03  d E =-.147601E-03  mag=    -0.0000
       N       E                     dE             d eps       ncg     rms          rms(c)
DAV:   1    -0.822958932546E+03   -0.13642E-03   -0.19146E-02  4320   0.227E-01    0.286E-02
DAV:   2    -0.822958964553E+03   -0.32007E-04   -0.37738E-04  4290   0.306E-02    0.172E-02
DAV:   3    -0.822958963412E+03    0.11405E-05   -0.67922E-06  4240   0.505E-03    0.100E-02
DAV:   4    -0.822958964336E+03   -0.92384E-06   -0.53905E-06  3840   0.431E-03
  73 F= -.83045583E+03 E0= -.83045583E+03  d E =-.165303E-03  mag=     0.0000
       N       E                     dE             d eps       ncg     rms          rms(c)
DAV:   1    -0.822959111836E+03   -0.14842E-03   -0.24652E-02  4320   0.254E-01    0.323E-02
DAV:   2    -0.822959154198E+03   -0.42362E-04   -0.49574E-04  4510   0.348E-02    0.197E-02
DAV:   3    -0.822959152416E+03    0.17817E-05   -0.88857E-06  4340   0.585E-03    0.116E-02
DAV:   4    -0.822959153563E+03   -0.11464E-05   -0.78376E-06  4060   0.509E-03    0.282E-03
DAV:   5    -0.822959153671E+03   -0.10794E-06   -0.15298E-06  3140   0.232E-03
  74 F= -.83045601E+03 E0= -.83045601E+03  d E =-.184993E-03  mag=    -0.0000
       N       E                     dE             d eps       ncg     rms          rms(c)
DAV:   1    -0.822959310262E+03   -0.15670E-03   -0.35918E-02  4320   0.306E-01    0.382E-02
DAV:   2    -0.822959372980E+03   -0.62718E-04   -0.73016E-04  4450   0.420E-02    0.237E-02
DAV:   3    -0.822959369798E+03    0.31814E-05   -0.12628E-05  4380   0.697E-03    0.141E-02
DAV:   4    -0.822959371165E+03   -0.13666E-05   -0.12598E-05  4220   0.618E-03    0.337E-03
DAV:   5    -0.822959371291E+03   -0.12592E-06   -0.24598E-06  3270   0.279E-03
  75 F= -.83045623E+03 E0= -.83045623E+03  d E =-.215574E-03  mag=    -0.0000
       N       E                     dE             d eps       ncg     rms          rms(c)
DAV:   1    -0.822959552419E+03   -0.18125E-03   -0.48913E-02  4300   0.367E-01    0.447E-02
DAV:   2    -0.822959643143E+03   -0.90725E-04   -0.10429E-03  4440   0.507E-02    0.274E-02
DAV:   3    -0.822959639177E+03    0.39665E-05   -0.17283E-05  4540   0.831E-03    0.165E-02
DAV:   4    -0.822959641036E+03   -0.18595E-05   -0.15733E-05  4300   0.729E-03    0.379E-03
DAV:   5    -0.822959641228E+03   -0.19147E-06   -0.32797E-06  3420   0.328E-03
  76 F= -.83045650E+03 E0= -.83045650E+03  d E =-.267416E-03  mag=    -0.0000
       N       E                     dE             d eps       ncg     rms          rms(c)
DAV:   1    -0.822959838685E+03   -0.19765E-03   -0.73199E-02  4300   0.455E-01    0.535E-02
DAV:   2    -0.822959978672E+03   -0.13999E-03   -0.15873E-03  4510   0.626E-02    0.327E-02
DAV:   3    -0.822959973068E+03    0.56042E-05   -0.25026E-05  4600   0.992E-03    0.199E-02
DAV:   4    -0.822959975799E+03   -0.27317E-05   -0.21898E-05  4440   0.851E-03    0.446E-03
DAV:   5    -0.822959976095E+03   -0.29586E-06   -0.47099E-06  3760   0.390E-03
  77 F= -.83045683E+03 E0= -.83045683E+03  d E =-.329129E-03  mag=     0.0000
       N       E                     dE             d eps       ncg     rms          rms(c)
DAV:   1    -0.822960177244E+03   -0.20144E-03   -0.10949E-01  4320   0.563E-01    0.655E-02
DAV:   2    -0.822960393680E+03   -0.21644E-03   -0.24789E-03  4460   0.788E-02    0.387E-02
DAV:   3    -0.822960386184E+03    0.74961E-05   -0.37822E-05  4620   0.122E-02    0.238E-02
DAV:   4    -0.822960390680E+03   -0.44956E-05   -0.31352E-05  4580   0.105E-02    0.555E-03
DAV:   5    -0.822960391081E+03   -0.40168E-06   -0.69619E-06  4120   0.468E-03
  78 F= -.83045722E+03 E0= -.83045722E+03  d E =-.395316E-03  mag=    -0.0000
       N       E                     dE             d eps       ncg     rms          rms(c)
DAV:   1    -0.822960483554E+03   -0.92875E-04   -0.16058E-01  4300   0.704E-01    0.778E-02
DAV:   2    -0.822960814875E+03   -0.33132E-03   -0.37742E-03  4480   0.988E-02    0.470E-02
DAV:   3    -0.822960801377E+03    0.13498E-04   -0.60560E-05  4780   0.155E-02    0.291E-02
DAV:   4    -0.822960807027E+03   -0.56495E-05   -0.45682E-05  4620   0.125E-02    0.669E-03
DAV:   5    -0.822960807941E+03   -0.91375E-06   -0.10526E-05  4340   0.548E-03    0.364E-03
DAV:   6    -0.822960808340E+03   -0.39951E-06   -0.10557E-06  3240   0.185E-03
  79 F= -.83045762E+03 E0= -.83045762E+03  d E =-.402765E-03  mag=    -0.0000
       N       E                     dE             d eps       ncg     rms          rms(c)
DAV:   1    -0.822960891204E+03   -0.83264E-04   -0.33626E-03  4320   0.122E-01    0.133E-02
DAV:   2    -0.822960896325E+03   -0.51205E-05   -0.84909E-05  4700   0.183E-02    0.900E-03
DAV:   3    -0.822960895356E+03    0.96842E-06   -0.58066E-06  4560   0.489E-03
  80 F= -.83045771E+03 E0= -.83045771E+03  d E =-.842161E-04  mag=     0.0000
       N       E                     dE             d eps       ncg     rms          rms(c)
DAV:   1    -0.822960858185E+03    0.38139E-04   -0.43960E-03  4330   0.141E-01    0.159E-02
DAV:   2    -0.822960864898E+03   -0.67129E-05   -0.10920E-04  4780   0.208E-02    0.104E-02
DAV:   3    -0.822960863527E+03    0.13709E-05   -0.66422E-06  4600   0.537E-03    0.547E-03
DAV:   4    -0.822960863440E+03    0.87530E-07   -0.98863E-07  2880   0.230E-03
  81 F= -.83045768E+03 E0= -.83045768E+03  d E =0.324413E-04  mag=     0.0000
       N       E                     dE             d eps       ncg     rms          rms(c)
DAV:   1    -0.822960885875E+03   -0.22348E-04   -0.16219E-04  4560   0.269E-02    0.308E-03
DAV:   2    -0.822960886191E+03   -0.31588E-06   -0.45383E-06  4320   0.425E-03
  82 F= -.83045770E+03 E0= -.83045770E+03  d E =-.243264E-04  mag=     0.0000
       N       E                     dE             d eps       ncg     rms          rms(c)
DAV:   1    -0.822960912604E+03   -0.26729E-04   -0.51013E-04  4450   0.477E-02    0.590E-03
DAV:   2    -0.822960913245E+03   -0.64136E-06   -0.12592E-05  4680   0.712E-03    0.404E-03
DAV:   3    -0.822960913069E+03    0.17638E-06   -0.85531E-07  2920   0.209E-03
  83 F= -.83045773E+03 E0= -.83045773E+03  d E =-.296671E-04  mag=    -0.0000
       N       E                     dE             d eps       ncg     rms          rms(c)
DAV:   1    -0.822960921285E+03   -0.80393E-05   -0.78951E-04  4380   0.595E-02    0.655E-03
DAV:   2    -0.822960922567E+03   -0.12823E-05   -0.19970E-05  4700   0.885E-03    0.442E-03
DAV:   3    -0.822960922318E+03    0.24856E-06   -0.97351E-07  2940   0.223E-03
  84 F= -.83045774E+03 E0= -.83045774E+03  d E =-.128315E-04  mag=     0.0000
       N       E                     dE             d eps       ncg     rms          rms(c)
DAV:   1    -0.822960923036E+03   -0.46939E-06   -0.12555E-06  3140   0.250E-03    0.112E-03
DAV:   2    -0.822960923060E+03   -0.23916E-07   -0.12635E-07  2970   0.841E-04
  85 F= -.83045774E+03 E0= -.83045774E+03  d E =-.729419E-06  mag=     0.0000
       N       E                     dE             d eps       ncg     rms          rms(c)
DAV:   1    -0.822960924511E+03   -0.14748E-05   -0.32127E-06  4050   0.370E-03    0.980E-04
DAV:   2    -0.822960924527E+03   -0.15825E-07   -0.93985E-08  2860   0.686E-04
  86 F= -.83045775E+03 E0= -.83045775E+03  d E =-.144045E-05  mag=    -0.0000
       N       E                     dE             d eps       ncg     rms          rms(c)
DAV:   1    -0.822960926656E+03   -0.21450E-05   -0.69153E-06  4260   0.539E-03    0.106E-03
DAV:   2    -0.822960926675E+03   -0.18954E-07   -0.17688E-07  2880   0.851E-04
  87 F= -.83045775E+03 E0= -.83045775E+03  d E =-.211170E-05  mag=    -0.0000
       N       E                     dE             d eps       ncg     rms          rms(c)
DAV:   1    -0.822960929411E+03   -0.27551E-05   -0.11884E-05  4300   0.700E-03    0.116E-03
DAV:   2    -0.822960929439E+03   -0.28034E-07   -0.30314E-07  3000   0.106E-03
  88 F= -.83045775E+03 E0= -.83045775E+03  d E =-.272517E-05  mag=    -0.0000
       N       E                     dE             d eps       ncg     rms          rms(c)
DAV:   1    -0.822960932769E+03   -0.33576E-05   -0.17702E-05  4200   0.840E-03    0.126E-03
DAV:   2    -0.822960932806E+03   -0.37449E-07   -0.45083E-07  3050   0.124E-03
  89 F= -.83045775E+03 E0= -.83045775E+03  d E =-.338538E-05  mag=    -0.0000
       N       E                     dE             d eps       ncg     rms          rms(c)
DAV:   1    -0.822960936834E+03   -0.40650E-05   -0.24676E-05  4180   0.977E-03    0.137E-03
DAV:   2    -0.822960936887E+03   -0.52612E-07   -0.62195E-07  3180   0.142E-03
  90 F= -.83045776E+03 E0= -.83045776E+03  d E =-.415755E-05  mag=    -0.0000
       N       E                     dE             d eps       ncg     rms          rms(c)
DAV:   1    -0.822960942285E+03   -0.54509E-05   -0.40668E-05  4180   0.123E-02    0.155E-03
DAV:   2    -0.822960942372E+03   -0.86970E-07   -0.10164E-06  3270   0.175E-03
  91 F= -.83045776E+03 E0= -.83045776E+03  d E =-.562359E-05  mag=    -0.0000
       N       E                     dE             d eps       ncg     rms          rms(c)
DAV:   1    -0.822960949479E+03   -0.71941E-05   -0.62329E-05  4200   0.151E-02    0.180E-03
DAV:   2    -0.822960949611E+03   -0.13175E-06   -0.15526E-06  3420   0.212E-03
  92 F= -.83045777E+03 E0= -.83045777E+03  d E =-.740794E-05  mag=    -0.0000
       N       E                     dE             d eps       ncg     rms          rms(c)
DAV:   1    -0.822960959082E+03   -0.96031E-05   -0.96878E-05  4220   0.186E-02    0.214E-03
DAV:   2    -0.822960959290E+03   -0.20750E-06   -0.24170E-06  3490   0.259E-03
  93 F= -.83045778E+03 E0= -.83045778E+03  d E =-.986834E-05  mag=    -0.0000
       N       E                     dE             d eps       ncg     rms          rms(c)
DAV:   1    -0.822960971941E+03   -0.12859E-04   -0.14638E-04  4240   0.228E-02    0.257E-03
DAV:   2    -0.822960972256E+03   -0.31503E-06   -0.36395E-06  3820   0.314E-03
  94 F= -.83045779E+03 E0= -.83045779E+03  d E =-.131516E-04  mag=    -0.0000
       N       E                     dE             d eps       ncg     rms          rms(c)
DAV:   1    -0.822960988611E+03   -0.16670E-04   -0.22410E-04  4240   0.282E-02    0.316E-03
DAV:   2    -0.822960989103E+03   -0.49183E-06   -0.56158E-06  4220   0.390E-03
  95 F= -.83045781E+03 E0= -.83045781E+03  d E =-.169759E-04  mag=    -0.0000
       N       E                     dE             d eps       ncg     rms          rms(c)
DAV:   1    -0.822961009403E+03   -0.20792E-04   -0.34452E-04  4260   0.349E-02    0.390E-03
DAV:   2    -0.822961010159E+03   -0.75606E-06   -0.86733E-06  4560   0.483E-03
  96 F= -.83045783E+03 E0= -.83045783E+03  d E =-.211646E-04  mag=    -0.0000
       N       E                     dE             d eps       ncg     rms          rms(c)
DAV:   1    -0.822961035347E+03   -0.25944E-04   -0.51932E-04  4300   0.426E-02    0.477E-03
DAV:   2    -0.822961036485E+03   -0.11377E-05   -0.13019E-05  4620   0.585E-03    0.325E-03
DAV:   3    -0.822961036481E+03    0.33469E-08   -0.14098E-07  2770   0.940E-04
  97 F= -.83045786E+03 E0= -.83045786E+03  d E =-.261551E-04  mag=    -0.0000
       N       E                     dE             d eps       ncg     rms          rms(c)
DAV:   1    -0.822961066157E+03   -0.29672E-04   -0.71198E-04  4260   0.496E-02    0.507E-03
DAV:   2    -0.822961067737E+03   -0.15797E-05   -0.18108E-05  4510   0.689E-03    0.281E-03
DAV:   3    -0.822961067720E+03    0.16800E-07   -0.18152E-07  2770   0.999E-04
  98 F= -.83045789E+03 E0= -.83045789E+03  d E =-.309906E-04  mag=    -0.0000
       N       E                     dE             d eps       ncg     rms          rms(c)
DAV:   1    -0.822961103937E+03   -0.36200E-04   -0.10092E-03  4300   0.590E-02    0.603E-03
DAV:   2    -0.822961106206E+03   -0.22690E-05   -0.25901E-05  4485   0.822E-03    0.338E-03
DAV:   3    -0.822961106175E+03    0.31367E-07   -0.25839E-07  2740   0.119E-03
  99 F= -.83045793E+03 E0= -.83045793E+03  d E =-.380203E-04  mag=    -0.0000
       N       E                     dE             d eps       ncg     rms          rms(c)
DAV:   1    -0.822961148167E+03   -0.41961E-04   -0.14429E-03  4300   0.702E-02    0.716E-03
DAV:   2    -0.822961151397E+03   -0.32296E-05   -0.36704E-05  4460   0.975E-03    0.397E-03
DAV:   3    -0.822961151357E+03    0.39916E-07   -0.36326E-07  2880   0.139E-03
 100 F= -.83045797E+03 E0= -.83045797E+03  d E =-.444477E-04  mag=     0.0000
       N       E                     dE             d eps       ncg     rms          rms(c)
DAV:   1    -0.822961200037E+03   -0.48640E-04   -0.19067E-03  4320   0.804E-02    0.820E-03
DAV:   2    -0.822961204259E+03   -0.42217E-05   -0.47726E-05  4440   0.110E-02    0.451E-03
DAV:   3    -0.822961204206E+03    0.52467E-07   -0.48050E-07  3100   0.156E-03
 101 F= -.83045802E+03 E0= -.83045802E+03  d E =-.515866E-04  mag=     0.0000
       N       E                     dE             d eps       ncg     rms          rms(c)
DAV:   1    -0.822961260091E+03   -0.55833E-04   -0.25580E-03  4300   0.931E-02    0.942E-03
DAV:   2    -0.822961265774E+03   -0.56827E-05   -0.63687E-05  4490   0.127E-02    0.521E-03
DAV:   3    -0.822961265693E+03    0.81338E-07   -0.66988E-07  3360   0.180E-03
 102 F= -.83045808E+03 E0= -.83045808E+03  d E =-.595565E-04  mag=     0.0000
       N       E                     dE             d eps       ncg     rms          rms(c)
DAV:   1    -0.822961327263E+03   -0.61489E-04   -0.35094E-03  4320   0.109E-01    0.109E-02
DAV:   2    -0.822961334991E+03   -0.77277E-05   -0.86280E-05  4510   0.147E-02    0.606E-03
DAV:   3    -0.822961334877E+03    0.11423E-06   -0.91758E-07  3610   0.206E-03
 103 F= -.83045815E+03 E0= -.83045815E+03  d E =-.672350E-04  mag=     0.0000
       N       E                     dE             d eps       ncg     rms          rms(c)
DAV:   1    -0.822961397829E+03   -0.62839E-04   -0.49417E-03  4340   0.129E-01    0.127E-02
DAV:   2    -0.822961408717E+03   -0.10887E-04   -0.12061E-04  4460   0.173E-02    0.708E-03
DAV:   3    -0.822961408567E+03    0.15007E-06   -0.12318E-06  3660   0.236E-03
 104 F= -.83045822E+03 E0= -.83045822E+03  d E =-.717144E-04  mag=     0.0000
       N       E                     dE             d eps       ncg     rms          rms(c)
DAV:   1    -0.822961471311E+03   -0.62594E-04   -0.59431E-03  4340   0.141E-01    0.144E-02
DAV:   2    -0.822961484275E+03   -0.12964E-04   -0.14475E-04  4460   0.191E-02    0.797E-03
DAV:   3    -0.822961484073E+03    0.20189E-06   -0.15713E-06  3840   0.264E-03
 105 F= -.83045829E+03 E0= -.83045829E+03  d E =-.728894E-04  mag=     0.0000
       N       E                     dE             d eps       ncg     rms          rms(c)
DAV:   1    -0.822961551246E+03   -0.66971E-04   -0.60486E-03  4300   0.142E-01    0.152E-02
DAV:   2    -0.822961563894E+03   -0.12648E-04   -0.14349E-04  4440   0.193E-02    0.841E-03
DAV:   3    -0.822961563714E+03    0.17973E-06   -0.18186E-06  3880   0.286E-03
 106 F= -.83045837E+03 E0= -.83045837E+03  d E =-.757371E-04  mag=    -0.0000
       N       E                     dE             d eps       ncg     rms          rms(c)
DAV:   1    -0.822961636080E+03   -0.72186E-04   -0.67836E-03  4300   0.150E-01    0.166E-02
DAV:   2    -0.822961649916E+03   -0.13837E-04   -0.15916E-04  4500   0.205E-02    0.927E-03
DAV:   3    -0.822961649715E+03    0.20123E-06   -0.22193E-06  3800   0.315E-03
 107 F= -.83045845E+03 E0= -.83045845E+03  d E =-.815836E-04  mag=    -0.0000
       N       E                     dE             d eps       ncg     rms          rms(c)
DAV:   1    -0.822961725734E+03   -0.75817E-04   -0.79627E-03  4300   0.162E-01    0.185E-02
DAV:   2    -0.822961741537E+03   -0.15803E-04   -0.18395E-04  4490   0.224E-02    0.105E-02
DAV:   3    -0.822961741289E+03    0.24858E-06   -0.30145E-06  4040   0.368E-03
 108 F= -.83045854E+03 E0= -.83045854E+03  d E =-.864589E-04  mag=    -0.0000
       N       E                     dE             d eps       ncg     rms          rms(c)
DAV:   1    -0.822961829133E+03   -0.87596E-04   -0.10193E-02  4300   0.184E-01    0.209E-02
DAV:   2    -0.822961849698E+03   -0.20565E-04   -0.23789E-04  4450   0.256E-02    0.121E-02
DAV:   3    -0.822961849284E+03    0.41418E-06   -0.40228E-06  4380   0.421E-03
 109 F= -.83045864E+03 E0= -.83045864E+03  d E =-.100117E-03  mag=    -0.0000
       N       E                     dE             d eps       ncg     rms          rms(c)
DAV:   1    -0.822961957168E+03   -0.10747E-03   -0.13805E-02  4320   0.210E-01    0.243E-02
DAV:   2    -0.822961984161E+03   -0.26993E-04   -0.31508E-04  4390   0.291E-02    0.140E-02
DAV:   3    -0.822961983547E+03    0.61331E-06   -0.54815E-06  4320   0.480E-03
 110 F= -.83045876E+03 E0= -.83045876E+03  d E =-.124005E-03  mag=     0.0000
       N       E                     dE             d eps       ncg     rms          rms(c)
DAV:   1    -0.822962102295E+03   -0.11813E-03   -0.21986E-02  4320   0.267E-01    0.306E-02
DAV:   2    -0.822962145235E+03   -0.42940E-04   -0.50863E-04  4480   0.374E-02    0.178E-02
DAV:   3    -0.822962143837E+03    0.13988E-05   -0.94597E-06  4680   0.631E-03    0.107E-02
DAV:   4    -0.822962144929E+03   -0.10928E-05   -0.56635E-06  3760   0.461E-03    0.261E-03
DAV:   5    -0.822962145061E+03   -0.13153E-06   -0.13251E-06  3230   0.207E-03
 111 F= -.83045892E+03 E0= -.83045892E+03  d E =-.155460E-03  mag=     0.0000
       N       E                     dE             d eps       ncg     rms          rms(c)
DAV:   1    -0.822962296304E+03   -0.15137E-03   -0.35942E-02  4260   0.341E-01    0.389E-02
DAV:   2    -0.822962367234E+03   -0.70930E-04   -0.84769E-04  4530   0.492E-02    0.232E-02
DAV:   3    -0.822962363645E+03    0.35889E-05   -0.18374E-05  4700   0.870E-03    0.140E-02
DAV:   4    -0.822962364716E+03   -0.10713E-05   -0.10260E-05  4400   0.625E-03    0.360E-03
DAV:   5    -0.822962364928E+03   -0.21233E-06   -0.22595E-06  3440   0.273E-03
 112 F= -.83045911E+03 E0= -.83045911E+03  d E =-.194595E-03  mag=     0.0000
       N       E                     dE             d eps       ncg     rms          rms(c)
DAV:   1    -0.822962410627E+03   -0.45911E-04   -0.15745E-03  4340   0.828E-02    0.952E-03
DAV:   2    -0.822962412546E+03   -0.19192E-05   -0.38876E-05  4720   0.124E-02    0.632E-03
DAV:   3    -0.822962411915E+03    0.63141E-06   -0.28340E-06  3520   0.358E-03
 113 F= -.83045916E+03 E0= -.83045916E+03  d E =-.459589E-04  mag=     0.0000
       N       E                     dE             d eps       ncg     rms          rms(c)
DAV:   1    -0.822962417942E+03   -0.53960E-05   -0.19425E-03  4390   0.917E-02    0.109E-02
DAV:   2    -0.822962420420E+03   -0.24781E-05   -0.44892E-05  4980   0.133E-02    0.706E-03
DAV:   3    -0.822962419691E+03    0.72872E-06   -0.29510E-06  3660   0.373E-03
 114 F= -.83045916E+03 E0= -.83045916E+03  d E =-.429340E-05  mag=     0.0000
       N       E                     dE             d eps       ncg     rms          rms(c)
DAV:   1    -0.822962433526E+03   -0.13106E-04   -0.78906E-05  4560   0.186E-02    0.212E-03
DAV:   2    -0.822962433687E+03   -0.16155E-06   -0.24487E-06  3380   0.311E-03
 115 F= -.83045918E+03 E0= -.83045918E+03  d E =-.131609E-04  mag=     0.0000
       N       E                     dE             d eps       ncg     rms          rms(c)
DAV:   1    -0.822962452417E+03   -0.18891E-04   -0.23607E-04  4440   0.320E-02    0.405E-03
DAV:   2    -0.822962452692E+03   -0.27509E-06   -0.58148E-06  4740   0.481E-03
 116 F= -.83045919E+03 E0= -.83045919E+03  d E =-.173619E-04  mag=     0.0000
       N       E                     dE             d eps       ncg     rms          rms(c)
DAV:   1    -0.822962465776E+03   -0.13359E-04   -0.35363E-04  4460   0.391E-02    0.528E-03
DAV:   2    -0.822962466127E+03   -0.35109E-06   -0.81775E-06  4840   0.570E-03
 117 F= -.83045920E+03 E0= -.83045920E+03  d E =-.112009E-04  mag=     0.0000
       N       E                     dE             d eps       ncg     rms          rms(c)
DAV:   1    -0.822962466886E+03   -0.11103E-05   -0.12140E-06  3100   0.247E-03    0.161E-03
DAV:   2    -0.822962466903E+03   -0.16793E-07   -0.17130E-07  2920   0.894E-04
 118 F= -.83045921E+03 E0= -.83045921E+03  d E =-.665090E-06  mag=     0.0000
       N       E                     dE             d eps       ncg     rms          rms(c)
DAV:   1    -0.822962468724E+03   -0.18386E-05   -0.18470E-06  3260   0.272E-03    0.869E-04
DAV:   2    -0.822962468741E+03   -0.16837E-07   -0.80375E-08  2940   0.636E-04
 119 F= -.83045921E+03 E0= -.83045921E+03  d E =-.161545E-05  mag=     0.0000
       N       E                     dE             d eps       ncg     rms          rms(c)
DAV:   1    -0.822962471388E+03   -0.26637E-05   -0.39070E-06  3880   0.385E-03    0.939E-04
DAV:   2    -0.822962471401E+03   -0.13279E-07   -0.95058E-08  2900   0.649E-04
 120 F= -.83045921E+03 E0= -.83045921E+03  d E =-.232242E-05  mag=     0.0000
       N       E                     dE             d eps       ncg     rms          rms(c)
DAV:   1    -0.822962474813E+03   -0.34253E-05   -0.61834E-06  4120   0.475E-03    0.101E-03
DAV:   2    -0.822962474829E+03   -0.15258E-07   -0.13886E-07  2780   0.756E-04
 121 F= -.83045921E+03 E0= -.83045921E+03  d E =-.298546E-05  mag=     0.0000
       N       E                     dE             d eps       ncg     rms          rms(c)
DAV:   1    -0.822962478935E+03   -0.41212E-05   -0.87828E-06  4140   0.551E-03    0.109E-03
DAV:   2    -0.822962478950E+03   -0.15192E-07   -0.19398E-07  2820   0.856E-04
 122 F= -.83045922E+03 E0= -.83045922E+03  d E =-.358092E-05  mag=     0.0000
       N       E                     dE             d eps       ncg     rms          rms(c)
DAV:   1    -0.822962483782E+03   -0.48469E-05   -0.11326E-05  4120   0.602E-03    0.117E-03
DAV:   2    -0.822962483799E+03   -0.17659E-07   -0.23664E-07  2750   0.919E-04
 123 F= -.83045922E+03 E0= -.83045922E+03  d E =-.422328E-05  mag=     0.0000
       N       E                     dE             d eps       ncg     rms          rms(c)
DAV:   1    -0.822962490042E+03   -0.62609E-05   -0.17462E-05  4160   0.716E-03    0.131E-03
DAV:   2    -0.822962490066E+03   -0.23967E-07   -0.34763E-07  2870   0.105E-03
 124 F= -.83045923E+03 E0= -.83045923E+03  d E =-.539565E-05  mag=     0.0000
       N       E                     dE             d eps       ncg     rms          rms(c)
DAV:   1    -0.822962498051E+03   -0.80088E-05   -0.26326E-05  4020   0.844E-03    0.151E-03
DAV:   2    -0.822962498089E+03   -0.38141E-07   -0.50727E-07  2730   0.122E-03
 125 F= -.83045923E+03 E0= -.83045923E+03  d E =-.692928E-05  mag=     0.0000
       N       E                     dE             d eps       ncg     rms          rms(c)
DAV:   1    -0.822962508225E+03   -0.10173E-04   -0.39569E-05  4040   0.998E-03    0.177E-03
DAV:   2    -0.822962508284E+03   -0.59721E-07   -0.74874E-07  2850   0.143E-03
 126 F= -.83045924E+03 E0= -.83045924E+03  d E =-.875575E-05  mag=     0.0000
       N       E                     dE             d eps       ncg     rms          rms(c)
DAV:   1    -0.822962521224E+03   -0.12999E-04   -0.60438E-05  4100   0.122E-02    0.212E-03
DAV:   2    -0.822962521312E+03   -0.88046E-07   -0.11407E-06  2970   0.173E-03
 127 F= -.83045925E+03 E0= -.83045925E+03  d E =-.110879E-04  mag=     0.0000
       N       E                     dE             d eps       ncg     rms          rms(c)
DAV:   1    -0.822962537550E+03   -0.16327E-04   -0.93132E-05  4190   0.151E-02    0.258E-03
DAV:   2    -0.822962537680E+03   -0.12975E-06   -0.17509E-06  3200   0.212E-03
 128 F= -.83045927E+03 E0= -.83045927E+03  d E =-.138759E-04  mag=     0.0000
       N       E                     dE             d eps       ncg     rms          rms(c)
DAV:   1    -0.822962557763E+03   -0.20213E-04   -0.14197E-04  4240   0.184E-02    0.315E-03
DAV:   2    -0.822962557950E+03   -0.18665E-06   -0.26049E-06  3360   0.253E-03
 129 F= -.83045928E+03 E0= -.83045928E+03  d E =-.170203E-04  mag=     0.0000
       N       E                     dE             d eps       ncg     rms          rms(c)
DAV:   1    -0.822962582633E+03   -0.24870E-04   -0.20505E-04  4280   0.222E-02    0.372E-03
DAV:   2    -0.822962582907E+03   -0.27374E-06   -0.37063E-06  3660   0.302E-03
 130 F= -.83045930E+03 E0= -.83045930E+03  d E =-.210142E-04  mag=     0.0000
       N       E                     dE             d eps       ncg     rms          rms(c)
DAV:   1    -0.822962613136E+03   -0.30502E-04   -0.29888E-04  4280   0.268E-02    0.442E-03
DAV:   2    -0.822962613551E+03   -0.41536E-06   -0.54491E-06  3860   0.361E-03
 131 F= -.83045933E+03 E0= -.83045933E+03  d E =-.259680E-04  mag=     0.0000
       N       E                     dE             d eps       ncg     rms          rms(c)
DAV:   1    -0.822962650748E+03   -0.37612E-04   -0.43626E-04  4320   0.316E-02    0.534E-03
DAV:   2    -0.822962651325E+03   -0.57692E-06   -0.77618E-06  4160   0.420E-03
 132 F= -.83045936E+03 E0= -.83045936E+03  d E =-.320157E-04  mag=     0.0000
       N       E                     dE             d eps       ncg     rms          rms(c)
DAV:   1    -0.822962696537E+03   -0.45789E-04   -0.65699E-04  4340   0.381E-02    0.654E-03
DAV:   2    -0.822962697397E+03   -0.85962E-06   -0.11696E-05  4240   0.505E-03    0.399E-03
DAV:   3    -0.822962697401E+03   -0.42564E-08   -0.34973E-07  3120   0.115E-03
 133 F= -.83045940E+03 E0= -.83045940E+03  d E =-.392310E-04  mag=     0.0000
       N       E                     dE             d eps       ncg     rms          rms(c)
DAV:   1    -0.822962751944E+03   -0.54547E-04   -0.99047E-04  4360   0.464E-02    0.684E-03
DAV:   2    -0.822962753409E+03   -0.14650E-05   -0.18542E-05  4500   0.621E-03    0.385E-03
DAV:   3    -0.822962753368E+03    0.40724E-07   -0.38550E-07  3180   0.115E-03
 134 F= -.83045945E+03 E0= -.83045945E+03  d E =-.478171E-04  mag=     0.0000
       N       E                     dE             d eps       ncg     rms          rms(c)
DAV:   1    -0.822962818050E+03   -0.64642E-04   -0.14716E-03  4340   0.552E-02    0.841E-03
DAV:   2    -0.822962820171E+03   -0.21202E-05   -0.27492E-05  4520   0.737E-03    0.464E-03
DAV:   3    -0.822962820095E+03    0.76077E-07   -0.55657E-07  3160   0.134E-03
 135 F= -.83045951E+03 E0= -.83045951E+03  d E =-.573152E-04  mag=     0.0000
       N       E                     dE             d eps       ncg     rms          rms(c)
DAV:   1    -0.822962893780E+03   -0.73609E-04   -0.20270E-03  4320   0.651E-02    0.984E-03
DAV:   2    -0.822962896736E+03   -0.29555E-05   -0.37803E-05  4580   0.870E-03    0.544E-03
DAV:   3    -0.822962896617E+03    0.11902E-06   -0.77556E-07  3220   0.160E-03
 136 F= -.83045957E+03 E0= -.83045957E+03  d E =-.659557E-04  mag=     0.0000
       N       E                     dE             d eps       ncg     rms          rms(c)
DAV:   1    -0.822962979930E+03   -0.83195E-04   -0.27150E-03  4340   0.743E-02    0.113E-02
DAV:   2    -0.822962983838E+03   -0.39072E-05   -0.49255E-05  4520   0.987E-03    0.632E-03
DAV:   3    -0.822962983669E+03    0.16829E-06   -0.10103E-06  3180   0.181E-03
 137 F= -.83045965E+03 E0= -.83045965E+03  d E =-.746267E-04  mag=     0.0000
       N       E                     dE             d eps       ncg     rms          rms(c)
DAV:   1    -0.822963071728E+03   -0.87891E-04   -0.35099E-03  4340   0.848E-02    0.128E-02
DAV:   2    -0.822963076841E+03   -0.51129E-05   -0.63450E-05  4550   0.113E-02    0.731E-03
DAV:   3    -0.822963076594E+03    0.24735E-06   -0.13518E-06  3180   0.213E-03
 138 F= -.83045973E+03 E0= -.83045973E+03  d E =-.802382E-04  mag=     0.0000
       N       E                     dE             d eps       ncg     rms          rms(c)
DAV:   1    -0.822963168672E+03   -0.91830E-04   -0.44724E-03  4340   0.922E-02    0.144E-02
DAV:   2    -0.822963174872E+03   -0.62000E-05   -0.77742E-05  4540   0.121E-02    0.828E-03
DAV:   3    -0.822963174553E+03    0.31813E-06   -0.17003E-06  3140   0.232E-03
 139 F= -.83045981E+03 E0= -.83045981E+03  d E =-.844671E-04  mag=     0.0000
       N       E                     dE             d eps       ncg     rms          rms(c)
DAV:   1    -0.822963267516E+03   -0.92644E-04   -0.55854E-03  4340   0.101E-01    0.163E-02
DAV:   2    -0.822963275038E+03   -0.75217E-05   -0.96036E-05  4680   0.132E-02    0.940E-03
DAV:   3    -0.822963274605E+03    0.43276E-06   -0.21654E-06  3320   0.262E-03
 140 F= -.83045990E+03 E0= -.83045990E+03  d E =-.839762E-04  mag=     0.0000
       N       E                     dE             d eps       ncg     rms          rms(c)
DAV:   1    -0.822963360964E+03   -0.85927E-04   -0.70143E-03  4340   0.112E-01    0.182E-02
DAV:   2    -0.822963370282E+03   -0.93182E-05   -0.11867E-04  4610   0.145E-02    0.106E-02
DAV:   3    -0.822963369708E+03    0.57401E-06   -0.26986E-06  3260   0.287E-03
 141 F= -.83045998E+03 E0= -.83045998E+03  d E =-.812760E-04  mag=     0.0000
       N       E                     dE             d eps       ncg     rms          rms(c)
DAV:   1    -0.822963444669E+03   -0.74387E-04   -0.75905E-03  4340   0.124E-01    0.190E-02
DAV:   2    -0.822963455169E+03   -0.10499E-04   -0.12983E-04  4460   0.161E-02    0.114E-02
DAV:   3    -0.822963454533E+03    0.63577E-06   -0.31155E-06  3400   0.326E-03
 142 F= -.83046005E+03 E0= -.83046005E+03  d E =-.753922E-04  mag=    -0.0000
       N       E                     dE             d eps       ncg     rms          rms(c)
DAV:   1    -0.822963528743E+03   -0.73574E-04   -0.11231E-02  4340   0.156E-01    0.226E-02
DAV:   2    -0.822963544713E+03   -0.15970E-04   -0.20071E-04  4480   0.208E-02    0.139E-02
DAV:   3    -0.822963543430E+03    0.12833E-05   -0.48166E-06  3780   0.414E-03    0.778E-03
DAV:   4    -0.822963543817E+03   -0.38771E-06   -0.42430E-06  3360   0.326E-03
 143 F= -.83046013E+03 E0= -.83046013E+03  d E =-.778018E-04  mag=    -0.0000
       N       E                     dE             d eps       ncg     rms          rms(c)
DAV:   1    -0.822963549907E+03   -0.64776E-05   -0.12843E-04  4460   0.238E-02    0.296E-03
DAV:   2    -0.822963550134E+03   -0.22654E-06   -0.32241E-06  3780   0.363E-03
 144 F= -.83046014E+03 E0= -.83046014E+03  d E =-.600543E-05  mag=    -0.0000
       N       E                     dE             d eps       ncg     rms          rms(c)
DAV:   1    -0.822963553205E+03   -0.32980E-05   -0.20492E-04  4480   0.303E-02    0.388E-03
DAV:   2    -0.822963553512E+03   -0.30709E-06   -0.48529E-06  4460   0.444E-03
 145 F= -.83046014E+03 E0= -.83046014E+03  d E =-.314933E-05  mag=     0.0000
       N       E                     dE             d eps       ncg     rms          rms(c)
DAV:   1    -0.822963554555E+03   -0.13497E-05   -0.42112E-06  4140   0.430E-03    0.131E-03
DAV:   2    -0.822963554619E+03   -0.63934E-07   -0.19552E-07  2940   0.899E-04
 146 F= -.83046014E+03 E0= -.83046014E+03  d E =-.128098E-05  mag=     0.0000
       N       E                     dE             d eps       ncg     rms          rms(c)
DAV:   1    -0.822963556910E+03   -0.23546E-05   -0.12073E-05  4300   0.714E-03    0.106E-03
DAV:   2    -0.822963556968E+03   -0.58797E-07   -0.29765E-07  3040   0.112E-03
 147 F= -.83046014E+03 E0= -.83046014E+03  d E =-.254659E-05  mag=     0.0000
       N       E                     dE             d eps       ncg     rms          rms(c)
DAV:   1    -0.822963560331E+03   -0.34215E-05   -0.22876E-05  4440   0.975E-03    0.142E-03
DAV:   2    -0.822963560383E+03   -0.52045E-07   -0.53173E-07  3040   0.148E-03
 148 F= -.83046015E+03 E0= -.83046015E+03  d E =-.358682E-05  mag=     0.0000
       N       E                     dE             d eps       ncg     rms          rms(c)
DAV:   1    -0.822963565363E+03   -0.50320E-05   -0.31451E-05  4460   0.112E-02    0.159E-03
DAV:   2    -0.822963565418E+03   -0.55035E-07   -0.72396E-07  3200   0.166E-03
 149 F= -.83046015E+03 E0= -.83046015E+03  d E =-.497178E-05  mag=     0.0000
       N       E                     dE             d eps       ncg     rms          rms(c)
DAV:   1    -0.822963572637E+03   -0.72737E-05   -0.38379E-05  4360   0.119E-02    0.167E-03
DAV:   2    -0.822963572715E+03   -0.78391E-07   -0.91680E-07  3440   0.175E-03
 150 F= -.83046016E+03 E0= -.83046016E+03  d E =-.701964E-05  mag=     0.0000
       N       E                     dE             d eps       ncg     rms          rms(c)
DAV:   1    -0.822963582825E+03   -0.10189E-04   -0.51155E-05  4270   0.133E-02    0.183E-03
DAV:   2    -0.822963582938E+03   -0.11226E-06   -0.12267E-06  3620   0.191E-03
 151 F= -.83046017E+03 E0= -.83046017E+03  d E =-.967805E-05  mag=     0.0000
       N       E                     dE             d eps       ncg     rms          rms(c)
DAV:   1    -0.822963598515E+03   -0.15689E-04   -0.95566E-05  4280   0.182E-02    0.233E-03
DAV:   2    -0.822963598726E+03   -0.21102E-06   -0.22875E-06  3750   0.255E-03
 152 F= -.83046018E+03 E0= -.83046018E+03  d E =-.145897E-04  mag=     0.0000
       N       E                     dE             d eps       ncg     rms          rms(c)
DAV:   1    -0.822963620228E+03   -0.21714E-04   -0.17599E-04  4240   0.247E-02    0.310E-03
DAV:   2    -0.822963620597E+03   -0.36890E-06   -0.42459E-06  3970   0.347E-03
 153 F= -.83046020E+03 E0= -.83046020E+03  d E =-.201732E-04  mag=     0.0000
       N       E                     dE             d eps       ncg     rms          rms(c)
DAV:   1    -0.822963648703E+03   -0.28475E-04   -0.30645E-04  4260   0.323E-02    0.407E-03
DAV:   2    -0.822963649331E+03   -0.62803E-06   -0.74290E-06  4260   0.451E-03
 154 F= -.83046023E+03 E0= -.83046023E+03  d E =-.267537E-04  mag=     0.0000
       N       E                     dE             d eps       ncg     rms          rms(c)
DAV:   1    -0.822963685293E+03   -0.36590E-04   -0.51430E-04  4320   0.413E-02    0.522E-03
DAV:   2    -0.822963686326E+03   -0.10329E-05   -0.12395E-05  4520   0.573E-03    0.334E-03
DAV:   3    -0.822963686353E+03   -0.26310E-07   -0.18806E-07  2780   0.996E-04
 155 F= -.83046026E+03 E0= -.83046026E+03  d E =-.347033E-04  mag=     0.0000
       N       E                     dE             d eps       ncg     rms          rms(c)
DAV:   1    -0.822963731507E+03   -0.45181E-04   -0.82734E-04  4320   0.523E-02    0.570E-03
DAV:   2    -0.822963733287E+03   -0.17799E-05   -0.20327E-05  4450   0.725E-03    0.318E-03
DAV:   3    -0.822963733271E+03    0.16196E-07   -0.22991E-07  2840   0.106E-03
 156 F= -.83046031E+03 E0= -.83046031E+03  d E =-.437614E-04  mag=     0.0000
       N       E                     dE             d eps       ncg     rms          rms(c)
DAV:   1    -0.822963787140E+03   -0.53853E-04   -0.13182E-03  4300   0.660E-02    0.706E-03
DAV:   2    -0.822963790022E+03   -0.28825E-05   -0.32769E-05  4405   0.918E-03    0.395E-03
DAV:   3    -0.822963789986E+03    0.36402E-07   -0.37350E-07  2980   0.133E-03
 157 F= -.83046036E+03 E0= -.83046036E+03  d E =-.530323E-04  mag=     0.0000
       N       E                     dE             d eps       ncg     rms          rms(c)
DAV:   1    -0.822963852960E+03   -0.62938E-04   -0.19194E-03  4320   0.791E-02    0.852E-03
DAV:   2    -0.822963857079E+03   -0.41191E-05   -0.47187E-05  4450   0.110E-02    0.474E-03
DAV:   3    -0.822963857018E+03    0.61307E-07   -0.56441E-07  3280   0.158E-03
 158 F= -.83046042E+03 E0= -.83046042E+03  d E =-.625933E-04  mag=     0.0000
       N       E                     dE             d eps       ncg     rms          rms(c)
DAV:   1    -0.822963927259E+03   -0.70180E-04   -0.27534E-03  4320   0.943E-02    0.102E-02
DAV:   2    -0.822963933111E+03   -0.58520E-05   -0.66896E-05  4410   0.132E-02    0.563E-03
DAV:   3    -0.822963933037E+03    0.74382E-07   -0.78753E-07  3400   0.186E-03
 159 F= -.83046050E+03 E0= -.83046050E+03  d E =-.717468E-04  mag=     0.0000
       N       E                     dE             d eps       ncg     rms          rms(c)
DAV:   1    -0.822964008989E+03   -0.75877E-04   -0.36297E-03  4320   0.108E-01    0.118E-02
DAV:   2    -0.822964016579E+03   -0.75907E-05   -0.87001E-05  4500   0.152E-02    0.649E-03
DAV:   3    -0.822964016504E+03    0.75263E-07   -0.10839E-06  3680   0.219E-03
 160 F= -.83046057E+03 E0= -.83046057E+03  d E =-.776182E-04  mag=     0.0000
       N       E                     dE             d eps       ncg     rms          rms(c)
DAV:   1    -0.822964094750E+03   -0.78171E-04   -0.46835E-03  4300   0.122E-01    0.133E-02
DAV:   2    -0.822964104367E+03   -0.96175E-05   -0.11062E-04  4440   0.169E-02    0.737E-03
DAV:   3    -0.822964104281E+03    0.86038E-07   -0.13687E-06  3700   0.241E-03
 161 F= -.83046066E+03 E0= -.83046066E+03  d E =-.830128E-04  mag=     0.0000
       N       E                     dE             d eps       ncg     rms          rms(c)
DAV:   1    -0.822964181446E+03   -0.77078E-04   -0.54273E-03  4320   0.131E-01    0.148E-02
DAV:   2    -0.822964192322E+03   -0.10876E-04   -0.12664E-04  4450   0.180E-02    0.828E-03
DAV:   3    -0.822964192165E+03    0.15741E-06   -0.17287E-06  3720   0.275E-03
 162 F= -.83046074E+03 E0= -.83046074E+03  d E =-.811585E-04  mag=     0.0000
       N       E                     dE             d eps       ncg     rms          rms(c)
DAV:   1    -0.822964259101E+03   -0.66779E-04   -0.66480E-03  4320   0.146E-01    0.161E-02
DAV:   2    -0.822964272803E+03   -0.13703E-04   -0.15627E-04  4470   0.201E-02    0.932E-03
DAV:   3    -0.822964272561E+03    0.24286E-06   -0.21495E-06  3800   0.313E-03
 163 F= -.83046081E+03 E0= -.83046081E+03  d E =-.767987E-04  mag=     0.0000
       N       E                     dE             d eps       ncg     rms          rms(c)
DAV:   1    -0.822964273887E+03   -0.10838E-05   -0.27302E-05  4440   0.111E-02    0.177E-03
DAV:   2    -0.822964274007E+03   -0.11954E-06   -0.12842E-06  3350   0.226E-03
 164 F= -.83046082E+03 E0= -.83046082E+03  d E =-.144328E-05  mag=     0.0000
       N       E                     dE             d eps       ncg     rms          rms(c)
DAV:   1    -0.822964274766E+03   -0.87846E-06   -0.59172E-05  4480   0.163E-02    0.207E-03
DAV:   2    -0.822964274885E+03   -0.11901E-06   -0.14459E-06  3240   0.247E-03
 165 F= -.83046082E+03 E0= -.83046082E+03  d E =-.743050E-06  mag=     0.0000
       N       E                     dE             d eps       ncg     rms          rms(c)
DAV:   1    -0.822964276063E+03   -0.12974E-05   -0.54347E-05  4460   0.154E-02    0.209E-03
DAV:   2    -0.822964276163E+03   -0.99717E-07   -0.12773E-06  3300   0.224E-03
 166 F= -.83046082E+03 E0= -.83046082E+03  d E =-.160665E-05  mag=     0.0000
       N       E                     dE             d eps       ncg     rms          rms(c)
DAV:   1    -0.822964276973E+03   -0.90976E-06   -0.10121E-06  3200   0.218E-03    0.100E-03
DAV:   2    -0.822964276990E+03   -0.17564E-07   -0.70691E-08  2820   0.622E-04
 167 F= -.83046082E+03 E0= -.83046082E+03  d E =-.876384E-06  mag=     0.0000
       N       E                     dE             d eps       ncg     rms          rms(c)
DAV:   1    -0.822964278991E+03   -0.20182E-05   -0.32756E-06  4040   0.374E-03    0.848E-04
DAV:   2    -0.822964279009E+03   -0.17673E-07   -0.91450E-08  2960   0.651E-04
 168 F= -.83046082E+03 E0= -.83046082E+03  d E =-.204616E-05  mag=     0.0000
       N       E                     dE             d eps       ncg     rms          rms(c)
DAV:   1    -0.822964282056E+03   -0.30650E-05   -0.70196E-06  4200   0.544E-03    0.971E-04
DAV:   2    -0.822964282073E+03   -0.17229E-07   -0.18309E-07  2860   0.884E-04
 169 F= -.83046082E+03 E0= -.83046082E+03  d E =-.310228E-05  mag=     0.0000
       N       E                     dE             d eps       ncg     rms          rms(c)
DAV:   1    -0.822964286030E+03   -0.39746E-05   -0.11416E-05  4280   0.684E-03    0.109E-03
DAV:   2    -0.822964286054E+03   -0.23407E-07   -0.28878E-07  2910   0.107E-03
 170 F= -.83046083E+03 E0= -.83046083E+03  d E =-.394424E-05  mag=     0.0000
       N       E                     dE             d eps       ncg     rms          rms(c)
DAV:   1    -0.822964290927E+03   -0.48967E-05   -0.14365E-05  4240   0.751E-03    0.116E-03
DAV:   2    -0.822964290956E+03   -0.28973E-07   -0.35826E-07  2950   0.116E-03
 171 F= -.83046083E+03 E0= -.83046083E+03  d E =-.475524E-05  mag=     0.0000
       N       E                     dE             d eps       ncg     rms          rms(c)
DAV:   1    -0.822964296954E+03   -0.60271E-05   -0.16303E-05  4180   0.780E-03    0.121E-03
DAV:   2    -0.822964296986E+03   -0.31330E-07   -0.38556E-07  2920   0.118E-03
 172 F= -.83046084E+03 E0= -.83046084E+03  d E =-.564731E-05  mag=     0.0000
       N       E                     dE             d eps       ncg     rms          rms(c)
DAV:   1    -0.822964304856E+03   -0.79021E-05   -0.21918E-05  4140   0.888E-03    0.133E-03
DAV:   2    -0.822964304896E+03   -0.39116E-07   -0.49759E-07  3000   0.131E-03
 173 F= -.83046085E+03 E0= -.83046085E+03  d E =-.717075E-05  mag=     0.0000
       N       E                     dE             d eps       ncg     rms          rms(c)
DAV:   1    -0.822964314973E+03   -0.10117E-04   -0.31599E-05  4180   0.105E-02    0.154E-03
DAV:   2    -0.822964315028E+03   -0.54089E-07   -0.69315E-07  2950   0.151E-03
 174 F= -.83046085E+03 E0= -.83046085E+03  d E =-.902316E-05  mag=     0.0000
       N       E                     dE             d eps       ncg     rms          rms(c)
DAV:   1    -0.822964327389E+03   -0.12415E-04   -0.47951E-05  4220   0.128E-02    0.184E-03
DAV:   2    -0.822964327465E+03   -0.76412E-07   -0.10098E-06  3120   0.181E-03
 175 F= -.83046087E+03 E0= -.83046087E+03  d E =-.110149E-04  mag=     0.0000
       N       E                     dE             d eps       ncg     rms          rms(c)
DAV:   1    -0.822964342450E+03   -0.15061E-04   -0.71179E-05  4240   0.153E-02    0.222E-03
DAV:   2    -0.822964342547E+03   -0.97352E-07   -0.14404E-06  3140   0.212E-03
 176 F= -.83046088E+03 E0= -.83046088E+03  d E =-.134424E-04  mag=     0.0000
       N       E                     dE             d eps       ncg     rms          rms(c)
DAV:   1    -0.822964360606E+03   -0.18156E-04   -0.10120E-04  4240   0.177E-02    0.268E-03
DAV:   2    -0.822964360731E+03   -0.12504E-06   -0.19693E-06  3320   0.241E-03
 177 F= -.83046090E+03 E0= -.83046090E+03  d E =-.161662E-04  mag=     0.0000
       N       E                     dE             d eps       ncg     rms          rms(c)
DAV:   1    -0.822964382312E+03   -0.21706E-04   -0.14792E-04  4260   0.209E-02    0.321E-03
DAV:   2    -0.822964382490E+03   -0.17810E-06   -0.27752E-06  3380   0.279E-03
 178 F= -.83046091E+03 E0= -.83046091E+03  d E =-.191466E-04  mag=     0.0000
       N       E                     dE             d eps       ncg     rms          rms(c)
DAV:   1    -0.822964407578E+03   -0.25266E-04   -0.20857E-04  4280   0.243E-02    0.382E-03
DAV:   2    -0.822964407830E+03   -0.25207E-06   -0.37922E-06  3700   0.314E-03
 179 F= -.83046094E+03 E0= -.83046094E+03  d E =-.226233E-04  mag=     0.0000
       N       E                     dE             d eps       ncg     rms          rms(c)
DAV:   1    -0.822964436704E+03   -0.29126E-04   -0.30918E-04  4300   0.296E-02    0.458E-03
DAV:   2    -0.822964437079E+03   -0.37521E-06   -0.56051E-06  3840   0.386E-03
 180 F= -.83046096E+03 E0= -.83046096E+03  d E =-.258518E-04  mag=     0.0000
       N       E                     dE             d eps       ncg     rms          rms(c)
DAV:   1    -0.822964470208E+03   -0.33504E-04   -0.43500E-04  4320   0.353E-02    0.543E-03
DAV:   2    -0.822964470764E+03   -0.55662E-06   -0.81723E-06  4300   0.467E-03
 181 F= -.83046099E+03 E0= -.83046099E+03  d E =-.293120E-04  mag=     0.0000
       N       E                     dE             d eps       ncg     rms          rms(c)
DAV:   1    -0.822964507488E+03   -0.37281E-04   -0.61189E-04  4280   0.421E-02    0.640E-03
DAV:   2    -0.822964508273E+03   -0.78407E-06   -0.11502E-05  4560   0.554E-03    0.399E-03
DAV:   3    -0.822964508236E+03    0.36089E-07   -0.41229E-07  3180   0.136E-03
 182 F= -.83046102E+03 E0= -.83046102E+03  d E =-.321034E-04  mag=     0.0000
       N       E                     dE             d eps       ncg     rms          rms(c)
DAV:   1    -0.822964547984E+03   -0.39711E-04   -0.79526E-04  4320   0.486E-02    0.624E-03
DAV:   2    -0.822964549219E+03   -0.12353E-05   -0.15882E-05  4630   0.652E-03    0.365E-03
DAV:   3    -0.822964549175E+03    0.43845E-07   -0.35787E-07  3000   0.127E-03
 183 F= -.83046106E+03 E0= -.83046106E+03  d E =-.342177E-04  mag=     0.0000
       N       E                     dE             d eps       ncg     rms          rms(c)
DAV:   1    -0.822964590461E+03   -0.41242E-04   -0.93828E-04  4380   0.511E-02    0.684E-03
DAV:   2    -0.822964591797E+03   -0.13361E-05   -0.17965E-05  4640   0.664E-03    0.395E-03
DAV:   3    -0.822964591743E+03    0.53602E-07   -0.45603E-07  3180   0.139E-03
 184 F= -.83046109E+03 E0= -.83046109E+03  d E =-.363779E-04  mag=     0.0000
       N       E                     dE             d eps       ncg     rms          rms(c)
DAV:   1    -0.822964632232E+03   -0.40435E-04   -0.12906E-03  4280   0.602E-02    0.791E-03
DAV:   2    -0.822964634139E+03   -0.19069E-05   -0.25049E-05  4650   0.797E-03    0.465E-03
DAV:   3    -0.822964634023E+03    0.11647E-06   -0.65231E-07  3050   0.166E-03
 185 F= -.83046113E+03 E0= -.83046113E+03  d E =-.368947E-04  mag=     0.0000
       N       E                     dE             d eps       ncg     rms          rms(c)
[...]
 356 F= -.83046419E+03 E0= -.83046419E+03  d E =-.677682E-04  mag=    -0.0000
       N       E                     dE             d eps       ncg     rms          rms(c)
DAV:   1    -0.822968082141E+03   -0.76200E-04   -0.10045E-02  4320   0.148E-01    0.215E-02
DAV:   2    -0.822968096938E+03   -0.14797E-04   -0.17983E-04  4620   0.202E-02    0.132E-02
DAV:   3    -0.822968095849E+03    0.10892E-05   -0.42331E-06  3580   0.402E-03    0.739E-03
DAV:   4    -0.822968096140E+03   -0.29094E-06   -0.33867E-06  3400   0.337E-03
 357 F= -.83046427E+03 E0= -.83046427E+03  d E =-.798228E-04  mag=    -0.0000
       N       E                     dE             d eps       ncg     rms          rms(c)
DAV:   1    -0.822968193639E+03   -0.97790E-04   -0.13808E-02  4300   0.167E-01    0.252E-02
DAV:   2    -0.822968213413E+03   -0.19774E-04   -0.25135E-04  4630   0.228E-02    0.154E-02
DAV:   3    -0.822968211805E+03    0.16072E-05   -0.68121E-06  4000   0.497E-03    0.880E-03
DAV:   4    -0.822968212161E+03   -0.35587E-06   -0.49255E-06  3560   0.386E-03
 358 F= -.83046437E+03 E0= -.83046437E+03  d E =-.999990E-04  mag=    -0.0000
       N       E                     dE             d eps       ncg     rms          rms(c)
DAV:   1    -0.822968225556E+03   -0.13750E-04   -0.24046E-04  4420   0.328E-02    0.380E-03
DAV:   2    -0.822968225959E+03   -0.40315E-06   -0.64995E-06  4560   0.515E-03
 359 F= -.83046438E+03 E0= -.83046438E+03  d E =-.138564E-04  mag=    -0.0000
       N       E                     dE             d eps       ncg     rms          rms(c)
DAV:   1    -0.822968239673E+03   -0.14117E-04   -0.48830E-04  4360   0.466E-02    0.582E-03
DAV:   2    -0.822968240360E+03   -0.68757E-06   -0.12286E-05  4860   0.703E-03    0.388E-03
DAV:   3    -0.822968240229E+03    0.13095E-06   -0.73357E-07  2920   0.196E-03
 360 F= -.83046440E+03 E0= -.83046440E+03  d E =-.136479E-04  mag=    -0.0000
       N       E                     dE             d eps       ncg     rms          rms(c)
DAV:   1    -0.822968244575E+03   -0.42150E-05   -0.11287E-05  4280   0.698E-03    0.116E-03
DAV:   2    -0.822968244630E+03   -0.54832E-07   -0.34478E-07  2960   0.123E-03
 361 F= -.83046440E+03 E0= -.83046440E+03  d E =-.415342E-05  mag=    -0.0000
       N       E                     dE             d eps       ncg     rms          rms(c)
DAV:   1    -0.822968253324E+03   -0.87482E-05   -0.40191E-05  4420   0.130E-02    0.164E-03
DAV:   2    -0.822968253409E+03   -0.85762E-07   -0.96838E-07  3160   0.197E-03
 362 F= -.83046441E+03 E0= -.83046441E+03  d E =-.815554E-05  mag=    -0.0000
       N       E                     dE             d eps       ncg     rms          rms(c)
DAV:   1    -0.822968265514E+03   -0.12190E-04   -0.79057E-05  4460   0.178E-02    0.234E-03
DAV:   2    -0.822968265641E+03   -0.12725E-06   -0.19210E-06  3560   0.269E-03
 363 F= -.83046442E+03 E0= -.83046442E+03  d E =-.111494E-04  mag=    -0.0000
       N       E                     dE             d eps       ncg     rms          rms(c)
DAV:   1    -0.822968280449E+03   -0.14936E-04   -0.11351E-04  4400   0.206E-02    0.280E-03
DAV:   2    -0.822968280636E+03   -0.18665E-06   -0.27694E-06  3760   0.307E-03
 364 F= -.83046444E+03 E0= -.83046444E+03  d E =-.134984E-04  mag=    -0.0000
       N       E                     dE             d eps       ncg     rms          rms(c)
DAV:   1    -0.822968298566E+03   -0.18117E-04   -0.14001E-04  4320   0.218E-02    0.305E-03
DAV:   2    -0.822968298804E+03   -0.23819E-06   -0.33129E-06  3880   0.317E-03
 365 F= -.83046445E+03 E0= -.83046445E+03  d E =-.163868E-04  mag=    -0.0000
       N       E                     dE             d eps       ncg     rms          rms(c)
DAV:   1    -0.822968320304E+03   -0.21737E-04   -0.17048E-04  4260   0.233E-02    0.327E-03
DAV:   2    -0.822968320600E+03   -0.29614E-06   -0.39125E-06  4100   0.333E-03
 366 F= -.83046447E+03 E0= -.83046447E+03  d E =-.198346E-04  mag=    -0.0000
       N       E                     dE             d eps       ncg     rms          rms(c)
DAV:   1    -0.822968347997E+03   -0.27694E-04   -0.26534E-04  4260   0.295E-02    0.394E-03
DAV:   2    -0.822968348475E+03   -0.47780E-06   -0.61273E-06  4420   0.418E-03
 367 F= -.83046450E+03 E0= -.83046450E+03  d E =-.255243E-04  mag=    -0.0000
       N       E                     dE             d eps       ncg     rms          rms(c)
DAV:   1    -0.822968381667E+03   -0.33669E-04   -0.41930E-04  4300   0.378E-02    0.496E-03
DAV:   2    -0.822968382413E+03   -0.74648E-06   -0.96548E-06  4500   0.534E-03
 368 F= -.83046453E+03 E0= -.83046453E+03  d E =-.311978E-04  mag=    -0.0000
       N       E                     dE             d eps       ncg     rms          rms(c)
DAV:   1    -0.822968421356E+03   -0.39689E-04   -0.59556E-04  4300   0.441E-02    0.599E-03
DAV:   2    -0.822968422393E+03   -0.10372E-05   -0.13404E-05  4580   0.620E-03    0.380E-03
DAV:   3    -0.822968422368E+03    0.25109E-07   -0.29740E-07  3040   0.123E-03
 369 F= -.83046456E+03 E0= -.83046456E+03  d E =-.363730E-04  mag=    -0.0000
       N       E                     dE             d eps       ncg     rms          rms(c)
DAV:   1    -0.822968468882E+03   -0.46489E-04   -0.79996E-04  4300   0.496E-02    0.600E-03
DAV:   2    -0.822968470331E+03   -0.14490E-05   -0.17827E-05  4500   0.697E-03    0.339E-03
DAV:   3    -0.822968470285E+03    0.45569E-07   -0.29362E-07  3040   0.117E-03
 370 F= -.83046461E+03 E0= -.83046461E+03  d E =-.433583E-04  mag=    -0.0000
       N       E                     dE             d eps       ncg     rms          rms(c)
DAV:   1    -0.822968524782E+03   -0.54451E-04   -0.11059E-03  4300   0.578E-02    0.712E-03
DAV:   2    -0.822968526736E+03   -0.19548E-05   -0.24424E-05  4380   0.814E-03    0.401E-03
DAV:   3    -0.822968526670E+03    0.66371E-07   -0.43591E-07  3020   0.140E-03
 371 F= -.83046466E+03 E0= -.83046466E+03  d E =-.508086E-04  mag=    -0.0000
       N       E                     dE             d eps       ncg     rms          rms(c)
DAV:   1    -0.822968586585E+03   -0.59849E-04   -0.14472E-03  4300   0.657E-02    0.825E-03
DAV:   2    -0.822968589051E+03   -0.24653E-05   -0.31127E-05  4510   0.920E-03    0.469E-03
DAV:   3    -0.822968588953E+03    0.97250E-07   -0.60681E-07  3180   0.163E-03
 372 F= -.83046471E+03 E0= -.83046471E+03  d E =-.558186E-04  mag=    -0.0000
       N       E                     dE             d eps       ncg     rms          rms(c)
DAV:   1    -0.822968653588E+03   -0.64537E-04   -0.16889E-03  4280   0.691E-02    0.886E-03
DAV:   2    -0.822968656319E+03   -0.27313E-05   -0.34036E-05  4490   0.935E-03    0.506E-03
DAV:   3    -0.822968656207E+03    0.11177E-06   -0.69238E-07  3230   0.168E-03
 373 F= -.83046477E+03 E0= -.83046477E+03  d E =-.603544E-04  mag=    -0.0000
       N       E                     dE             d eps       ncg     rms          rms(c)
DAV:   1    -0.822968722719E+03   -0.66400E-04   -0.21332E-03  4260   0.776E-02    0.995E-03
DAV:   2    -0.822968726181E+03   -0.34615E-05   -0.42808E-05  4580   0.107E-02    0.577E-03
DAV:   3    -0.822968726003E+03    0.17820E-06   -0.92814E-07  3300   0.198E-03
 374 F= -.83046484E+03 E0= -.83046484E+03  d E =-.631382E-04  mag=    -0.0000
       N       E                     dE             d eps       ncg     rms          rms(c)
DAV:   1    -0.822968789041E+03   -0.62860E-04   -0.23270E-03  4280   0.818E-02    0.101E-02
DAV:   2    -0.822968792669E+03   -0.36276E-05   -0.44174E-05  4450   0.109E-02    0.607E-03
DAV:   3    -0.822968792488E+03    0.18074E-06   -0.10169E-06  3240   0.208E-03
 375 F= -.83046490E+03 E0= -.83046490E+03  d E =-.604630E-04  mag=    -0.0000
       N       E                     dE             d eps       ncg     rms          rms(c)
DAV:   1    -0.822968850516E+03   -0.57847E-04   -0.27656E-03  4260   0.915E-02    0.109E-02
DAV:   2    -0.822968854813E+03   -0.42970E-05   -0.52433E-05  4610   0.123E-02    0.663E-03
DAV:   3    -0.822968854598E+03    0.21530E-06   -0.12484E-06  3300   0.240E-03
 376 F= -.83046496E+03 E0= -.83046496E+03  d E =-.566969E-04  mag=    -0.0000
       N       E                     dE             d eps       ncg     rms          rms(c)
DAV:   1    -0.822968899176E+03   -0.44363E-04   -0.33809E-03  4260   0.102E-01    0.119E-02
DAV:   2    -0.822968904547E+03   -0.53706E-05   -0.65218E-05  4620   0.137E-02    0.724E-03
DAV:   3    -0.822968904259E+03    0.28765E-06   -0.14778E-06  3280   0.262E-03
 377 F= -.83046500E+03 E0= -.83046500E+03  d E =-.487684E-04  mag=    -0.0000
       N       E                     dE             d eps       ncg     rms          rms(c)
DAV:   1    -0.822968931148E+03   -0.26601E-04   -0.43049E-03  4260   0.118E-01    0.136E-02
DAV:   2    -0.822968938422E+03   -0.72746E-05   -0.87865E-05  4500   0.163E-02    0.839E-03
DAV:   3    -0.822968937962E+03    0.46010E-06   -0.20736E-06  3440   0.314E-03
 378 F= -.83046504E+03 E0= -.83046504E+03  d E =-.378981E-04  mag=    -0.0000
       N       E                     dE             d eps       ncg     rms          rms(c)
DAV:   1    -0.822968938668E+03   -0.24534E-06   -0.45036E-05  4500   0.141E-02    0.187E-03
DAV:   2    -0.822968938777E+03   -0.10989E-06   -0.15175E-06  3240   0.250E-03
 379 F= -.83046504E+03 E0= -.83046504E+03  d E =-.720220E-06  mag=    -0.0000
       N       E                     dE             d eps       ncg     rms          rms(c)
DAV:   1    -0.822968936889E+03    0.17785E-05   -0.11140E-04  4580   0.220E-02    0.291E-03
DAV:   2    -0.822968937076E+03   -0.18698E-06   -0.29466E-06  3980   0.343E-03
 380 F= -.83046504E+03 E0= -.83046504E+03  d E =0.175978E-05  mag=    -0.0000
       N       E                     dE             d eps       ncg     rms          rms(c)
DAV:   1    -0.822968936971E+03   -0.82342E-07   -0.75152E-07  3040   0.189E-03    0.114E-03
DAV:   2    -0.822968936994E+03   -0.22847E-07   -0.76563E-08  2960   0.621E-04
 381 F= -.83046504E+03 E0= -.83046504E+03  d E =0.357409E-08  mag=    -0.0000
       N       E                     dE             d eps       ncg     rms          rms(c)
DAV:   1    -0.822968937003E+03   -0.31730E-07   -0.20808E-06  3500   0.297E-03    0.791E-04
DAV:   2    -0.822968937021E+03   -0.17681E-07   -0.66545E-08  2980   0.577E-04
 382 F= -.83046504E+03 E0= -.83046504E+03  d E =-.158726E-06  mag=    -0.0000
       N       E                     dE             d eps       ncg     rms          rms(c)
DAV:   1    -0.822968937270E+03   -0.26664E-06   -0.41983E-06  4080   0.417E-03    0.871E-04
DAV:   2    -0.822968937283E+03   -0.12747E-07   -0.97038E-08  2900   0.671E-04
 383 F= -.83046504E+03 E0= -.83046504E+03  d E =-.428742E-06  mag=    -0.0000
       N       E                     dE             d eps       ncg     rms          rms(c)
DAV:   1    -0.822968938109E+03   -0.83890E-06   -0.66763E-06  4220   0.518E-03    0.952E-04
DAV:   2    -0.822968938122E+03   -0.13213E-07   -0.14708E-07  2920   0.802E-04
 384 F= -.83046504E+03 E0= -.83046504E+03  d E =-.102848E-05  mag=     0.0000
       N       E                     dE             d eps       ncg     rms          rms(c)
DAV:   1    -0.822968939850E+03   -0.17413E-05   -0.10318E-05  4200   0.633E-03    0.105E-03
DAV:   2    -0.822968939866E+03   -0.15658E-07   -0.23306E-07  2940   0.971E-04
 385 F= -.83046504E+03 E0= -.83046504E+03  d E =-.193313E-05  mag=     0.0000
       N       E                     dE             d eps       ncg     rms          rms(c)
DAV:   1    -0.822968942890E+03   -0.30399E-05   -0.15297E-05  4180   0.753E-03    0.117E-03
DAV:   2    -0.822968942914E+03   -0.23625E-07   -0.34626E-07  2900   0.114E-03
 386 F= -.83046505E+03 E0= -.83046505E+03  d E =-.316291E-05  mag=     0.0000
       N       E                     dE             d eps       ncg     rms          rms(c)
DAV:   1    -0.822968947732E+03   -0.48424E-05   -0.27675E-05  4200   0.999E-03    0.140E-03
DAV:   2    -0.822968947778E+03   -0.45977E-07   -0.62923E-07  3110   0.148E-03
 387 F= -.83046505E+03 E0= -.83046505E+03  d E =-.490687E-05  mag=     0.0000
       N       E                     dE             d eps       ncg     rms          rms(c)
DAV:   1    -0.822968954611E+03   -0.68791E-05   -0.47981E-05  4160   0.130E-02    0.173E-03
DAV:   2    -0.822968954696E+03   -0.84547E-07   -0.11035E-06  3300   0.190E-03
 388 F= -.83046506E+03 E0= -.83046506E+03  d E =-.680387E-05  mag=     0.0000
       N       E                     dE             d eps       ncg     rms          rms(c)
DAV:   1    -0.822968964109E+03   -0.94980E-05   -0.74859E-05  4210   0.161E-02    0.207E-03
DAV:   2    -0.822968964243E+03   -0.13391E-06   -0.16915E-06  3410   0.227E-03
 389 F= -.83046507E+03 E0= -.83046507E+03  d E =-.912103E-05  mag=     0.0000
       N       E                     dE             d eps       ncg     rms          rms(c)
DAV:   1    -0.822968976858E+03   -0.12748E-04   -0.12107E-04  4240   0.203E-02    0.253E-03
DAV:   2    -0.822968977085E+03   -0.22742E-06   -0.27459E-06  3580   0.282E-03
 390 F= -.83046508E+03 E0= -.83046508E+03  d E =-.119037E-04  mag=     0.0000
       N       E                     dE             d eps       ncg     rms          rms(c)
DAV:   1    -0.822968993267E+03   -0.16409E-04   -0.19396E-04  4260   0.255E-02    0.315E-03
DAV:   2    -0.822968993644E+03   -0.37712E-06   -0.44401E-06  3900   0.358E-03
 391 F= -.83046510E+03 E0= -.83046510E+03  d E =-.153206E-04  mag=     0.0000
       N       E                     dE             d eps       ncg     rms          rms(c)
DAV:   1    -0.822969013561E+03   -0.20294E-04   -0.30940E-04  4260   0.323E-02    0.397E-03
DAV:   2    -0.822969014187E+03   -0.62600E-06   -0.72635E-06  4620   0.458E-03
 392 F= -.83046511E+03 E0= -.83046511E+03  d E =-.190456E-04  mag=    -0.0000
       N       E                     dE             d eps       ncg     rms          rms(c)
DAV:   1    -0.822969037718E+03   -0.24157E-04   -0.44302E-04  4300   0.382E-02    0.471E-03
DAV:   2    -0.822969038555E+03   -0.83740E-06   -0.10008E-05  4500   0.526E-03    0.306E-03
DAV:   3    -0.822969038545E+03    0.97134E-08   -0.16496E-07  2820   0.954E-04
 393 F= -.83046514E+03 E0= -.83046514E+03  d E =-.226441E-04  mag=    -0.0000
       N       E                     dE             d eps       ncg     rms          rms(c)
DAV:   1    -0.822969066124E+03   -0.27569E-04   -0.66069E-04  4280   0.463E-02    0.495E-03
DAV:   2    -0.822969067458E+03   -0.13339E-05   -0.15245E-05  4490   0.642E-03    0.281E-03
DAV:   3    -0.822969067433E+03    0.24964E-07   -0.19148E-07  2830   0.999E-04
 394 F= -.83046516E+03 E0= -.83046516E+03  d E =-.263743E-04  mag=    -0.0000
       N       E                     dE             d eps       ncg     rms          rms(c)
DAV:   1    -0.822969098142E+03   -0.30684E-04   -0.90062E-04  4280   0.543E-02    0.573E-03
DAV:   2    -0.822969099933E+03   -0.17907E-05   -0.20481E-05  4460   0.752E-03    0.327E-03
DAV:   3    -0.822969099894E+03    0.38963E-07   -0.27793E-07  2820   0.119E-03
 395 F= -.83046519E+03 E0= -.83046519E+03  d E =-.301080E-04  mag=    -0.0000
       N       E                     dE             d eps       ncg     rms          rms(c)
DAV:   1    -0.822969133021E+03   -0.33088E-04   -0.12621E-03  4300   0.641E-02    0.673E-03
DAV:   2    -0.822969135534E+03   -0.25131E-05   -0.28449E-05  4430   0.888E-03    0.383E-03
DAV:   3    -0.822969135474E+03    0.60027E-07   -0.36669E-07  2960   0.136E-03
 396 F= -.83046523E+03 E0= -.83046523E+03  d E =-.339174E-04  mag=    -0.0000
       N       E                     dE             d eps       ncg     rms          rms(c)
DAV:   1    -0.822969171213E+03   -0.35679E-04   -0.17930E-03  4280   0.758E-02    0.784E-03
DAV:   2    -0.822969174740E+03   -0.35274E-05   -0.39781E-05  4340   0.105E-02    0.442E-03
DAV:   3    -0.822969174666E+03    0.74717E-07   -0.50676E-07  3120   0.156E-03
 397 F= -.83046527E+03 E0= -.83046527E+03  d E =-.375926E-04  mag=    -0.0000
       N       E                     dE             d eps       ncg     rms          rms(c)
DAV:   1    -0.822969209150E+03   -0.34410E-04   -0.26156E-03  4300   0.911E-02    0.940E-03
DAV:   2    -0.822969214273E+03   -0.51225E-05   -0.57933E-05  4500   0.125E-02    0.528E-03
DAV:   3    -0.822969214152E+03    0.12020E-06   -0.76047E-07  3200   0.188E-03
 398 F= -.83046531E+03 E0= -.83046531E+03  d E =-.401297E-04  mag=     0.0000
       N       E                     dE             d eps       ncg     rms          rms(c)
DAV:   1    -0.822969246463E+03   -0.32190E-04   -0.35919E-03  4280   0.107E-01    0.110E-02
DAV:   2    -0.822969253646E+03   -0.71834E-05   -0.80479E-05  4420   0.147E-02    0.613E-03
DAV:   3    -0.822969253501E+03    0.14472E-06   -0.98456E-07  3420   0.216E-03
 399 F= -.83046535E+03 E0= -.83046535E+03  d E =-.424172E-04  mag=    -0.0000
       N       E                     dE             d eps       ncg     rms          rms(c)
DAV:   1    -0.822969280721E+03   -0.27075E-04   -0.42476E-03  4280   0.119E-01    0.121E-02
DAV:   2    -0.822969289322E+03   -0.86012E-05   -0.96521E-05  4400   0.164E-02    0.686E-03
DAV:   3    -0.822969289145E+03    0.17657E-06   -0.12106E-06  3580   0.248E-03
 400 F= -.83046539E+03 E0= -.83046539E+03  d E =-.406074E-04  mag=    -0.0000
       N       E                     dE             d eps       ncg     rms          rms(c)
DAV:   1    -0.822969313471E+03   -0.24149E-04   -0.54109E-03  4280   0.137E-01    0.138E-02
DAV:   2    -0.822969324387E+03   -0.10915E-04   -0.12388E-04  4460   0.190E-02    0.803E-03
DAV:   3    -0.822969324099E+03    0.28734E-06   -0.18400E-06  3900   0.299E-03
 401 F= -.83046543E+03 E0= -.83046543E+03  d E =-.445781E-04  mag=    -0.0000
       N       E                     dE             d eps       ncg     rms          rms(c)
DAV:   1    -0.822969352292E+03   -0.27906E-04   -0.66743E-03  4280   0.154E-01    0.155E-02
DAV:   2    -0.822969365988E+03   -0.13695E-04   -0.15790E-04  4460   0.214E-02    0.913E-03
DAV:   3    -0.822969365677E+03    0.31102E-06   -0.23908E-06  3890   0.341E-03
 402 F= -.83046548E+03 E0= -.83046548E+03  d E =-.510381E-04  mag=    -0.0000
       N       E                     dE             d eps       ncg     rms          rms(c)
DAV:   1    -0.822969395922E+03   -0.29935E-04   -0.84297E-03  4280   0.176E-01    0.179E-02
DAV:   2    -0.822969413995E+03   -0.18073E-04   -0.20681E-04  4470   0.249E-02    0.106E-02
DAV:   3    -0.822969413509E+03    0.48634E-06   -0.34166E-06  4420   0.403E-03
 403 F= -.83046554E+03 E0= -.83046554E+03  d E =-.568569E-04  mag=    -0.0000
       N       E                     dE             d eps       ncg     rms          rms(c)
DAV:   1    -0.822969421383E+03   -0.73881E-05   -0.24123E-04  4400   0.324E-02    0.387E-03
DAV:   2    -0.822969422075E+03   -0.69209E-06   -0.81769E-06  4220   0.534E-03
 404 F= -.83046555E+03 E0= -.83046555E+03  d E =-.906376E-05  mag=    -0.0000
       N       E                     dE             d eps       ncg     rms          rms(c)
DAV:   1    -0.822969426221E+03   -0.48382E-05   -0.34108E-04  4460   0.389E-02    0.511E-03
DAV:   2    -0.822969426815E+03   -0.59433E-06   -0.94941E-06  4580   0.606E-03
 405 F= -.83046556E+03 E0= -.83046556E+03  d E =-.543486E-05  mag=     0.0000
       N       E                     dE             d eps       ncg     rms          rms(c)
DAV:   1    -0.822969428252E+03   -0.20304E-05   -0.68506E-06  4380   0.565E-03    0.178E-03
DAV:   2    -0.822969428291E+03   -0.39145E-07   -0.35035E-07  2880   0.120E-03
 406 F= -.83046556E+03 E0= -.83046556E+03  d E =-.142448E-05  mag=     0.0000
       N       E                     dE             d eps       ncg     rms          rms(c)
DAV:   1    -0.822969430845E+03   -0.25939E-05   -0.20496E-05  4420   0.956E-03    0.122E-03
DAV:   2    -0.822969430907E+03   -0.61991E-07   -0.59702E-07  2900   0.159E-03
 407 F= -.83046556E+03 E0= -.83046556E+03  d E =-.250336E-05  mag=     0.0000
