unknown system                          
           1
    17.271038    0.000000    0.000000
    -8.635519   14.957158    0.000000
     0.000000    0.000000   15.000000
   C    F    N    H    O 
    82     2     6     2     1
Direct configuration=     1
   0.00124288  0.00011165  0.50792814
   0.00144655  0.14309926  0.50884467
   0.00134287  0.28595044  0.50888699
   0.00102371  0.42890778  0.50777299
   0.00144638  0.57172960  0.50681008
   0.00252453  0.71480236  0.50646430
   0.00161260  0.85767400  0.50683098
   0.14502290  0.00121719  0.51179410
   0.14546258  0.14446997  0.51412375
   0.14489147  0.28646689  0.51609254
   0.14385997  0.42923268  0.51472441
   0.14495120  0.57173810  0.51209840
   0.14537497  0.71455317  0.51021472
   0.14496233  0.85787922  0.51001890
   0.28781700  0.00070043  0.51267427
   0.28858499  0.14431807  0.51719988
   0.29063756  0.28963958  0.52564756
   0.28601457  0.43266437  0.52778140
   0.28949293  0.56955534  0.52028819
   0.28865870  0.71433001  0.51366813
   0.28783916  0.85761239  0.51157293
   0.43069527  0.00059336  0.51045555
   0.43091936  0.14461469  0.51304421
   0.43071961  0.85653961  0.51071450
   0.57278279  0.00004230  0.50675819
   0.57289331  0.14372872  0.50782305
   0.57515043  0.29077001  0.50903645
   0.57481935  0.85548363  0.50726403
   0.71507303  0.99964814  0.50448126
   0.71555583  0.14322125  0.50487419
   0.71515727  0.28648532  0.50508926
   0.71071397  0.42647687  0.50414240
   0.71062650  0.85567943  0.50374211
   0.85788045  0.99954283  0.50472254
   0.85815699  0.14279807  0.50519142
   0.85813583  0.28590796  0.50506828
   0.85775954  0.42890783  0.50446106
   0.85797891  0.57156182  0.50354154
   0.85980159  0.71430285  0.50287490
   0.85672186  0.85577624  0.50384347
   0.04960499  0.09596013  0.51015075
   0.04922673  0.23837728  0.51106176
   0.04839439  0.38123391  0.51012548
   0.04939294  0.52427312  0.50874026
   0.04985708  0.66710296  0.50780343
   0.04951970  0.81010374  0.50774146
   0.04939476  0.95294745  0.50885567
   0.19295589  0.09651091  0.51480951
   0.19398658  0.24017735  0.51800984
   0.19101711  0.38164809  0.51889102
   0.19279185  0.52441226  0.51569043
   0.19302786  0.66704590  0.51229225
   0.19269013  0.81012988  0.51074639
   0.19267097  0.95328443  0.51170940
   0.33574636  0.09647512  0.51451151
   0.34007662  0.24036867  0.52148478
   0.34003612  0.66950656  0.51619501
   0.33561909  0.80952097  0.51207718
   0.33527493  0.95288280  0.51164782
   0.47803557  0.09611964  0.51029564
   0.47590923  0.24070229  0.51374432
   0.47562331  0.80527764  0.51076229
   0.47793169  0.95238019  0.50915081
   0.62015312  0.09554156  0.50615103
   0.62008625  0.23952460  0.50715586
   0.61989801  0.95155099  0.50580122
   0.76300278  0.09541022  0.50451964
   0.76298269  0.23844773  0.50467016
   0.76210025  0.38163717  0.50425505
   0.76111441  0.52641706  0.50215412
   0.76447119  0.66302406  0.50039185
   0.75978222  0.80614631  0.50210699
   0.76222735  0.95178404  0.50392861
   0.90581905  0.09486472  0.50595499
   0.90590973  0.23822435  0.50604797
   0.90548495  0.38143687  0.50548630
   0.90584195  0.52421250  0.50474770
   0.90701453  0.66675303  0.50418881
   0.90586228  0.80950092  0.50431712
   0.90534566  0.95154193  0.50539591
   0.71771658  0.71216742  0.49969530
   0.33201752  0.38303597  0.53621093
   0.62875079  0.66290842  0.49723235
   0.41871602  0.43013819  0.55726005
   0.43008013  0.28485765  0.51891415
   0.42996364  0.71485545  0.51423478
   0.71740128  0.57204252  0.49988758
   0.33283994  0.52378074  0.52795453
   0.62080861  0.38114827  0.50681470
   0.62067745  0.81132156  0.50586285
   0.45052239  0.55893380  0.44614012
   0.51336310  0.52244350  0.42641660
   0.46977735  0.53430199  0.39775635
Direct configuration=     2
   0.00124328  0.00011173  0.50792939
   0.00144657  0.14309917  0.50884740
   0.00134279  0.28594966  0.50888870
   0.00102386  0.42890720  0.50777459
   0.00144525  0.57172924  0.50681359
   0.00252429  0.71480223  0.50646477
   0.00161250  0.85767346  0.50683159
   0.14502314  0.00121723  0.51179619
   0.14546357  0.14447044  0.51412151
   0.14489304  0.28646732  0.51609256
   0.14386087  0.42923190  0.51472580
   0.14495025  0.57173686  0.51210277
   0.14537455  0.71455218  0.51021689
   0.14496247  0.85787882  0.51001874
   0.28781785  0.00070113  0.51267593
   0.28858570  0.14431793  0.51719814
   0.29063849  0.28963920  0.52564446
   0.28601715  0.43266511  0.52777634
   0.28949330  0.56955470  0.52028525
   0.28865850  0.71432891  0.51367083
   0.28783874  0.85761133  0.51157577
   0.43069485  0.00059257  0.51045606
   0.43092080  0.14461530  0.51304372
   0.43071944  0.85653844  0.51071631
   0.57278289  0.00004168  0.50675819
   0.57289314  0.14372833  0.50782262
   0.57515070  0.29076991  0.50903469
   0.57481896  0.85548211  0.50726508
   0.71507266  0.99964716  0.50448207
   0.71555573  0.14322146  0.50487373
   0.71515735  0.28648582  0.50508949
   0.71071434  0.42647703  0.50414237
   0.71062685  0.85567892  0.50374295
   0.85788054  0.99954265  0.50472220
   0.85815618  0.14279773  0.50519137
   0.85813575  0.28590790  0.50506753
   0.85775944  0.42890762  0.50446304
   0.85797862  0.57156185  0.50354280
   0.85980114  0.71430228  0.50287466
   0.85672235  0.85577596  0.50384302
   0.04960554  0.09596040  0.51015219
   0.04922749  0.23837754  0.51106472
   0.04839510  0.38123320  0.51012662
   0.04939228  0.52427224  0.50874472
   0.04985685  0.66710278  0.50780481
   0.04952011  0.81010413  0.50774173
   0.04939495  0.95294753  0.50885697
   0.19295607  0.09651098  0.51480924
   0.19398784  0.24017769  0.51800545
   0.19101898  0.38164863  0.51889057
   0.19279155  0.52441115  0.51569190
   0.19302739  0.66704434  0.51229636
   0.19268979  0.81012918  0.51074724
   0.19267024  0.95328430  0.51171104
   0.33574603  0.09647466  0.51451164
   0.34007732  0.24036851  0.52148044
   0.34003577  0.66950533  0.51619357
   0.33561840  0.80951984  0.51208085
   0.33527394  0.95288190  0.51164815
   0.47803541  0.09611935  0.51029637
   0.47590971  0.24070246  0.51374145
   0.47562280  0.80527616  0.51076314
   0.47793167  0.95237980  0.50915082
   0.62015210  0.09554074  0.50615060
   0.62008572  0.23952379  0.50715546
   0.61989756  0.95155020  0.50580223
   0.76300139  0.09540985  0.50451955
   0.76298255  0.23844683  0.50467093
   0.76209996  0.38163680  0.50425591
   0.76111412  0.52641724  0.50215493
   0.76447078  0.66302388  0.50039100
   0.75978288  0.80614611  0.50210791
   0.76222730  0.95178371  0.50392906
   0.90581858  0.09486490  0.50595567
   0.90590930  0.23822411  0.50604786
   0.90548525  0.38143630  0.50548754
   0.90584201  0.52421156  0.50475040
   0.90701400  0.66675335  0.50418947
   0.90586250  0.80950081  0.50431702
   0.90534606  0.95154183  0.50539562
   0.71771764  0.71216840  0.49969522
   0.33201779  0.38303514  0.53620861
   0.62874993  0.66290696  0.49723185
   0.41871558  0.43013529  0.55725996
   0.43008076  0.28485795  0.51890870
   0.42996369  0.71485415  0.51423379
   0.71740101  0.57204217  0.49988774
   0.33284165  0.52378141  0.52794847
   0.62080869  0.38114779  0.50681369
   0.62067785  0.81132093  0.50586293
   0.45051883  0.55894181  0.44613560
   0.51336105  0.52245441  0.42640603
   0.46977721  0.53431730  0.39774821
Direct configuration=     3
   0.00124391  0.00011186  0.50793124
   0.00144679  0.14309921  0.50885142
   0.00134291  0.28594877  0.50889127
   0.00102284  0.42890516  0.50777599
   0.00144455  0.57172850  0.50681892
   0.00252418  0.71480241  0.50646552
   0.00161321  0.85767346  0.50683196
   0.14502317  0.00121723  0.51179922
   0.14546477  0.14447092  0.51411828
   0.14489516  0.28646795  0.51609246
   0.14386204  0.42923081  0.51472782
   0.14494919  0.57173484  0.51210934
   0.14537421  0.71455075  0.51022022
   0.14496276  0.85787860  0.51001868
   0.28781776  0.00070104  0.51267828
   0.28858612  0.14431720  0.51719673
   0.29063966  0.28963928  0.52564073
   0.28602109  0.43266616  0.52777017
   0.28949363  0.56955369  0.52028086
   0.28865800  0.71432703  0.51367491
   0.28783798  0.85760985  0.51157990
   0.43069413  0.00059145  0.51045682
   0.43091847  0.14461473  0.51304373
   0.43071903  0.85653689  0.51071905
   0.57278294  0.00004101  0.50675822
   0.57289284  0.14372748  0.50782206
   0.57515105  0.29076943  0.50903211
   0.57481866  0.85548024  0.50726661
   0.71507202  0.99964613  0.50448327
   0.71555497  0.14322110  0.50487315
   0.71515710  0.28648531  0.50508996
   0.71071449  0.42647695  0.50414249
   0.71062759  0.85567840  0.50374425
   0.85788076  0.99954246  0.50472183
   0.85815481  0.14279728  0.50519137
   0.85813564  0.28590738  0.50506668
   0.85775950  0.42890668  0.50446608
   0.85797847  0.57156169  0.50354482
   0.85980057  0.71430214  0.50287436
   0.85672329  0.85577588  0.50384255
   0.04960634  0.09596073  0.51015425
   0.04922869  0.23837762  0.51106905
   0.04839597  0.38123212  0.51012848
   0.04939114  0.52427118  0.50875134
   0.04985618  0.66710227  0.50780707
   0.04952054  0.81010391  0.50774207
   0.04939527  0.95294736  0.50885898
   0.19295692  0.09651125  0.51480877
   0.19398985  0.24017812  0.51799920
   0.19102006  0.38164927  0.51888905
   0.19279140  0.52440968  0.51569410
   0.19302711  0.66704393  0.51230188
   0.19268939  0.81012786  0.51074867
   0.19267034  0.95328423  0.51171352
   0.33574708  0.09647482  0.51451180
   0.34007871  0.24036841  0.52147401
   0.34003387  0.66950361  0.51619215
   0.33561800  0.80951660  0.51208554
   0.33527328  0.95288079  0.51164897
   0.47803533  0.09611868  0.51029735
   0.47591032  0.24070346  0.51373730
   0.47562234  0.80527403  0.51076442
   0.47793145  0.95237867  0.50915101
   0.62015016  0.09553882  0.50615041
   0.62008565  0.23952324  0.50715481
   0.61989699  0.95154851  0.50580380
   0.76300003  0.09540898  0.50451942
   0.76298185  0.23844759  0.50467070
   0.76210017  0.38163647  0.50425603
   0.76111406  0.52641733  0.50215618
   0.76447040  0.66302327  0.50039000
   0.75978305  0.80614465  0.50210887
   0.76222740  0.95178302  0.50392980
   0.90581818  0.09486489  0.50595682
   0.90590891  0.23822362  0.50604779
   0.90548585  0.38143586  0.50548815
   0.90584142  0.52421080  0.50475449
   0.90701355  0.66675315  0.50419051
   0.90586289  0.80950017  0.50431689
   0.90534669  0.95154176  0.50539532
   0.71771953  0.71217158  0.49969526
   0.33201869  0.38303403  0.53620484
   0.62875031  0.66290707  0.49723119
   0.41871536  0.43013125  0.55725960
   0.43008171  0.28485816  0.51890063
   0.42996344  0.71485200  0.51423225
   0.71740046  0.57204185  0.49988803
   0.33284436  0.52378218  0.52793936
   0.62080924  0.38114749  0.50681216
   0.62067831  0.81131982  0.50586325
   0.45051357  0.55895374  0.44612874
   0.51335802  0.52247067  0.42639003
   0.46977680  0.53434033  0.39773554
Direct configuration=     4
   0.00124470  0.00011208  0.50793365
   0.00144716  0.14309936  0.50885664
   0.00134328  0.28594788  0.50889471
   0.00102164  0.42890245  0.50777756
   0.00144417  0.57172745  0.50682615
   0.00252399  0.71480250  0.50646660
   0.00161287  0.85767338  0.50683335
   0.14502311  0.00121718  0.51180310
   0.14546605  0.14447140  0.51411414
   0.14489730  0.28646861  0.51609204
   0.14386283  0.42922963  0.51473034
   0.14494825  0.57173269  0.51211809
   0.14537365  0.71454912  0.51022474
   0.14496314  0.85787840  0.51001893
   0.28781678  0.00069983  0.51268116
   0.28858646  0.14431651  0.51719541
   0.29064091  0.28963923  0.52563564
   0.28602515  0.43266715  0.52776266
   0.28949367  0.56955235  0.52027507
   0.28865683  0.71432431  0.51368036
   0.28783716  0.85760765  0.51158513
   0.43069339  0.00059014  0.51045778
   0.43091814  0.14461435  0.51304330
   0.43071837  0.85653477  0.51072268
   0.57278224  0.00003954  0.50675835
   0.57289193  0.14372616  0.50782144
   0.57515144  0.29076869  0.50902868
   0.57481844  0.85547815  0.50726859
   0.71507103  0.99964491  0.50448484
   0.71555312  0.14322013  0.50487249
   0.71515638  0.28648420  0.50509050
   0.71071459  0.42647670  0.50414277
   0.71062833  0.85567771  0.50374599
   0.85788111  0.99954233  0.50472153
   0.85815317  0.14279662  0.50519144
   0.85813525  0.28590653  0.50506575
   0.85775961  0.42890531  0.50447007
   0.85797828  0.57156125  0.50354771
   0.85979990  0.71430195  0.50287400
   0.85672457  0.85577590  0.50384219
   0.04960718  0.09596104  0.51015680
   0.04923013  0.23837741  0.51107459
   0.04839649  0.38123066  0.51013114
   0.04938952  0.52426957  0.50876002
   0.04985512  0.66710132  0.50781044
   0.04952093  0.81010329  0.50774240
   0.04939564  0.95294703  0.50886170
   0.19295815  0.09651147  0.51480807
   0.19399231  0.24017864  0.51799146
   0.19102156  0.38164983  0.51888651
   0.19279148  0.52440805  0.51569705
   0.19302645  0.66704353  0.51230892
   0.19268891  0.81012618  0.51075084
   0.19267121  0.95328421  0.51171681
   0.33574820  0.09647494  0.51451208
   0.34008023  0.24036823  0.52146567
   0.34003341  0.66950148  0.51619015
   0.33561920  0.80951515  0.51209070
   0.33527281  0.95288132  0.51164981
   0.47803452  0.09611766  0.51029849
   0.47591068  0.24070436  0.51373177
   0.47562188  0.80527126  0.51076612
   0.47793072  0.95237665  0.50915153
   0.62015028  0.09553832  0.50614937
   0.62008587  0.23952277  0.50715385
   0.61989633  0.95154603  0.50580592
   0.76299876  0.09540777  0.50451925
   0.76298152  0.23844803  0.50467072
   0.76210074  0.38163618  0.50425566
   0.76111413  0.52641718  0.50215786
   0.76447010  0.66302289  0.50038908
   0.75978357  0.80614397  0.50210986
   0.76222758  0.95178204  0.50393086
   0.90581787  0.09486467  0.50595856
   0.90590846  0.23822277  0.50604782
   0.90548607  0.38143504  0.50548824
   0.90584013  0.52421022  0.50476004
   0.90701328  0.66675255  0.50419193
   0.90586349  0.80949952  0.50431670
   0.90534741  0.95154173  0.50539512
   0.71771864  0.71216975  0.49969541
   0.33202044  0.38303304  0.53619943
   0.62875243  0.66290924  0.49723062
   0.41871582  0.43012640  0.55725866
   0.43008282  0.28485864  0.51888991
   0.42996219  0.71484891  0.51423009
   0.71739963  0.57204175  0.49988847
   0.33284795  0.52378295  0.52792719
   0.62080998  0.38114727  0.50681008
   0.62067885  0.81131835  0.50586398
   0.45050646  0.55896966  0.44611953
   0.51335367  0.52249236  0.42636822
   0.46977729  0.53437042  0.39771960
Direct configuration=     5
   0.00124565  0.00011239  0.50793648
   0.00144460  0.14309851  0.50886185
   0.00134382  0.28594670  0.50889891
   0.00102127  0.42890011  0.50777977
   0.00144348  0.57172616  0.50683523
   0.00252368  0.71480198  0.50646796
   0.00161394  0.85767334  0.50683430
   0.14502353  0.00121704  0.51180761
   0.14546651  0.14447181  0.51411053
   0.14489932  0.28646907  0.51609101
   0.14386300  0.42922847  0.51473316
   0.14494751  0.57173099  0.51212889
   0.14537247  0.71454756  0.51023044
   0.14496368  0.85787798  0.51001970
   0.28781613  0.00069867  0.51268436
   0.28858753  0.14431640  0.51719377
   0.29064136  0.28963854  0.52562964
   0.28602860  0.43266773  0.52775354
   0.28949431  0.56955142  0.52027072
   0.28865581  0.71432173  0.51368696
   0.28783819  0.85760804  0.51158973
   0.43069276  0.00058881  0.51045884
   0.43092041  0.14461457  0.51304227
   0.43071832  0.85653226  0.51072701
   0.57278104  0.00003711  0.50675853
   0.57289108  0.14372596  0.50782208
   0.57515196  0.29076814  0.50902427
   0.57481830  0.85547555  0.50727088
   0.71507016  0.99964329  0.50448659
   0.71555149  0.14321923  0.50487164
   0.71515590  0.28648343  0.50509078
   0.71071518  0.42647647  0.50414299
   0.71062907  0.85567672  0.50374784
   0.85788160  0.99954218  0.50472136
   0.85815191  0.14279560  0.50519159
   0.85813467  0.28590545  0.50506468
   0.85775975  0.42890421  0.50447457
   0.85797791  0.57156060  0.50355144
   0.85979965  0.71430136  0.50287347
   0.85672571  0.85577580  0.50384185
   0.04960806  0.09596127  0.51015959
   0.04923168  0.23837711  0.51108105
   0.04839647  0.38122897  0.51013456
   0.04938804  0.52426708  0.50877052
   0.04985418  0.66709997  0.50781515
   0.04952127  0.81010297  0.50774266
   0.04939602  0.95294677  0.50886513
   0.19295718  0.09651143  0.51480765
   0.19399474  0.24017921  0.51798268
   0.19102453  0.38165023  0.51888310
   0.19279175  0.52440651  0.51570073
   0.19302522  0.66704173  0.51231763
   0.19268860  0.81012444  0.51075391
   0.19267184  0.95328381  0.51172083
   0.33574847  0.09647432  0.51451250
   0.34008178  0.24036863  0.52145707
   0.34003172  0.66949856  0.51618836
   0.33562044  0.80951485  0.51209651
   0.33527212  0.95287956  0.51165197
   0.47803331  0.09611636  0.51029954
   0.47591119  0.24070438  0.51372468
   0.47562141  0.80526796  0.51076814
   0.47792959  0.95237409  0.50915252
   0.62015135  0.09553847  0.50614748
   0.62008576  0.23952175  0.50715244
   0.61989543  0.95154333  0.50580848
   0.76299733  0.09540638  0.50451892
   0.76298135  0.23844706  0.50467083
   0.76210108  0.38163588  0.50425650
   0.76111395  0.52641692  0.50215974
   0.76446988  0.66302260  0.50038816
   0.75978487  0.80614410  0.50211059
   0.76222784  0.95178117  0.50393212
   0.90581780  0.09486447  0.50596091
   0.90590815  0.23822168  0.50604801
   0.90548559  0.38143332  0.50548796
   0.90583889  0.52420944  0.50476702
   0.90701317  0.66675202  0.50419360
   0.90586414  0.80949918  0.50431634
   0.90534840  0.95154187  0.50539508
   0.71771673  0.71216480  0.49969529
   0.33202308  0.38303245  0.53619235
   0.62875253  0.66290825  0.49723016
   0.41871750  0.43012116  0.55725694
   0.43008390  0.28485958  0.51887663
   0.42996066  0.71484554  0.51422720
   0.71739902  0.57204145  0.49988874
   0.33285194  0.52378356  0.52791228
   0.62081059  0.38114682  0.50680731
   0.62067945  0.81131665  0.50586512
   0.45049766  0.55898956  0.44610846
   0.51334882  0.52251934  0.42634160
   0.46977914  0.53440789  0.39769753
Direct configuration=     6
   0.00124677  0.00011265  0.50793972
   0.00144170  0.14309708  0.50886714
   0.00134427  0.28594491  0.50890390
   0.00102162  0.42889823  0.50778315
   0.00144219  0.57172425  0.50684623
   0.00252332  0.71480071  0.50646975
   0.00161593  0.85767303  0.50683492
   0.14502422  0.00121663  0.51181260
   0.14546626  0.14447210  0.51410749
   0.14490139  0.28646897  0.51608921
   0.14386311  0.42922715  0.51473611
   0.14494676  0.57173010  0.51214012
   0.14537102  0.71454601  0.51023744
   0.14496428  0.85787686  0.51002128
   0.28781656  0.00069792  0.51268785
   0.28858869  0.14431656  0.51719152
   0.29064287  0.28963689  0.52562323
   0.28603184  0.43266730  0.52774387
   0.28949552  0.56955019  0.52026738
   0.28865523  0.71432022  0.51369452
   0.28784013  0.85760915  0.51159377
   0.43069216  0.00058694  0.51046011
   0.43091930  0.14461391  0.51304151
   0.43071905  0.85652946  0.51073193
   0.57278013  0.00003449  0.50675882
   0.57289072  0.14372589  0.50782360
   0.57515257  0.29076785  0.50901895
   0.57481903  0.85547476  0.50727140
   0.71506815  0.99964158  0.50448770
   0.71555135  0.14321844  0.50487058
   0.71515619  0.28648295  0.50509073
   0.71071618  0.42647616  0.50414329
   0.71063000  0.85567537  0.50374987
   0.85788212  0.99954157  0.50472160
   0.85815114  0.14279413  0.50519200
   0.85813408  0.28590380  0.50506354
   0.85775978  0.42890341  0.50447944
   0.85797731  0.57155979  0.50355622
   0.85980023  0.71430066  0.50287292
   0.85672636  0.85577540  0.50384171
   0.04960631  0.09596040  0.51016155
   0.04923250  0.23837644  0.51108800
   0.04839621  0.38122711  0.51013881
   0.04938716  0.52426403  0.50878264
   0.04985344  0.66709823  0.50782151
   0.04952176  0.81010279  0.50774291
   0.04939668  0.95294654  0.50886925
   0.19295753  0.09651098  0.51480707
   0.19399638  0.24017953  0.51797349
   0.19102832  0.38165030  0.51887894
   0.19279198  0.52440504  0.51570535
   0.19302359  0.66703847  0.51232820
   0.19268960  0.81012507  0.51075730
   0.19267176  0.95328284  0.51172550
   0.33574847  0.09647304  0.51451308
   0.34008305  0.24036917  0.52144825
   0.34002920  0.66949522  0.51618699
   0.33562051  0.80951422  0.51210310
   0.33527175  0.95287858  0.51165470
   0.47803206  0.09611636  0.51029916
   0.47591241  0.24070353  0.51371601
   0.47562089  0.80526399  0.51077045
   0.47792849  0.95237149  0.50915418
   0.62015101  0.09553766  0.50614519
   0.62008520  0.23952031  0.50715071
   0.61989424  0.95154063  0.50581146
   0.76299581  0.09540473  0.50451852
   0.76298096  0.23844481  0.50467093
   0.76210119  0.38163468  0.50425734
   0.76111333  0.52641652  0.50216194
   0.76446973  0.66302143  0.50038766
   0.75978598  0.80614278  0.50211124
   0.76222822  0.95178043  0.50393368
   0.90581711  0.09486390  0.50596395
   0.90590817  0.23822029  0.50604857
   0.90548468  0.38143092  0.50548776
   0.90583832  0.52420818  0.50477553
   0.90701306  0.66675146  0.50419563
   0.90586498  0.80949885  0.50431592
   0.90534958  0.95154214  0.50539545
   0.71771801  0.71216550  0.49969539
   0.33202630  0.38303206  0.53618340
   0.62874978  0.66290334  0.49723056
   0.41872067  0.43011583  0.55725359
   0.43008485  0.28486061  0.51886112
   0.42995927  0.71484218  0.51422361
   0.71739886  0.57204024  0.49988910
   0.33285573  0.52378385  0.52789512
   0.62081100  0.38114594  0.50680394
   0.62068002  0.81131463  0.50586694
   0.45048774  0.55901243  0.44609384
   0.51334419  0.52255104  0.42631026
   0.46977927  0.53445408  0.39767190
Direct configuration=     7
   0.00124749  0.00011208  0.50794353
   0.00144426  0.14309677  0.50887435
   0.00134428  0.28594235  0.50891017
   0.00102168  0.42889585  0.50778874
   0.00144068  0.57172101  0.50686065
   0.00252314  0.71479890  0.50647228
   0.00161570  0.85767190  0.50683693
   0.14502502  0.00121564  0.51181835
   0.14546509  0.14447142  0.51410440
   0.14490090  0.28647107  0.51608543
   0.14386271  0.42922638  0.51473920
   0.14494577  0.57172812  0.51215319
   0.14537049  0.71454475  0.51024678
   0.14496390  0.85787631  0.51002531
   0.28781750  0.00069719  0.51269193
   0.28858931  0.14431623  0.51718804
   0.29064558  0.28963524  0.52561431
   0.28603639  0.43266645  0.52773154
   0.28949657  0.56954776  0.52026384
   0.28865730  0.71431965  0.51370267
   0.28784156  0.85760918  0.51159780
   0.43069191  0.00058518  0.51046164
   0.43091757  0.14461336  0.51304041
   0.43071964  0.85652599  0.51073793
   0.57277954  0.00003302  0.50676101
   0.57288989  0.14372319  0.50782358
   0.57515309  0.29076704  0.50901182
   0.57481841  0.85547323  0.50727240
   0.71506779  0.99963908  0.50448937
   0.71555202  0.14321676  0.50486902
   0.71515682  0.28648150  0.50509016
   0.71071691  0.42647515  0.50414374
   0.71063103  0.85567362  0.50375232
   0.85788241  0.99954029  0.50472256
   0.85815030  0.14279197  0.50519284
   0.85813364  0.28590092  0.50506215
   0.85775959  0.42890197  0.50448498
   0.85797653  0.57155861  0.50356284
   0.85980120  0.71429980  0.50287237
   0.85672726  0.85577472  0.50384184
   0.04960258  0.09595900  0.51016284
   0.04923224  0.23837482  0.51109558
   0.04839625  0.38122478  0.51014437
   0.04938671  0.52426116  0.50879750
   0.04985262  0.66709591  0.50783068
   0.04952263  0.81010155  0.50774316
   0.04939806  0.95294629  0.50887439
   0.19295702  0.09651080  0.51480697
   0.19399703  0.24017826  0.51796532
   0.19103119  0.38164950  0.51887526
   0.19279190  0.52440339  0.51571167
   0.19302191  0.66703538  0.51234195
   0.19269180  0.81012665  0.51076145
   0.19267138  0.95328124  0.51173118
   0.33574780  0.09647131  0.51451375
   0.34008515  0.24036874  0.52143953
   0.34002704  0.66949232  0.51618608
   0.33561973  0.80950988  0.51211012
   0.33527264  0.95287901  0.51165831
   0.47803202  0.09611452  0.51029904
   0.47591339  0.24070232  0.51370458
   0.47562066  0.80525956  0.51077287
   0.47792789  0.95236875  0.50915684
   0.62014565  0.09553233  0.50614411
   0.62008511  0.23951928  0.50714848
   0.61989279  0.95153820  0.50581467
   0.76299445  0.09540251  0.50451788
   0.76297938  0.23844351  0.50466897
   0.76210127  0.38163271  0.50425846
   0.76111437  0.52641700  0.50216325
   0.76447006  0.66301961  0.50038781
   0.75978662  0.80614042  0.50211205
   0.76222817  0.95177936  0.50393562
   0.90581489  0.09486213  0.50596796
   0.90590844  0.23821814  0.50604969
   0.90548390  0.38142843  0.50548812
   0.90583916  0.52420624  0.50478324
   0.90701306  0.66675023  0.50419830
   0.90586636  0.80949837  0.50431533
   0.90535057  0.95154183  0.50539647
   0.71772012  0.71216920  0.49969595
   0.33203335  0.38303423  0.53617251
   0.62874912  0.66290056  0.49723208
   0.41872353  0.43011255  0.55724806
   0.43008633  0.28486110  0.51884168
   0.42995764  0.71483813  0.51421880
   0.71739872  0.57203838  0.49988970
   0.33285924  0.52378330  0.52787433
   0.62081168  0.38114492  0.50679939
   0.62068075  0.81131267  0.50586964
   0.45047504  0.55904145  0.44607399
   0.51333769  0.52259175  0.42626854
   0.46977889  0.53451490  0.39763804
Direct configuration=     8
   0.00124670  0.00010986  0.50794803
   0.00144280  0.14309499  0.50888204
   0.00134307  0.28593908  0.50891818
   0.00101988  0.42889444  0.50779587
   0.00144050  0.57171706  0.50687927
   0.00252349  0.71479661  0.50647623
   0.00161702  0.85767106  0.50683882
   0.14502566  0.00121441  0.51182516
   0.14546250  0.14446908  0.51410149
   0.14490242  0.28646910  0.51608104
   0.14386336  0.42922537  0.51474309
   0.14494482  0.57172450  0.51216957
   0.14537192  0.71454424  0.51025966
   0.14496446  0.85787506  0.51003097
   0.28781737  0.00069560  0.51269710
   0.28858821  0.14431448  0.51718373
   0.29064891  0.28963539  0.52560208
   0.28604244  0.43266554  0.52771560
   0.28949618  0.56954402  0.52025940
   0.28865761  0.71431662  0.51371209
   0.28784191  0.85760678  0.51160266
   0.43069181  0.00058386  0.51046189
   0.43092001  0.14461159  0.51303734
   0.43071894  0.85652164  0.51074536
   0.57277736  0.00002979  0.50676344
   0.57288827  0.14371996  0.50782360
   0.57515346  0.29076484  0.50900261
   0.57481845  0.85546983  0.50727273
   0.71506601  0.99963609  0.50449077
   0.71554900  0.14321233  0.50486699
   0.71515603  0.28647869  0.50508899
   0.71071715  0.42647322  0.50414433
   0.71063105  0.85567160  0.50375539
   0.85788191  0.99953861  0.50472495
   0.85814891  0.14278895  0.50519471
   0.85813307  0.28589721  0.50506067
   0.85775925  0.42889899  0.50449104
   0.85797696  0.57155693  0.50357142
   0.85980305  0.71430091  0.50287174
   0.85672900  0.85577364  0.50384255
   0.04960323  0.09595860  0.51016568
   0.04923150  0.23837311  0.51110351
   0.04839635  0.38122166  0.51015186
   0.04938595  0.52425850  0.50881573
   0.04985172  0.66709301  0.50784399
   0.04952245  0.81009861  0.50774428
   0.04939915  0.95294531  0.50888094
   0.19295902  0.09651065  0.51480702
   0.19399654  0.24017698  0.51795895
   0.19103194  0.38164941  0.51887206
   0.19279123  0.52440122  0.51572053
   0.19302433  0.66703873  0.51235624
   0.19269191  0.81012875  0.51076516
   0.19267170  0.95327998  0.51173845
   0.33574622  0.09646988  0.51451464
   0.34008765  0.24036661  0.52143009
   0.34003052  0.66949035  0.51618518
   0.33562145  0.80951015  0.51211706
   0.33527465  0.95287961  0.51166322
   0.47803078  0.09611316  0.51029791
   0.47591304  0.24070128  0.51369026
   0.47562055  0.80525537  0.51077532
   0.47792907  0.95236716  0.50915945
   0.62014380  0.09552854  0.50614334
   0.62008578  0.23951787  0.50714574
   0.61989200  0.95153638  0.50581812
   0.76299390  0.09539970  0.50451727
   0.76297789  0.23844181  0.50466485
   0.76210138  0.38163057  0.50426045
   0.76111670  0.52641622  0.50216428
   0.76447094  0.66301891  0.50038885
   0.75978777  0.80614062  0.50211337
   0.76222761  0.95177668  0.50393808
   0.90581403  0.09485968  0.50597361
   0.90590821  0.23821486  0.50605207
   0.90548383  0.38142587  0.50549025
   0.90583937  0.52420349  0.50479124
   0.90701320  0.66674797  0.50420216
   0.90586720  0.80949746  0.50431488
   0.90535071  0.95153966  0.50539878
   0.71771666  0.71216184  0.49969701
   0.33203806  0.38303290  0.53615980
   0.62875297  0.66290201  0.49723502
   0.41872851  0.43011342  0.55723929
   0.43008877  0.28486058  0.51881864
   0.42995563  0.71483301  0.51421317
   0.71739854  0.57203744  0.49989056
   0.33286210  0.52378149  0.52785112
   0.62081274  0.38114407  0.50679349
   0.62068165  0.81131153  0.50587335
   0.45045782  0.55907927  0.44605155
   0.51332587  0.52264407  0.42621320
   0.46978135  0.53459030  0.39758925
Direct configuration=     9
   0.00124621  0.00010699  0.50795323
   0.00143768  0.14309174  0.50888976
   0.00134200  0.28593643  0.50892781
   0.00101857  0.42889128  0.50780591
   0.00144198  0.57171480  0.50690189
   0.00252402  0.71479299  0.50648231
   0.00161702  0.85766878  0.50684306
   0.14502738  0.00121406  0.51183270
   0.14546326  0.14446653  0.51409921
   0.14490118  0.28646862  0.51607616
   0.14386511  0.42922653  0.51474622
   0.14494634  0.57172777  0.51218783
   0.14537400  0.71454668  0.51027608
   0.14496632  0.85787320  0.51003543
   0.28781684  0.00069399  0.51270350
   0.28858803  0.14431304  0.51718178
   0.29064882  0.28963384  0.52558805
   0.28604606  0.43266300  0.52769422
   0.28949586  0.56954020  0.52025251
   0.28865889  0.71431465  0.51372225
   0.28784251  0.85760572  0.51160848
   0.43069332  0.00058274  0.51046102
   0.43091453  0.14460700  0.51303292
   0.43072026  0.85651995  0.51075344
   0.57277587  0.00002478  0.50676576
   0.57288784  0.14371806  0.50782276
   0.57515428  0.29076238  0.50899092
   0.57481902  0.85546527  0.50727351
   0.71506409  0.99963288  0.50449214
   0.71554419  0.14320709  0.50486398
   0.71515493  0.28647595  0.50508680
   0.71071845  0.42647124  0.50414485