  95  95   0   0
  0.4078826E+02  0.1727104E-08  0.1727104E-08  0.1500000E-08  0.0000000E+00
  1.000000000000000E-004
  CAR 
 unknown system                          
      5.97209203    -30.89688379  301     -2.70367471      1.00000000
    -30.897  0.0000E+00  0.0000E+00  0.0000E+00  0.0000E+00
    -30.774  0.0000E+00  0.0000E+00  0.0000E+00  0.0000E+00
    -30.651  0.0000E+00  0.0000E+00  0.0000E+00  0.0000E+00
    -30.528  0.0000E+00  0.0000E+00  0.0000E+00  0.0000E+00
    -30.405  0.0000E+00  0.0000E+00  0.0000E+00  0.0000E+00
    -30.282  0.0000E+00  0.0000E+00  0.0000E+00  0.0000E+00
    -30.160  0.0000E+00  0.0000E+00  0.0000E+00  0.0000E+00
    -30.037  0.0000E+00  0.0000E+00  0.0000E+00  0.0000E+00
    -29.914  0.0000E+00  0.0000E+00  0.0000E+00  0.0000E+00
    -29.791  0.0000E+00  0.0000E+00  0.0000E+00  0.0000E+00
    -29.668  0.0000E+00  0.0000E+00  0.0000E+00  0.0000E+00
    -29.545  0.0000E+00  0.0000E+00  0.0000E+00  0.0000E+00
    -29.422  0.5367E-10  0.5367E-10  0.6596E-11  0.6596E-11
    -29.299  0.1322E-03  0.1322E-03  0.1625E-04  0.1625E-04
    -29.176  0.1854E-01  0.1854E-01  0.2295E-02  0.2295E-02
    -29.053  0.1385E-01  0.1385E-01  0.3997E-02  0.3997E-02
    -28.931  0.2175E-04  0.2175E-04  0.4000E-02  0.4000E-02
    -28.808  0.7717E-12  0.7717E-12  0.4000E-02  0.4000E-02
    -28.685  0.0000E+00  0.0000E+00  0.4000E-02  0.4000E-02
    -28.562  0.0000E+00  0.0000E+00  0.4000E-02  0.4000E-02
    -28.439  0.0000E+00  0.0000E+00  0.4000E-02  0.4000E-02
    -28.316  0.0000E+00  0.0000E+00  0.4000E-02  0.4000E-02
    -28.193  0.0000E+00  0.0000E+00  0.4000E-02  0.4000E-02
    -28.070  0.0000E+00  0.0000E+00  0.4000E-02  0.4000E-02
    -27.947  0.0000E+00  0.0000E+00  0.4000E-02  0.4000E-02
    -27.824  0.0000E+00  0.0000E+00  0.4000E-02  0.4000E-02
    -27.702  0.0000E+00  0.0000E+00  0.4000E-02  0.4000E-02
    -27.579  0.0000E+00  0.0000E+00  0.4000E-02  0.4000E-02
    -27.456  0.0000E+00  0.0000E+00  0.4000E-02  0.4000E-02
    -27.333  0.0000E+00  0.0000E+00  0.4000E-02  0.4000E-02
    -27.210  0.0000E+00  0.0000E+00  0.4000E-02  0.4000E-02
    -27.087  0.0000E+00  0.0000E+00  0.4000E-02  0.4000E-02
    -26.964  0.0000E+00  0.0000E+00  0.4000E-02  0.4000E-02
    -26.841  0.0000E+00  0.0000E+00  0.4000E-02  0.4000E-02
    -26.718  0.0000E+00  0.0000E+00  0.4000E-02  0.4000E-02
    -26.596  0.0000E+00  0.0000E+00  0.4000E-02  0.4000E-02
    -26.473  0.0000E+00  0.0000E+00  0.4000E-02  0.4000E-02
    -26.350  0.0000E+00  0.0000E+00  0.4000E-02  0.4000E-02
    -26.227  0.0000E+00  0.0000E+00  0.4000E-02  0.4000E-02
    -26.104  0.0000E+00  0.0000E+00  0.4000E-02  0.4000E-02
    -25.981  0.0000E+00  0.0000E+00  0.4000E-02  0.4000E-02
    -25.858  0.0000E+00  0.0000E+00  0.4000E-02  0.4000E-02
    -25.735  0.0000E+00  0.0000E+00  0.4000E-02  0.4000E-02
    -25.612  0.0000E+00  0.0000E+00  0.4000E-02  0.4000E-02
    -25.489  0.0000E+00  0.0000E+00  0.4000E-02  0.4000E-02
    -25.367  0.0000E+00  0.0000E+00  0.4000E-02  0.4000E-02
    -25.244  0.0000E+00  0.0000E+00  0.4000E-02  0.4000E-02
    -25.121  0.0000E+00  0.0000E+00  0.4000E-02  0.4000E-02
    -24.998  0.0000E+00  0.0000E+00  0.4000E-02  0.4000E-02
    -24.875  0.0000E+00  0.0000E+00  0.4000E-02  0.4000E-02
    -24.752  0.0000E+00  0.0000E+00  0.4000E-02  0.4000E-02
    -24.629  0.0000E+00  0.0000E+00  0.4000E-02  0.4000E-02
    -24.506  0.0000E+00  0.0000E+00  0.4000E-02  0.4000E-02
    -24.383  0.0000E+00  0.0000E+00  0.4000E-02  0.4000E-02
    -24.260  0.0000E+00  0.0000E+00  0.4000E-02  0.4000E-02
    -24.138  0.0000E+00  0.0000E+00  0.4000E-02  0.4000E-02
    -24.015  0.0000E+00  0.0000E+00  0.4000E-02  0.4000E-02
    -23.892  0.0000E+00  0.0000E+00  0.4000E-02  0.4000E-02
    -23.769  0.0000E+00  0.0000E+00  0.4000E-02  0.4000E-02
    -23.646  0.0000E+00  0.0000E+00  0.4000E-02  0.4000E-02
    -23.523  0.0000E+00  0.0000E+00  0.4000E-02  0.4000E-02
    -23.400  0.0000E+00  0.0000E+00  0.4000E-02  0.4000E-02
    -23.277  0.0000E+00  0.0000E+00  0.4000E-02  0.4000E-02
    -23.154  0.0000E+00  0.0000E+00  0.4000E-02  0.4000E-02
    -23.032  0.0000E+00  0.0000E+00  0.4000E-02  0.4000E-02
    -22.909  0.0000E+00  0.0000E+00  0.4000E-02  0.4000E-02
    -22.786  0.0000E+00  0.0000E+00  0.4000E-02  0.4000E-02
    -22.663  0.1145E-11  0.1145E-11  0.4000E-02  0.4000E-02
    -22.540  0.1176E-04  0.1176E-04  0.4001E-02  0.4001E-02
    -22.417  0.8303E-02  0.8303E-02  0.5022E-02  0.5022E-02
    -22.294  0.2306E-01  0.2306E-01  0.7856E-02  0.7856E-02
    -22.171  0.1257E-02  0.1257E-02  0.8010E-02  0.8010E-02
    -22.048  0.7044E-02  0.7044E-02  0.8876E-02  0.8876E-02
    -21.925  0.1010E-02  0.1010E-02  0.9000E-02  0.9000E-02
    -21.803  0.3674E-03  0.3674E-03  0.9045E-02  0.9045E-02
    -21.680  0.1168E-01  0.1168E-01  0.1048E-01  0.1048E-01
    -21.557  0.5952E-02  0.5952E-02  0.1121E-01  0.1121E-01
    -21.434  0.4278E-02  0.4278E-02  0.1174E-01  0.1174E-01
    -21.311  0.4176E-02  0.4176E-02  0.1225E-01  0.1225E-01
    -21.188  0.5175E-02  0.5175E-02  0.1289E-01  0.1289E-01
    -21.065  0.7280E-02  0.7280E-02  0.1378E-01  0.1378E-01
    -20.942  0.5055E-02  0.5055E-02  0.1440E-01  0.1440E-01
    -20.819  0.7580E-02  0.7580E-02  0.1533E-01  0.1533E-01
    -20.696  0.7476E-02  0.7476E-02  0.1625E-01  0.1625E-01
    -20.574  0.5369E-02  0.5369E-02  0.1691E-01  0.1691E-01
    -20.451  0.7059E-02  0.7059E-02  0.1778E-01  0.1778E-01
    -20.328  0.8950E-02  0.8950E-02  0.1888E-01  0.1888E-01
    -20.205  0.4829E-02  0.4829E-02  0.1947E-01  0.1947E-01
    -20.082  0.5642E-03  0.5642E-03  0.1954E-01  0.1954E-01
    -19.959  0.1171E-01  0.1171E-01  0.2098E-01  0.2098E-01
    -19.836  0.2900E-02  0.2900E-02  0.2134E-01  0.2134E-01
    -19.713  0.8643E-02  0.8643E-02  0.2240E-01  0.2240E-01
    -19.590  0.1168E-01  0.1168E-01  0.2384E-01  0.2384E-01
    -19.468  0.7990E-02  0.7990E-02  0.2482E-01  0.2482E-01
    -19.345  0.5094E-02  0.5094E-02  0.2544E-01  0.2544E-01
    -19.222  0.3562E-02  0.3562E-02  0.2588E-01  0.2588E-01
    -19.099  0.5505E-02  0.5505E-02  0.2656E-01  0.2656E-01
    -18.976  0.3499E-02  0.3499E-02  0.2699E-01  0.2699E-01
    -18.853  0.6790E-02  0.6790E-02  0.2782E-01  0.2782E-01
    -18.730  0.1784E-01  0.1784E-01  0.3002E-01  0.3002E-01
    -18.607  0.6834E-02  0.6834E-02  0.3086E-01  0.3086E-01
    -18.484  0.2413E-02  0.2413E-02  0.3115E-01  0.3115E-01
    -18.361  0.1031E-01  0.1031E-01  0.3242E-01  0.3242E-01
    -18.239  0.6059E-02  0.6059E-02  0.3316E-01  0.3316E-01
    -18.116  0.2328E-02  0.2328E-02  0.3345E-01  0.3345E-01
    -17.993  0.7080E-02  0.7080E-02  0.3432E-01  0.3432E-01
    -17.870  0.6680E-02  0.6680E-02  0.3514E-01  0.3514E-01
    -17.747  0.8273E-02  0.8273E-02  0.3616E-01  0.3616E-01
    -17.624  0.1308E-01  0.1308E-01  0.3776E-01  0.3776E-01
    -17.501  0.1152E-01  0.1152E-01  0.3918E-01  0.3918E-01
    -17.378  0.9889E-02  0.9889E-02  0.4040E-01  0.4040E-01
    -17.255  0.3986E-02  0.3986E-02  0.4089E-01  0.4089E-01
    -17.132  0.8321E-02  0.8321E-02  0.4191E-01  0.4191E-01
    -17.010  0.4811E-02  0.4811E-02  0.4250E-01  0.4250E-01
    -16.887  0.4414E-02  0.4414E-02  0.4304E-01  0.4304E-01
    -16.764  0.6407E-02  0.6407E-02  0.4383E-01  0.4383E-01
    -16.641  0.1519E-01  0.1519E-01  0.4570E-01  0.4570E-01
    -16.518  0.1359E-01  0.1359E-01  0.4737E-01  0.4737E-01
    -16.395  0.4499E-02  0.4499E-02  0.4792E-01  0.4792E-01
    -16.272  0.6520E-03  0.6520E-03  0.4800E-01  0.4800E-01
    -16.149  0.2948E-06  0.2948E-06  0.4800E-01  0.4800E-01
    -16.026  0.9002E-03  0.9002E-03  0.4811E-01  0.4811E-01
    -15.904  0.5614E-02  0.5614E-02  0.4880E-01  0.4880E-01
    -15.781  0.4114E-02  0.4114E-02  0.4931E-01  0.4931E-01
    -15.658  0.6889E-02  0.6889E-02  0.5015E-01  0.5015E-01
    -15.535  0.6462E-02  0.6462E-02  0.5095E-01  0.5095E-01
    -15.412  0.6406E-02  0.6406E-02  0.5173E-01  0.5173E-01
    -15.289  0.1350E-01  0.1350E-01  0.5339E-01  0.5339E-01
    -15.166  0.9594E-02  0.9594E-02  0.5457E-01  0.5457E-01
    -15.043  0.5149E-02  0.5149E-02  0.5521E-01  0.5521E-01
    -14.920  0.7901E-02  0.7901E-02  0.5618E-01  0.5618E-01
    -14.797  0.1087E-01  0.1087E-01  0.5751E-01  0.5751E-01
    -14.675  0.7694E-02  0.7694E-02  0.5846E-01  0.5846E-01
    -14.552  0.1298E-01  0.1298E-01  0.6005E-01  0.6005E-01
    -14.429  0.1009E-01  0.1009E-01  0.6129E-01  0.6129E-01
    -14.306  0.5929E-02  0.5929E-02  0.6202E-01  0.6202E-01
    -14.183  0.4888E-02  0.4888E-02  0.6262E-01  0.6262E-01
    -14.060  0.3596E-02  0.3596E-02  0.6306E-01  0.6306E-01
    -13.937  0.4568E-02  0.4568E-02  0.6363E-01  0.6363E-01
    -13.814  0.1110E-01  0.1110E-01  0.6499E-01  0.6499E-01
    -13.691  0.1114E-01  0.1114E-01  0.6636E-01  0.6636E-01
    -13.568  0.8092E-02  0.8092E-02  0.6735E-01  0.6735E-01
    -13.446  0.5455E-02  0.5455E-02  0.6802E-01  0.6802E-01
    -13.323  0.4010E-02  0.4010E-02  0.6852E-01  0.6852E-01
    -13.200  0.4138E-02  0.4138E-02  0.6902E-01  0.6902E-01
    -13.077  0.5028E-02  0.5028E-02  0.6964E-01  0.6964E-01
    -12.954  0.7571E-02  0.7571E-02  0.7057E-01  0.7057E-01
    -12.831  0.1231E-01  0.1231E-01  0.7209E-01  0.7209E-01
    -12.708  0.1645E-01  0.1645E-01  0.7411E-01  0.7411E-01
    -12.585  0.5564E-02  0.5564E-02  0.7479E-01  0.7479E-01
    -12.462  0.8668E-02  0.8668E-02  0.7586E-01  0.7586E-01
    -12.339  0.1053E-01  0.1053E-01  0.7715E-01  0.7715E-01
    -12.217  0.5427E-02  0.5427E-02  0.7782E-01  0.7782E-01
    -12.094  0.4301E-02  0.4301E-02  0.7835E-01  0.7835E-01
    -11.971  0.1000E-01  0.1000E-01  0.7958E-01  0.7958E-01
    -11.848  0.9853E-02  0.9853E-02  0.8079E-01  0.8079E-01
    -11.725  0.1354E-01  0.1354E-01  0.8245E-01  0.8245E-01
    -11.602  0.1051E-01  0.1051E-01  0.8374E-01  0.8374E-01
    -11.479  0.1456E-01  0.1456E-01  0.8553E-01  0.8553E-01
    -11.356  0.8955E-02  0.8955E-02  0.8663E-01  0.8663E-01
    -11.233  0.1235E-01  0.1235E-01  0.8815E-01  0.8815E-01
    -11.111  0.9664E-02  0.9664E-02  0.8934E-01  0.8934E-01
    -10.988  0.8122E-02  0.8122E-02  0.9033E-01  0.9033E-01
    -10.865  0.7401E-02  0.7401E-02  0.9124E-01  0.9124E-01
    -10.742  0.4354E-02  0.4354E-02  0.9178E-01  0.9178E-01
    -10.619  0.9214E-02  0.9214E-02  0.9291E-01  0.9291E-01
    -10.496  0.1376E-01  0.1376E-01  0.9460E-01  0.9460E-01
    -10.373  0.1486E-01  0.1486E-01  0.9643E-01  0.9643E-01
    -10.250  0.1656E-01  0.1656E-01  0.9846E-01  0.9846E-01
    -10.127  0.2208E-01  0.2208E-01  0.1012E+00  0.1012E+00
    -10.004  0.1699E-01  0.1699E-01  0.1033E+00  0.1033E+00
     -9.882  0.1734E-01  0.1734E-01  0.1054E+00  0.1054E+00
     -9.759  0.2379E-01  0.2379E-01  0.1083E+00  0.1083E+00
     -9.636  0.2720E-01  0.2720E-01  0.1117E+00  0.1117E+00
     -9.513  0.1934E-01  0.1934E-01  0.1140E+00  0.1140E+00
     -9.390  0.1841E-01  0.1841E-01  0.1163E+00  0.1163E+00
     -9.267  0.2130E-01  0.2130E-01  0.1189E+00  0.1189E+00
     -9.144  0.2220E-01  0.2220E-01  0.1216E+00  0.1216E+00
     -9.021  0.2215E-01  0.2215E-01  0.1244E+00  0.1244E+00
     -8.898  0.2093E-01  0.2093E-01  0.1269E+00  0.1269E+00
     -8.775  0.2853E-01  0.2853E-01  0.1304E+00  0.1304E+00
     -8.653  0.8053E-02  0.8053E-02  0.1314E+00  0.1314E+00
     -8.530  0.1247E-01  0.1247E-01  0.1330E+00  0.1330E+00
     -8.407  0.2381E-01  0.2381E-01  0.1359E+00  0.1359E+00
     -8.284  0.2250E-01  0.2250E-01  0.1387E+00  0.1387E+00
     -8.161  0.1883E-01  0.1883E-01  0.1410E+00  0.1410E+00
     -8.038  0.1390E-01  0.1390E-01  0.1427E+00  0.1427E+00
     -7.915  0.8942E-02  0.8942E-02  0.1438E+00  0.1438E+00
     -7.792  0.1389E-01  0.1389E-01  0.1455E+00  0.1455E+00
     -7.669  0.8663E-02  0.8663E-02  0.1466E+00  0.1466E+00
     -7.547  0.1426E-01  0.1426E-01  0.1483E+00  0.1483E+00
     -7.424  0.2910E-01  0.2910E-01  0.1519E+00  0.1519E+00
     -7.301  0.1650E-01  0.1650E-01  0.1539E+00  0.1539E+00
     -7.178  0.2068E-01  0.2068E-01  0.1565E+00  0.1565E+00
     -7.055  0.1268E-01  0.1268E-01  0.1580E+00  0.1580E+00
     -6.932  0.1632E-01  0.1632E-01  0.1600E+00  0.1600E+00
     -6.809  0.7085E-02  0.7085E-02  0.1609E+00  0.1609E+00
     -6.686  0.1099E-01  0.1099E-01  0.1622E+00  0.1622E+00
     -6.563  0.1494E-01  0.1494E-01  0.1641E+00  0.1641E+00
     -6.440  0.9331E-02  0.9331E-02  0.1652E+00  0.1652E+00
     -6.318  0.2451E-01  0.2451E-01  0.1682E+00  0.1682E+00
     -6.195  0.1300E-01  0.1300E-01  0.1698E+00  0.1698E+00
     -6.072  0.1544E-01  0.1544E-01  0.1717E+00  0.1717E+00
     -5.949  0.1040E-01  0.1040E-01  0.1730E+00  0.1730E+00
     -5.826  0.7579E-02  0.7579E-02  0.1739E+00  0.1739E+00
     -5.703  0.9764E-02  0.9764E-02  0.1751E+00  0.1751E+00
     -5.580  0.4652E-02  0.4652E-02  0.1757E+00  0.1757E+00
     -5.457  0.1434E-02  0.1434E-02  0.1759E+00  0.1759E+00
     -5.334  0.6518E-02  0.6518E-02  0.1767E+00  0.1767E+00
     -5.211  0.1939E-01  0.1939E-01  0.1791E+00  0.1791E+00
     -5.089  0.1628E-01  0.1628E-01  0.1811E+00  0.1811E+00
     -4.966  0.1229E-01  0.1229E-01  0.1826E+00  0.1826E+00
     -4.843  0.9674E-02  0.9674E-02  0.1838E+00  0.1838E+00
     -4.720  0.2522E-02  0.2522E-02  0.1841E+00  0.1841E+00
     -4.597  0.2720E-02  0.2720E-02  0.1844E+00  0.1844E+00
     -4.474  0.9738E-02  0.9738E-02  0.1856E+00  0.1856E+00
     -4.351  0.1651E-01  0.1651E-01  0.1876E+00  0.1876E+00
     -4.228  0.1360E-01  0.1360E-01  0.1893E+00  0.1893E+00
     -4.105  0.9450E-02  0.9450E-02  0.1905E+00  0.1905E+00
     -3.983  0.2159E-01  0.2159E-01  0.1931E+00  0.1931E+00
     -3.860  0.7115E-02  0.7115E-02  0.1940E+00  0.1940E+00
     -3.737  0.1812E-02  0.1812E-02  0.1942E+00  0.1942E+00
     -3.614  0.1852E-02  0.1852E-02  0.1945E+00  0.1945E+00
     -3.491  0.3689E-02  0.3689E-02  0.1949E+00  0.1949E+00
     -3.368  0.2542E-02  0.2542E-02  0.1952E+00  0.1952E+00
     -3.245  0.8739E-03  0.8739E-03  0.1953E+00  0.1953E+00
     -3.122  0.1422E-02  0.1422E-02  0.1955E+00  0.1955E+00
     -2.999  0.1048E-02  0.1048E-02  0.1956E+00  0.1956E+00
     -2.876  0.1920E-02  0.1920E-02  0.1959E+00  0.1959E+00
     -2.754  0.1102E-02  0.1102E-02  0.1960E+00  0.1960E+00
     -2.631  0.7464E-05  0.7464E-05  0.1960E+00  0.1960E+00
     -2.508  0.1916E-02  0.1916E-02  0.1962E+00  0.1962E+00
     -2.385  0.2134E-02  0.2134E-02  0.1965E+00  0.1965E+00
     -2.262  0.1592E-04  0.1592E-04  0.1965E+00  0.1965E+00
     -2.139  0.1490E-02  0.1490E-02  0.1967E+00  0.1967E+00
     -2.016  0.2436E-02  0.2436E-02  0.1970E+00  0.1970E+00
     -1.893  0.2402E-02  0.2402E-02  0.1973E+00  0.1973E+00
     -1.770  0.4785E-02  0.4785E-02  0.1979E+00  0.1979E+00
     -1.647  0.1088E-02  0.1088E-02  0.1980E+00  0.1980E+00
     -1.525  0.3221E-03  0.3221E-03  0.1980E+00  0.1980E+00
     -1.402  0.6229E-02  0.6229E-02  0.1988E+00  0.1988E+00
     -1.279  0.4774E-02  0.4774E-02  0.1994E+00  0.1994E+00
     -1.156  0.5704E-02  0.5704E-02  0.2001E+00  0.2001E+00
     -1.033  0.1724E-01  0.1724E-01  0.2022E+00  0.2022E+00
     -0.910  0.5996E-02  0.5996E-02  0.2029E+00  0.2029E+00
     -0.787  0.6349E-02  0.6349E-02  0.2037E+00  0.2037E+00
     -0.664  0.1403E-01  0.1403E-01  0.2055E+00  0.2055E+00
     -0.541  0.4954E-02  0.4954E-02  0.2061E+00  0.2061E+00
     -0.419  0.5217E-02  0.5217E-02  0.2067E+00  0.2067E+00
     -0.296  0.8074E-02  0.8074E-02  0.2077E+00  0.2077E+00
     -0.173  0.9049E-02  0.9049E-02  0.2088E+00  0.2088E+00
     -0.050  0.1187E-01  0.1187E-01  0.2103E+00  0.2103E+00
      0.073  0.1122E-01  0.1122E-01  0.2116E+00  0.2116E+00
      0.196  0.2872E-02  0.2872E-02  0.2120E+00  0.2120E+00
      0.319  0.1246E-02  0.1246E-02  0.2122E+00  0.2122E+00
      0.442  0.6837E-02  0.6837E-02  0.2130E+00  0.2130E+00
      0.565  0.7616E-02  0.7616E-02  0.2139E+00  0.2139E+00
      0.688  0.5402E-02  0.5402E-02  0.2146E+00  0.2146E+00
      0.810  0.4557E-02  0.4557E-02  0.2152E+00  0.2152E+00
      0.933  0.8364E-02  0.8365E-02  0.2162E+00  0.2162E+00
      1.056  0.1179E-01  0.1179E-01  0.2176E+00  0.2176E+00
      1.179  0.2477E-02  0.2477E-02  0.2179E+00  0.2179E+00
      1.302  0.1539E-01  0.1539E-01  0.2198E+00  0.2198E+00
      1.425  0.2173E-01  0.2173E-01  0.2225E+00  0.2225E+00
      1.548  0.7998E-02  0.7998E-02  0.2235E+00  0.2235E+00
      1.671  0.6893E-02  0.6893E-02  0.2243E+00  0.2243E+00
      1.794  0.7606E-02  0.7606E-02  0.2253E+00  0.2253E+00
      1.917  0.1332E-01  0.1332E-01  0.2269E+00  0.2269E+00
      2.039  0.2944E-01  0.2944E-01  0.2305E+00  0.2305E+00
      2.162  0.6667E-02  0.6667E-02  0.2313E+00  0.2313E+00
      2.285  0.1476E-01  0.1476E-01  0.2331E+00  0.2331E+00
      2.408  0.2284E-01  0.2284E-01  0.2360E+00  0.2360E+00
      2.531  0.1684E-01  0.1684E-01  0.2380E+00  0.2380E+00
      2.654  0.8518E-02  0.8518E-02  0.2391E+00  0.2391E+00
      2.777  0.1868E-01  0.1868E-01  0.2414E+00  0.2414E+00
      2.900  0.3968E-01  0.3968E-01  0.2462E+00  0.2462E+00
      3.023  0.4347E-01  0.4347E-01  0.2516E+00  0.2516E+00
      3.145  0.6732E-02  0.6731E-02  0.2524E+00  0.2524E+00
      3.268  0.1378E-01  0.1378E-01  0.2541E+00  0.2541E+00
      3.391  0.2032E-01  0.2032E-01  0.2566E+00  0.2566E+00
      3.514  0.2578E-01  0.2578E-01  0.2598E+00  0.2598E+00
      3.637  0.1216E-01  0.1216E-01  0.2613E+00  0.2613E+00
      3.760  0.2045E-01  0.2045E-01  0.2638E+00  0.2638E+00
      3.883  0.3088E-01  0.3088E-01  0.2676E+00  0.2676E+00
      4.006  0.3111E-01  0.3111E-01  0.2714E+00  0.2714E+00
      4.129  0.1312E-01  0.1312E-01  0.2730E+00  0.2730E+00
      4.252  0.9424E-02  0.9424E-02  0.2742E+00  0.2742E+00
      4.374  0.6719E-02  0.6718E-02  0.2750E+00  0.2750E+00
      4.497  0.4948E-04  0.4945E-04  0.2750E+00  0.2750E+00
      4.620  0.1951E-10  0.1948E-10  0.2750E+00  0.2750E+00
      4.743  0.0000E+00  0.0000E+00  0.2750E+00  0.2750E+00
      4.866  0.0000E+00  0.0000E+00  0.2750E+00  0.2750E+00
      4.989  0.0000E+00  0.0000E+00  0.2750E+00  0.2750E+00
      5.112  0.0000E+00  0.0000E+00  0.2750E+00  0.2750E+00
      5.235  0.0000E+00  0.0000E+00  0.2750E+00  0.2750E+00
      5.358  0.0000E+00  0.0000E+00  0.2750E+00  0.2750E+00
      5.481  0.0000E+00  0.0000E+00  0.2750E+00  0.2750E+00
      5.603  0.0000E+00  0.0000E+00  0.2750E+00  0.2750E+00
      5.726  0.0000E+00  0.0000E+00  0.2750E+00  0.2750E+00
      5.849  0.0000E+00  0.0000E+00  0.2750E+00  0.2750E+00
      5.972  0.0000E+00  0.0000E+00  0.2750E+00  0.2750E+00
