 vasp.6.4.2 20Jul23 (build Aug 26 2025 15:10:52) complex                        
  
 POSCAR found type information on POSCAR C F N H O 
 05/POSCAR found :  5 types and      95 ions
 Reading from existing POTCAR
 scaLAPACK will be used
 -----------------------------------------------------------------------------
|                                                                             |
|           W    W    AA    RRRRR   N    N  II  N    N   GGGG   !!!           |
|           W    W   A  A   R    R  NN   N  II  NN   N  G    G  !!!           |
|           W    W  A    A  R    R  N N  N  II  N N  N  G       !!!           |
|           W WW W  AAAAAA  RRRRR   N  N N  II  N  N N  G  GGG   !            |
|           WW  WW  A    A  R   R   N   NN  II  N   NN  G    G                |
|           W    W  A    A  R    R  N    N  II  N    N   GGGG   !!!           |
|                                                                             |
|     For optimal performance we recommend to set                             |
|       NCORE = 2 up to number-of-cores-per-socket                            |
|     NCORE specifies how many cores store one orbital (NPAR=cpu/NCORE).      |
|     This setting can greatly improve the performance of VASP for DFT.       |
|     The default, NCORE=1 might be grossly inefficient on modern             |
|     multi-core architectures or massively parallel machines. Do your        |
|     own testing! More info at https://www.vasp.at/wiki/index.php/NCORE      |
|     Unfortunately you need to use the default for GW and RPA                |
|     calculations (for HF NCORE is supported but not extensively tested      |
|     yet).                                                                   |
|                                                                             |
 -----------------------------------------------------------------------------

 Reading from existing POTCAR
 LDA part: xc-table for Pade appr. of Perdew
 POSCAR found type information on POSCAR C F N H O 
 00/POSCAR found :  5 types and      95 ions
 POSCAR found type information on POSCAR C F N H O 
 06/POSCAR found :  5 types and      95 ions
 Jacobian:    33.5511073471780     
 POSCAR found type information on POSCAR C F N H O 
 00/POSCAR found :  5 types and      95 ions
 POSCAR found type information on POSCAR C F N H O 
 06/POSCAR found :  5 types and      95 ions
 POSCAR, INCAR and KPOINTS ok, starting setup
 FFT: planning ... GRIDC
 FFT: planning ... GRID_SOFT
 FFT: planning ... GRID
 WAVECAR not read
 entering main loop
       N       E                     dE             d eps       ncg     rms          rms(c)
DAV:   1     0.361236728144E+04    0.36124E+04   -0.14972E+05  4780   0.109E+03
DAV:   2    -0.185992567306E+03   -0.37984E+04   -0.35856E+04  6610   0.269E+02
DAV:   3    -0.852081145593E+03   -0.66609E+03   -0.66293E+03  5460   0.118E+02
DAV:   4    -0.874275276504E+03   -0.22194E+02   -0.22087E+02  5440   0.268E+01
DAV:   5    -0.874965657033E+03   -0.69038E+00   -0.68936E+00  6240   0.403E+00    0.519E+01
DAV:   6    -0.857810715532E+03    0.17155E+02   -0.21301E+01  5360   0.836E+00    0.337E+01
DAV:   7    -0.837335987110E+03    0.20475E+02   -0.32861E+01  5210   0.926E+00    0.204E+01
DAV:   8    -0.832662423424E+03    0.46736E+01   -0.20811E+01  5200   0.692E+00    0.813E+00
DAV:   9    -0.832757664546E+03   -0.95241E-01   -0.97322E-01  5210   0.187E+00    0.355E+00
DAV:  10    -0.832597103260E+03    0.16056E+00   -0.46877E-01  5090   0.121E+00    0.108E+00
DAV:  11    -0.832582720703E+03    0.14383E-01   -0.10210E-01  5050   0.590E-01    0.280E-01
DAV:  12    -0.832583067616E+03   -0.34691E-03   -0.11049E-02  5290   0.244E-01    0.129E-01
DAV:  13    -0.832583285694E+03   -0.21808E-03   -0.15299E-03  5180   0.796E-02    0.960E-02
DAV:  14    -0.832583332053E+03   -0.46359E-04   -0.28250E-04  5340   0.379E-02    0.565E-02
DAV:  15    -0.832583391119E+03   -0.59067E-04   -0.14183E-04  4860   0.245E-02    0.254E-02
DAV:  16    -0.832583391509E+03   -0.39008E-06   -0.31741E-05  4340   0.151E-02
   1 F= -.84025662E+03 E0= -.84025662E+03  d E =-.840257E+03  mag=     0.0001
quench:  g(F)=  0.000E+00 g(S)=  0.000E+00 dE (1.order)= 0.000E+00
 bond charge predicted
       N       E                     dE             d eps       ncg     rms          rms(c)
DAV:   1    -0.832584505607E+03   -0.11145E-02   -0.75384E-02  4800   0.293E-01    0.724E-02
DAV:   2    -0.832584569499E+03   -0.63892E-04   -0.14329E-03  4640   0.391E-02    0.434E-02
DAV:   3    -0.832584553896E+03    0.15602E-04   -0.87762E-05  4110   0.111E-02    0.244E-02
DAV:   4    -0.832584557575E+03   -0.36788E-05   -0.10451E-05  3310   0.439E-03
   2 F= -.84025772E+03 E0= -.84025772E+03  d E =-.109834E-02  mag=     0.0000
quench:  g(F)=  0.000E+00 g(S)=  0.000E+00 dE (1.order)= 0.000E+00
 bond charge predicted
       N       E                     dE             d eps       ncg     rms          rms(c)
DAV:   1    -0.832585677580E+03   -0.11237E-02   -0.19013E-01  4680   0.488E-01    0.107E-01
DAV:   2    -0.832585867432E+03   -0.18985E-03   -0.34383E-03  4610   0.642E-02    0.630E-02
DAV:   3    -0.832585847113E+03    0.20320E-04   -0.13066E-04  4340   0.145E-02    0.405E-02
DAV:   4    -0.832585861418E+03   -0.14305E-04   -0.27129E-05  3490   0.770E-03    0.189E-02
DAV:   5    -0.832585875345E+03   -0.13927E-04   -0.17840E-05  3440   0.505E-03    0.514E-03
DAV:   6    -0.832585875101E+03    0.24456E-06   -0.46265E-06  3240   0.356E-03
   3 F= -.84025891E+03 E0= -.84025891E+03  d E =-.118795E-02  mag=    -0.0000
quench:  g(F)=  0.000E+00 g(S)=  0.000E+00 dE (1.order)= 0.000E+00
 bond charge predicted
       N       E                     dE             d eps       ncg     rms          rms(c)
DAV:   1    -0.832587386714E+03   -0.15114E-02   -0.20981E-01  4630   0.569E-01    0.988E-02
DAV:   2    -0.832587660086E+03   -0.27337E-03   -0.37697E-03  4620   0.747E-02    0.632E-02
DAV:   3    -0.832587644922E+03    0.15164E-04   -0.61401E-05  4260   0.122E-02    0.477E-02
DAV:   4    -0.832587678950E+03   -0.34028E-04   -0.98039E-05  4160   0.146E-02    0.110E-02
DAV:   5    -0.832587682365E+03   -0.34152E-05   -0.13251E-05  3360   0.532E-03
   4 F= -.84026054E+03 E0= -.84026054E+03  d E =-.163199E-02  mag=    -0.0000
quench:  g(F)=  0.000E+00 g(S)=  0.000E+00 dE (1.order)= 0.000E+00
 bond charge predicted
       N       E                     dE             d eps       ncg     rms          rms(c)
DAV:   1    -0.832589642793E+03   -0.19638E-02   -0.21529E-01  4630   0.631E-01    0.991E-02
DAV:   2    -0.832589966468E+03   -0.32367E-03   -0.40840E-03  4600   0.845E-02    0.760E-02
DAV:   3    -0.832589938429E+03    0.28039E-04   -0.78221E-05  4380   0.141E-02    0.589E-02
DAV:   4    -0.832589991289E+03   -0.52860E-04   -0.29449E-04  4200   0.227E-02    0.246E-02
DAV:   5    -0.832589983933E+03    0.73557E-05   -0.37057E-05  3580   0.901E-03
   5 F= -.84026263E+03 E0= -.84026263E+03  d E =-.209471E-02  mag=    -0.0000
quench:  g(F)=  0.000E+00 g(S)=  0.000E+00 dE (1.order)= 0.000E+00
 bond charge predicted
       N       E                     dE             d eps       ncg     rms          rms(c)
DAV:   1    -0.832591640588E+03   -0.16493E-02   -0.31028E-01  4600   0.754E-01    0.118E-01
DAV:   2    -0.832592124788E+03   -0.48420E-03   -0.60289E-03  4600   0.101E-01    0.887E-02
DAV:   3    -0.832592087594E+03    0.37194E-04   -0.10777E-04  4495   0.165E-02    0.690E-02
DAV:   4    -0.832592159943E+03   -0.72349E-04   -0.42931E-04  4240   0.271E-02    0.287E-02
DAV:   5    -0.832592150135E+03    0.98075E-05   -0.47856E-05  3760   0.101E-02
   6 F= -.84026456E+03 E0= -.84026456E+03  d E =-.192801E-02  mag=    -0.0000
quench:  g(F)=  0.000E+00 g(S)=  0.000E+00 dE (1.order)= 0.000E+00
 bond charge predicted
       N       E                     dE             d eps       ncg     rms          rms(c)
DAV:   1    -0.832594034388E+03   -0.18744E-02   -0.51487E-01  4570   0.920E-01    0.156E-01
DAV:   2    -0.832594836680E+03   -0.80229E-03   -0.10301E-02  4600   0.123E-01    0.101E-01
DAV:   3    -0.832594799732E+03    0.36948E-04   -0.15038E-04  4810   0.190E-02    0.775E-02
DAV:   4    -0.832594883312E+03   -0.83580E-04   -0.35702E-04  4280   0.262E-02    0.197E-02
DAV:   5    -0.832594885856E+03   -0.25441E-05   -0.41584E-05  3765   0.913E-03
   7 F= -.84026703E+03 E0= -.84026703E+03  d E =-.247088E-02  mag=    -0.0000
quench:  g(F)=  0.000E+00 g(S)=  0.000E+00 dE (1.order)= 0.000E+00
 bond charge predicted
       N       E                     dE             d eps       ncg     rms          rms(c)
DAV:   1    -0.832596839255E+03   -0.19559E-02   -0.87324E-01  4560   0.117E+00    0.215E-01
DAV:   2    -0.832598210944E+03   -0.13717E-02   -0.18246E-02  4595   0.158E-01    0.130E-01
DAV:   3    -0.832598151283E+03    0.59661E-04   -0.30527E-04  5060   0.260E-02    0.968E-02
DAV:   4    -0.832598231081E+03   -0.79799E-04   -0.35194E-04  4255   0.271E-02    0.238E-02
DAV:   5    -0.832598258006E+03   -0.26925E-04   -0.66602E-05  4060   0.106E-02    0.145E-02
DAV:   6    -0.832598255837E+03    0.21687E-05   -0.22715E-05  3520   0.824E-03
   8 F= -.84027009E+03 E0= -.84027009E+03  d E =-.305865E-02  mag=    -0.0000
quench:  g(F)=  0.000E+00 g(S)=  0.000E+00 dE (1.order)= 0.000E+00
 bond charge predicted
       N       E                     dE             d eps       ncg     rms          rms(c)
DAV:   1    -0.832600729252E+03   -0.24712E-02   -0.97553E-01  4545   0.133E+00    0.218E-01
DAV:   2    -0.832602355979E+03   -0.16267E-02   -0.20292E-02  4595   0.178E-01    0.142E-01
DAV:   3    -0.832602297534E+03    0.58445E-04   -0.28599E-04  5200   0.273E-02    0.109E-01
DAV:   4    -0.832602437899E+03   -0.14037E-03   -0.70955E-04  4395   0.381E-02    0.273E-02
DAV:   5    -0.832602441825E+03   -0.39261E-05   -0.90667E-05  4660   0.137E-02
   9 F= -.84027393E+03 E0= -.84027393E+03  d E =-.383626E-02  mag=    -0.0000
quench:  g(F)=  0.000E+00 g(S)=  0.000E+00 dE (1.order)= 0.000E+00
 bond charge predicted
       N       E                     dE             d eps       ncg     rms          rms(c)
DAV:   1    -0.832605184877E+03   -0.27470E-02   -0.11286E+00  4540   0.153E+00    0.231E-01
DAV:   2    -0.832607188528E+03   -0.20037E-02   -0.23837E-02  4570   0.208E-01    0.169E-01
DAV:   3    -0.832607097128E+03    0.91399E-04   -0.38211E-04  5250   0.323E-02    0.132E-01
DAV:   4    -0.832607339032E+03   -0.24190E-03   -0.15360E-03  4490   0.532E-02    0.523E-02
DAV:   5    -0.832607306813E+03    0.32219E-04   -0.17710E-04  4850   0.197E-02    0.384E-02
DAV:   6    -0.832607301926E+03    0.48873E-05   -0.27949E-04  4055   0.194E-02    0.132E-02
DAV:   7    -0.832607299931E+03    0.19946E-05   -0.17840E-05  3580   0.600E-03
  10 F= -.84027839E+03 E0= -.84027839E+03  d E =-.446297E-02  mag=     0.0000
quench:  g(F)=  0.000E+00 g(S)=  0.000E+00 dE (1.order)= 0.000E+00
 bond charge predicted
       N       E                     dE             d eps       ncg     rms          rms(c)
DAV:   1    -0.832608873916E+03   -0.15720E-02   -0.20961E+00  4540   0.203E+00    0.327E-01
DAV:   2    -0.832612563156E+03   -0.36892E-02   -0.45301E-02  4595   0.273E-01    0.213E-01
DAV:   3    -0.832612426715E+03    0.13644E-03   -0.64708E-04  5290   0.418E-02    0.164E-01
DAV:   4    -0.832612677732E+03   -0.25102E-03   -0.15516E-03  4550   0.575E-02    0.407E-02
DAV:   5    -0.832612687790E+03   -0.10058E-04   -0.20175E-04  5000   0.208E-02    0.335E-02
DAV:   6    -0.832612675357E+03    0.12433E-04   -0.17775E-04  4095   0.179E-02    0.133E-02
DAV:   7    -0.832612674721E+03    0.63612E-06   -0.11865E-05  3750   0.545E-03
  11 F= -.84028328E+03 E0= -.84028328E+03  d E =-.489328E-02  mag=     0.0000
quench:  g(F)=  0.000E+00 g(S)=  0.000E+00 dE (1.order)= 0.000E+00
 bond charge predicted
       N       E                     dE             d eps       ncg     rms          rms(c)
DAV:   1    -0.832612127304E+03    0.54805E-03   -0.35995E+00  4540   0.271E+00    0.439E-01
DAV:   2    -0.832618563042E+03   -0.64357E-02   -0.80312E-02  4575   0.369E-01    0.277E-01
DAV:   3    -0.832618282262E+03    0.28078E-03   -0.12200E-03  5380   0.568E-02    0.210E-01
DAV:   4    -0.832618538052E+03   -0.25579E-03   -0.21508E-03  4860   0.702E-02    0.499E-02
DAV:   5    -0.832618593070E+03   -0.55018E-04   -0.31416E-04  4940   0.258E-02    0.373E-02
DAV:   6    -0.832618579950E+03    0.13120E-04   -0.19048E-04  4250   0.201E-02    0.163E-02
DAV:   7    -0.832618579875E+03    0.74222E-07   -0.16871E-05  3680   0.672E-03
  12 F= -.84028859E+03 E0= -.84028859E+03  d E =-.530850E-02  mag=     0.0000
quench:  g(F)=  0.000E+00 g(S)=  0.000E+00 dE (1.order)= 0.000E+00
 bond charge predicted
       N       E                     dE             d eps       ncg     rms          rms(c)
DAV:   1    -0.832617480159E+03    0.10998E-02   -0.40621E+00  4510   0.323E+00    0.444E-01
DAV:   2    -0.832625152211E+03   -0.76721E-02   -0.90084E-02  4595   0.443E-01    0.319E-01
DAV:   3    -0.832624729637E+03    0.42257E-03   -0.14376E-03  5390   0.675E-02    0.249E-01
DAV:   4    -0.832625202857E+03   -0.47322E-03   -0.47678E-03  4885   0.104E-01    0.895E-02
DAV:   5    -0.832625140384E+03    0.62474E-04   -0.54101E-04  4920   0.375E-02    0.680E-02
DAV:   6    -0.832625098563E+03    0.41821E-04   -0.78203E-04  4190   0.352E-02    0.206E-02
DAV:   7    -0.832625096320E+03    0.22431E-05   -0.44445E-05  3970   0.103E-02
  13 F= -.84029439E+03 E0= -.84029439E+03  d E =-.579418E-02  mag=     0.0000
quench:  g(F)=  0.000E+00 g(S)=  0.000E+00 dE (1.order)= 0.000E+00
 bond charge predicted
       N       E                     dE             d eps       ncg     rms          rms(c)
DAV:   1    -0.832613365110E+03    0.11733E-01   -0.91259E+00  4500   0.462E+00    0.705E-01
DAV:   2    -0.832630711086E+03   -0.17346E-01   -0.21780E-01  4620   0.647E-01    0.439E-01
DAV:   3    -0.832629783682E+03    0.92740E-03   -0.38853E-03  5450   0.102E-01    0.330E-01
DAV:   4    -0.832629784653E+03   -0.97061E-06   -0.44960E-03  5060   0.110E-01    0.914E-02
DAV:   5    -0.832629998714E+03   -0.21406E-03   -0.95424E-04  4940   0.445E-02    0.570E-02
DAV:   6    -0.832629957119E+03    0.41595E-04   -0.37390E-04  4540   0.305E-02    0.258E-02
DAV:   7    -0.832629963938E+03   -0.68188E-05   -0.43506E-05  4190   0.111E-02
  14 F= -.84029840E+03 E0= -.84029840E+03  d E =-.401593E-02  mag=     0.0000
quench:  g(F)=  0.000E+00 g(S)=  0.000E+00 dE (1.order)= 0.000E+00
 bond charge predicted
       N       E                     dE             d eps       ncg     rms          rms(c)
DAV:   1    -0.832633411320E+03   -0.34542E-02   -0.19845E-01  4715   0.772E-01    0.105E-01
DAV:   2    -0.832633813759E+03   -0.40244E-03   -0.56698E-03  4980   0.121E-01    0.927E-02
DAV:   3    -0.832633734494E+03    0.79266E-04   -0.19584E-04  5590   0.257E-02    0.722E-02
DAV:   4    -0.832633659255E+03    0.75239E-04   -0.15408E-04  4610   0.230E-02    0.348E-02
DAV:   5    -0.832633654376E+03    0.48789E-05   -0.72266E-05  4170   0.142E-02
  15 F= -.84030209E+03 E0= -.84030209E+03  d E =-.368381E-02  mag=     0.0000
quench:  g(F)=  0.000E+00 g(S)=  0.000E+00 dE (1.order)= 0.000E+00
 bond charge predicted
       N       E                     dE             d eps       ncg     rms          rms(c)
DAV:   1    -0.832631224622E+03    0.24346E-02   -0.19024E-01  4625   0.809E-01    0.108E-01
DAV:   2    -0.832631634291E+03   -0.40967E-03   -0.56947E-03  4970   0.127E-01    0.931E-02
DAV:   3    -0.832631559785E+03    0.74506E-04   -0.20955E-04  5560   0.263E-02    0.706E-02
DAV:   4    -0.832631505073E+03    0.54712E-04   -0.14772E-04  4540   0.223E-02    0.354E-02
DAV:   5    -0.832631503005E+03    0.20677E-05   -0.50478E-05  3960   0.128E-02
  16 F= -.84029992E+03 E0= -.84029992E+03  d E =0.216721E-02  mag=     0.0000
quench:  g(F)=  0.000E+00 g(S)=  0.000E+00 dE (1.order)= 0.000E+00
 bond charge predicted
       N       E                     dE             d eps       ncg     rms          rms(c)
DAV:   1    -0.832632700435E+03   -0.11954E-02   -0.12222E-02  4680   0.183E-01    0.255E-02
DAV:   2    -0.832632723383E+03   -0.22947E-04   -0.34974E-04  5000   0.291E-02    0.221E-02
DAV:   3    -0.832632717970E+03    0.54128E-05   -0.10889E-05  3660   0.637E-03
  17 F= -.84030113E+03 E0= -.84030113E+03  d E =-.121444E-02  mag=     0.0000
quench:  g(F)=  0.000E+00 g(S)=  0.000E+00 dE (1.order)= 0.000E+00
 bond charge predicted
       N       E                     dE             d eps       ncg     rms          rms(c)
DAV:   1    -0.832633998696E+03   -0.12753E-02   -0.37401E-02  4700   0.321E-01    0.496E-02
DAV:   2    -0.832634058857E+03   -0.60161E-04   -0.95832E-04  5000   0.486E-02    0.422E-02
DAV:   3    -0.832634042107E+03    0.16750E-04   -0.33706E-05  4100   0.109E-02    0.318E-02
DAV:   4    -0.832634030957E+03    0.11151E-04   -0.38009E-05  3680   0.113E-02    0.131E-02
DAV:   5    -0.832634032184E+03   -0.12275E-05   -0.13580E-05  3340   0.611E-03
  18 F= -.84030244E+03 E0= -.84030244E+03  d E =-.131204E-02  mag=    -0.0000
quench:  g(F)=  0.000E+00 g(S)=  0.000E+00 dE (1.order)= 0.000E+00
 bond charge predicted
       N       E                     dE             d eps       ncg     rms          rms(c)
DAV:   1    -0.832634251349E+03   -0.22039E-03   -0.55864E-02  4680   0.395E-01    0.548E-02
DAV:   2    -0.832634361444E+03   -0.11009E-03   -0.15186E-03  4910   0.608E-02    0.444E-02
DAV:   3    -0.832634343694E+03    0.17750E-04   -0.45173E-05  4350   0.124E-02    0.336E-02
DAV:   4    -0.832634331940E+03    0.11753E-04   -0.40419E-05  3720   0.118E-02    0.150E-02
DAV:   5    -0.832634333501E+03   -0.15607E-05   -0.16272E-05  3360   0.679E-03
  19 F= -.84030274E+03 E0= -.84030274E+03  d E =-.295475E-03  mag=    -0.0000
quench:  g(F)=  0.000E+00 g(S)=  0.000E+00 dE (1.order)= 0.000E+00
 bond charge predicted
       N       E                     dE             d eps       ncg     rms          rms(c)
DAV:   1    -0.832634360808E+03   -0.28868E-04   -0.58390E-05  4060   0.147E-02    0.319E-03
DAV:   2    -0.832634360862E+03   -0.54315E-07   -0.20207E-06  2420   0.274E-03
  20 F= -.84030277E+03 E0= -.84030277E+03  d E =-.266206E-04  mag=    -0.0000
quench:  g(F)=  0.000E+00 g(S)=  0.000E+00 dE (1.order)= 0.000E+00
 bond charge predicted
       N       E                     dE             d eps       ncg     rms          rms(c)
DAV:   1    -0.832634410633E+03   -0.49825E-04   -0.21994E-04  4280   0.282E-02    0.392E-03
DAV:   2    -0.832634410976E+03   -0.34332E-06   -0.58518E-06  2560   0.434E-03
  21 F= -.84030282E+03 E0= -.84030282E+03  d E =-.485503E-04  mag=    -0.0000
quench:  g(F)=  0.000E+00 g(S)=  0.000E+00 dE (1.order)= 0.000E+00
 bond charge predicted
       N       E                     dE             d eps       ncg     rms          rms(c)
DAV:   1    -0.832634477262E+03   -0.66630E-04   -0.47456E-04  4390   0.415E-02    0.631E-03
DAV:   2    -0.832634477927E+03   -0.66517E-06   -0.12415E-05  2860   0.624E-03
  22 F= -.84030288E+03 E0= -.84030288E+03  d E =-.646121E-04  mag=    -0.0000
quench:  g(F)=  0.000E+00 g(S)=  0.000E+00 dE (1.order)= 0.000E+00
 bond charge predicted
       N       E                     dE             d eps       ncg     rms          rms(c)
DAV:   1    -0.832634552971E+03   -0.75709E-04   -0.79242E-04  4460   0.537E-02    0.887E-03
DAV:   2    -0.832634553895E+03   -0.92437E-06   -0.19840E-05  3420   0.783E-03
  23 F= -.84030295E+03 E0= -.84030295E+03  d E =-.728645E-04  mag=    -0.0000
quench:  g(F)=  0.000E+00 g(S)=  0.000E+00 dE (1.order)= 0.000E+00
 bond charge predicted
       N       E                     dE             d eps       ncg     rms          rms(c)
DAV:   1    -0.832634632157E+03   -0.79186E-04   -0.11531E-03  4470   0.648E-02    0.111E-02
DAV:   2    -0.832634633472E+03   -0.13148E-05   -0.28316E-05  3760   0.936E-03
  24 F= -.84030303E+03 E0= -.84030303E+03  d E =-.757634E-04  mag=    -0.0000
quench:  g(F)=  0.000E+00 g(S)=  0.000E+00 dE (1.order)= 0.000E+00
 bond charge predicted
       N       E                     dE             d eps       ncg     rms          rms(c)
DAV:   1    -0.832634712443E+03   -0.80286E-04   -0.15491E-03  4450   0.751E-02    0.130E-02
DAV:   2    -0.832634714238E+03   -0.17949E-05   -0.37313E-05  3880   0.107E-02
  25 F= -.84030310E+03 E0= -.84030310E+03  d E =-.762879E-04  mag=    -0.0000
quench:  g(F)=  0.000E+00 g(S)=  0.000E+00 dE (1.order)= 0.000E+00
 bond charge predicted
       N       E                     dE             d eps       ncg     rms          rms(c)
DAV:   1    -0.832634804119E+03   -0.91676E-04   -0.24576E-03  4430   0.943E-02    0.154E-02
DAV:   2    -0.832634807236E+03   -0.31173E-05   -0.58589E-05  4160   0.133E-02
  26 F= -.84030319E+03 E0= -.84030319E+03  d E =-.873174E-04  mag=    -0.0000
quench:  g(F)=  0.000E+00 g(S)=  0.000E+00 dE (1.order)= 0.000E+00
 bond charge predicted
       N       E                     dE             d eps       ncg     rms          rms(c)
DAV:   1    -0.832634916951E+03   -0.11283E-03   -0.38618E-03  4475   0.117E-01    0.187E-02
DAV:   2    -0.832634921778E+03   -0.48268E-05   -0.89202E-05  4500   0.162E-02
  27 F= -.84030330E+03 E0= -.84030330E+03  d E =-.107498E-03  mag=    -0.0000
quench:  g(F)=  0.000E+00 g(S)=  0.000E+00 dE (1.order)= 0.000E+00
 bond charge predicted
       N       E                     dE             d eps       ncg     rms          rms(c)
DAV:   1    -0.832635067121E+03   -0.15017E-03   -0.60804E-03  4520   0.146E-01    0.228E-02
DAV:   2    -0.832635074711E+03   -0.75898E-05   -0.13697E-04  4420   0.200E-02    0.178E-02
DAV:   3    -0.832635075839E+03   -0.11277E-05   -0.23873E-06  2740   0.353E-03
  28 F= -.84030345E+03 E0= -.84030345E+03  d E =-.145450E-03  mag=     0.0000
quench:  g(F)=  0.000E+00 g(S)=  0.000E+00 dE (1.order)= 0.000E+00
 bond charge predicted
       N       E                     dE             d eps       ncg     rms          rms(c)
DAV:   1    -0.832635273743E+03   -0.19903E-03   -0.95720E-03  4530   0.182E-01    0.195E-02
DAV:   2    -0.832635290359E+03   -0.16616E-04   -0.21207E-04  4470   0.243E-02    0.130E-02
DAV:   3    -0.832635290344E+03    0.15301E-07   -0.21722E-06  2605   0.311E-03
  29 F= -.84030365E+03 E0= -.84030365E+03  d E =-.204101E-03  mag=    -0.0000
quench:  g(F)=  0.000E+00 g(S)=  0.000E+00 dE (1.order)= 0.000E+00
 bond charge predicted
       N       E                     dE             d eps       ncg     rms          rms(c)
DAV:   1    -0.832635540958E+03   -0.25060E-03   -0.15599E-02  4520   0.230E-01    0.243E-02
DAV:   2    -0.832635569356E+03   -0.28398E-04   -0.35513E-04  4500   0.313E-02    0.166E-02
DAV:   3    -0.832635568868E+03    0.48778E-06   -0.37810E-06  3120   0.404E-03
  30 F= -.84030392E+03 E0= -.84030391E+03  d E =-.265705E-03  mag=    -0.0000
quench:  g(F)=  0.000E+00 g(S)=  0.000E+00 dE (1.order)= 0.000E+00
 bond charge predicted
       N       E                     dE             d eps       ncg     rms          rms(c)
DAV:   1    -0.832635859855E+03   -0.29050E-03   -0.24737E-02  4480   0.289E-01    0.309E-02
DAV:   2    -0.832635904478E+03   -0.44624E-04   -0.56200E-04  4450   0.393E-02    0.212E-02
DAV:   3    -0.832635903588E+03    0.89015E-06   -0.63893E-06  3445   0.510E-03
  31 F= -.84030423E+03 E0= -.84030423E+03  d E =-.318622E-03  mag=    -0.0000
quench:  g(F)=  0.000E+00 g(S)=  0.000E+00 dE (1.order)= 0.000E+00
 bond charge predicted
       N       E                     dE             d eps       ncg     rms          rms(c)
DAV:   1    -0.832636223325E+03   -0.31885E-03   -0.38107E-02  4480   0.359E-01    0.388E-02
DAV:   2    -0.832636291401E+03   -0.68077E-04   -0.86425E-04  4450   0.487E-02    0.268E-02
DAV:   3    -0.832636290066E+03    0.13354E-05   -0.99671E-06  3715   0.635E-03
  32 F= -.84030460E+03 E0= -.84030460E+03  d E =-.366027E-03  mag=    -0.0000
quench:  g(F)=  0.000E+00 g(S)=  0.000E+00 dE (1.order)= 0.000E+00
 bond charge predicted
       N       E                     dE             d eps       ncg     rms          rms(c)
DAV:   1    -0.832636662137E+03   -0.37074E-03   -0.56737E-02  4480   0.439E-01    0.474E-02
DAV:   2    -0.832636763273E+03   -0.10114E-03   -0.12796E-03  4440   0.594E-02    0.324E-02
DAV:   3    -0.832636761870E+03    0.14024E-05   -0.14623E-05  3880   0.769E-03
  33 F= -.84030505E+03 E0= -.84030505E+03  d E =-.445479E-03  mag=    -0.0000
quench:  g(F)=  0.000E+00 g(S)=  0.000E+00 dE (1.order)= 0.000E+00
 bond charge predicted
       N       E                     dE             d eps       ncg     rms          rms(c)
DAV:   1    -0.832637213428E+03   -0.45016E-03   -0.83526E-02  4480   0.537E-01    0.574E-02
DAV:   2    -0.832637363640E+03   -0.15021E-03   -0.18847E-03  4440   0.726E-02    0.391E-02
DAV:   3    -0.832637361946E+03    0.16940E-05   -0.21656E-05  4220   0.938E-03
  34 F= -.84030561E+03 E0= -.84030561E+03  d E =-.565959E-03  mag=    -0.0000
quench:  g(F)=  0.000E+00 g(S)=  0.000E+00 dE (1.order)= 0.000E+00
 bond charge predicted
       N       E                     dE             d eps       ncg     rms          rms(c)
DAV:   1    -0.832637877847E+03   -0.51421E-03   -0.12560E-01  4480   0.663E-01    0.701E-02
DAV:   2    -0.832638107761E+03   -0.22991E-03   -0.28524E-03  4430   0.898E-02    0.479E-02
DAV:   3    -0.832638105479E+03    0.22821E-05   -0.34108E-05  4680   0.117E-02
  35 F= -.84030631E+03 E0= -.84030631E+03  d E =-.701423E-03  mag=    -0.0000
quench:  g(F)=  0.000E+00 g(S)=  0.000E+00 dE (1.order)= 0.000E+00
 bond charge predicted
       N       E                     dE             d eps       ncg     rms          rms(c)
DAV:   1    -0.832638599271E+03   -0.49151E-03   -0.19409E-01  4500   0.830E-01    0.867E-02
DAV:   2    -0.832638962387E+03   -0.36312E-03   -0.44356E-03  4430   0.113E-01    0.595E-02
DAV:   3    -0.832638958326E+03    0.40610E-05   -0.53257E-05  4840   0.146E-02
  36 F= -.84030711E+03 E0= -.84030711E+03  d E =-.802479E-03  mag=    -0.0000
quench:  g(F)=  0.000E+00 g(S)=  0.000E+00 dE (1.order)= 0.000E+00
 bond charge predicted
       N       E                     dE             d eps       ncg     rms          rms(c)
DAV:   1    -0.832639383735E+03   -0.42135E-03   -0.30441E-01  4480   0.104E+00    0.107E-01
DAV:   2    -0.832639962085E+03   -0.57835E-03   -0.69570E-03  4430   0.141E-01    0.738E-02
DAV:   3    -0.832639954406E+03    0.76783E-05   -0.82782E-05  5080   0.181E-02
  37 F= -.84030805E+03 E0= -.84030805E+03  d E =-.939734E-03  mag=    -0.0000
quench:  g(F)=  0.000E+00 g(S)=  0.000E+00 dE (1.order)= 0.000E+00
 bond charge predicted
       N       E                     dE             d eps       ncg     rms          rms(c)
DAV:   1    -0.832640238889E+03   -0.27680E-03   -0.48688E-01  4480   0.132E+00    0.135E-01
DAV:   2    -0.832641175059E+03   -0.93617E-03   -0.11140E-02  4425   0.179E-01    0.925E-02
DAV:   3    -0.832641159864E+03    0.15195E-04   -0.13392E-04  5260   0.230E-02    0.722E-02
DAV:   4    -0.832641239399E+03   -0.79535E-04   -0.17123E-04  4440   0.281E-02    0.158E-02
DAV:   5    -0.832641247169E+03   -0.77706E-05   -0.41944E-05  4640   0.111E-02
  38 F= -.84030929E+03 E0= -.84030929E+03  d E =-.123191E-02  mag=     0.0000
quench:  g(F)=  0.000E+00 g(S)=  0.000E+00 dE (1.order)= 0.000E+00
 bond charge predicted
       N       E                     dE             d eps       ncg     rms          rms(c)
DAV:   1    -0.832640837522E+03    0.40188E-03   -0.80459E-01  4520   0.171E+00    0.163E-01
DAV:   2    -0.832642531005E+03   -0.16935E-02   -0.19516E-02  4585   0.239E-01    0.110E-01
DAV:   3    -0.832642487714E+03    0.43291E-04   -0.22356E-04  5280   0.303E-02    0.866E-02
DAV:   4    -0.832642569526E+03   -0.81812E-04   -0.31939E-04  4490   0.383E-02    0.208E-02
DAV:   5    -0.832642579440E+03   -0.99142E-05   -0.70610E-05  4960   0.147E-02
  39 F= -.84031056E+03 E0= -.84031056E+03  d E =-.127052E-02  mag=     0.0000
quench:  g(F)=  0.000E+00 g(S)=  0.000E+00 dE (1.order)= 0.000E+00
 bond charge predicted
       N       E                     dE             d eps       ncg     rms          rms(c)
DAV:   1    -0.832641342952E+03    0.12266E-02   -0.12694E+00  4520   0.217E+00    0.202E-01
DAV:   2    -0.832644043119E+03   -0.27002E-02   -0.30935E-02  4575   0.304E-01    0.136E-01
DAV:   3    -0.832643977450E+03    0.65670E-04   -0.35150E-04  5340   0.385E-02    0.107E-01
DAV:   4    -0.832644098998E+03   -0.12155E-03   -0.47095E-04  4590   0.478E-02    0.262E-02
DAV:   5    -0.832644114355E+03   -0.15356E-04   -0.10674E-04  5060   0.185E-02    0.179E-02
DAV:   6    -0.832644111984E+03    0.23708E-05   -0.30601E-05  3690   0.108E-02
  40 F= -.84031203E+03 E0= -.84031203E+03  d E =-.147340E-02  mag=     0.0000
quench:  g(F)=  0.000E+00 g(S)=  0.000E+00 dE (1.order)= 0.000E+00
 bond charge predicted
       N       E                     dE             d eps       ncg     rms          rms(c)
DAV:   1    -0.832641372047E+03    0.27423E-02   -0.20314E+00  4520   0.276E+00    0.251E-01
DAV:   2    -0.832645725992E+03   -0.43539E-02   -0.49487E-02  4535   0.386E-01    0.170E-01
DAV:   3    -0.832645611165E+03    0.11483E-03   -0.56276E-04  5390   0.490E-02    0.134E-01
DAV:   4    -0.832645762160E+03   -0.15100E-03   -0.75455E-04  4650   0.610E-02    0.331E-02
DAV:   5    -0.832645784850E+03   -0.22690E-04   -0.17098E-04  5060   0.236E-02    0.222E-02
DAV:   6    -0.832645781939E+03    0.29115E-05   -0.46271E-05  3960   0.129E-02
  41 F= -.84031365E+03 E0= -.84031365E+03  d E =-.161639E-02  mag=     0.0000
quench:  g(F)=  0.000E+00 g(S)=  0.000E+00 dE (1.order)= 0.000E+00
 bond charge predicted
       N       E                     dE             d eps       ncg     rms          rms(c)
DAV:   1    -0.832640822153E+03    0.49627E-02   -0.32114E+00  4520   0.348E+00    0.314E-01
DAV:   2    -0.832647780161E+03   -0.69580E-02   -0.78578E-02  4535   0.487E-01    0.213E-01
DAV:   3    -0.832647594490E+03    0.18567E-03   -0.89048E-04  5390   0.616E-02    0.168E-01
DAV:   4    -0.832647784916E+03   -0.19043E-03   -0.12423E-03  5055   0.775E-02    0.413E-02
DAV:   5    -0.832647819096E+03   -0.34180E-04   -0.26680E-04  5080   0.294E-02    0.283E-02
DAV:   6    -0.832647814660E+03    0.44362E-05   -0.71574E-05  4120   0.160E-02
  42 F= -.84031562E+03 E0= -.84031562E+03  d E =-.197789E-02  mag=     0.0000
quench:  g(F)=  0.000E+00 g(S)=  0.000E+00 dE (1.order)= 0.000E+00
 bond charge predicted
       N       E                     dE             d eps       ncg     rms          rms(c)
DAV:   1    -0.832640544987E+03    0.72741E-02   -0.44280E+00  4520   0.407E+00    0.375E-01
DAV:   2    -0.832650176727E+03   -0.96317E-02   -0.10873E-01  4585   0.569E-01    0.252E-01
DAV:   3    -0.832649926951E+03    0.24978E-03   -0.12430E-03  5360   0.726E-02    0.198E-01
DAV:   4    -0.832650161446E+03   -0.23450E-03   -0.16628E-03  5105   0.894E-02    0.491E-02
DAV:   5    -0.832650216026E+03   -0.54580E-04   -0.35583E-04  5060   0.340E-02    0.333E-02
DAV:   6    -0.832650209216E+03    0.68102E-05   -0.10088E-04  4120   0.189E-02    0.140E-02
DAV:   7    -0.832650212292E+03   -0.30758E-05   -0.11399E-05  3560   0.644E-03
  43 F= -.84031793E+03 E0= -.84031793E+03  d E =-.230606E-02  mag=     0.0000
quench:  g(F)=  0.000E+00 g(S)=  0.000E+00 dE (1.order)= 0.000E+00
 bond charge predicted
       N       E                     dE             d eps       ncg     rms          rms(c)
DAV:   1    -0.832642972753E+03    0.72365E-02   -0.48462E+00  4500   0.422E+00    0.405E-01
DAV:   2    -0.832653359144E+03   -0.10386E-01   -0.11801E-01  4585   0.589E-01    0.274E-01
DAV:   3    -0.832653054785E+03    0.30436E-03   -0.13978E-03  5360   0.765E-02    0.215E-01
DAV:   4    -0.832653314720E+03   -0.25993E-03   -0.21707E-03  5165   0.975E-02    0.538E-02
DAV:   5    -0.832653359850E+03   -0.45131E-04   -0.41111E-04  5060   0.365E-02    0.386E-02
DAV:   6    -0.832653349984E+03    0.98660E-05   -0.16132E-04  4190   0.218E-02    0.155E-02
DAV:   7    -0.832653352874E+03   -0.28898E-05   -0.14696E-05  3840   0.699E-03
  44 F= -.84032089E+03 E0= -.84032089E+03  d E =-.295442E-02  mag=     0.0000
quench:  g(F)=  0.000E+00 g(S)=  0.000E+00 dE (1.order)= 0.000E+00
 bond charge predicted
       N       E                     dE             d eps       ncg     rms          rms(c)
DAV:   1    -0.832647149586E+03    0.62004E-02   -0.51171E+00  4500   0.418E+00    0.442E-01
DAV:   2    -0.832657836271E+03   -0.10687E-01   -0.12306E-01  4620   0.580E-01    0.298E-01
DAV:   3    -0.832657489140E+03    0.34713E-03   -0.15294E-03  5320   0.771E-02    0.233E-01
DAV:   4    -0.832657775722E+03   -0.28658E-03   -0.27985E-03  4930   0.101E-01    0.588E-02
DAV:   5    -0.832657823649E+03   -0.47927E-04   -0.48517E-04  5070   0.376E-02    0.458E-02
DAV:   6    -0.832657800468E+03    0.23181E-04   -0.24915E-04  4220   0.249E-02    0.179E-02
DAV:   7    -0.832657803172E+03   -0.27037E-05   -0.22697E-05  3940   0.828E-03
  45 F= -.84032504E+03 E0= -.84032504E+03  d E =-.415511E-02  mag=     0.0000
quench:  g(F)=  0.000E+00 g(S)=  0.000E+00 dE (1.order)= 0.000E+00
 bond charge predicted
       N       E                     dE             d eps       ncg     rms          rms(c)
DAV:   1    -0.832651504363E+03    0.62961E-02   -0.56882E+00  4500   0.419E+00    0.498E-01
DAV:   2    -0.832663107735E+03   -0.11603E-01   -0.13554E-01  4595   0.578E-01    0.330E-01
DAV:   3    -0.832662723731E+03    0.38400E-03   -0.17912E-03  5420   0.797E-02    0.257E-01
DAV:   4    -0.832663164191E+03   -0.44046E-03   -0.34786E-03  4850   0.105E-01    0.674E-02
DAV:   5    -0.832663201878E+03   -0.37686E-04   -0.53511E-04  4980   0.389E-02    0.532E-02
DAV:   6    -0.832663168350E+03    0.33528E-04   -0.43322E-04  4280   0.305E-02    0.202E-02
DAV:   7    -0.832663168792E+03   -0.44242E-06   -0.32430E-05  4020   0.940E-03
  46 F= -.84032996E+03 E0= -.84032996E+03  d E =-.492057E-02  mag=     0.0000
quench:  g(F)=  0.000E+00 g(S)=  0.000E+00 dE (1.order)= 0.000E+00
 bond charge predicted
       N       E                     dE             d eps       ncg     rms          rms(c)
DAV:   1    -0.832648379072E+03    0.14789E-01   -0.81813E+00  4480   0.475E+00    0.621E-01
DAV:   2    -0.832665781792E+03   -0.17403E-01   -0.20311E-01  4630   0.660E-01    0.425E-01
DAV:   3    -0.832664890595E+03    0.89120E-03   -0.30362E-03  5500   0.964E-02    0.335E-01
DAV:   4    -0.832664972090E+03   -0.81495E-04   -0.68375E-03  4710   0.133E-01    0.960E-02
DAV:   5    -0.832665108740E+03   -0.13665E-03   -0.11200E-03  4980   0.504E-02    0.775E-02
DAV:   6    -0.832665028718E+03    0.80021E-04   -0.77825E-04  4780   0.385E-02    0.285E-02
DAV:   7    -0.832665031136E+03   -0.24174E-05   -0.62382E-05  4350   0.127E-02
  47 F= -.84033131E+03 E0= -.84033131E+03  d E =-.134459E-02  mag=    -0.0000
quench:  g(F)=  0.000E+00 g(S)=  0.000E+00 dE (1.order)= 0.000E+00
 bond charge predicted
       N       E                     dE             d eps       ncg     rms          rms(c)
DAV:   1    -0.832670763150E+03   -0.57344E-02   -0.42075E-01  4580   0.108E+00    0.138E-01
DAV:   2    -0.832671625826E+03   -0.86268E-03   -0.11170E-02  5110   0.160E-01    0.128E-01
DAV:   3    -0.832671494873E+03    0.13095E-03   -0.25874E-04  5820   0.287E-02    0.107E-01
DAV:   4    -0.832671299529E+03    0.19534E-03   -0.48636E-04  4580   0.388E-02    0.410E-02
DAV:   5    -0.832671305927E+03   -0.63981E-05   -0.16117E-04  4840   0.188E-02    0.177E-02
DAV:   6    -0.832671306039E+03   -0.11207E-06   -0.18436E-05  3250   0.791E-03
  48 F= -.84033751E+03 E0= -.84033751E+03  d E =-.620881E-02  mag=    -0.0000
quench:  g(F)=  0.000E+00 g(S)=  0.000E+00 dE (1.order)= 0.000E+00
 bond charge predicted
       N       E                     dE             d eps       ncg     rms          rms(c)
DAV:   1    -0.832671378755E+03   -0.72828E-04   -0.52468E-04  4420   0.388E-02    0.650E-03
DAV:   2    -0.832671379336E+03   -0.58087E-06   -0.12319E-05  2970   0.596E-03
  49 F= -.84033758E+03 E0= -.84033758E+03  d E =-.677290E-04  mag=     0.0000
quench:  g(F)=  0.000E+00 g(S)=  0.000E+00 dE (1.order)= 0.000E+00
 bond charge predicted
       N       E                     dE             d eps       ncg     rms          rms(c)
DAV:   1    -0.832671505591E+03   -0.12684E-03   -0.19152E-03  4460   0.734E-02    0.117E-02
DAV:   2    -0.832671508109E+03   -0.25173E-05   -0.42247E-05  3690   0.104E-02
  50 F= -.84033770E+03 E0= -.84033770E+03  d E =-.117568E-03  mag=     0.0000
quench:  g(F)=  0.000E+00 g(S)=  0.000E+00 dE (1.order)= 0.000E+00
 bond charge predicted
       N       E                     dE             d eps       ncg     rms          rms(c)
DAV:   1    -0.832671673088E+03   -0.16750E-03   -0.37901E-03  4500   0.102E-01    0.187E-02
DAV:   2    -0.832671677376E+03   -0.42888E-05   -0.81772E-05  4430   0.141E-02
  51 F= -.84033785E+03 E0= -.84033785E+03  d E =-.151983E-03  mag=    -0.0000
quench:  g(F)=  0.000E+00 g(S)=  0.000E+00 dE (1.order)= 0.000E+00
 bond charge predicted
       N       E                     dE             d eps       ncg     rms          rms(c)
DAV:   1    -0.832671879517E+03   -0.20643E-03   -0.58893E-03  4515   0.125E-01    0.252E-02
DAV:   2    -0.832671885086E+03   -0.55688E-05   -0.11907E-04  4670   0.167E-02    0.197E-02
DAV:   3    -0.832671884928E+03    0.15759E-06   -0.36309E-06  3035   0.388E-03
  52 F= -.84033804E+03 E0= -.84033804E+03  d E =-.183983E-03  mag=    -0.0000
quench:  g(F)=  0.000E+00 g(S)=  0.000E+00 dE (1.order)= 0.000E+00
 bond charge predicted
       N       E                     dE             d eps       ncg     rms          rms(c)
DAV:   1    -0.832672134825E+03   -0.24974E-03   -0.80545E-03  4510   0.145E-01    0.212E-02
DAV:   2    -0.832672146135E+03   -0.11310E-04   -0.15779E-04  4590   0.187E-02    0.144E-02
DAV:   3    -0.832672146230E+03   -0.94740E-07   -0.24305E-06  2885   0.299E-03
  53 F= -.84033827E+03 E0= -.84033827E+03  d E =-.231736E-03  mag=     0.0000
quench:  g(F)=  0.000E+00 g(S)=  0.000E+00 dE (1.order)= 0.000E+00
 bond charge predicted
       N       E                     dE             d eps       ncg     rms          rms(c)
DAV:   1    -0.832672444100E+03   -0.29797E-03   -0.10782E-02  4500   0.165E-01    0.239E-02
DAV:   2    -0.832672459719E+03   -0.15619E-04   -0.21489E-04  4600   0.216E-02    0.163E-02
DAV:   3    -0.832672459471E+03    0.24820E-06   -0.34113E-06  2910   0.342E-03
  54 F= -.84033855E+03 E0= -.84033855E+03  d E =-.278243E-03  mag=     0.0000
quench:  g(F)=  0.000E+00 g(S)=  0.000E+00 dE (1.order)= 0.000E+00
 bond charge predicted
       N       E                     dE             d eps       ncg     rms          rms(c)
DAV:   1    -0.832672825839E+03   -0.36612E-03   -0.17420E-02  4500   0.210E-01    0.307E-02
DAV:   2    -0.832672850869E+03   -0.25030E-04   -0.35092E-04  4690   0.275E-02    0.210E-02
DAV:   3    -0.832672850347E+03    0.52120E-06   -0.56963E-06  3170   0.440E-03
  55 F= -.84033889E+03 E0= -.84033889E+03  d E =-.346906E-03  mag=     0.0000
quench:  g(F)=  0.000E+00 g(S)=  0.000E+00 dE (1.order)= 0.000E+00
 bond charge predicted
       N       E                     dE             d eps       ncg     rms          rms(c)
DAV:   1    -0.832673279724E+03   -0.42885E-03   -0.27781E-02  4490   0.263E-01    0.390E-02
DAV:   2    -0.832673319639E+03   -0.39915E-04   -0.55879E-04  4630   0.344E-02    0.266E-02
DAV:   3    -0.832673318784E+03    0.85521E-06   -0.89151E-06  3535   0.546E-03
  56 F= -.84033931E+03 E0= -.84033931E+03  d E =-.415126E-03  mag=     0.0000
quench:  g(F)=  0.000E+00 g(S)=  0.000E+00 dE (1.order)= 0.000E+00
 bond charge predicted
       N       E                     dE             d eps       ncg     rms          rms(c)
DAV:   1    -0.832673836996E+03   -0.51736E-03   -0.43510E-02  4480   0.327E-01    0.487E-02
DAV:   2    -0.832673900080E+03   -0.63084E-04   -0.87421E-04  4580   0.427E-02    0.330E-02
DAV:   3    -0.832673898869E+03    0.12107E-05   -0.13641E-05  3625   0.666E-03
  57 F= -.84033983E+03 E0= -.84033983E+03  d E =-.517508E-03  mag=     0.0000
quench:  g(F)=  0.000E+00 g(S)=  0.000E+00 dE (1.order)= 0.000E+00
 bond charge predicted
       N       E                     dE             d eps       ncg     rms          rms(c)
DAV:   1    -0.832674524696E+03   -0.62462E-03   -0.68964E-02  4480   0.412E-01    0.608E-02
DAV:   2    -0.832674627998E+03   -0.10330E-03   -0.14060E-03  4480   0.541E-02    0.413E-02
DAV:   3    -0.832674625481E+03    0.25170E-05   -0.22113E-05  3915   0.838E-03
  58 F= -.84034048E+03 E0= -.84034048E+03  d E =-.654496E-03  mag=    -0.0000
quench:  g(F)=  0.000E+00 g(S)=  0.000E+00 dE (1.order)= 0.000E+00
 bond charge predicted
       N       E                     dE             d eps       ncg     rms          rms(c)
DAV:   1    -0.832675333591E+03   -0.70559E-03   -0.10782E-01  4480   0.521E-01    0.758E-02
DAV:   2    -0.832675498189E+03   -0.16460E-03   -0.22283E-03  4480   0.688E-02    0.518E-02
DAV:   3    -0.832675494879E+03    0.33103E-05   -0.34711E-05  4095   0.105E-02
  59 F= -.84034126E+03 E0= -.84034126E+03  d E =-.783997E-03  mag=    -0.0000
quench:  g(F)=  0.000E+00 g(S)=  0.000E+00 dE (1.order)= 0.000E+00
 bond charge predicted
       N       E                     dE             d eps       ncg     rms          rms(c)
DAV:   1    -0.832676305835E+03   -0.80765E-03   -0.16286E-01  4480   0.647E-01    0.935E-02
DAV:   2    -0.832676554091E+03   -0.24826E-03   -0.33674E-03  4450   0.851E-02    0.633E-02
DAV:   3    -0.832676549991E+03    0.40995E-05   -0.52121E-05  4440   0.128E-02
  60 F= -.84034221E+03 E0= -.84034221E+03  d E =-.946814E-03  mag=     0.0000
quench:  g(F)=  0.000E+00 g(S)=  0.000E+00 dE (1.order)= 0.000E+00
 bond charge predicted
       N       E                     dE             d eps       ncg     rms          rms(c)
DAV:   1    -0.832677419175E+03   -0.86508E-03   -0.24458E-01  4480   0.815E-01    0.114E-01
DAV:   2    -0.832677809088E+03   -0.38991E-03   -0.51641E-03  4420   0.108E-01    0.768E-02
DAV:   3    -0.832677802569E+03    0.65188E-05   -0.77999E-05  4800   0.159E-02
  61 F= -.84034333E+03 E0= -.84034333E+03  d E =-.111833E-02  mag=     0.0000
quench:  g(F)=  0.000E+00 g(S)=  0.000E+00 dE (1.order)= 0.000E+00
 bond charge predicted
       N       E                     dE             d eps       ncg     rms          rms(c)
DAV:   1    -0.832678651400E+03   -0.84231E-03   -0.38005E-01  4480   0.103E+00    0.140E-01
DAV:   2    -0.832679283098E+03   -0.63170E-03   -0.81192E-03  4420   0.137E-01    0.944E-02
DAV:   3    -0.832679270392E+03    0.12706E-04   -0.12045E-04  5020   0.199E-02    0.717E-02
DAV:   4    -0.832679358206E+03   -0.87814E-04   -0.17862E-04  4345   0.242E-02    0.151E-02
DAV:   5    -0.832679363648E+03   -0.54421E-05   -0.30712E-05  4080   0.940E-03
  62 F= -.84034473E+03 E0= -.84034473E+03  d E =-.140181E-02  mag=     0.0000
quench:  g(F)=  0.000E+00 g(S)=  0.000E+00 dE (1.order)= 0.000E+00
 bond charge predicted
       N       E                     dE             d eps       ncg     rms          rms(c)
DAV:   1    -0.832679899506E+03   -0.54130E-03   -0.60567E-01  4500   0.133E+00    0.165E-01
DAV:   2    -0.832681045210E+03   -0.11457E-02   -0.13868E-02  4580   0.183E-01    0.112E-01
DAV:   3    -0.832681002119E+03    0.43091E-04   -0.18788E-04  5280   0.257E-02    0.865E-02
DAV:   4    -0.832681091008E+03   -0.88890E-04   -0.38687E-04  4430   0.351E-02    0.213E-02
DAV:   5    -0.832681097216E+03   -0.62078E-05   -0.60885E-05  4880   0.130E-02
  63 F= -.84034629E+03 E0= -.84034629E+03  d E =-.155475E-02  mag=     0.0000
quench:  g(F)=  0.000E+00 g(S)=  0.000E+00 dE (1.order)= 0.000E+00
 bond charge predicted
       N       E                     dE             d eps       ncg     rms          rms(c)
DAV:   1    -0.832681309611E+03   -0.21860E-03   -0.90412E-01  4500   0.168E+00    0.197E-01
DAV:   2    -0.832683083463E+03   -0.17739E-02   -0.20974E-02  4580   0.231E-01    0.134E-01
DAV:   3    -0.832683026434E+03    0.57029E-04   -0.26925E-04  5300   0.316E-02    0.104E-01
DAV:   4    -0.832683148142E+03   -0.12171E-03   -0.56729E-04  4530   0.435E-02    0.264E-02
DAV:   5    -0.832683152605E+03   -0.44631E-05   -0.86572E-05  4980   0.162E-02
  64 F= -.84034814E+03 E0= -.84034814E+03  d E =-.185398E-02  mag=     0.0000
quench:  g(F)=  0.000E+00 g(S)=  0.000E+00 dE (1.order)= 0.000E+00
 bond charge predicted
       N       E                     dE             d eps       ncg     rms          rms(c)
DAV:   1    -0.832682482574E+03    0.66557E-03   -0.14341E+00  4500   0.216E+00    0.243E-01
DAV:   2    -0.832685382256E+03   -0.28997E-02   -0.33760E-02  4580   0.298E-01    0.163E-01
DAV:   3    -0.832685298395E+03    0.83862E-04   -0.41545E-04  5220   0.396E-02    0.128E-01
DAV:   4    -0.832685454819E+03   -0.15642E-03   -0.82796E-04  4530   0.535E-02    0.317E-02
DAV:   5    -0.832685464374E+03   -0.95546E-05   -0.13090E-04  5020   0.200E-02    0.258E-02
DAV:   6    -0.832685457003E+03    0.73708E-05   -0.86561E-05  4020   0.158E-02
  65 F= -.84035022E+03 E0= -.84035022E+03  d E =-.207922E-02  mag=     0.0000
quench:  g(F)=  0.000E+00 g(S)=  0.000E+00 dE (1.order)= 0.000E+00
 bond charge predicted
       N       E                     dE             d eps       ncg     rms          rms(c)
DAV:   1    -0.832683463347E+03    0.20010E-02   -0.21822E+00  4500   0.269E+00    0.291E-01
DAV:   2    -0.832687956036E+03   -0.44927E-02   -0.51580E-02  4595   0.371E-01    0.200E-01
DAV:   3    -0.832687807298E+03    0.14874E-03   -0.63109E-04  5280   0.492E-02    0.157E-01
DAV:   4    -0.832687988049E+03   -0.18075E-03   -0.13543E-03  4650   0.675E-02    0.402E-02
DAV:   5    -0.832688000341E+03   -0.12292E-04   -0.21507E-04  5000   0.251E-02    0.330E-02
DAV:   6    -0.832687990921E+03    0.94203E-05   -0.14597E-04  4080   0.190E-02    0.123E-02
DAV:   7    -0.832687992233E+03   -0.13125E-05   -0.13380E-05  3880   0.628E-03
  66 F= -.84035253E+03 E0= -.84035253E+03  d E =-.230775E-02  mag=     0.0000
quench:  g(F)=  0.000E+00 g(S)=  0.000E+00 dE (1.order)= 0.000E+00
 bond charge predicted
       N       E                     dE             d eps       ncg     rms          rms(c)
DAV:   1    -0.832684537240E+03    0.34537E-02   -0.30150E+00  4500   0.319E+00    0.346E-01
DAV:   2    -0.832690741449E+03   -0.62042E-02   -0.71745E-02  4590   0.442E-01    0.233E-01
DAV:   3    -0.832690551619E+03    0.18983E-03   -0.90229E-04  5280   0.593E-02    0.181E-01
DAV:   4    -0.832690767833E+03   -0.21621E-03   -0.15683E-03  4790   0.768E-02    0.454E-02
DAV:   5    -0.832690794699E+03   -0.26865E-04   -0.27030E-04  5000   0.287E-02    0.349E-02
DAV:   6    -0.832690784903E+03    0.97954E-05   -0.16555E-04  4280   0.201E-02    0.136E-02
DAV:   7    -0.832690786275E+03   -0.13714E-05   -0.14623E-05  3880   0.647E-03
  67 F= -.84035504E+03 E0= -.84035504E+03  d E =-.251127E-02  mag=     0.0000
quench:  g(F)=  0.000E+00 g(S)=  0.000E+00 dE (1.order)= 0.000E+00
 bond charge predicted
       N       E                     dE             d eps       ncg     rms          rms(c)
DAV:   1    -0.832683000570E+03    0.77843E-02   -0.46619E+00  4500   0.390E+00    0.429E-01
DAV:   2    -0.832692880858E+03   -0.98803E-02   -0.11389E-01  4620   0.546E-01    0.299E-01
DAV:   3    -0.832692451619E+03    0.42924E-03   -0.15568E-03  5380   0.752E-02    0.236E-01
DAV:   4    -0.832692492716E+03   -0.41096E-04   -0.29775E-03  4690   0.980E-02    0.625E-02
DAV:   5    -0.832692585086E+03   -0.92370E-04   -0.56797E-04  5140   0.376E-02    0.481E-02
DAV:   6    -0.832692560604E+03    0.24482E-04   -0.24776E-04  4340   0.244E-02    0.193E-02
DAV:   7    -0.832692564729E+03   -0.41254E-05   -0.27639E-05  3960   0.879E-03
  68 F= -.84035657E+03 E0= -.84035657E+03  d E =-.153666E-02  mag=     0.0000
quench:  g(F)=  0.000E+00 g(S)=  0.000E+00 dE (1.order)= 0.000E+00
 bond charge predicted
       N       E                     dE             d eps       ncg     rms          rms(c)
DAV:   1    -0.832694728152E+03   -0.21675E-02   -0.12207E-01  4705   0.593E-01    0.746E-02
DAV:   2    -0.832694982681E+03   -0.25453E-03   -0.33352E-03  5030   0.899E-02    0.693E-02
DAV:   3    -0.832694946463E+03    0.36218E-04   -0.75941E-05  5180   0.161E-02    0.583E-02
DAV:   4    -0.832694889633E+03    0.56829E-04   -0.14596E-04  4500   0.217E-02    0.222E-02
DAV:   5    -0.832694891918E+03   -0.22846E-05   -0.48935E-05  4160   0.107E-02
  69 F= -.84035888E+03 E0= -.84035888E+03  d E =-.230349E-02  mag=    -0.0000
quench:  g(F)=  0.000E+00 g(S)=  0.000E+00 dE (1.order)= 0.000E+00
 bond charge predicted
       N       E                     dE             d eps       ncg     rms          rms(c)
DAV:   1    -0.832693374110E+03    0.15155E-02   -0.11872E-01  4640   0.626E-01    0.751E-02
DAV:   2    -0.832693649671E+03   -0.27556E-03   -0.34552E-03  5000   0.958E-02    0.672E-02
DAV:   3    -0.832693619558E+03    0.30113E-04   -0.76877E-05  5240   0.165E-02    0.562E-02
DAV:   4    -0.832693579898E+03    0.39660E-04   -0.12727E-04  4440   0.215E-02    0.214E-02
DAV:   5    -0.832693583614E+03   -0.37161E-05   -0.41552E-05  4100   0.104E-02
  70 F= -.84035754E+03 E0= -.84035754E+03  d E =0.134221E-02  mag=     0.0000
quench:  g(F)=  0.000E+00 g(S)=  0.000E+00 dE (1.order)= 0.000E+00
 bond charge predicted
       N       E                     dE             d eps       ncg     rms          rms(c)
DAV:   1    -0.832694290124E+03   -0.71023E-03   -0.65385E-03  4660   0.135E-01    0.166E-02
DAV:   2    -0.832694302648E+03   -0.12525E-04   -0.17597E-04  4910   0.207E-02    0.155E-02
DAV:   3    -0.832694300334E+03    0.23146E-05   -0.38439E-06  2710   0.402E-03
  71 F= -.84035826E+03 E0= -.84035826E+03  d E =-.720367E-03  mag=    -0.0000
quench:  g(F)=  0.000E+00 g(S)=  0.000E+00 dE (1.order)= 0.000E+00
 bond charge predicted
       N       E                     dE             d eps       ncg     rms          rms(c)
DAV:   1    -0.832695068507E+03   -0.76586E-03   -0.20668E-02  4740   0.243E-01    0.327E-02
DAV:   2    -0.832695106418E+03   -0.37911E-04   -0.51465E-04  5260   0.358E-02    0.298E-02
DAV:   3    -0.832695099504E+03    0.69141E-05   -0.10544E-05  3500   0.641E-03
  72 F= -.84035906E+03 E0= -.84035906E+03  d E =-.806075E-03  mag=    -0.0000
quench:  g(F)=  0.000E+00 g(S)=  0.000E+00 dE (1.order)= 0.000E+00
 bond charge predicted
       N       E                     dE             d eps       ncg     rms          rms(c)
DAV:   1    -0.832695232330E+03   -0.12591E-03   -0.31959E-02  4610   0.311E-01    0.408E-02
DAV:   2    -0.832695291215E+03   -0.58885E-04   -0.77082E-04  5220   0.450E-02    0.365E-02
DAV:   3    -0.832695282085E+03    0.91307E-05   -0.15364E-05  3810   0.785E-03
  73 F= -.84035925E+03 E0= -.84035925E+03  d E =-.191780E-03  mag=    -0.0000
quench:  g(F)=  0.000E+00 g(S)=  0.000E+00 dE (1.order)= 0.000E+00
 bond charge predicted
       N       E                     dE             d eps       ncg     rms          rms(c)
DAV:   1    -0.832695278382E+03    0.12833E-04   -0.12761E-04  4340   0.222E-02    0.811E-03
DAV:   2    -0.832695279321E+03   -0.93821E-06   -0.11977E-05  3100   0.557E-03
  74 F= -.84035925E+03 E0= -.84035925E+03  d E =0.236367E-05  mag=     0.0000
quench:  g(F)=  0.000E+00 g(S)=  0.000E+00 dE (1.order)= 0.000E+00
 bond charge predicted
       N       E                     dE             d eps       ncg     rms          rms(c)
DAV:   1    -0.832695287892E+03   -0.95092E-05   -0.34816E-04  4320   0.371E-02    0.506E-03
DAV:   2    -0.832695288583E+03   -0.69115E-06   -0.90519E-06  2680   0.557E-03
  75 F= -.84035926E+03 E0= -.84035926E+03  d E =-.103320E-04  mag=     0.0000
quench:  g(F)=  0.000E+00 g(S)=  0.000E+00 dE (1.order)= 0.000E+00
 bond charge predicted
       N       E                     dE             d eps       ncg     rms          rms(c)
DAV:   1    -0.832695297571E+03   -0.96795E-05   -0.83600E-04  4410   0.575E-02    0.657E-03
DAV:   2    -0.832695299114E+03   -0.15433E-05   -0.20938E-05  3180   0.829E-03
  76 F= -.84035927E+03 E0= -.84035927E+03  d E =-.122670E-04  mag=     0.0000
quench:  g(F)=  0.000E+00 g(S)=  0.000E+00 dE (1.order)= 0.000E+00
 bond charge predicted
       N       E                     dE             d eps       ncg     rms          rms(c)
DAV:   1    -0.832695304895E+03   -0.73236E-05   -0.15160E-03  4430   0.772E-02    0.948E-03
DAV:   2    -0.832695307529E+03   -0.26339E-05   -0.37433E-05  3820   0.110E-02
  77 F= -.84035928E+03 E0= -.84035928E+03  d E =-.107851E-04  mag=     0.0000
quench:  g(F)=  0.000E+00 g(S)=  0.000E+00 dE (1.order)= 0.000E+00
 bond charge predicted
       N       E                     dE             d eps       ncg     rms          rms(c)
DAV:   1    -0.832695306128E+03   -0.12334E-05   -0.23626E-03  4455   0.962E-02    0.125E-02
DAV:   2    -0.832695310191E+03   -0.40625E-05   -0.58258E-05  4290   0.136E-02
  78 F= -.84035929E+03 E0= -.84035929E+03  d E =-.566872E-05  mag=     0.0000
quench:  g(F)=  0.000E+00 g(S)=  0.000E+00 dE (1.order)= 0.000E+00
 bond charge predicted
       N       E                     dE             d eps       ncg     rms          rms(c)
DAV:   1    -0.832695301704E+03    0.44238E-05   -0.33476E-03  4525   0.114E-01    0.155E-02
DAV:   2    -0.832695307121E+03   -0.54169E-05   -0.79979E-05  4500   0.159E-02
  79 F= -.84035929E+03 E0= -.84035929E+03  d E =-.577594E-06  mag=     0.0000
quench:  g(F)=  0.000E+00 g(S)=  0.000E+00 dE (1.order)= 0.000E+00
 bond charge predicted
       N       E                     dE             d eps       ncg     rms          rms(c)
DAV:   1    -0.832695290097E+03    0.11608E-04   -0.55490E-03  4545   0.147E-01    0.194E-02
DAV:   2    -0.832695299264E+03   -0.91678E-05   -0.13228E-04  4590   0.204E-02    0.157E-02
DAV:   3    -0.832695299335E+03   -0.70242E-07   -0.20481E-06  2605   0.337E-03
  80 F= -.84035929E+03 E0= -.84035929E+03  d E =0.295989E-05  mag=     0.0000
quench:  g(F)=  0.000E+00 g(S)=  0.000E+00 dE (1.order)= 0.000E+00
 bond charge predicted
       N       E                     dE             d eps       ncg     rms          rms(c)
DAV:   1    -0.832695274003E+03    0.25261E-04   -0.87963E-03  4490   0.184E-01    0.168E-02
DAV:   2    -0.832695291664E+03   -0.17661E-04   -0.20411E-04  4515   0.250E-02    0.117E-02
DAV:   3    -0.832695291561E+03    0.10314E-06   -0.18739E-06  2480   0.311E-03
  81 F= -.84035929E+03 E0= -.84035929E+03  d E =0.148744E-05  mag=     0.0000
quench:  g(F)=  0.000E+00 g(S)=  0.000E+00 dE (1.order)= 0.000E+00
 bond charge predicted
       N       E                     dE             d eps       ncg     rms          rms(c)
DAV:   1    -0.832695258789E+03    0.32875E-04   -0.13970E-02  4510   0.232E-01    0.205E-02
DAV:   2    -0.832695287727E+03   -0.28938E-04   -0.33130E-04  4500   0.318E-02    0.142E-02
DAV:   3    -0.832695287273E+03    0.45403E-06   -0.30897E-06  2855   0.397E-03
  82 F= -.84035929E+03 E0= -.84035929E+03  d E =-.354646E-05  mag=     0.0000
quench:  g(F)=  0.000E+00 g(S)=  0.000E+00 dE (1.order)= 0.000E+00
 bond charge predicted
       N       E                     dE             d eps       ncg     rms          rms(c)
DAV:   1    -0.832695253781E+03    0.33945E-04   -0.21501E-02  4510   0.287E-01    0.254E-02
DAV:   2    -0.832695298238E+03   -0.44456E-04   -0.50797E-04  4510   0.393E-02    0.177E-02
DAV:   3    -0.832695297578E+03    0.65963E-06   -0.46685E-06  2915   0.482E-03
  83 F= -.84035931E+03 E0= -.84035931E+03  d E =-.198931E-04  mag=     0.0000
quench:  g(F)=  0.000E+00 g(S)=  0.000E+00 dE (1.order)= 0.000E+00
 bond charge predicted
       N       E                     dE             d eps       ncg     rms          rms(c)
DAV:   1    -0.832695263978E+03    0.34260E-04   -0.32532E-02  4510   0.354E-01    0.312E-02
DAV:   2    -0.832695331184E+03   -0.67206E-04   -0.76751E-04  4500   0.484E-02    0.217E-02
DAV:   3    -0.832695330201E+03    0.98225E-06   -0.71941E-06  3400   0.591E-03
  84 F= -.84035935E+03 E0= -.84035935E+03  d E =-.439973E-04  mag=     0.0000
quench:  g(F)=  0.000E+00 g(S)=  0.000E+00 dE (1.order)= 0.000E+00
 bond charge predicted
       N       E                     dE             d eps       ncg     rms          rms(c)
DAV:   1    -0.832695288265E+03    0.42919E-04   -0.48312E-02  4510   0.431E-01    0.380E-02
DAV:   2    -0.832695388089E+03   -0.99824E-04   -0.11406E-03  4500   0.589E-02    0.265E-02
DAV:   3    -0.832695386629E+03    0.14595E-05   -0.11251E-05  3940   0.720E-03
  85 F= -.84035942E+03 E0= -.84035942E+03  d E =-.694276E-04  mag=     0.0000
quench:  g(F)=  0.000E+00 g(S)=  0.000E+00 dE (1.order)= 0.000E+00
 bond charge predicted
       N       E                     dE             d eps       ncg     rms          rms(c)
DAV:   1    -0.832695332602E+03    0.55487E-04   -0.70040E-02  4500   0.519E-01    0.460E-02
DAV:   2    -0.832695476594E+03   -0.14399E-03   -0.16526E-03  4500   0.710E-02    0.322E-02
DAV:   3    -0.832695474522E+03    0.20714E-05   -0.16400E-05  4170   0.866E-03
  86 F= -.84035953E+03 E0= -.84035953E+03  d E =-.102087E-03  mag=     0.0000
quench:  g(F)=  0.000E+00 g(S)=  0.000E+00 dE (1.order)= 0.000E+00
 bond charge predicted
       N       E                     dE             d eps       ncg     rms          rms(c)
DAV:   1    -0.832695415775E+03    0.60819E-04   -0.98670E-02  4500   0.616E-01    0.548E-02
DAV:   2    -0.832695618268E+03   -0.20249E-03   -0.23347E-03  4480   0.842E-02    0.381E-02
DAV:   3    -0.832695616217E+03    0.20518E-05   -0.23899E-05  4650   0.102E-02
  87 F= -.84035968E+03 E0= -.84035968E+03  d E =-.155994E-03  mag=    -0.0000
quench:  g(F)=  0.000E+00 g(S)=  0.000E+00 dE (1.order)= 0.000E+00
 bond charge predicted
       N       E                     dE             d eps       ncg     rms          rms(c)
DAV:   1    -0.832695562287E+03    0.55981E-04   -0.13496E-01  4500   0.721E-01    0.644E-02
DAV:   2    -0.832695839537E+03   -0.27725E-03   -0.32099E-03  4480   0.985E-02    0.445E-02
DAV:   3    -0.832695837214E+03    0.23237E-05   -0.33230E-05  4890   0.120E-02
  88 F= -.84035992E+03 E0= -.84035992E+03  d E =-.234870E-03  mag=    -0.0000
quench:  g(F)=  0.000E+00 g(S)=  0.000E+00 dE (1.order)= 0.000E+00
 bond charge predicted
       N       E                     dE             d eps       ncg     rms          rms(c)
DAV:   1    -0.832695760828E+03    0.78709E-04   -0.18123E-01  4500   0.836E-01    0.752E-02
DAV:   2    -0.832696135035E+03   -0.37421E-03   -0.43270E-03  4455   0.114E-01    0.519E-02
DAV:   3    -0.832696131223E+03    0.38126E-05   -0.45572E-05  4990   0.140E-02
  89 F= -.84036022E+03 E0= -.84036022E+03  d E =-.307124E-03  mag=    -0.0000
quench:  g(F)=  0.000E+00 g(S)=  0.000E+00 dE (1.order)= 0.000E+00
 bond charge predicted
       N       E                     dE             d eps       ncg     rms          rms(c)
DAV:   1    -0.832695994824E+03    0.14021E-03   -0.24237E-01  4500   0.966E-01    0.877E-02
DAV:   2    -0.832696496746E+03   -0.50192E-03   -0.57928E-03  4445   0.132E-01    0.604E-02
DAV:   3    -0.832696492176E+03    0.45698E-05   -0.61167E-05  5140   0.162E-02
  90 F= -.84036060E+03 E0= -.84036059E+03  d E =-.371517E-03  mag=     0.0000
quench:  g(F)=  0.000E+00 g(S)=  0.000E+00 dE (1.order)= 0.000E+00
 bond charge predicted
       N       E                     dE             d eps       ncg     rms          rms(c)
DAV:   1    -0.832696320811E+03    0.17594E-03   -0.32577E-01  4500   0.112E+00    0.102E-01
DAV:   2    -0.832696994245E+03   -0.67343E-03   -0.77790E-03  4445   0.152E-01    0.704E-02
DAV:   3    -0.832696987365E+03    0.68798E-05   -0.82058E-05  5190   0.187E-02
  91 F= -.84036110E+03 E0= -.84036110E+03  d E =-.502933E-03  mag=     0.0000
quench:  g(F)=  0.000E+00 g(S)=  0.000E+00 dE (1.order)= 0.000E+00
 bond charge predicted
       N       E                     dE             d eps       ncg     rms          rms(c)
DAV:   1    -0.832696676061E+03    0.31818E-03   -0.44156E-01  4480   0.130E+00    0.121E-01
DAV:   2    -0.832697583724E+03   -0.90766E-03   -0.10526E-02  4435   0.177E-01    0.828E-02
DAV:   3    -0.832697576697E+03    0.70263E-05   -0.11330E-04  5280   0.218E-02    0.652E-02
DAV:   4    -0.832697646437E+03   -0.69740E-04   -0.13353E-04  4375   0.266E-02    0.138E-02
DAV:   5    -0.832697653063E+03   -0.66263E-05   -0.34938E-05  4660   0.105E-02
  92 F= -.84036177E+03 E0= -.84036177E+03  d E =-.667960E-03  mag=     0.0000
quench:  g(F)=  0.000E+00 g(S)=  0.000E+00 dE (1.order)= 0.000E+00
 bond charge predicted
       N       E                     dE             d eps       ncg     rms          rms(c)
DAV:   1    -0.832696987835E+03    0.65860E-03   -0.59984E-01  4500   0.151E+00    0.137E-01
DAV:   2    -0.832698306176E+03   -0.13183E-02   -0.15063E-02  4545   0.212E-01    0.914E-02
DAV:   3    -0.832698281680E+03    0.24496E-04   -0.16346E-04  5320   0.264E-02    0.720E-02
DAV:   4    -0.832698346851E+03   -0.65170E-04   -0.21024E-04  4410   0.325E-02    0.170E-02
DAV:   5    -0.832698354152E+03   -0.73014E-05   -0.48455E-05  4950   0.125E-02
  93 F= -.84036246E+03 E0= -.84036246E+03  d E =-.692825E-03  mag=     0.0000
quench:  g(F)=  0.000E+00 g(S)=  0.000E+00 dE (1.order)= 0.000E+00
 bond charge predicted
       N       E                     dE             d eps       ncg     rms          rms(c)
DAV:   1    -0.832697456025E+03    0.89083E-03   -0.79739E-01  4500   0.174E+00    0.159E-01
DAV:   2    -0.832699204861E+03   -0.17488E-02   -0.20003E-02  4555   0.245E-01    0.106E-01
DAV:   3    -0.832699170019E+03    0.34842E-04   -0.21902E-04  5330   0.305E-02    0.837E-02
DAV:   4    -0.832699261160E+03   -0.91141E-04   -0.28865E-04  4500   0.379E-02    0.199E-02
DAV:   5    -0.832699269110E+03   -0.79501E-05   -0.64144E-05  4920   0.146E-02
  94 F= -.84036335E+03 E0= -.84036335E+03  d E =-.893559E-03  mag=     0.0000
quench:  g(F)=  0.000E+00 g(S)=  0.000E+00 dE (1.order)= 0.000E+00
 bond charge predicted
       N       E                     dE             d eps       ncg     rms          rms(c)
DAV:   1    -0.832697866473E+03    0.13947E-02   -0.10966E+00  4500   0.204E+00    0.188E-01
DAV:   2    -0.832700275019E+03   -0.24085E-02   -0.27475E-02  4565   0.285E-01    0.126E-01
DAV:   3    -0.832700225656E+03    0.49363E-04   -0.29967E-04  5360   0.356E-02    0.989E-02
DAV:   4    -0.832700342735E+03   -0.11708E-03   -0.42722E-04  4545   0.451E-02    0.234E-02
DAV:   5    -0.832700352391E+03   -0.96557E-05   -0.90887E-05  5000   0.173E-02
  95 F= -.84036440E+03 E0= -.84036440E+03  d E =-.104733E-02  mag=     0.0000
quench:  g(F)=  0.000E+00 g(S)=  0.000E+00 dE (1.order)= 0.000E+00
 bond charge predicted
       N       E                     dE             d eps       ncg     rms          rms(c)
DAV:   1    -0.832698373147E+03    0.19696E-02   -0.14636E+00  4520   0.234E+00    0.220E-01
DAV:   2    -0.832701581021E+03   -0.32079E-02   -0.36576E-02  4585   0.328E-01    0.148E-01
DAV:   3    -0.832701511768E+03    0.69253E-04   -0.40710E-04  5340   0.412E-02    0.116E-01
DAV:   4    -0.832701659185E+03   -0.14742E-03   -0.61261E-04  4545   0.527E-02    0.277E-02
DAV:   5    -0.832701672871E+03   -0.13686E-04   -0.12560E-04  5060   0.201E-02    0.205E-02
DAV:   6    -0.832701669519E+03    0.33523E-05   -0.46227E-05  3890   0.120E-02
  96 F= -.84036566E+03 E0= -.84036566E+03  d E =-.125796E-02  mag=     0.0000
quench:  g(F)=  0.000E+00 g(S)=  0.000E+00 dE (1.order)= 0.000E+00
 bond charge predicted
       N       E                     dE             d eps       ncg     rms          rms(c)
DAV:   1    -0.832699621223E+03    0.20516E-02   -0.17407E+00  4520   0.253E+00    0.245E-01
DAV:   2    -0.832703363084E+03   -0.37419E-02   -0.42858E-02  4605   0.352E-01    0.164E-01
DAV:   3    -0.832703275935E+03    0.87149E-04   -0.49242E-04  5400   0.450E-02    0.129E-01
DAV:   4    -0.832703447772E+03   -0.17184E-03   -0.77330E-04  4630   0.580E-02    0.311E-02
DAV:   5    -0.832703460659E+03   -0.12887E-04   -0.14838E-04  5040   0.220E-02    0.233E-02
DAV:   6    -0.832703457164E+03    0.34948E-05   -0.69214E-05  4040   0.140E-02
  97 F= -.84036735E+03 E0= -.84036735E+03  d E =-.168947E-02  mag=     0.0000
quench:  g(F)=  0.000E+00 g(S)=  0.000E+00 dE (1.order)= 0.000E+00
 bond charge predicted
       N       E                     dE             d eps       ncg     rms          rms(c)
DAV:   1    -0.832701292299E+03    0.21684E-02   -0.21094E+00  4520   0.270E+00    0.282E-01
DAV:   2    -0.832705729421E+03   -0.44371E-02   -0.51112E-02  4595   0.375E-01    0.189E-01
DAV:   3    -0.832705608574E+03    0.12085E-03   -0.61265E-04  5300   0.489E-02    0.148E-01
DAV:   4    -0.832705795012E+03   -0.18644E-03   -0.10748E-03  4710   0.637E-02    0.357E-02
DAV:   5    -0.832705814907E+03   -0.19895E-04   -0.19081E-04  5060   0.239E-02    0.286E-02
DAV:   6    -0.832705806238E+03    0.86682E-05   -0.96952E-05  4160   0.158E-02
  98 F= -.84036954E+03 E0= -.84036954E+03  d E =-.219748E-02  mag=     0.0000
quench:  g(F)=  0.000E+00 g(S)=  0.000E+00 dE (1.order)= 0.000E+00
 bond charge predicted
       N       E                     dE             d eps       ncg     rms          rms(c)
DAV:   1    -0.832703446013E+03    0.23689E-02   -0.25120E+00  4520   0.286E+00    0.321E-01
DAV:   2    -0.832708619956E+03   -0.51739E-02   -0.59841E-02  4595   0.394E-01    0.216E-01
DAV:   3    -0.832708463988E+03    0.15597E-03   -0.75154E-04  5260   0.530E-02    0.169E-01
DAV:   4    -0.832708694684E+03   -0.23070E-03   -0.15133E-03  4790   0.715E-02    0.430E-02
DAV:   5    -0.832708708407E+03   -0.13723E-04   -0.23824E-04  5040   0.265E-02    0.355E-02
DAV:   6    -0.832708694321E+03    0.14086E-04   -0.16645E-04  4260   0.203E-02    0.132E-02
DAV:   7    -0.832708695651E+03   -0.13296E-05   -0.15829E-05  3860   0.673E-03
  99 F= -.84037220E+03 E0= -.84037220E+03  d E =-.265755E-02  mag=     0.0000
quench:  g(F)=  0.000E+00 g(S)=  0.000E+00 dE (1.order)= 0.000E+00
 bond charge predicted
       N       E                     dE             d eps       ncg     rms          rms(c)
DAV:   1    -0.832705549454E+03    0.31449E-02   -0.32293E+00  4520   0.314E+00    0.375E-01
DAV:   2    -0.832712118297E+03   -0.65688E-02   -0.76286E-02  4630   0.432E-01    0.254E-01
DAV:   3    -0.832711888838E+03    0.22946E-03   -0.99500E-04  5320   0.590E-02    0.197E-01
DAV:   4    -0.832712135361E+03   -0.24652E-03   -0.21818E-03  4890   0.826E-02    0.510E-02
DAV:   5    -0.832712152649E+03   -0.17288E-04   -0.33659E-04  5030   0.303E-02    0.435E-02
DAV:   6    -0.832712128325E+03    0.24324E-04   -0.24373E-04  4320   0.236E-02    0.158E-02
DAV:   7    -0.832712130140E+03   -0.18145E-05   -0.24576E-05  3920   0.819E-03
 100 F= -.84037532E+03 E0= -.84037532E+03  d E =-.312007E-02  mag=    -0.0000
quench:  g(F)=  0.000E+00 g(S)=  0.000E+00 dE (1.order)= 0.000E+00
 bond charge predicted
       N       E                     dE             d eps       ncg     rms          rms(c)
DAV:   1    -0.832706510116E+03    0.56182E-02   -0.43261E+00  4480   0.359E+00    0.448E-01
DAV:   2    -0.832715137833E+03   -0.86277E-02   -0.10207E-01  4635   0.496E-01    0.300E-01
DAV:   3    -0.832714801426E+03    0.33641E-03   -0.15318E-03  5440   0.736E-02    0.231E-01
DAV:   4    -0.832715014867E+03   -0.21344E-03   -0.25546E-03  4965   0.922E-02    0.602E-02
DAV:   5    -0.832715086667E+03   -0.71800E-04   -0.44362E-04  5140   0.349E-02    0.451E-02
DAV:   6    -0.832715064603E+03    0.22063E-04   -0.25002E-04  4380   0.262E-02    0.182E-02
DAV:   7    -0.832715066043E+03   -0.14395E-05   -0.26317E-05  3920   0.885E-03
 101 F= -.84037787E+03 E0= -.84037787E+03  d E =-.254748E-02  mag=    -0.0000
quench:  g(F)=  0.000E+00 g(S)=  0.000E+00 dE (1.order)= 0.000E+00
 bond charge predicted
       N       E                     dE             d eps       ncg     rms          rms(c)
DAV:   1    -0.832716348824E+03   -0.12842E-02   -0.67264E-02  4585   0.536E-01    0.605E-02
DAV:   2    -0.832716475647E+03   -0.12682E-03   -0.18226E-03  5330   0.830E-02    0.528E-02
DAV:   3    -0.832716444867E+03    0.30780E-04   -0.84399E-05  5440   0.184E-02    0.403E-02
DAV:   4    -0.832716416553E+03    0.28313E-04   -0.57096E-05  4480   0.167E-02    0.178E-02
DAV:   5    -0.832716415152E+03    0.14013E-05   -0.20116E-05  3280   0.889E-03
 102 F= -.84037921E+03 E0= -.84037921E+03  d E =-.134428E-02  mag=     0.0000
quench:  g(F)=  0.000E+00 g(S)=  0.000E+00 dE (1.order)= 0.000E+00
 bond charge predicted
       N       E                     dE             d eps       ncg     rms          rms(c)
DAV:   1    -0.832715564112E+03    0.85244E-03   -0.71469E-02  4545   0.556E-01    0.614E-02
DAV:   2    -0.832715707445E+03   -0.14333E-03   -0.19276E-03  5380   0.856E-02    0.522E-02
DAV:   3    -0.832715682167E+03    0.25277E-04   -0.78787E-05  5400   0.179E-02    0.405E-02
DAV:   4    -0.832715658698E+03    0.23469E-04   -0.59972E-05  4450   0.171E-02    0.175E-02
DAV:   5    -0.832715658628E+03    0.70424E-07   -0.18548E-05  3420   0.867E-03
 103 F= -.84037844E+03 E0= -.84037844E+03  d E =0.777704E-03  mag=     0.0000
quench:  g(F)=  0.000E+00 g(S)=  0.000E+00 dE (1.order)= 0.000E+00
 bond charge predicted
       N       E                     dE             d eps       ncg     rms          rms(c)
DAV:   1    -0.832716086767E+03   -0.42807E-03   -0.32662E-03  4560   0.118E-01    0.136E-02
DAV:   2    -0.832716092147E+03   -0.53802E-05   -0.92080E-05  5220   0.187E-02
 104 F= -.84037887E+03 E0= -.84037887E+03  d E =-.431841E-03  mag=     0.0000
quench:  g(F)=  0.000E+00 g(S)=  0.000E+00 dE (1.order)= 0.000E+00
 bond charge predicted
       N       E                     dE             d eps       ncg     rms          rms(c)
DAV:   1    -0.832716574438E+03   -0.48767E-03   -0.10240E-02  4555   0.210E-01    0.308E-02
DAV:   2    -0.832716587196E+03   -0.12758E-04   -0.27532E-04  5480   0.324E-02    0.264E-02
DAV:   3    -0.832716576980E+03    0.10216E-04   -0.17043E-05  3180   0.916E-03    0.180E-02
DAV:   4    -0.832716572364E+03    0.46165E-05   -0.20806E-05  2940   0.977E-03
 105 F= -.84037934E+03 E0= -.84037934E+03  d E =-.476895E-03  mag=    -0.0000
quench:  g(F)=  0.000E+00 g(S)=  0.000E+00 dE (1.order)= 0.000E+00
 bond charge predicted
       N       E                     dE             d eps       ncg     rms          rms(c)
DAV:   1    -0.832716678896E+03   -0.10192E-03   -0.15117E-02  4545   0.256E-01    0.297E-02
DAV:   2    -0.832716709334E+03   -0.30438E-04   -0.41483E-04  5490   0.396E-02    0.252E-02
DAV:   3    -0.832716703119E+03    0.62150E-05   -0.15753E-05  3390   0.855E-03
 106 F= -.84037947E+03 E0= -.84037947E+03  d E =-.125728E-03  mag=     0.0000
quench:  g(F)=  0.000E+00 g(S)=  0.000E+00 dE (1.order)= 0.000E+00
 bond charge predicted
       N       E                     dE             d eps       ncg     rms          rms(c)
DAV:   1    -0.832716704769E+03    0.45653E-05   -0.52822E-05  4280   0.154E-02    0.729E-03
DAV:   2    -0.832716704867E+03   -0.98255E-07   -0.47812E-06  2360   0.436E-03
 107 F= -.84037947E+03 E0= -.84037947E+03  d E =-.157937E-05  mag=    -0.0000
quench:  g(F)=  0.000E+00 g(S)=  0.000E+00 dE (1.order)= 0.000E+00
 bond charge predicted
       N       E                     dE             d eps       ncg     rms          rms(c)
DAV:   1    -0.832716716758E+03   -0.11989E-04   -0.94683E-05  4160   0.201E-02    0.304E-03
DAV:   2    -0.832716716995E+03   -0.23699E-06   -0.27696E-06  2320   0.332E-03
 108 F= -.84037948E+03 E0= -.84037948E+03  d E =-.118677E-04  mag=    -0.0000
quench:  g(F)=  0.000E+00 g(S)=  0.000E+00 dE (1.order)= 0.000E+00
 bond charge predicted
       N       E                     dE             d eps       ncg     rms          rms(c)
DAV:   1    -0.832716732113E+03   -0.15355E-04   -0.22514E-04  4320   0.308E-02    0.365E-03
DAV:   2    -0.832716732559E+03   -0.44584E-06   -0.59146E-06  2480   0.472E-03
 109 F= -.84037950E+03 E0= -.84037950E+03  d E =-.152267E-04  mag=    -0.0000
quench:  g(F)=  0.000E+00 g(S)=  0.000E+00 dE (1.order)= 0.000E+00
 bond charge predicted
       N       E                     dE             d eps       ncg     rms          rms(c)
DAV:   1    -0.832716748147E+03   -0.16034E-04   -0.41908E-04  4390   0.418E-02    0.540E-03
DAV:   2    -0.832716748858E+03   -0.71096E-06   -0.10534E-05  2720   0.619E-03
 110 F= -.84037952E+03 E0= -.84037952E+03  d E =-.159737E-04  mag=    -0.0000
quench:  g(F)=  0.000E+00 g(S)=  0.000E+00 dE (1.order)= 0.000E+00
 bond charge predicted
       N       E                     dE             d eps       ncg     rms          rms(c)
DAV:   1    -0.832716762896E+03   -0.14750E-04   -0.67728E-04  4465   0.527E-02    0.715E-03
DAV:   2    -0.832716763985E+03   -0.10887E-05   -0.16464E-05  2980   0.760E-03
 111 F= -.84037953E+03 E0= -.84037953E+03  d E =-.147852E-04  mag=    -0.0000
quench:  g(F)=  0.000E+00 g(S)=  0.000E+00 dE (1.order)= 0.000E+00
 bond charge predicted
       N       E                     dE             d eps       ncg     rms          rms(c)
DAV:   1    -0.832716775318E+03   -0.12421E-04   -0.99397E-04  4405   0.634E-02    0.874E-03
DAV:   2    -0.832716776981E+03   -0.16635E-05   -0.24419E-05  3520   0.912E-03
 112 F= -.84037954E+03 E0= -.84037954E+03  d E =-.125482E-04  mag=    -0.0000
quench:  g(F)=  0.000E+00 g(S)=  0.000E+00 dE (1.order)= 0.000E+00
 bond charge predicted
       N       E                     dE             d eps       ncg     rms          rms(c)
DAV:   1    -0.832716786494E+03   -0.11177E-04   -0.16841E-03  4420   0.820E-02    0.109E-02
DAV:   2    -0.832716789428E+03   -0.29336E-05   -0.41222E-05  3830   0.117E-02
 113 F= -.84037955E+03 E0= -.84037955E+03  d E =-.117600E-04  mag=    -0.0000
quench:  g(F)=  0.000E+00 g(S)=  0.000E+00 dE (1.order)= 0.000E+00
 bond charge predicted
       N       E                     dE             d eps       ncg     rms          rms(c)
DAV:   1    -0.832716799529E+03   -0.13034E-04   -0.27179E-03  4465   0.104E-01    0.137E-02
DAV:   2    -0.832716804264E+03   -0.47355E-05   -0.66101E-05  4240   0.146E-02
 114 F= -.84037957E+03 E0= -.84037957E+03  d E =-.136621E-04  mag=    -0.0000
quench:  g(F)=  0.000E+00 g(S)=  0.000E+00 dE (1.order)= 0.000E+00
 bond charge predicted
       N       E                     dE             d eps       ncg     rms          rms(c)
DAV:   1    -0.832716819988E+03   -0.20459E-04   -0.42223E-03  4545   0.128E-01    0.170E-02
DAV:   2    -0.832716827185E+03   -0.71970E-05   -0.10110E-04  4540   0.179E-02    0.136E-02
DAV:   3    -0.832716827286E+03   -0.10133E-06   -0.16528E-06  2400   0.304E-03
 115 F= -.84037959E+03 E0= -.84037959E+03  d E =-.210318E-04  mag=     0.0000
quench:  g(F)=  0.000E+00 g(S)=  0.000E+00 dE (1.order)= 0.000E+00
 bond charge predicted
       N       E                     dE             d eps       ncg     rms          rms(c)
DAV:   1    -0.832716852343E+03   -0.25159E-04   -0.63155E-03  4490   0.156E-01    0.144E-02
DAV:   2    -0.832716865308E+03   -0.12965E-04   -0.14819E-04  4500   0.214E-02    0.986E-03
DAV:   3    -0.832716865306E+03    0.21319E-08   -0.13311E-06  2280   0.265E-03
 116 F= -.84037962E+03 E0= -.84037962E+03  d E =-.347418E-04  mag=     0.0000
quench:  g(F)=  0.000E+00 g(S)=  0.000E+00 dE (1.order)= 0.000E+00
 bond charge predicted
       N       E                     dE             d eps       ncg     rms          rms(c)
DAV:   1    -0.832716900332E+03   -0.35024E-04   -0.97694E-03  4490   0.195E-01    0.175E-02
DAV:   2    -0.832716921067E+03   -0.20735E-04   -0.23578E-04  4560   0.270E-02    0.120E-02
DAV:   3    -0.832716920823E+03    0.24416E-06   -0.21984E-06  2495   0.340E-03
 117 F= -.84037967E+03 E0= -.84037967E+03  d E =-.505739E-04  mag=     0.0000
quench:  g(F)=  0.000E+00 g(S)=  0.000E+00 dE (1.order)= 0.000E+00
 bond charge predicted
       N       E                     dE             d eps       ncg     rms          rms(c)
DAV:   1    -0.832716962526E+03   -0.41459E-04   -0.14928E-02  4470   0.241E-01    0.219E-02
DAV:   2    -0.832716994110E+03   -0.31584E-04   -0.35948E-04  4500   0.333E-02    0.151E-02
DAV:   3    -0.832716993731E+03    0.37954E-06   -0.33656E-06  2855   0.420E-03
 118 F= -.84037974E+03 E0= -.84037974E+03  d E =-.656271E-04  mag=     0.0000
quench:  g(F)=  0.000E+00 g(S)=  0.000E+00 dE (1.order)= 0.000E+00
 bond charge predicted
       N       E                     dE             d eps       ncg     rms          rms(c)
DAV:   1    -0.832717033797E+03   -0.39687E-04   -0.22670E-02  4470   0.297E-01    0.270E-02
DAV:   2    -0.832717081678E+03   -0.47881E-04   -0.54453E-04  4520   0.409E-02    0.186E-02
DAV:   3    -0.832717081083E+03    0.59506E-06   -0.52125E-06  3080   0.516E-03
 119 F= -.84037982E+03 E0= -.84037982E+03  d E =-.776793E-04  mag=     0.0000
quench:  g(F)=  0.000E+00 g(S)=  0.000E+00 dE (1.order)= 0.000E+00
 bond charge predicted
       N       E                     dE             d eps       ncg     rms          rms(c)
DAV:   1    -0.832717125628E+03   -0.43949E-04   -0.33535E-02  4510   0.360E-01    0.329E-02
DAV:   2    -0.832717195970E+03   -0.70343E-04   -0.80069E-04  4460   0.494E-02    0.226E-02
DAV:   3    -0.832717195144E+03    0.82606E-06   -0.78719E-06  3520   0.618E-03
 120 F= -.84037992E+03 E0= -.84037992E+03  d E =-.101942E-03  mag=     0.0000
quench:  g(F)=  0.000E+00 g(S)=  0.000E+00 dE (1.order)= 0.000E+00
 bond charge predicted
       N       E                     dE             d eps       ncg     rms          rms(c)
DAV:   1    -0.832717258830E+03   -0.62859E-04   -0.48497E-02  4470   0.432E-01    0.400E-02
DAV:   2    -0.832717360287E+03   -0.10146E-03   -0.11571E-03  4445   0.593E-02    0.274E-02
DAV:   3    -0.832717359118E+03    0.11684E-05   -0.12023E-05  3920   0.747E-03
 121 F= -.84038007E+03 E0= -.84038007E+03  d E =-.148886E-03  mag=     0.0000
quench:  g(F)=  0.000E+00 g(S)=  0.000E+00 dE (1.order)= 0.000E+00
 bond charge predicted
       N       E                     dE             d eps       ncg     rms          rms(c)
DAV:   1    -0.832717434354E+03   -0.74068E-04   -0.68148E-02  4480   0.511E-01    0.482E-02
DAV:   2    -0.832717575073E+03   -0.14072E-03   -0.16153E-03  4445   0.700E-02    0.333E-02
DAV:   3    -0.832717573428E+03    0.16451E-05   -0.17690E-05  4310   0.888E-03
 122 F= -.84038026E+03 E0= -.84038026E+03  d E =-.195591E-03  mag=     0.0000
quench:  g(F)=  0.000E+00 g(S)=  0.000E+00 dE (1.order)= 0.000E+00
 bond charge predicted
       N       E                     dE             d eps       ncg     rms          rms(c)
DAV:   1    -0.832717660401E+03   -0.85328E-04   -0.92223E-02  4500   0.592E-01    0.573E-02
DAV:   2    -0.832717847176E+03   -0.18677E-03   -0.21652E-03  4430   0.808E-02    0.397E-02
DAV:   3    -0.832717845057E+03    0.21189E-05   -0.24626E-05  4670   0.103E-02
 123 F= -.84038051E+03 E0= -.84038051E+03  d E =-.246510E-03  mag=     0.0000
quench:  g(F)=  0.000E+00 g(S)=  0.000E+00 dE (1.order)= 0.000E+00
 bond charge predicted
       N       E                     dE             d eps       ncg     rms          rms(c)
DAV:   1    -0.832717990241E+03   -0.14306E-03   -0.11992E-01  4480   0.669E-01    0.669E-02
DAV:   2    -0.832718227359E+03   -0.23712E-03   -0.27807E-03  4430   0.908E-02    0.462E-02
DAV:   3    -0.832718224986E+03    0.23728E-05   -0.32623E-05  4715   0.117E-02
 124 F= -.84038086E+03 E0= -.84038086E+03  d E =-.344583E-03  mag=     0.0000
quench:  g(F)=  0.000E+00 g(S)=  0.000E+00 dE (1.order)= 0.000E+00
 bond charge predicted
       N       E                     dE             d eps       ncg     rms          rms(c)
DAV:   1    -0.832718422217E+03   -0.19486E-03   -0.15353E-01  4480   0.747E-01    0.781E-02
DAV:   2    -0.832718717389E+03   -0.29517E-03   -0.35222E-03  4430   0.101E-01    0.539E-02
DAV:   3    -0.832718714410E+03    0.29795E-05   -0.44068E-05  4895   0.133E-02
 125 F= -.84038130E+03 E0= -.84038130E+03  d E =-.441121E-03  mag=     0.0000
[...]
DAV:   2    -0.832750464784E+03   -0.18946E-06   -0.29239E-06  2385   0.337E-03
 194 F= -.84040976E+03 E0= -.84040976E+03  d E =-.178015E-05  mag=     0.0000
quench:  g(F)=  0.000E+00 g(S)=  0.000E+00 dE (1.order)= 0.000E+00
 bond charge predicted
       N       E                     dE             d eps       ncg     rms          rms(c)
DAV:   1    -0.832750472466E+03   -0.78719E-05   -0.18247E-05  2925   0.849E-03    0.238E-03
DAV:   2    -0.832750472527E+03   -0.61409E-07   -0.78271E-07  2290   0.193E-03
 195 F= -.84040977E+03 E0= -.84040976E+03  d E =-.710738E-05  mag=     0.0000
quench:  g(F)=  0.000E+00 g(S)=  0.000E+00 dE (1.order)= 0.000E+00
 bond charge predicted
       N       E                     dE             d eps       ncg     rms          rms(c)
DAV:   1    -0.832750483509E+03   -0.11043E-04   -0.39872E-05  3830   0.125E-02    0.198E-03
DAV:   2    -0.832750483596E+03   -0.86911E-07   -0.10627E-06  2290   0.206E-03
 196 F= -.84040978E+03 E0= -.84040978E+03  d E =-.101163E-04  mag=     0.0000
quench:  g(F)=  0.000E+00 g(S)=  0.000E+00 dE (1.order)= 0.000E+00
 bond charge predicted
       N       E                     dE             d eps       ncg     rms          rms(c)
DAV:   1    -0.832750497277E+03   -0.13769E-04   -0.67239E-05  4010   0.161E-02    0.268E-03
DAV:   2    -0.832750497406E+03   -0.12835E-06   -0.17824E-06  2260   0.262E-03
 197 F= -.84040979E+03 E0= -.84040979E+03  d E =-.125882E-04  mag=     0.0000
quench:  g(F)=  0.000E+00 g(S)=  0.000E+00 dE (1.order)= 0.000E+00
 bond charge predicted
       N       E                     dE             d eps       ncg     rms          rms(c)
DAV:   1    -0.832750512801E+03   -0.15524E-04   -0.10028E-04  4120   0.196E-02    0.340E-03
DAV:   2    -0.832750512968E+03   -0.16746E-06   -0.25459E-06  2370   0.305E-03
 198 F= -.84040980E+03 E0= -.84040980E+03  d E =-.141006E-04  mag=     0.0000
quench:  g(F)=  0.000E+00 g(S)=  0.000E+00 dE (1.order)= 0.000E+00
 bond charge predicted
       N       E                     dE             d eps       ncg     rms          rms(c)
DAV:   1    -0.832750529904E+03   -0.17103E-04   -0.13863E-04  4130   0.229E-02    0.405E-03
DAV:   2    -0.832750530122E+03   -0.21797E-06   -0.34179E-06  2380   0.350E-03
 199 F= -.84040982E+03 E0= -.84040982E+03  d E =-.155421E-04  mag=     0.0000
quench:  g(F)=  0.000E+00 g(S)=  0.000E+00 dE (1.order)= 0.000E+00
 bond charge predicted
       N       E                     dE             d eps       ncg     rms          rms(c)
DAV:   1    -0.832750550434E+03   -0.20530E-04   -0.22820E-04  4190   0.291E-02    0.492E-03
DAV:   2    -0.832750550793E+03   -0.35833E-06   -0.54468E-06  2440   0.433E-03
 200 F= -.84040984E+03 E0= -.84040984E+03  d E =-.187860E-04  mag=     0.0000
quench:  g(F)=  0.000E+00 g(S)=  0.000E+00 dE (1.order)= 0.000E+00
 bond charge predicted
       N       E                     dE             d eps       ncg     rms          rms(c)
DAV:   1    -0.832750574929E+03   -0.24495E-04   -0.37252E-04  4240   0.368E-02    0.609E-03
DAV:   2    -0.832750575522E+03   -0.59223E-06   -0.87804E-06  2660   0.533E-03
 201 F= -.84040986E+03 E0= -.84040986E+03  d E =-.226116E-04  mag=     0.0000
quench:  g(F)=  0.000E+00 g(S)=  0.000E+00 dE (1.order)= 0.000E+00
 bond charge predicted
       N       E                     dE             d eps       ncg     rms          rms(c)
DAV:   1    -0.832750604479E+03   -0.29549E-04   -0.60615E-04  4310   0.466E-02    0.759E-03
DAV:   2    -0.832750605447E+03   -0.96796E-06   -0.14051E-05  2820   0.660E-03
 202 F= -.84040989E+03 E0= -.84040989E+03  d E =-.276579E-04  mag=     0.0000
quench:  g(F)=  0.000E+00 g(S)=  0.000E+00 dE (1.order)= 0.000E+00
 bond charge predicted
       N       E                     dE             d eps       ncg     rms          rms(c)
DAV:   1    -0.832750640019E+03   -0.35540E-04   -0.10006E-03  4390   0.598E-02    0.945E-03
DAV:   2    -0.832750641661E+03   -0.16420E-05   -0.23053E-05  3350   0.829E-03
 203 F= -.84040992E+03 E0= -.84040992E+03  d E =-.339306E-04  mag=     0.0000
quench:  g(F)=  0.000E+00 g(S)=  0.000E+00 dE (1.order)= 0.000E+00
 bond charge predicted
       N       E                     dE             d eps       ncg     rms          rms(c)
DAV:   1    -0.832750681781E+03   -0.41762E-04   -0.16682E-03  4400   0.773E-02    0.119E-02
DAV:   2    -0.832750684589E+03   -0.28083E-05   -0.38695E-05  3680   0.107E-02
 204 F= -.84040996E+03 E0= -.84040996E+03  d E =-.406740E-04  mag=     0.0000
quench:  g(F)=  0.000E+00 g(S)=  0.000E+00 dE (1.order)= 0.000E+00
 bond charge predicted
       N       E                     dE             d eps       ncg     rms          rms(c)
DAV:   1    -0.832750729015E+03   -0.47234E-04   -0.27682E-03  4400   0.100E-01    0.150E-02
DAV:   2    -0.832750733777E+03   -0.47621E-05   -0.65510E-05  4100   0.140E-02
 205 F= -.84041001E+03 E0= -.84041001E+03  d E =-.469986E-04  mag=     0.0000
quench:  g(F)=  0.000E+00 g(S)=  0.000E+00 dE (1.order)= 0.000E+00
 bond charge predicted
       N       E                     dE             d eps       ncg     rms          rms(c)
DAV:   1    -0.832750781401E+03   -0.52387E-04   -0.45721E-03  4480   0.130E-01    0.189E-02
DAV:   2    -0.832750789052E+03   -0.76505E-05   -0.10808E-04  4480   0.179E-02    0.150E-02
DAV:   3    -0.832750789349E+03   -0.29734E-06   -0.16722E-06  2595   0.301E-03
 206 F= -.84041006E+03 E0= -.84041006E+03  d E =-.535461E-04  mag=     0.0000
quench:  g(F)=  0.000E+00 g(S)=  0.000E+00 dE (1.order)= 0.000E+00
 bond charge predicted
       N       E                     dE             d eps       ncg     rms          rms(c)
DAV:   1    -0.832750839030E+03   -0.49978E-04   -0.73682E-03  4420   0.165E-01    0.161E-02
DAV:   2    -0.832750854339E+03   -0.15309E-04   -0.17323E-04  4490   0.225E-02    0.108E-02
DAV:   3    -0.832750854359E+03   -0.19922E-07   -0.15372E-06  2385   0.280E-03
 207 F= -.84041012E+03 E0= -.84041012E+03  d E =-.632640E-04  mag=     0.0000
quench:  g(F)=  0.000E+00 g(S)=  0.000E+00 dE (1.order)= 0.000E+00
 bond charge predicted
       N       E                     dE             d eps       ncg     rms          rms(c)
DAV:   1    -0.832750901165E+03   -0.46826E-04   -0.11795E-02  4480   0.210E-01    0.198E-02
DAV:   2    -0.832750926281E+03   -0.25116E-04   -0.28445E-04  4420   0.289E-02    0.134E-02
DAV:   3    -0.832750926061E+03    0.21976E-06   -0.24301E-06  2820   0.352E-03
 208 F= -.84041019E+03 E0= -.84041019E+03  d E =-.697977E-04  mag=     0.0000
quench:  g(F)=  0.000E+00 g(S)=  0.000E+00 dE (1.order)= 0.000E+00
 bond charge predicted
       N       E                     dE             d eps       ncg     rms          rms(c)
DAV:   1    -0.832750975927E+03   -0.49647E-04   -0.18365E-02  4480   0.263E-01    0.245E-02
DAV:   2    -0.832751015093E+03   -0.39166E-04   -0.44440E-04  4420   0.361E-02    0.165E-02
DAV:   3    -0.832751014828E+03    0.26498E-06   -0.37498E-06  2860   0.434E-03
 209 F= -.84041028E+03 E0= -.84041028E+03  d E =-.865122E-04  mag=     0.0000
quench:  g(F)=  0.000E+00 g(S)=  0.000E+00 dE (1.order)= 0.000E+00
 bond charge predicted
       N       E                     dE             d eps       ncg     rms          rms(c)
DAV:   1    -0.832751062258E+03   -0.47165E-04   -0.27984E-02  4480   0.325E-01    0.303E-02
DAV:   2    -0.832751121741E+03   -0.59484E-04   -0.67732E-04  4410   0.445E-02    0.204E-02
DAV:   3    -0.832751121383E+03    0.35857E-06   -0.58050E-06  3200   0.534E-03
 210 F= -.84041038E+03 E0= -.84041038E+03  d E =-.102983E-03  mag=     0.0000
quench:  g(F)=  0.000E+00 g(S)=  0.000E+00 dE (1.order)= 0.000E+00
 bond charge predicted
       N       E                     dE             d eps       ncg     rms          rms(c)
DAV:   1    -0.832751165042E+03   -0.43301E-04   -0.41980E-02  4480   0.397E-01    0.371E-02
DAV:   2    -0.832751254282E+03   -0.89240E-04   -0.10172E-03  4400   0.544E-02    0.249E-02
DAV:   3    -0.832751253708E+03    0.57360E-06   -0.91953E-06  3840   0.646E-03
 211 F= -.84041051E+03 E0= -.84041051E+03  d E =-.128075E-03  mag=     0.0000
quench:  g(F)=  0.000E+00 g(S)=  0.000E+00 dE (1.order)= 0.000E+00
 bond charge predicted
       N       E                     dE             d eps       ncg     rms          rms(c)
DAV:   1    -0.832751295904E+03   -0.41622E-04   -0.61883E-02  4480   0.479E-01    0.456E-02
DAV:   2    -0.832751426735E+03   -0.13083E-03   -0.14944E-03  4400   0.656E-02    0.308E-02
DAV:   3    -0.832751425815E+03    0.92001E-06   -0.13935E-05  4100   0.779E-03
 212 F= -.84041068E+03 E0= -.84041068E+03  d E =-.166604E-03  mag=     0.0000
quench:  g(F)=  0.000E+00 g(S)=  0.000E+00 dE (1.order)= 0.000E+00
 bond charge predicted
       N       E                     dE             d eps       ncg     rms          rms(c)
DAV:   1    -0.832751451209E+03   -0.24473E-04   -0.89219E-02  4480   0.572E-01    0.554E-02
DAV:   2    -0.832751638483E+03   -0.18727E-03   -0.21461E-03  4400   0.781E-02    0.375E-02
DAV:   3    -0.832751637090E+03    0.13929E-05   -0.20545E-05  4280   0.929E-03
 213 F= -.84041088E+03 E0= -.84041088E+03  d E =-.203594E-03  mag=     0.0000
quench:  g(F)=  0.000E+00 g(S)=  0.000E+00 dE (1.order)= 0.000E+00
 bond charge predicted
       N       E                     dE             d eps       ncg     rms          rms(c)
DAV:   1    -0.832751669112E+03   -0.30629E-04   -0.11858E-01  4480   0.655E-01    0.661E-02
DAV:   2    -0.832751912063E+03   -0.24295E-03   -0.28258E-03  4420   0.893E-02    0.448E-02
DAV:   3    -0.832751911011E+03    0.10524E-05   -0.28831E-05  4440   0.109E-02
 214 F= -.84041114E+03 E0= -.84041114E+03  d E =-.259053E-03  mag=     0.0000
quench:  g(F)=  0.000E+00 g(S)=  0.000E+00 dE (1.order)= 0.000E+00
 bond charge predicted
       N       E                     dE             d eps       ncg     rms          rms(c)
DAV:   1    -0.832751967378E+03   -0.55315E-04   -0.15288E-01  4480   0.737E-01    0.777E-02
DAV:   2    -0.832752271607E+03   -0.30423E-03   -0.35908E-03  4400   0.999E-02    0.530E-02
DAV:   3    -0.832752270759E+03    0.84823E-06   -0.39392E-05  4660   0.125E-02
 215 F= -.84041148E+03 E0= -.84041148E+03  d E =-.338299E-03  mag=     0.0000
quench:  g(F)=  0.000E+00 g(S)=  0.000E+00 dE (1.order)= 0.000E+00
 bond charge predicted
       N       E                     dE             d eps       ncg     rms          rms(c)
DAV:   1    -0.832752355879E+03   -0.84271E-04   -0.20621E-01  4480   0.844E-01    0.925E-02
DAV:   2    -0.832752756942E+03   -0.40106E-03   -0.47736E-03  4400   0.114E-01    0.636E-02
DAV:   3    -0.832752755123E+03    0.18185E-05   -0.55662E-05  4760   0.146E-02
 216 F= -.84041194E+03 E0= -.84041194E+03  d E =-.458260E-03  mag=     0.0000
quench:  g(F)=  0.000E+00 g(S)=  0.000E+00 dE (1.order)= 0.000E+00
 bond charge predicted
       N       E                     dE             d eps       ncg     rms          rms(c)
DAV:   1    -0.832752802880E+03   -0.45938E-04   -0.30457E-01  4480   0.100E+00    0.114E-01
DAV:   2    -0.832753383059E+03   -0.58018E-03   -0.69537E-03  4400   0.136E-01    0.790E-02
DAV:   3    -0.832753378380E+03    0.46786E-05   -0.86391E-05  4840   0.176E-02
 217 F= -.84041252E+03 E0= -.84041252E+03  d E =-.586231E-03  mag=     0.0000
quench:  g(F)=  0.000E+00 g(S)=  0.000E+00 dE (1.order)= 0.000E+00
 bond charge predicted
       N       E                     dE             d eps       ncg     rms          rms(c)
DAV:   1    -0.832753370891E+03    0.12168E-04   -0.43535E-01  4480   0.119E+00    0.140E-01
DAV:   2    -0.832754185641E+03   -0.81475E-03   -0.98528E-03  4400   0.162E-01    0.965E-02
DAV:   3    -0.832754178818E+03    0.68234E-05   -0.12778E-04  5000   0.214E-02    0.748E-02
DAV:   4    -0.832754257862E+03   -0.79045E-04   -0.18665E-04  4380   0.259E-02    0.152E-02
DAV:   5    -0.832754262623E+03   -0.47603E-05   -0.36155E-05  4440   0.102E-02
 218 F= -.84041334E+03 E0= -.84041334E+03  d E =-.815200E-03  mag=     0.0000
quench:  g(F)=  0.000E+00 g(S)=  0.000E+00 dE (1.order)= 0.000E+00
 bond charge predicted
       N       E                     dE             d eps       ncg     rms          rms(c)
DAV:   1    -0.832753922817E+03    0.33505E-03   -0.61690E-01  4500   0.141E+00    0.161E-01
DAV:   2    -0.832755177113E+03   -0.12543E-02   -0.14720E-02  4540   0.196E-01    0.110E-01
DAV:   3    -0.832755144134E+03    0.32980E-04   -0.18321E-04  5180   0.259E-02    0.864E-02
DAV:   4    -0.832755229846E+03   -0.85712E-04   -0.35334E-04  4450   0.347E-02    0.204E-02
DAV:   5    -0.832755233403E+03   -0.35575E-05   -0.59025E-05  4780   0.132E-02
 219 F= -.84041421E+03 E0= -.84041421E+03  d E =-.869107E-03  mag=     0.0000
quench:  g(F)=  0.000E+00 g(S)=  0.000E+00 dE (1.order)= 0.000E+00
 bond charge predicted
       N       E                     dE             d eps       ncg     rms          rms(c)
DAV:   1    -0.832754472420E+03    0.75743E-03   -0.88726E-01  4480   0.164E+00    0.194E-01
DAV:   2    -0.832756287257E+03   -0.18148E-02   -0.21258E-02  4570   0.228E-01    0.136E-01
DAV:   3    -0.832756217751E+03    0.69506E-04   -0.28180E-04  5360   0.313E-02    0.107E-01
DAV:   4    -0.832756300228E+03   -0.82478E-04   -0.60343E-04  4450   0.431E-02    0.264E-02
DAV:   5    -0.832756311925E+03   -0.11696E-04   -0.10460E-04  5020   0.166E-02    0.215E-02
DAV:   6    -0.832756305178E+03    0.67467E-05   -0.43424E-05  3680   0.119E-02
 220 F= -.84041516E+03 E0= -.84041516E+03  d E =-.947341E-03  mag=     0.0000
quench:  g(F)=  0.000E+00 g(S)=  0.000E+00 dE (1.order)= 0.000E+00
 bond charge predicted
       N       E                     dE             d eps       ncg     rms          rms(c)
DAV:   1    -0.832754924322E+03    0.13876E-02   -0.10245E+00  4480   0.185E+00    0.213E-01
DAV:   2    -0.832757018249E+03   -0.20939E-02   -0.24767E-02  4640   0.259E-01    0.152E-01
DAV:   3    -0.832756937342E+03    0.80907E-04   -0.37255E-04  5420   0.382E-02    0.119E-01
DAV:   4    -0.832757038086E+03   -0.10074E-03   -0.63937E-04  4590   0.499E-02    0.324E-02
DAV:   5    -0.832757047746E+03   -0.96592E-05   -0.11746E-04  5040   0.198E-02    0.229E-02
DAV:   6    -0.832757043767E+03    0.39787E-05   -0.67256E-05  3980   0.145E-02
 221 F= -.84041575E+03 E0= -.84041575E+03  d E =-.596161E-03  mag=     0.0000
quench:  g(F)=  0.000E+00 g(S)=  0.000E+00 dE (1.order)= 0.000E+00
 bond charge predicted
       N       E                     dE             d eps       ncg     rms          rms(c)
DAV:   1    -0.832757753761E+03   -0.70602E-03   -0.44039E-02  4590   0.391E-01    0.470E-02
DAV:   2    -0.832757841553E+03   -0.87792E-04   -0.11964E-03  5240   0.597E-02    0.422E-02
DAV:   3    -0.832757824566E+03    0.16987E-04   -0.36098E-05  4460   0.118E-02    0.340E-02
DAV:   4    -0.832757804868E+03    0.19698E-04   -0.60260E-05  4440   0.153E-02    0.130E-02
DAV:   5    -0.832757805147E+03   -0.27889E-06   -0.13674E-05  3080   0.655E-03
 222 F= -.84041651E+03 E0= -.84041651E+03  d E =-.753438E-03  mag=     0.0000
quench:  g(F)=  0.000E+00 g(S)=  0.000E+00 dE (1.order)= 0.000E+00
 bond charge predicted
       N       E                     dE             d eps       ncg     rms          rms(c)
DAV:   1    -0.832757262524E+03    0.54234E-03   -0.46107E-02  4560   0.404E-01    0.472E-02
DAV:   2    -0.832757358233E+03   -0.95709E-04   -0.12273E-03  5300   0.614E-02    0.407E-02
DAV:   3    -0.832757343428E+03    0.14806E-04   -0.34887E-05  4500   0.117E-02    0.326E-02
DAV:   4    -0.832757328439E+03    0.14989E-04   -0.56162E-05  4400   0.147E-02    0.123E-02
DAV:   5    -0.832757329090E+03   -0.65083E-06   -0.12002E-05  3100   0.625E-03
 223 F= -.84041602E+03 E0= -.84041602E+03  d E =0.489292E-03  mag=     0.0000
quench:  g(F)=  0.000E+00 g(S)=  0.000E+00 dE (1.order)= 0.000E+00
 bond charge predicted
       N       E                     dE             d eps       ncg     rms          rms(c)
DAV:   1    -0.832757574248E+03   -0.24581E-03   -0.19364E-03  4560   0.836E-02    0.998E-03
DAV:   2    -0.832757577805E+03   -0.35570E-05   -0.55636E-05  4300   0.132E-02
 224 F= -.84041627E+03 E0= -.84041627E+03  d E =-.249457E-03  mag=     0.0000
quench:  g(F)=  0.000E+00 g(S)=  0.000E+00 dE (1.order)= 0.000E+00
 bond charge predicted
       N       E                     dE             d eps       ncg     rms          rms(c)
DAV:   1    -0.832757849601E+03   -0.27535E-03   -0.59627E-03  4620   0.147E-01    0.237E-02
DAV:   2    -0.832757856925E+03   -0.73246E-05   -0.16286E-04  5280   0.227E-02    0.211E-02
DAV:   3    -0.832757851161E+03    0.57638E-05   -0.87119E-06  3020   0.613E-03
 225 F= -.84041654E+03 E0= -.84041654E+03  d E =-.274504E-03  mag=     0.0000
quench:  g(F)=  0.000E+00 g(S)=  0.000E+00 dE (1.order)= 0.000E+00
 bond charge predicted
       N       E                     dE             d eps       ncg     rms          rms(c)
DAV:   1    -0.832757897591E+03   -0.40666E-04   -0.81013E-03  4620   0.173E-01    0.243E-02
DAV:   2    -0.832757911485E+03   -0.13893E-04   -0.20470E-04  5320   0.254E-02    0.216E-02
DAV:   3    -0.832757907467E+03    0.40182E-05   -0.69329E-06  3060   0.563E-03
 226 F= -.84041660E+03 E0= -.84041660E+03  d E =-.570444E-04  mag=     0.0000
quench:  g(F)=  0.000E+00 g(S)=  0.000E+00 dE (1.order)= 0.000E+00
 bond charge predicted
       N       E                     dE             d eps       ncg     rms          rms(c)
DAV:   1    -0.832757908204E+03    0.32810E-05   -0.34368E-05  3480   0.113E-02    0.503E-03
DAV:   2    -0.832757908421E+03   -0.21726E-06   -0.42261E-06  2480   0.380E-03
 227 F= -.84041660E+03 E0= -.84041660E+03  d E =-.765430E-06  mag=     0.0000
quench:  g(F)=  0.000E+00 g(S)=  0.000E+00 dE (1.order)= 0.000E+00
 bond charge predicted
       N       E                     dE             d eps       ncg     rms          rms(c)
DAV:   1    -0.832757916412E+03   -0.82081E-05   -0.32646E-05  3120   0.105E-02    0.247E-03
DAV:   2    -0.832757916491E+03   -0.78573E-07   -0.11331E-06  2320   0.216E-03
 228 F= -.84041661E+03 E0= -.84041661E+03  d E =-.769832E-05  mag=     0.0000
quench:  g(F)=  0.000E+00 g(S)=  0.000E+00 dE (1.order)= 0.000E+00
 bond charge predicted
       N       E                     dE             d eps       ncg     rms          rms(c)
DAV:   1    -0.832757927403E+03   -0.10991E-04   -0.70672E-05  3960   0.152E-02    0.222E-03
DAV:   2    -0.832757927524E+03   -0.12128E-06   -0.17958E-06  2370   0.254E-03
 229 F= -.84041662E+03 E0= -.84041662E+03  d E =-.104389E-04  mag=     0.0000
quench:  g(F)=  0.000E+00 g(S)=  0.000E+00 dE (1.order)= 0.000E+00
 bond charge predicted
       N       E                     dE             d eps       ncg     rms          rms(c)
DAV:   1    -0.832757939914E+03   -0.12512E-04   -0.11489E-04  4160   0.191E-02    0.332E-03
DAV:   2    -0.832757940064E+03   -0.14943E-06   -0.28203E-06  2380   0.304E-03
 230 F= -.84041663E+03 E0= -.84041663E+03  d E =-.117243E-04  mag=     0.0000
quench:  g(F)=  0.000E+00 g(S)=  0.000E+00 dE (1.order)= 0.000E+00
 bond charge predicted
       N       E                     dE             d eps       ncg     rms          rms(c)
DAV:   1    -0.832757953315E+03   -0.13401E-04   -0.15875E-04  4240   0.222E-02    0.426E-03
DAV:   2    -0.832757953497E+03   -0.18244E-06   -0.37209E-06  2440   0.343E-03
 231 F= -.84041664E+03 E0= -.84041664E+03  d E =-.123694E-04  mag=     0.0000
quench:  g(F)=  0.000E+00 g(S)=  0.000E+00 dE (1.order)= 0.000E+00
 bond charge predicted
       N       E                     dE             d eps       ncg     rms          rms(c)
DAV:   1    -0.832757967090E+03   -0.13775E-04   -0.19468E-04  4240   0.245E-02    0.490E-03
DAV:   2    -0.832757967314E+03   -0.22441E-06   -0.44061E-06  2480   0.370E-03
 232 F= -.84041665E+03 E0= -.84041665E+03  d E =-.124514E-04  mag=     0.0000
quench:  g(F)=  0.000E+00 g(S)=  0.000E+00 dE (1.order)= 0.000E+00
 reached required accuracy - stopping structural energy minimisation
