<?xml version="1.0" encoding="ISO-8859-1"?>
<modeling>
 <generator>
  <i name="program" type="string">vasp </i>
  <i name="version" type="string">6.4.2  </i>
  <i name="subversion" type="string">20Jul23 (build Aug 26 2025 15:10:52) complex                          parallel </i>
  <i name="platform" type="string">LinuxIFC </i>
  <i name="date" type="string">2025 12 07 </i>
  <i name="time" type="string">12:58:31 </i>
 </generator>
 <incar>
  <i type="int" name="ISTART">     0</i>
  <i type="string" name="ALGO">Normal</i>
  <i type="logical" name="ADDGRID"> T  </i>
  <i type="int" name="ISPIN">     2</i>
  <i type="int" name="IMIX">     4</i>
  <i name="AMIX">      0.20000000</i>
  <i name="BMIX">      0.00010000</i>
  <i name="AMIX_MAG">      0.80000000</i>
  <i name="BMIX_MAG">      0.00010000</i>
  <i type="int" name="ICHARG">     2</i>
  <i type="int" name="NELM">   200</i>
  <i type="int" name="IBRION">     3</i>
  <i name="EDIFF">      0.00001000</i>
  <i name="EDIFFG">     -0.03000000</i>
  <i type="int" name="NSW">  1000</i>
  <i type="int" name="ISIF">     2</i>
  <i type="int" name="ISYM">     0</i>
  <i name="ENCUT">    520.00000000</i>
  <i name="POTIM">      0.00000000</i>
  <v name="MAGMOM">      0.60000000      0.60000000      0.60000000      0.60000000      0.60000000      0.60000000      0.60000000      0.60000000      0.60000000      0.60000000      0.60000000      0.60000000      0.60000000      0.60000000      0.60000000      0.60000000      0.60000000      0.60000000      0.60000000      0.60000000
      0.60000000      0.60000000      0.60000000      0.60000000      0.60000000      0.60000000      0.60000000      0.60000000      0.60000000      0.60000000      0.60000000      0.60000000      0.60000000      0.60000000      0.60000000      0.60000000      0.60000000      0.60000000      0.60000000      0.60000000
      0.60000000      0.60000000      0.60000000      0.60000000      0.60000000      0.60000000      0.60000000      0.60000000      0.60000000      0.60000000      0.60000000      0.60000000      0.60000000      0.60000000      0.60000000      0.60000000      0.60000000      0.60000000      0.60000000      0.60000000
      0.60000000      0.60000000      0.60000000      0.60000000      0.60000000      0.60000000      0.60000000      0.60000000      0.60000000      0.60000000      0.60000000      0.60000000      0.60000000      0.60000000      0.60000000      0.60000000      0.60000000      0.60000000      0.60000000      0.60000000
      0.60000000      0.60000000      0.60000000      0.60000000      0.60000000      0.60000000      0.60000000      0.60000000      0.60000000      0.60000000      0.60000000      0.60000000      0.60000000      0.60000000      0.60000000</v>
  <i type="string" name="LREAL">Auto</i>
  <i type="int" name="ISMEAR">     0</i>
  <i name="SIGMA">      0.05000000</i>
  <i type="logical" name="LWAVE"> F  </i>
  <i type="logical" name="LCHARG"> F  </i>
  <i type="logical" name="LASPH"> T  </i>
  <i type="int" name="IVDW">    12</i>
  <i name="SPRING">     -5.00000000</i>
 </incar>
 <primitive_cell>
  <structure name="primitive_cell" >
   <crystal>
    <varray name="basis" >
     <v>      17.27103806       0.00000000       0.00000000 </v>
     <v>      -8.63551903      14.95715771       0.00000000 </v>
     <v>       0.00000000       0.00000000      15.00000000 </v>
    </varray>
    <i name="volume">   3874.88459904 </i>
    <varray name="rec_basis" >
     <v>       0.05790040       0.03342881       0.00000000 </v>
     <v>       0.00000000       0.06685762       0.00000000 </v>
     <v>       0.00000000       0.00000000       0.06666667 </v>
    </varray>
   </crystal>
   <varray name="positions" >
    <v>       0.99898145       0.99940762       0.49826106 </v>
    <v>       0.99765095       0.14126013       0.49675047 </v>
    <v>       0.99779489       0.28454635       0.49509908 </v>
    <v>       0.99854473       0.42787944       0.49499828 </v>
    <v>       0.99894896       0.57106906       0.49587485 </v>
    <v>       0.99989435       0.71415263       0.49745634 </v>
    <v>       0.00080516       0.85781270       0.49807312 </v>
    <v>       0.14317219       0.00136764       0.49585367 </v>
    <v>       0.14175511       0.14312814       0.49787371 </v>
    <v>       0.13965054       0.28428862       0.49754207 </v>
    <v>       0.14104808       0.42817932       0.49654845 </v>
    <v>       0.14215362       0.57098118       0.49483246 </v>
    <v>       0.14231790       0.71431258       0.49363647 </v>
    <v>       0.14291538       0.85796419       0.49392387 </v>
    <v>       0.28594332       0.00187626       0.49731428 </v>
    <v>       0.28612206       0.14558099       0.50141497 </v>
    <v>       0.28421696       0.29020861       0.50607370 </v>
    <v>       0.28131123       0.42358603       0.50707697 </v>
    <v>       0.28649050       0.57112202       0.50463380 </v>
    <v>       0.28452466       0.71460317       0.49873198 </v>
    <v>       0.28485570       0.85811586       0.49590407 </v>
    <v>       0.42806572       0.00086059       0.50095216 </v>
    <v>       0.42931748       0.14541618       0.50527747 </v>
    <v>       0.42705131       0.28465322       0.51619284 </v>
    <v>       0.42649436       0.85686941       0.50253617 </v>
    <v>       0.56986204       0.99861589       0.50378044 </v>
    <v>       0.57086967       0.14252849       0.50562804 </v>
    <v>       0.57546003       0.28936161       0.51474385 </v>
    <v>       0.56794420       0.85362653       0.51052926 </v>
    <v>       0.71187114       0.99668978       0.50493820 </v>
    <v>       0.71298296       0.14112894       0.50249825 </v>
    <v>       0.71404298       0.28487183       0.50692731 </v>
    <v>       0.71110444       0.42492986       0.51887632 </v>
    <v>       0.72064552       0.57599386       0.53993252 </v>
    <v>       0.71220653       0.85303682       0.51521602 </v>
    <v>       0.85502176       0.99772318       0.50293476 </v>
    <v>       0.85486870       0.14084769       0.49887999 </v>
    <v>       0.85569629       0.28450545       0.49891282 </v>
    <v>       0.85632236       0.42794535       0.50303903 </v>
    <v>       0.85581913       0.57084867       0.50805521 </v>
    <v>       0.85911980       0.71514539       0.51047263 </v>
    <v>       0.85726605       0.85601477       0.50814933 </v>
    <v>       0.04633182       0.09468324       0.49700988 </v>
    <v>       0.04457002       0.23632993       0.49552821 </v>
    <v>       0.04567610       0.38014020       0.49465007 </v>
    <v>       0.04666263       0.52330222       0.49439003 </v>
    <v>       0.04708455       0.66648792       0.49483022 </v>
    <v>       0.04770521       0.80973635       0.49575118 </v>
    <v>       0.04768637       0.95287944       0.49681703 </v>
    <v>       0.19053496       0.09656823       0.49782655 </v>
    <v>       0.18828763       0.23818679       0.50003822 </v>
    <v>       0.18665496       0.37910609       0.49931665 </v>
    <v>       0.19015744       0.52361903       0.49756187 </v>
    <v>       0.18949238       0.66655157       0.49518230 </v>
    <v>       0.19001651       0.81001442       0.49382316 </v>
    <v>       0.19072831       0.95357476       0.49511077 </v>
    <v>       0.33387317       0.09784954       0.50114550 </v>
    <v>       0.33349739       0.24140272       0.50768819 </v>
    <v>       0.32774806       0.51911929       0.51325465 </v>
    <v>       0.33514354       0.66972456       0.50407872 </v>
    <v>       0.33181331       0.80977143       0.49862528 </v>
    <v>       0.33279585       0.95348789       0.49772540 </v>
    <v>       0.47588120       0.09619521       0.50384012 </v>
    <v>       0.47776200       0.24110545       0.51244090 </v>
    <v>       0.47042157       0.80550624       0.50714848 </v>
    <v>       0.47490004       0.95232141       0.50244042 </v>
    <v>       0.61772145       0.09397224       0.50382367 </v>
    <v>       0.61931512       0.23794003       0.50916634 </v>
    <v>       0.61841150       0.81004460       0.51867977 </v>
    <v>       0.61642160       0.94934883       0.50603499 </v>
    <v>       0.75976154       0.09264275       0.50169656 </v>
    <v>       0.76092914       0.23649705       0.50229750 </v>
    <v>       0.76142032       0.38001288       0.50940664 </v>
    <v>       0.76030349       0.52361556       0.52249544 </v>
    <v>       0.76540711       0.67104815       0.52663091 </v>
    <v>       0.76163858       0.80419373       0.51833593 </v>
    <v>       0.75954264       0.94880176       0.50713573 </v>
    <v>       0.90224279       0.09287708       0.49892547 </v>
    <v>       0.90265646       0.23643631       0.49685475 </v>
    <v>       0.90335978       0.38014495       0.49827271 </v>
    <v>       0.90358697       0.52345782       0.50132828 </v>
    <v>       0.90477561       0.66620092       0.50484646 </v>
    <v>       0.90586502       0.80987522       0.50484093 </v>
    <v>       0.90365235       0.95100363       0.50266274 </v>
    <v>       0.47113217       0.37304614       0.52953877 </v>
    <v>       0.41533621       0.55818387       0.52984820 </v>
    <v>       0.63809868       0.53769532       0.57398742 </v>
    <v>       0.57360148       0.72147432       0.53077255 </v>
    <v>       0.42453148       0.71536665       0.50775990 </v>
    <v>       0.71900068       0.71524783       0.53021295 </v>
    <v>       0.32784153       0.37968640       0.51020246 </v>
    <v>       0.62158481       0.37940885       0.52095875 </v>
    <v>       0.58057016       0.60790797       0.47212260 </v>
    <v>       0.50864284       0.50850971       0.46389172 </v>
    <v>       0.55497985       0.55816773       0.43022414 </v>
   </varray>
  </structure>
  <varray name="primitive_index" >
   <v type="int" >        1 </v>
   <v type="int" >        2 </v>
   <v type="int" >        3 </v>
   <v type="int" >        4 </v>
   <v type="int" >        5 </v>
   <v type="int" >        6 </v>
   <v type="int" >        7 </v>
   <v type="int" >        8 </v>
   <v type="int" >        9 </v>
   <v type="int" >       10 </v>
   <v type="int" >       11 </v>
   <v type="int" >       12 </v>
   <v type="int" >       13 </v>
   <v type="int" >       14 </v>
   <v type="int" >       15 </v>
   <v type="int" >       16 </v>
   <v type="int" >       17 </v>
   <v type="int" >       18 </v>
   <v type="int" >       19 </v>
   <v type="int" >       20 </v>
   <v type="int" >       21 </v>
   <v type="int" >       22 </v>
   <v type="int" >       23 </v>
   <v type="int" >       24 </v>
   <v type="int" >       25 </v>
   <v type="int" >       26 </v>
   <v type="int" >       27 </v>
   <v type="int" >       28 </v>
   <v type="int" >       29 </v>
   <v type="int" >       30 </v>
   <v type="int" >       31 </v>
   <v type="int" >       32 </v>
   <v type="int" >       33 </v>
   <v type="int" >       34 </v>
   <v type="int" >       35 </v>
   <v type="int" >       36 </v>
   <v type="int" >       37 </v>
   <v type="int" >       38 </v>
   <v type="int" >       39 </v>
   <v type="int" >       40 </v>
   <v type="int" >       41 </v>
   <v type="int" >       42 </v>
   <v type="int" >       43 </v>
   <v type="int" >       44 </v>
   <v type="int" >       45 </v>
   <v type="int" >       46 </v>
   <v type="int" >       47 </v>
   <v type="int" >       48 </v>
   <v type="int" >       49 </v>
   <v type="int" >       50 </v>
   <v type="int" >       51 </v>
   <v type="int" >       52 </v>
   <v type="int" >       53 </v>
   <v type="int" >       54 </v>
   <v type="int" >       55 </v>
   <v type="int" >       56 </v>
   <v type="int" >       57 </v>
   <v type="int" >       58 </v>
   <v type="int" >       59 </v>
   <v type="int" >       60 </v>
   <v type="int" >       61 </v>
   <v type="int" >       62 </v>
   <v type="int" >       63 </v>
   <v type="int" >       64 </v>
   <v type="int" >       65 </v>
   <v type="int" >       66 </v>
   <v type="int" >       67 </v>
   <v type="int" >       68 </v>
   <v type="int" >       69 </v>
   <v type="int" >       70 </v>
   <v type="int" >       71 </v>
   <v type="int" >       72 </v>
   <v type="int" >       73 </v>
   <v type="int" >       74 </v>
   <v type="int" >       75 </v>
   <v type="int" >       76 </v>
   <v type="int" >       77 </v>
   <v type="int" >       78 </v>
   <v type="int" >       79 </v>
   <v type="int" >       80 </v>
   <v type="int" >       81 </v>
   <v type="int" >       82 </v>
   <v type="int" >       83 </v>
   <v type="int" >       84 </v>
   <v type="int" >       85 </v>
   <v type="int" >       86 </v>
   <v type="int" >       87 </v>
   <v type="int" >       88 </v>
   <v type="int" >       89 </v>
   <v type="int" >       90 </v>
   <v type="int" >       91 </v>
   <v type="int" >       92 </v>
   <v type="int" >       93 </v>
   <v type="int" >       94 </v>
   <v type="int" >       95 </v>
  </varray>
 </primitive_cell>
 <kpoints>
  <generation param="Gamma">
   <v type="int" name="divisions">       2        2        1 </v>
   <v name="usershift">      0.00000000       0.00000000       0.00000000 </v>
   <v name="genvec1">      0.50000000       0.00000000       0.00000000 </v>
   <v name="genvec2">      0.00000000       0.50000000       0.00000000 </v>
   <v name="genvec3">      0.00000000       0.00000000       1.00000000 </v>
   <v name="shift">      0.00000000       0.00000000       0.00000000 </v>
  </generation>
  <varray name="kpointlist" >
   <v>       0.00000000       0.00000000       0.00000000 </v>
   <v>       0.50000000       0.00000000       0.00000000 </v>
   <v>       0.00000000       0.50000000       0.00000000 </v>
   <v>       0.50000000       0.50000000       0.00000000 </v>
  </varray>
  <varray name="weights" >
   <v>       0.25000000 </v>
   <v>       0.25000000 </v>
   <v>       0.25000000 </v>
   <v>       0.25000000 </v>
  </varray>
 </kpoints>
 <parameters>
  <separator name="general" >
   <i type="string" name="SYSTEM">unknown system</i>
   <i type="logical" name="LCOMPAT"> F  </i>
  </separator>
  <separator name="electronic" >
   <i type="string" name="PREC">normal</i>
   <i name="ENMAX">    520.00000000</i>
   <i name="ENAUG">    644.87300000</i>
   <i name="EDIFF">      0.00001000</i>
   <i type="int" name="IALGO">    38</i>
   <i type="int" name="IWAVPR">    11</i>
   <i type="int" name="NBANDS">   275</i>
   <i type="int" name="NBANDSLOW">    -1</i>
   <i type="int" name="NBANDSHIGH">    -1</i>
   <i name="NELECT">    392.00000000</i>
   <i type="int" name="TURBO">     0</i>
   <i type="int" name="IRESTART">     0</i>
   <i type="int" name="NREBOOT">     0</i>
   <i type="int" name="NMIN">     0</i>
   <i name="EREF">      0.00000000</i>
   <separator name="electronic smearing" >
    <i type="int" name="ISMEAR">     0</i>
    <i name="SIGMA">      0.05000000</i>
    <i name="KSPACING">      0.50000000</i>
    <i type="logical" name="KGAMMA"> T  </i>
    <i type="logical" name="KBLOWUP"> T  </i>
   </separator>
   <separator name="electronic projectors" >
    <i type="logical" name="LREAL"> T  </i>
    <v name="ROPT">     -0.00050000     -0.00050000     -0.00050000     -0.00050000     -0.00050000</v>
    <i type="int" name="LMAXPAW">  -100</i>
    <i type="int" name="LMAXMIX">     2</i>
    <i type="logical" name="NLSPLINE"> F  </i>
   </separator>
   <separator name="electronic startup" >
    <i type="int" name="ISTART">     0</i>
    <i type="int" name="ICHARG">     2</i>
    <i type="int" name="INIWAV">     1</i>
   </separator>
   <separator name="electronic spin" >
    <i type="int" name="ISPIN">     2</i>
    <i type="logical" name="LNONCOLLINEAR"> F  </i>
    <v name="MAGMOM">      0.60000000      0.60000000      0.60000000      0.60000000      0.60000000      0.60000000      0.60000000      0.60000000      0.60000000      0.60000000      0.60000000      0.60000000      0.60000000      0.60000000      0.60000000      0.60000000      0.60000000      0.60000000      0.60000000      0.60000000
      0.60000000      0.60000000      0.60000000      0.60000000      0.60000000      0.60000000      0.60000000      0.60000000      0.60000000      0.60000000      0.60000000      0.60000000      0.60000000      0.60000000      0.60000000      0.60000000      0.60000000      0.60000000      0.60000000      0.60000000
      0.60000000      0.60000000      0.60000000      0.60000000      0.60000000      0.60000000      0.60000000      0.60000000      0.60000000      0.60000000      0.60000000      0.60000000      0.60000000      0.60000000      0.60000000      0.60000000      0.60000000      0.60000000      0.60000000      0.60000000
      0.60000000      0.60000000      0.60000000      0.60000000      0.60000000      0.60000000      0.60000000      0.60000000      0.60000000      0.60000000      0.60000000      0.60000000      0.60000000      0.60000000      0.60000000      0.60000000      0.60000000      0.60000000      0.60000000      0.60000000
      0.60000000      0.60000000      0.60000000      0.60000000      0.60000000      0.60000000      0.60000000      0.60000000      0.60000000      0.60000000      0.60000000      0.60000000      0.60000000      0.60000000      0.60000000</v>
    <i name="NUPDOWN">     -1.00000000</i>
    <i type="logical" name="LSORBIT"> F  </i>
    <v name="SAXIS">      0.00000000      0.00000000      1.00000000</v>
    <i type="logical" name="LSPIRAL"> F  </i>
    <v name="QSPIRAL">      0.00000000      0.00000000      0.00000000</v>
    <i type="logical" name="LZEROZ"> F  </i>
   </separator>
   <separator name="electronic exchange-correlation" >
    <i type="logical" name="LASPH"> T  </i>
    <i type="logical" name="LMETAGGA"> F  </i>
   </separator>
   <separator name="electronic convergence" >
    <i type="int" name="NELM">   200</i>
    <i type="int" name="NELMDL">    -5</i>
    <i type="int" name="NELMIN">     2</i>
    <i name="ENINI">    520.00000000</i>
    <separator name="electronic convergence detail" >
     <i type="logical" name="LDIAG"> T  </i>
     <i type="logical" name="LSUBROT"> F  </i>
     <i name="WEIMIN">      0.00100000</i>
     <i name="EBREAK">      0.00000001</i>
     <i name="DEPER">      0.30000000</i>
     <i type="int" name="NRMM">     4</i>
     <i name="TIME">      0.40000000</i>
    </separator>
   </separator>
   <separator name="electronic mixer" >
    <i name="AMIX">      0.20000000</i>
    <i name="BMIX">      0.00010000</i>
    <i name="AMIN">      0.10000000</i>
    <i name="AMIX_MAG">      0.80000000</i>
    <i name="BMIX_MAG">      0.00010000</i>
    <separator name="electronic mixer details" >
     <i type="int" name="IMIX">     4</i>
     <i type="logical" name="MIXFIRST"> F  </i>
     <i type="int" name="MAXMIX">   -45</i>
     <i name="WC">    100.00000000</i>
     <i type="int" name="INIMIX">     1</i>
     <i type="int" name="MIXPRE">     1</i>
     <i type="int" name="MREMOVE">     5</i>
    </separator>
   </separator>
   <separator name="electronic dipolcorrection" >
    <i type="logical" name="LDIPOL"> F  </i>
    <i type="logical" name="LMONO"> F  </i>
    <i type="int" name="IDIPOL">     0</i>
    <i name="EPSILON">      1.00000000</i>
    <v name="DIPOL">   -100.00000000   -100.00000000   -100.00000000</v>
    <i name="EFIELD">      0.00000000</i>
   </separator>
  </separator>
  <separator name="grids" >
   <i type="int" name="NGX">    96</i>
   <i type="int" name="NGY">    96</i>
   <i type="int" name="NGZ">    84</i>
   <i type="int" name="NGXF">   192</i>
   <i type="int" name="NGYF">   192</i>
   <i type="int" name="NGZF">   168</i>
   <i type="logical" name="ADDGRID"> T  </i>
  </separator>
  <separator name="ionic" >
   <i type="int" name="NSW">  1000</i>
   <i type="int" name="IBRION">     3</i>
   <i type="int" name="MDALGO">     0</i>
   <i type="int" name="ISIF">     2</i>
   <i name="PSTRESS">      0.00000000</i>
   <i name="EDIFFG">     -0.03000000</i>
   <i type="int" name="NFREE">     0</i>
   <i name="POTIM">      0.00000000</i>
   <i name="SMASS">     -3.00000000</i>
   <i name="SCALEE">      1.00000000</i>
  </separator>
  <separator name="ionic md" >
   <i name="TEBEG">      0.00010000</i>
   <i name="TEEND">      0.00010000</i>
   <i type="int" name="NBLOCK">     1</i>
   <i type="int" name="KBLOCK">  1000</i>
   <i type="int" name="NPACO">   256</i>
   <i name="APACO">     10.00000000</i>
  </separator>
  <separator name="symmetry" >
   <i type="int" name="ISYM">     0</i>
   <i name="SYMPREC">      0.00001000</i>
  </separator>
  <separator name="dos" >
   <i type="int" name="LORBIT">     0</i>
   <v name="RWIGS">     -1.00000000     -1.00000000     -1.00000000     -1.00000000     -1.00000000</v>
   <i type="int" name="NEDOS">   301</i>
   <i name="EMIN">     10.00000000</i>
   <i name="EMAX">    -10.00000000</i>
   <i name="EFERMI">      0.00000000</i>
  </separator>
  <separator name="writing" >
   <i type="int" name="NWRITE">     2</i>
   <i type="logical" name="LWAVE"> F  </i>
   <i type="logical" name="LDOWNSAMPLE"> F  </i>
   <i type="logical" name="LCHARG"> F  </i>
   <i type="logical" name="LPARD"> F  </i>
   <i type="logical" name="LVTOT"> F  </i>
   <i type="logical" name="LVHAR"> F  </i>
   <i type="logical" name="LELF"> F  </i>
   <i type="logical" name="LOPTICS"> F  </i>
   <v name="STM">      0.00000000      0.00000000      0.00000000      0.00000000      0.00000000      0.00000000      0.00000000</v>
  </separator>
  <separator name="performance" >
   <i type="int" name="NPAR">     5</i>
   <i type="int" name="NSIM">     4</i>
   <i type="int" name="NBLK">    -1</i>
   <i type="logical" name="LPLANE"> T  </i>
   <i type="logical" name="LSCALAPACK"> T  </i>
   <i type="logical" name="LSCAAWARE"> F  </i>
   <i type="logical" name="LSCALU"> F  </i>
   <i type="logical" name="LASYNC"> F  </i>
   <i type="logical" name="LORBITALREAL"> F  </i>
  </separator>
  <separator name="miscellaneous" >
   <i type="int" name="IDIOT">     3</i>
   <i type="int" name="PHON_NSTRUCT">    -1</i>
   <i type="logical" name="LMUSIC"> F  </i>
   <v name="POMASS">     12.01100000     18.99800000     14.00100000      1.00000000     16.00000000</v>
   <v name="DARWINR">      0.00000000      0.00000000      0.00000000      0.00000000      0.00000000</v>
   <v name="DARWINV">      1.00000000      1.00000000      1.00000000      1.00000000      1.00000000</v>
   <i type="logical" name="LCORR"> T  </i>
  </separator>
  <i type="logical" name="GGA_COMPAT"> T  </i>
  <i type="logical" name="LBERRY"> F  </i>
  <i type="int" name="ICORELEVEL">     0</i>
  <i type="logical" name="LDAU"> F  </i>
  <i type="int" name="I_CONSTRAINED_M">     0</i>
  <separator name="electronic exchange-correlation" >
   <i type="string" name="GGA">--</i>
   <i type="int" name="VOSKOWN">     0</i>
   <i type="logical" name="LHFCALC"> F  </i>
   <i type="string" name="PRECFOCK"></i>
   <i type="logical" name="LSYMGRAD"> F  </i>
   <i type="logical" name="LHFONE"> F  </i>
   <i type="logical" name="LRHFCALC"> F  </i>
   <i type="logical" name="LTHOMAS"> F  </i>
   <i type="logical" name="LMODELHF"> F  </i>
   <i type="logical" name="LFOCKACE"> F  </i>
   <i name="ENCUT4O">     -1.00000000</i>
   <i type="int" name="EXXOEP">     0</i>
   <i type="int" name="FOURORBIT">     0</i>
   <i name="AEXX">      0.00000000</i>
   <i name="HFALPHA">      0.00000000</i>
   <i name="MCALPHA">      0.00000000</i>
   <i name="ALDAX">      1.00000000</i>
   <i name="AGGAX">      1.00000000</i>
   <i name="ALDAC">      1.00000000</i>
   <i name="AGGAC">      1.00000000</i>
   <i type="int" name="NKREDX">     1</i>
   <i type="int" name="NKREDY">     1</i>
   <i type="int" name="NKREDZ">     1</i>
   <i type="logical" name="SHIFTRED"> F  </i>
   <i type="logical" name="ODDONLY"> F  </i>
   <i type="logical" name="EVENONLY"> F  </i>
   <i type="int" name="LMAXFOCK">     0</i>
   <i type="int" name="NMAXFOCKAE">     0</i>
   <i type="logical" name="LFOCKAEDFT"> F  </i>
   <i name="HFSCREEN">      0.00000000</i>
   <i name="HFSCREENC">      0.00000000</i>
   <i type="int" name="NBANDSGWLOW">     0</i>
  </separator>
  <separator name="vdW DFT" >
   <i type="logical" name="LUSE_VDW"> F  </i>
   <i type="int" name="IVDW_NL">     1</i>
   <i type="logical" name="LSPIN_VDW"> F  </i>
   <i name="Zab_VDW">     -0.84910000</i>
   <i name="PARAM1">      0.12340000</i>
   <i name="PARAM2">      1.00000000</i>
   <i name="PARAM3">      0.00000000</i>
  </separator>
  <separator name="model GW" >
   <i type="int" name="MODEL_GW">     0</i>
   <i name="MODEL_EPS0">     24.47295536</i>
   <i name="MODEL_ALPHA">      1.00000000</i>
  </separator>
  <separator name="linear response parameters" >
   <i type="logical" name="LEPSILON"> F  </i>
   <i type="logical" name="LRPA"> F  </i>
   <i type="logical" name="LNABLA"> F  </i>
   <i type="logical" name="LVEL"> F  </i>
   <i name="CSHIFT">      0.10000000</i>
   <i name="OMEGAMAX">     -1.00000000</i>
   <i name="DEG_THRESHOLD">      0.00200000</i>
   <i name="RTIME">     -0.10000000</i>
   <i name="WPLASMAI">      0.00000000</i>
   <v name="DFIELD">      0.00000000      0.00000000      0.00000000</v>
   <v name="WPLASMA">      0.00000000      0.00000000      0.00000000      0.00000000      0.00000000      0.00000000      0.00000000      0.00000000      0.00000000</v>
  </separator>
  <separator name="orbital magnetization" >
   <i type="logical" name="NUCIND"> F  </i>
   <v name="MAGPOS">      0.00000000      0.00000000      0.00000000</v>
   <i type="logical" name="LNICSALL"> T  </i>
   <i type="logical" name="ORBITALMAG"> F  </i>
   <i type="logical" name="LMAGBLOCH"> F  </i>
   <i type="logical" name="LCHIMAG"> F  </i>
   <i type="logical" name="LGAUGE"> T  </i>
   <i type="int" name="MAGATOM">     0</i>
   <v name="MAGDIPOL">      0.00000000      0.00000000      0.00000000</v>
   <v name="AVECCONST">      0.00000000      0.00000000      0.00000000</v>
  </separator>
  <separator name="response functions" >
   <i type="logical" name="LALL_IN_ONE"> F  </i>
   <i type="int" name="IALL_IN_ONE">    -1</i>
   <i type="int" name="NBANDS_WAVE">    -1</i>
   <i type="logical" name="LFINITE_TEMPERATURE"> F  </i>
   <i type="logical" name="LADDER"> F  </i>
   <i type="logical" name="LRPAFORCE"> F  </i>
   <i type="logical" name="LFXC"> F  </i>
   <i type="logical" name="LHARTREE"> T  </i>
   <i type="int" name="IBSE">     0</i>
   <v type="int" name="KPOINT">    -1     0     0     0</v>
   <i type="logical" name="LTCTC"> F  </i>
   <i type="logical" name="LTCTE"> F  </i>
   <i type="logical" name="LTETE"> F  </i>
   <i type="logical" name="LTRIPLET"> F  </i>
   <i type="logical" name="LFXCEPS"> F  </i>
   <i type="logical" name="LFXHEG"> F  </i>
   <i type="int" name="NATURALO">     2</i>
   <i type="logical" name="LHOLEGF"> F  </i>
   <i type="logical" name="L2ORDER"> F  </i>
   <i type="logical" name="LDMP1"> F  </i>
   <i type="logical" name="LMP2LT"> F  </i>
   <i type="logical" name="LSMP2LT"> F  </i>
   <i type="logical" name="LGWLF"> F  </i>
   <i name="ENCUTGW">     -1.60000002</i>
   <i name="ENCUTGWSOFT">     -1.60000002</i>
   <i name="ENCUTLF">     -1.00000000</i>
   <i type="logical" name="LESF_SPLINES"> F  </i>
   <i type="int" name="LMAXMP2">    -1</i>
   <i name="SCISSOR">      0.00000000</i>
   <i type="int" name="NOMEGA">     0</i>
   <i type="int" name="NOMEGAR">     0</i>
   <i type="int" name="NBANDSGW">    -1</i>
   <i type="int" name="NBANDSO">    -1</i>
   <i type="int" name="NBANDSV">    -1</i>
   <i type="int" name="NELMGW">     1</i>
   <i type="int" name="NELMHF">     1</i>
   <i type="int" name="DIM">     3</i>
   <i type="int" name="IESPILON">     4</i>
   <i type="int" name="ANTIRES">     0</i>
   <i name="OMEGAMAX">    -30.00000000</i>
   <i name="OMEGAMIN">    -30.00000000</i>
   <i name="OMEGATL">   -200.00000000</i>
   <i type="int" name="OMEGAGRID">     0</i>
   <i name="CSHIFT">     -0.10000000</i>
   <i type="logical" name="LSELFENERGY"> F  </i>
   <i type="logical" name="LSPECTRAL"> F  </i>
   <i type="logical" name="LSPECTRALGW"> F  </i>
   <i type="logical" name="LSINGLES"> F  </i>
   <i type="logical" name="LFERMIGW"> F  </i>
   <i type="logical" name="ODDONLYGW"> F  </i>
   <i type="logical" name="EVENONLYGW"> F  </i>
   <i type="int" name="NKREDLFX">     1</i>
   <i type="int" name="NKREDLFY">     1</i>
   <i type="int" name="NKREDLFZ">     1</i>
   <i type="int" name="MAXMEM">  2800</i>
   <i type="int" name="TELESCOPE">     0</i>
   <i type="int" name="NTAUPAR">    -1</i>
   <i type="int" name="NOMEGAPAR">    -1</i>
   <i name="DAMP_NEWTON">      0.80000001</i>
   <i name="LAMBDA">      1.00000000</i>
  </separator>
  <separator name="External order field" >
   <i name="OFIELD_KAPPA">      0.00000000</i>
   <v name="OFIELD_K">      0.00000000      0.00000000      0.00000000</v>
   <i name="OFIELD_Q6_NEAR">      0.00000000</i>
   <i name="OFIELD_Q6_FAR">      0.00000000</i>
   <i name="OFIELD_A">      0.00000000</i>
  </separator>
  <separator name="optional k-points parameters" >
   <i type="int" name="KPOINTS_OPT_MODE">     1</i>
   <i type="logical" name="LKPOINTS_OPT"> F  </i>
  </separator>
 </parameters>
 <atominfo>
  <atoms>      95 </atoms>
  <types>       5 </types>
  <array name="atoms" >
   <dimension dim="1">ion</dimension>
   <field type="string">element</field>
   <field type="int">atomtype</field>
   <set>
    <rc><c>C </c><c>   1</c></rc>
    <rc><c>C </c><c>   1</c></rc>
    <rc><c>C </c><c>   1</c></rc>
    <rc><c>C </c><c>   1</c></rc>
    <rc><c>C </c><c>   1</c></rc>
    <rc><c>C </c><c>   1</c></rc>
    <rc><c>C </c><c>   1</c></rc>
    <rc><c>C </c><c>   1</c></rc>
    <rc><c>C </c><c>   1</c></rc>
    <rc><c>C </c><c>   1</c></rc>
    <rc><c>C </c><c>   1</c></rc>
    <rc><c>C </c><c>   1</c></rc>
    <rc><c>C </c><c>   1</c></rc>
    <rc><c>C </c><c>   1</c></rc>
    <rc><c>C </c><c>   1</c></rc>
    <rc><c>C </c><c>   1</c></rc>
    <rc><c>C </c><c>   1</c></rc>
    <rc><c>C </c><c>   1</c></rc>
    <rc><c>C </c><c>   1</c></rc>
    <rc><c>C </c><c>   1</c></rc>
    <rc><c>C </c><c>   1</c></rc>
    <rc><c>C </c><c>   1</c></rc>
    <rc><c>C </c><c>   1</c></rc>
    <rc><c>C </c><c>   1</c></rc>
    <rc><c>C </c><c>   1</c></rc>
    <rc><c>C </c><c>   1</c></rc>
    <rc><c>C </c><c>   1</c></rc>
    <rc><c>C </c><c>   1</c></rc>
    <rc><c>C </c><c>   1</c></rc>
    <rc><c>C </c><c>   1</c></rc>
    <rc><c>C </c><c>   1</c></rc>
    <rc><c>C </c><c>   1</c></rc>
    <rc><c>C </c><c>   1</c></rc>
    <rc><c>C </c><c>   1</c></rc>
    <rc><c>C </c><c>   1</c></rc>
    <rc><c>C </c><c>   1</c></rc>
    <rc><c>C </c><c>   1</c></rc>
    <rc><c>C </c><c>   1</c></rc>
    <rc><c>C </c><c>   1</c></rc>
    <rc><c>C </c><c>   1</c></rc>
    <rc><c>C </c><c>   1</c></rc>
    <rc><c>C </c><c>   1</c></rc>
    <rc><c>C </c><c>   1</c></rc>
    <rc><c>C </c><c>   1</c></rc>
    <rc><c>C </c><c>   1</c></rc>
    <rc><c>C </c><c>   1</c></rc>
    <rc><c>C </c><c>   1</c></rc>
    <rc><c>C </c><c>   1</c></rc>
    <rc><c>C </c><c>   1</c></rc>
    <rc><c>C </c><c>   1</c></rc>
    <rc><c>C </c><c>   1</c></rc>
    <rc><c>C </c><c>   1</c></rc>
    <rc><c>C </c><c>   1</c></rc>
    <rc><c>C </c><c>   1</c></rc>
    <rc><c>C </c><c>   1</c></rc>
    <rc><c>C </c><c>   1</c></rc>
    <rc><c>C </c><c>   1</c></rc>
    <rc><c>C </c><c>   1</c></rc>
    <rc><c>C </c><c>   1</c></rc>
    <rc><c>C </c><c>   1</c></rc>
    <rc><c>C </c><c>   1</c></rc>
    <rc><c>C </c><c>   1</c></rc>
    <rc><c>C </c><c>   1</c></rc>
    <rc><c>C </c><c>   1</c></rc>
    <rc><c>C </c><c>   1</c></rc>
    <rc><c>C </c><c>   1</c></rc>
    <rc><c>C </c><c>   1</c></rc>
    <rc><c>C </c><c>   1</c></rc>
    <rc><c>C </c><c>   1</c></rc>
    <rc><c>C </c><c>   1</c></rc>
    <rc><c>C </c><c>   1</c></rc>
    <rc><c>C </c><c>   1</c></rc>
    <rc><c>C </c><c>   1</c></rc>
    <rc><c>C </c><c>   1</c></rc>
    <rc><c>C </c><c>   1</c></rc>
    <rc><c>C </c><c>   1</c></rc>
    <rc><c>C </c><c>   1</c></rc>
    <rc><c>C </c><c>   1</c></rc>
    <rc><c>C </c><c>   1</c></rc>
    <rc><c>C </c><c>   1</c></rc>
    <rc><c>C </c><c>   1</c></rc>
    <rc><c>C </c><c>   1</c></rc>
    <rc><c>C </c><c>   1</c></rc>
    <rc><c>C </c><c>   1</c></rc>
    <rc><c>F </c><c>   2</c></rc>
    <rc><c>F </c><c>   2</c></rc>
    <rc><c>F </c><c>   2</c></rc>
    <rc><c>F </c><c>   2</c></rc>
    <rc><c>N </c><c>   3</c></rc>
    <rc><c>N </c><c>   3</c></rc>
    <rc><c>N </c><c>   3</c></rc>
    <rc><c>N </c><c>   3</c></rc>
    <rc><c>H </c><c>   4</c></rc>
    <rc><c>H </c><c>   4</c></rc>
    <rc><c>O </c><c>   5</c></rc>
   </set>
  </array>
  <array name="atomtypes" >
   <dimension dim="1">type</dimension>
   <field type="int">atomspertype</field>
   <field type="string">element</field>
   <field>mass</field>
   <field>valence</field>
   <field type="string">pseudopotential</field>
   <set>
    <rc><c>  84</c><c>C </c><c>     12.01100000</c><c>      4.00000000</c><c>  PAW_PBE C 08Apr2002                   </c></rc>
    <rc><c>   4</c><c>F </c><c>     18.99800000</c><c>      7.00000000</c><c>  PAW_PBE F 08Apr2002                   </c></rc>
    <rc><c>   4</c><c>N </c><c>     14.00100000</c><c>      5.00000000</c><c>  PAW_PBE N 08Apr2002                   </c></rc>
    <rc><c>   2</c><c>H </c><c>      1.00000000</c><c>      1.00000000</c><c>  PAW_PBE H 15Jun2001                   </c></rc>
    <rc><c>   1</c><c>O </c><c>     16.00000000</c><c>      6.00000000</c><c>  PAW_PBE O 08Apr2002                   </c></rc>
   </set>
  </array>
 </atominfo>
 <structure name="initialpos" >
  <crystal>
   <varray name="basis" >
    <v>      17.27103806       0.00000000       0.00000000 </v>
    <v>      -8.63551903      14.95715771       0.00000000 </v>
    <v>       0.00000000       0.00000000      15.00000000 </v>
   </varray>
   <i name="volume">   3874.88459904 </i>
   <varray name="rec_basis" >
    <v>       0.05790040       0.03342881       0.00000000 </v>
    <v>       0.00000000       0.06685762       0.00000000 </v>
    <v>       0.00000000       0.00000000       0.06666667 </v>
   </varray>
  </crystal>
  <varray name="positions" >
   <v>       0.99898145       0.99940762       0.49826106 </v>
   <v>       0.99765095       0.14126013       0.49675047 </v>
   <v>       0.99779489       0.28454635       0.49509908 </v>
   <v>       0.99854473       0.42787944       0.49499828 </v>
   <v>       0.99894896       0.57106906       0.49587485 </v>
   <v>       0.99989435       0.71415263       0.49745634 </v>
   <v>       0.00080516       0.85781270       0.49807312 </v>
   <v>       0.14317219       0.00136764       0.49585367 </v>
   <v>       0.14175511       0.14312814       0.49787371 </v>
   <v>       0.13965054       0.28428862       0.49754207 </v>
   <v>       0.14104808       0.42817932       0.49654845 </v>
   <v>       0.14215362       0.57098118       0.49483246 </v>
   <v>       0.14231790       0.71431258       0.49363647 </v>
   <v>       0.14291538       0.85796419       0.49392387 </v>
   <v>       0.28594332       0.00187626       0.49731428 </v>
   <v>       0.28612206       0.14558099       0.50141497 </v>
   <v>       0.28421696       0.29020861       0.50607370 </v>
   <v>       0.28131123       0.42358603       0.50707697 </v>
   <v>       0.28649050       0.57112202       0.50463380 </v>
   <v>       0.28452466       0.71460317       0.49873198 </v>
   <v>       0.28485570       0.85811586       0.49590407 </v>
   <v>       0.42806572       0.00086059       0.50095216 </v>
   <v>       0.42931748       0.14541618       0.50527747 </v>
   <v>       0.42705131       0.28465322       0.51619284 </v>
   <v>       0.42649436       0.85686941       0.50253617 </v>
   <v>       0.56986204       0.99861589       0.50378044 </v>
   <v>       0.57086967       0.14252849       0.50562804 </v>
   <v>       0.57546003       0.28936161       0.51474385 </v>
   <v>       0.56794420       0.85362653       0.51052926 </v>
   <v>       0.71187114       0.99668978       0.50493820 </v>
   <v>       0.71298296       0.14112894       0.50249825 </v>
   <v>       0.71404298       0.28487183       0.50692731 </v>
   <v>       0.71110444       0.42492986       0.51887632 </v>
   <v>       0.72064552       0.57599386       0.53993252 </v>
   <v>       0.71220653       0.85303682       0.51521602 </v>
   <v>       0.85502176       0.99772318       0.50293476 </v>
   <v>       0.85486870       0.14084769       0.49887999 </v>
   <v>       0.85569629       0.28450545       0.49891282 </v>
   <v>       0.85632236       0.42794535       0.50303903 </v>
   <v>       0.85581913       0.57084867       0.50805521 </v>
   <v>       0.85911980       0.71514539       0.51047263 </v>
   <v>       0.85726605       0.85601477       0.50814933 </v>
   <v>       0.04633182       0.09468324       0.49700988 </v>
   <v>       0.04457002       0.23632993       0.49552821 </v>
   <v>       0.04567610       0.38014020       0.49465007 </v>
   <v>       0.04666263       0.52330222       0.49439003 </v>
   <v>       0.04708455       0.66648792       0.49483022 </v>
   <v>       0.04770521       0.80973635       0.49575118 </v>
   <v>       0.04768637       0.95287944       0.49681703 </v>
   <v>       0.19053496       0.09656823       0.49782655 </v>
   <v>       0.18828763       0.23818679       0.50003822 </v>
   <v>       0.18665496       0.37910609       0.49931665 </v>
   <v>       0.19015744       0.52361903       0.49756187 </v>
   <v>       0.18949238       0.66655157       0.49518230 </v>
   <v>       0.19001651       0.81001442       0.49382316 </v>
   <v>       0.19072831       0.95357476       0.49511077 </v>
   <v>       0.33387317       0.09784954       0.50114550 </v>
   <v>       0.33349739       0.24140272       0.50768819 </v>
   <v>       0.32774806       0.51911929       0.51325465 </v>
   <v>       0.33514354       0.66972456       0.50407872 </v>
   <v>       0.33181331       0.80977143       0.49862528 </v>
   <v>       0.33279585       0.95348789       0.49772540 </v>
   <v>       0.47588120       0.09619521       0.50384012 </v>
   <v>       0.47776200       0.24110545       0.51244090 </v>
   <v>       0.47042157       0.80550624       0.50714848 </v>
   <v>       0.47490004       0.95232141       0.50244042 </v>
   <v>       0.61772145       0.09397224       0.50382367 </v>
   <v>       0.61931512       0.23794003       0.50916634 </v>
   <v>       0.61841150       0.81004460       0.51867977 </v>
   <v>       0.61642160       0.94934883       0.50603499 </v>
   <v>       0.75976154       0.09264275       0.50169656 </v>
   <v>       0.76092914       0.23649705       0.50229750 </v>
   <v>       0.76142032       0.38001288       0.50940664 </v>
   <v>       0.76030349       0.52361556       0.52249544 </v>
   <v>       0.76540711       0.67104815       0.52663091 </v>
   <v>       0.76163858       0.80419373       0.51833593 </v>
   <v>       0.75954264       0.94880176       0.50713573 </v>
   <v>       0.90224279       0.09287708       0.49892547 </v>
   <v>       0.90265646       0.23643631       0.49685475 </v>
   <v>       0.90335978       0.38014495       0.49827271 </v>
   <v>       0.90358697       0.52345782       0.50132828 </v>
   <v>       0.90477561       0.66620092       0.50484646 </v>
   <v>       0.90586502       0.80987522       0.50484093 </v>
   <v>       0.90365235       0.95100363       0.50266274 </v>
   <v>       0.47113217       0.37304614       0.52953877 </v>
   <v>       0.41533621       0.55818387       0.52984820 </v>
   <v>       0.63809868       0.53769532       0.57398742 </v>
   <v>       0.57360148       0.72147432       0.53077255 </v>
   <v>       0.42453148       0.71536665       0.50775990 </v>
   <v>       0.71900068       0.71524783       0.53021295 </v>
   <v>       0.32784153       0.37968640       0.51020246 </v>
   <v>       0.62158481       0.37940885       0.52095875 </v>
   <v>       0.58057016       0.60790797       0.47212260 </v>
   <v>       0.50864284       0.50850971       0.46389172 </v>
   <v>       0.55497985       0.55816773       0.43022414 </v>
  </varray>
  <varray name="selective"  type="logical" >
   <v type="logical" >  T  T  T </v>
   <v type="logical" >  T  T  T </v>
   <v type="logical" >  T  T  T </v>
   <v type="logical" >  T  T  T </v>
   <v type="logical" >  T  T  T </v>
   <v type="logical" >  T  T  T </v>
   <v type="logical" >  T  T  T </v>
   <v type="logical" >  T  T  T </v>
   <v type="logical" >  T  T  T </v>
   <v type="logical" >  T  T  T </v>
   <v type="logical" >  T  T  T </v>
   <v type="logical" >  T  T  T </v>
   <v type="logical" >  T  T  T </v>
   <v type="logical" >  T  T  T </v>
   <v type="logical" >  T  T  T </v>
   <v type="logical" >  T  T  T </v>
   <v type="logical" >  T  T  T </v>
   <v type="logical" >  T  T  T </v>
   <v type="logical" >  T  T  T </v>
   <v type="logical" >  T  T  T </v>
   <v type="logical" >  T  T  T </v>
   <v type="logical" >  T  T  T </v>
   <v type="logical" >  T  T  T </v>
   <v type="logical" >  T  T  T </v>
   <v type="logical" >  T  T  T </v>
   <v type="logical" >  T  T  T </v>
   <v type="logical" >  T  T  T </v>
   <v type="logical" >  T  T  T </v>
   <v type="logical" >  T  T  T </v>
   <v type="logical" >  T  T  T </v>
   <v type="logical" >  T  T  T </v>
   <v type="logical" >  T  T  T </v>
   <v type="logical" >  T  T  T </v>
   <v type="logical" >  T  T  T </v>
   <v type="logical" >  T  T  T </v>
   <v type="logical" >  T  T  T </v>
   <v type="logical" >  T  T  T </v>
   <v type="logical" >  T  T  T </v>
   <v type="logical" >  T  T  T </v>
   <v type="logical" >  T  T  T </v>
   <v type="logical" >  T  T  T </v>
   <v type="logical" >  T  T  T </v>
   <v type="logical" >  T  T  T </v>
   <v type="logical" >  T  T  T </v>
   <v type="logical" >  T  T  T </v>
   <v type="logical" >  T  T  T </v>
   <v type="logical" >  T  T  T </v>
   <v type="logical" >  T  T  T </v>
   <v type="logical" >  T  T  T </v>
   <v type="logical" >  T  T  T </v>
   <v type="logical" >  T  T  T </v>
   <v type="logical" >  T  T  T </v>
   <v type="logical" >  T  T  T </v>
   <v type="logical" >  T  T  T </v>
   <v type="logical" >  T  T  T </v>
   <v type="logical" >  T  T  T </v>
   <v type="logical" >  T  T  T </v>
   <v type="logical" >  T  T  T </v>
   <v type="logical" >  T  T  T </v>
   <v type="logical" >  T  T  T </v>
   <v type="logical" >  T  T  T </v>
   <v type="logical" >  T  T  T </v>
   <v type="logical" >  T  T  T </v>
   <v type="logical" >  T  T  T </v>
   <v type="logical" >  T  T  T </v>
   <v type="logical" >  T  T  T </v>
   <v type="logical" >  T  T  T </v>
   <v type="logical" >  T  T  T </v>
   <v type="logical" >  T  T  T </v>
   <v type="logical" >  T  T  T </v>
   <v type="logical" >  T  T  T </v>
   <v type="logical" >  T  T  T </v>
   <v type="logical" >  T  T  T </v>
   <v type="logical" >  T  T  T </v>
   <v type="logical" >  T  T  T </v>
   <v type="logical" >  T  T  T </v>
   <v type="logical" >  T  T  T </v>
   <v type="logical" >  T  T  T </v>
   <v type="logical" >  T  T  T </v>
   <v type="logical" >  T  T  T </v>
   <v type="logical" >  T  T  T </v>
   <v type="logical" >  T  T  T </v>
   <v type="logical" >  T  T  T </v>
   <v type="logical" >  T  T  T </v>
   <v type="logical" >  T  T  T </v>
   <v type="logical" >  T  T  T </v>
   <v type="logical" >  T  T  T </v>
   <v type="logical" >  T  T  T </v>
   <v type="logical" >  T  T  T </v>
   <v type="logical" >  T  T  T </v>
   <v type="logical" >  T  T  T </v>
   <v type="logical" >  T  T  T </v>
   <v type="logical" >  T  T  T </v>
   <v type="logical" >  T  T  T </v>
   <v type="logical" >  T  T  T </v>
  </varray>
  <nose>
   <v>      -3.00000000       0.00000000       0.00010000       0.00010000 </v>
  </nose>
 </structure>
 <calculation>
  <scstep>
   <time name="dav">   77.15   77.62</time>
   <time name="total">   82.38   82.94</time>
   <energy>
    <i name="alphaZ">    196.22536771 </i>
    <i name="ewald">  39641.93145471 </i>
    <i name="hartreedc"> -52375.58247617 </i>
    <i name="XCdc">   1371.33276265 </i>
    <i name="pawpsdc">  12438.68778162 </i>
    <i name="pawaedc"> -12513.22827041 </i>
    <i name="eentropy">     -0.04276226 </i>
    <i name="bandstr">  -1661.40051011 </i>
    <i name="atom">  16514.44393368 </i>
    <i name="e_fr_energy">   3612.36728144 </i>
    <i name="e_wo_entrp">   3612.41004370 </i>
    <i name="e_0_energy">   3612.38866257 </i>
   </energy>
  </scstep>
  <scstep>
   <time name="dav">   98.84   99.49</time>
   <time name="total">   98.84   99.50</time>
   <energy>
    <i name="e_fr_energy">   -185.99256731 </i>
    <i name="e_wo_entrp">   -185.98429079 </i>
    <i name="e_0_energy">   -185.98842905 </i>
   </energy>
  </scstep>
  <scstep>
   <time name="dav">   84.05   84.60</time>
   <time name="total">   84.05   84.61</time>
   <energy>
    <i name="e_fr_energy">   -852.08114559 </i>
    <i name="e_wo_entrp">   -852.07738715 </i>
    <i name="e_0_energy">   -852.07926637 </i>
   </energy>
  </scstep>
  <scstep>
   <time name="dav">   84.10   84.63</time>
   <time name="total">   84.10   84.65</time>
   <energy>
    <i name="e_fr_energy">   -874.27527650 </i>
    <i name="e_wo_entrp">   -874.27260851 </i>
    <i name="e_0_energy">   -874.27394251 </i>
   </energy>
  </scstep>
  <scstep>
   <time name="dav">   93.95   94.57</time>
   <time name="total">   99.44  100.11</time>
   <energy>
    <i name="e_fr_energy">   -874.96565703 </i>
    <i name="e_wo_entrp">   -874.96310885 </i>
    <i name="e_0_energy">   -874.96438294 </i>
   </energy>
  </scstep>
  <scstep>
   <time name="dav">   82.39   82.93</time>
   <time name="total">   92.91   93.55</time>
   <energy>
    <i name="e_fr_energy">   -857.81071553 </i>
    <i name="e_wo_entrp">   -857.80603038 </i>
    <i name="e_0_energy">   -857.80837295 </i>
   </energy>
  </scstep>
  <scstep>
   <time name="dav">   80.27   80.77</time>
   <time name="total">   90.79   91.38</time>
   <energy>
    <i name="e_fr_energy">   -837.33598711 </i>
    <i name="e_wo_entrp">   -837.33597718 </i>
    <i name="e_0_energy">   -837.33598214 </i>
   </energy>
  </scstep>
  <scstep>
   <time name="dav">   80.58   81.09</time>
   <time name="total">   91.08   91.69</time>
   <energy>
    <i name="e_fr_energy">   -832.66242342 </i>
    <i name="e_wo_entrp">   -832.66242318 </i>
    <i name="e_0_energy">   -832.66242330 </i>
   </energy>
  </scstep>
  <scstep>
   <time name="dav">   80.73   81.22</time>
   <time name="total">   91.37   91.97</time>
   <energy>
    <i name="e_fr_energy">   -832.75766455 </i>
    <i name="e_wo_entrp">   -832.75766434 </i>
    <i name="e_0_energy">   -832.75766444 </i>
   </energy>
  </scstep>
  <scstep>
   <time name="dav">   79.12   79.62</time>
   <time name="total">   89.82   90.43</time>
   <energy>
    <i name="e_fr_energy">   -832.59710326 </i>
    <i name="e_wo_entrp">   -832.59710303 </i>
    <i name="e_0_energy">   -832.59710314 </i>
   </energy>
  </scstep>
  <scstep>
   <time name="dav">   78.90   79.37</time>
   <time name="total">   89.89   90.45</time>
   <energy>
    <i name="e_fr_energy">   -832.58272070 </i>
    <i name="e_wo_entrp">   -832.58272054 </i>
    <i name="e_0_energy">   -832.58272062 </i>
   </energy>
  </scstep>
  <scstep>
   <time name="dav">   81.38   81.86</time>
   <time name="total">   92.54   93.15</time>
   <energy>
    <i name="e_fr_energy">   -832.58306762 </i>
    <i name="e_wo_entrp">   -832.58306746 </i>
    <i name="e_0_energy">   -832.58306754 </i>
   </energy>
  </scstep>
  <scstep>
   <time name="dav">   80.14   80.64</time>
   <time name="total">   91.42   92.02</time>
   <energy>
    <i name="e_fr_energy">   -832.58328569 </i>
    <i name="e_wo_entrp">   -832.58328553 </i>
    <i name="e_0_energy">   -832.58328561 </i>
   </energy>
  </scstep>
  <scstep>
   <time name="dav">   81.58   82.08</time>
   <time name="total">   92.40   93.01</time>
   <energy>
    <i name="e_fr_energy">   -832.58333205 </i>
    <i name="e_wo_entrp">   -832.58333189 </i>
    <i name="e_0_energy">   -832.58333197 </i>
   </energy>
  </scstep>
  <scstep>
   <time name="dav">   76.32   76.78</time>
   <time name="total">   87.73   88.30</time>
   <energy>
    <i name="e_fr_energy">   -832.58339112 </i>
    <i name="e_wo_entrp">   -832.58339096 </i>
    <i name="e_0_energy">   -832.58339104 </i>
   </energy>
  </scstep>
  <scstep>
   <time name="dav">   70.53   70.97</time>
   <time name="total">   76.10   76.62</time>
   <energy>
    <i name="alphaZ">    196.22536771 </i>
    <i name="ewald">  39641.93145471 </i>
    <i name="hartreedc"> -53837.10160657 </i>
    <i name="XCdc">   1420.49469672 </i>
    <i name="pawpsdc">  39739.41976187 </i>
    <i name="pawaedc"> -39825.16345837 </i>
    <i name="eentropy">     -0.00000016 </i>
    <i name="bandstr">  -4682.83354110 </i>
    <i name="atom">  16514.44393368 </i>
    <i name="e_fr_energy">   -832.58339151 </i>
    <i name="e_wo_entrp">   -832.58339135 </i>
    <i name="e_0_energy">   -832.58339143 </i>
   </energy>
  </scstep>
  <structure>
   <crystal>
    <varray name="basis" >
     <v>      17.27103806       0.00000000       0.00000000 </v>
     <v>      -8.63551903      14.95715771       0.00000000 </v>
     <v>       0.00000000       0.00000000      15.00000000 </v>
    </varray>
    <i name="volume">   3874.88459904 </i>
    <varray name="rec_basis" >
     <v>       0.05790040       0.03342881       0.00000000 </v>
     <v>       0.00000000       0.06685762       0.00000000 </v>
     <v>       0.00000000       0.00000000       0.06666667 </v>
    </varray>
   </crystal>
   <varray name="positions" >
    <v>       0.99898145       0.99940762       0.49826106 </v>
    <v>       0.99765095       0.14126013       0.49675047 </v>
    <v>       0.99779489       0.28454635       0.49509908 </v>
    <v>       0.99854473       0.42787944       0.49499828 </v>
    <v>       0.99894896       0.57106906       0.49587485 </v>
    <v>       0.99989435       0.71415263       0.49745634 </v>
    <v>       0.00080516       0.85781270       0.49807312 </v>
    <v>       0.14317219       0.00136764       0.49585367 </v>
    <v>       0.14175511       0.14312814       0.49787371 </v>
    <v>       0.13965054       0.28428862       0.49754207 </v>
    <v>       0.14104808       0.42817932       0.49654845 </v>
    <v>       0.14215362       0.57098118       0.49483246 </v>
    <v>       0.14231790       0.71431258       0.49363647 </v>
    <v>       0.14291538       0.85796419       0.49392387 </v>
    <v>       0.28594332       0.00187626       0.49731428 </v>
    <v>       0.28612206       0.14558099       0.50141497 </v>
    <v>       0.28421696       0.29020861       0.50607370 </v>
    <v>       0.28131123       0.42358603       0.50707697 </v>
    <v>       0.28649050       0.57112202       0.50463380 </v>
    <v>       0.28452466       0.71460317       0.49873198 </v>
    <v>       0.28485570       0.85811586       0.49590407 </v>
    <v>       0.42806572       0.00086059       0.50095216 </v>
    <v>       0.42931748       0.14541618       0.50527747 </v>
    <v>       0.42705131       0.28465322       0.51619284 </v>
    <v>       0.42649436       0.85686941       0.50253617 </v>
    <v>       0.56986204       0.99861589       0.50378044 </v>
    <v>       0.57086967       0.14252849       0.50562804 </v>
    <v>       0.57546003       0.28936161       0.51474385 </v>
    <v>       0.56794420       0.85362653       0.51052926 </v>
    <v>       0.71187114       0.99668978       0.50493820 </v>
    <v>       0.71298296       0.14112894       0.50249825 </v>
    <v>       0.71404298       0.28487183       0.50692731 </v>
    <v>       0.71110444       0.42492986       0.51887632 </v>
    <v>       0.72064552       0.57599386       0.53993252 </v>
    <v>       0.71220653       0.85303682       0.51521602 </v>
    <v>       0.85502176       0.99772318       0.50293476 </v>
    <v>       0.85486870       0.14084769       0.49887999 </v>
    <v>       0.85569629       0.28450545       0.49891282 </v>
    <v>       0.85632236       0.42794535       0.50303903 </v>
    <v>       0.85581913       0.57084867       0.50805521 </v>
    <v>       0.85911980       0.71514539       0.51047263 </v>
    <v>       0.85726605       0.85601477       0.50814933 </v>
    <v>       0.04633182       0.09468324       0.49700988 </v>
    <v>       0.04457002       0.23632993       0.49552821 </v>
    <v>       0.04567610       0.38014020       0.49465007 </v>
    <v>       0.04666263       0.52330222       0.49439003 </v>
    <v>       0.04708455       0.66648792       0.49483022 </v>
    <v>       0.04770521       0.80973635       0.49575118 </v>
    <v>       0.04768637       0.95287944       0.49681703 </v>
    <v>       0.19053496       0.09656823       0.49782655 </v>
    <v>       0.18828763       0.23818679       0.50003822 </v>
    <v>       0.18665496       0.37910609       0.49931665 </v>
    <v>       0.19015744       0.52361903       0.49756187 </v>
    <v>       0.18949238       0.66655157       0.49518230 </v>
    <v>       0.19001651       0.81001442       0.49382316 </v>
    <v>       0.19072831       0.95357476       0.49511077 </v>
    <v>       0.33387317       0.09784954       0.50114550 </v>
    <v>       0.33349739       0.24140272       0.50768819 </v>
    <v>       0.32774806       0.51911929       0.51325465 </v>
    <v>       0.33514354       0.66972456       0.50407872 </v>
    <v>       0.33181331       0.80977143       0.49862528 </v>
    <v>       0.33279585       0.95348789       0.49772540 </v>
    <v>       0.47588120       0.09619521       0.50384012 </v>
    <v>       0.47776200       0.24110545       0.51244090 </v>
    <v>       0.47042157       0.80550624       0.50714848 </v>
    <v>       0.47490004       0.95232141       0.50244042 </v>
    <v>       0.61772145       0.09397224       0.50382367 </v>
    <v>       0.61931512       0.23794003       0.50916634 </v>
    <v>       0.61841150       0.81004460       0.51867977 </v>
    <v>       0.61642160       0.94934883       0.50603499 </v>
    <v>       0.75976154       0.09264275       0.50169656 </v>
    <v>       0.76092914       0.23649705       0.50229750 </v>
    <v>       0.76142032       0.38001288       0.50940664 </v>
    <v>       0.76030349       0.52361556       0.52249544 </v>
    <v>       0.76540711       0.67104815       0.52663091 </v>
    <v>       0.76163858       0.80419373       0.51833593 </v>
    <v>       0.75954264       0.94880176       0.50713573 </v>
    <v>       0.90224279       0.09287708       0.49892547 </v>
    <v>       0.90265646       0.23643631       0.49685475 </v>
    <v>       0.90335978       0.38014495       0.49827271 </v>
    <v>       0.90358697       0.52345782       0.50132828 </v>
    <v>       0.90477561       0.66620092       0.50484646 </v>
    <v>       0.90586502       0.80987522       0.50484093 </v>
    <v>       0.90365235       0.95100363       0.50266274 </v>
    <v>       0.47113217       0.37304614       0.52953877 </v>
    <v>       0.41533621       0.55818387       0.52984820 </v>
    <v>       0.63809868       0.53769532       0.57398742 </v>
    <v>       0.57360148       0.72147432       0.53077255 </v>
    <v>       0.42453148       0.71536665       0.50775990 </v>
    <v>       0.71900068       0.71524783       0.53021295 </v>
    <v>       0.32784153       0.37968640       0.51020246 </v>
    <v>       0.62158481       0.37940885       0.52095875 </v>
    <v>       0.58057016       0.60790797       0.47212260 </v>
    <v>       0.50864284       0.50850971       0.46389172 </v>
    <v>       0.55497985       0.55816773       0.43022414 </v>
   </varray>
  </structure>
  <varray name="forces" >
   <v>       0.00028628      -0.00006526       0.00243479 </v>
   <v>      -0.00027536       0.00145549       0.00344920 </v>
   <v>       0.00120811      -0.00071294       0.00226449 </v>
   <v>      -0.00043322      -0.00134441       0.00414117 </v>
   <v>      -0.00126407      -0.00102349       0.00677925 </v>
   <v>       0.00307379      -0.00074191       0.00497209 </v>
   <v>       0.00238159      -0.00097910       0.00314198 </v>
   <v>      -0.00076169      -0.00132637       0.00303405 </v>
   <v>      -0.00224534       0.00028051       0.00358699 </v>
   <v>      -0.00153886      -0.00021649       0.00388996 </v>
   <v>       0.00002325      -0.00249901       0.00114109 </v>
   <v>       0.00030317      -0.00125836       0.00328900 </v>
   <v>       0.00005958      -0.00045377       0.00732172 </v>
   <v>       0.00120382      -0.00030033       0.00749771 </v>
   <v>      -0.00111204       0.00069443       0.00531096 </v>
   <v>      -0.00163304      -0.00101054       0.00446584 </v>
   <v>      -0.00168709       0.00020636       0.00208795 </v>
   <v>      -0.00149590      -0.00064871       0.00273263 </v>
   <v>      -0.00034003      -0.00032840       0.00172706 </v>
   <v>      -0.00061824       0.00093409       0.00717801 </v>
   <v>      -0.00065915       0.00001334       0.00681655 </v>
   <v>      -0.00137166      -0.00052345       0.00836469 </v>
   <v>      -0.00078654      -0.00030298       0.00586031 </v>
   <v>      -0.00029973      -0.00170448      -0.00152046 </v>
   <v>      -0.00115946      -0.00073340       0.00891139 </v>
   <v>      -0.00138763       0.00065281       0.00682101 </v>
   <v>      -0.00173376      -0.00007738       0.00527015 </v>
   <v>      -0.00060988       0.00027053       0.00615396 </v>
   <v>      -0.00184314      -0.00033824       0.00058274 </v>
   <v>      -0.00126257       0.00024993       0.00174564 </v>
   <v>      -0.00245023       0.00073846       0.00323374 </v>
   <v>      -0.00199388      -0.00093911       0.00488728 </v>
   <v>       0.00058296      -0.00024889       0.00416219 </v>
   <v>       0.00350724      -0.00022734       0.00406760 </v>
   <v>      -0.00023542      -0.00030245       0.00326134 </v>
   <v>       0.00030446       0.00086492       0.00253758 </v>
   <v>       0.00000644       0.00006881       0.00361322 </v>
   <v>      -0.00062378      -0.00141813       0.00252816 </v>
   <v>      -0.00234234      -0.00191134       0.00513362 </v>
   <v>       0.00146397      -0.00121865       0.00300888 </v>
   <v>       0.00427835      -0.00115608       0.00407485 </v>
   <v>       0.00178943      -0.00043546       0.00363782 </v>
   <v>       0.00190331      -0.00155419       0.00308122 </v>
   <v>      -0.00086144       0.00069587       0.00212245 </v>
   <v>      -0.00250062       0.00259272       0.00265572 </v>
   <v>      -0.00187155       0.00087058       0.00531963 </v>
   <v>      -0.00153359      -0.00105253       0.00667637 </v>
   <v>       0.00034283       0.00054182       0.00653339 </v>
   <v>       0.00079622      -0.00014526       0.00202778 </v>
   <v>       0.00086761      -0.00082897       0.00431337 </v>
   <v>       0.00064686       0.00026706       0.00371105 </v>
   <v>       0.00115916       0.00088249       0.00243694 </v>
   <v>      -0.00219141       0.00235798       0.00285691 </v>
   <v>      -0.00010847      -0.00192338       0.00569398 </v>
   <v>       0.00054162      -0.00171412       0.00685578 </v>
   <v>       0.00004798       0.00077074       0.00448214 </v>
   <v>      -0.00110169       0.00145647       0.00584434 </v>
   <v>      -0.00182909      -0.00086461       0.00146409 </v>
   <v>      -0.00217304       0.00048389       0.00055614 </v>
   <v>      -0.00026051      -0.00005794       0.00420895 </v>
   <v>      -0.00019762      -0.00030375       0.00921053 </v>
   <v>      -0.00109214       0.00013305       0.00699595 </v>
   <v>      -0.00113660      -0.00034396       0.00818908 </v>
   <v>      -0.00099797      -0.00004365       0.00373568 </v>
   <v>       0.00071076      -0.00104532       0.00602058 </v>
   <v>       0.00037529      -0.00073278       0.00872039 </v>
   <v>      -0.00006807      -0.00005922       0.00386296 </v>
   <v>      -0.00070039       0.00045276       0.00498895 </v>
   <v>       0.00290631       0.00001845       0.00375537 </v>
   <v>       0.00156954      -0.00067207       0.00239928 </v>
   <v>       0.00073235      -0.00166679       0.00453322 </v>
   <v>       0.00070604       0.00111411       0.00305480 </v>
   <v>       0.00022334       0.00108356       0.00471224 </v>
   <v>      -0.00003068       0.00090984       0.00381710 </v>
   <v>       0.00119881       0.00086288       0.00442487 </v>
   <v>       0.00058063      -0.00009603       0.00276110 </v>
   <v>       0.00097133      -0.00090089       0.00290062 </v>
   <v>      -0.00072200      -0.00172630       0.00172069 </v>
   <v>      -0.00164471      -0.00043957       0.00404184 </v>
   <v>       0.00019322       0.00104965       0.00470585 </v>
   <v>      -0.00064278       0.00113141       0.00446402 </v>
   <v>      -0.00181817       0.00073163       0.00128527 </v>
   <v>       0.00058039       0.00043548       0.00415713 </v>
   <v>       0.00010133      -0.00081252       0.00435588 </v>
   <v>      -0.00001331       0.00253291      -0.00705378 </v>
   <v>       0.00216420       0.00136921      -0.00726148 </v>
   <v>       0.00096837      -0.00196472       0.00602605 </v>
   <v>       0.00048683      -0.00337008       0.01015547 </v>
   <v>      -0.00119032      -0.00076383       0.00304756 </v>
   <v>       0.00090534      -0.00076336       0.00349963 </v>
   <v>      -0.00022584      -0.00073511       0.00132497 </v>
   <v>      -0.00070642       0.00098344       0.00345537 </v>
   <v>       0.00682652       0.00700482       0.00502079 </v>
   <v>       0.00441653       0.00808474       0.00293447 </v>
   <v>       0.00438732       0.00378015      -0.37440083 </v>
  </varray>
  <varray name="stress" >
   <v>       1.01165161       0.61973237      -0.00197335 </v>
   <v>       0.61973278      -9.56333782       0.00174096 </v>
   <v>      -0.00197412       0.00174078      -0.15781811 </v>
  </varray>
  <energy>
   <i name="e_fr_energy">   -840.25662003 </i>
   <i name="e_wo_entrp">   -840.25661987 </i>
   <i name="e_0_energy">   -840.25661995 </i>
  </energy>
  <time name="totalsc"> 1714.40 1725.71</time>
 </calculation>
 <calculation>
  <scstep>
   <time name="dav">   77.24   77.71</time>
   <time name="total">   88.28   88.84</time>
   <energy>
    <i name="alphaZ">    196.22536771 </i>
    <i name="ewald">  39640.24635928 </i>
    <i name="hartreedc"> -53835.56387886 </i>
    <i name="XCdc">   1420.48611202 </i>
    <i name="pawpsdc">  39738.08877792 </i>
    <i name="pawaedc"> -39823.83039494 </i>
    <i name="eentropy">     -0.00000016 </i>
    <i name="bandstr">  -4682.68078226 </i>
    <i name="atom">  16514.44393368 </i>
    <i name="e_fr_energy">   -832.58450561 </i>
    <i name="e_wo_entrp">   -832.58450545 </i>
    <i name="e_0_energy">   -832.58450553 </i>
   </energy>
  </scstep>
  <scstep>
   <time name="dav">   73.75   74.20</time>
   <time name="total">   85.11   85.67</time>
   <energy>
    <i name="e_fr_energy">   -832.58456950 </i>
    <i name="e_wo_entrp">   -832.58456934 </i>
    <i name="e_0_energy">   -832.58456942 </i>
   </energy>
  </scstep>
  <scstep>
   <time name="dav">   67.68   68.10</time>
   <time name="total">   78.74   79.26</time>
   <energy>
    <i name="e_fr_energy">   -832.58455390 </i>
    <i name="e_wo_entrp">   -832.58455374 </i>
    <i name="e_0_energy">   -832.58455382 </i>
   </energy>
  </scstep>
  <scstep>
   <time name="dav">   51.71   51.99</time>
   <time name="total">   56.94   57.32</time>
   <energy>
    <i name="alphaZ">    196.22536771 </i>
    <i name="ewald">  39640.24635928 </i>
    <i name="hartreedc"> -53835.34062766 </i>
    <i name="XCdc">   1420.47752356 </i>
    <i name="pawpsdc">  39736.67010405 </i>
    <i name="pawaedc"> -39822.40909923 </i>
    <i name="eentropy">     -0.00000016 </i>
    <i name="bandstr">  -4682.89811879 </i>
    <i name="atom">  16514.44393368 </i>
    <i name="e_fr_energy">   -832.58455758 </i>
    <i name="e_wo_entrp">   -832.58455741 </i>
    <i name="e_0_energy">   -832.58455750 </i>
   </energy>
  </scstep>
  <structure>
   <crystal>
    <varray name="basis" >
     <v>      17.27103806       0.00000000       0.00000000 </v>
     <v>      -8.63551903      14.95715771       0.00000000 </v>
     <v>       0.00000000       0.00000000      15.00000000 </v>
    </varray>
    <i name="volume">   3874.88459904 </i>
    <varray name="rec_basis" >
     <v>       0.05790040       0.03342881       0.00000000 </v>
     <v>       0.00000000       0.06685762       0.00000000 </v>
     <v>       0.00000000       0.00000000       0.06666667 </v>
    </varray>
   </crystal>
   <varray name="positions" >
    <v>       0.99898133       0.99940744       0.49826554 </v>
    <v>       0.99765098       0.14126094       0.49675469 </v>
    <v>       0.99779501       0.28454572       0.49510226 </v>
    <v>       0.99854365       0.42787839       0.49500316 </v>
    <v>       0.99894752       0.57106824       0.49588215 </v>
    <v>       0.99989554       0.71415199       0.49746303 </v>
    <v>       0.00080590       0.85781188       0.49807872 </v>
    <v>       0.14317098       0.00136660       0.49585677 </v>
    <v>       0.14175361       0.14312819       0.49787555 </v>
    <v>       0.13964919       0.28428830       0.49754302 </v>
    <v>       0.14104686       0.42817750       0.49654766 </v>
    <v>       0.14215298       0.57098020       0.49483461 </v>
    <v>       0.14231742       0.71431212       0.49364246 </v>
    <v>       0.14291563       0.85796382       0.49393053 </v>
    <v>       0.28594263       0.00187659       0.49731807 </v>
    <v>       0.28612053       0.14558020       0.50141600 </v>
    <v>       0.28421585       0.29020865       0.50606874 </v>
    <v>       0.28130986       0.42358545       0.50707055 </v>
    <v>       0.28648992       0.57112171       0.50462882 </v>
    <v>       0.28452435       0.71460369       0.49873502 </v>
    <v>       0.28485501       0.85811573       0.49590887 </v>
    <v>       0.42806448       0.00086008       0.50095827 </v>
    <v>       0.42931670       0.14541590       0.50528094 </v>
    <v>       0.42705059       0.28465220       0.51618467 </v>
    <v>       0.42649322       0.85686875       0.50254172 </v>
    <v>       0.56986120       0.99861617       0.50378629 </v>
    <v>       0.57086835       0.14252833       0.50563287 </v>
    <v>       0.57545949       0.28936184       0.51474896 </v>
    <v>       0.56794274       0.85362610       0.51053130 </v>
    <v>       0.71187024       0.99668977       0.50494247 </v>
    <v>       0.71298150       0.14112929       0.50250296 </v>
    <v>       0.71404120       0.28487111       0.50693367 </v>
    <v>       0.71110438       0.42492958       0.51888412 </v>
    <v>       0.72064842       0.57599388       0.53994505 </v>
    <v>       0.71220603       0.85303647       0.51522350 </v>
    <v>       0.85502199       0.99772362       0.50294043 </v>
    <v>       0.85486846       0.14084758       0.49888545 </v>
    <v>       0.85569515       0.28450436       0.49891760 </v>
    <v>       0.85632003       0.42794394       0.50304622 </v>
    <v>       0.85581934       0.57084774       0.50806215 </v>
    <v>       0.85912176       0.71514454       0.51048133 </v>
    <v>       0.85726681       0.85601444       0.50815714 </v>
    <v>       0.04633212       0.09468205       0.49701342 </v>
    <v>       0.04456940       0.23633021       0.49553049 </v>
    <v>       0.04567513       0.38014179       0.49465277 </v>
    <v>       0.04666146       0.52330267       0.49439533 </v>
    <v>       0.04708296       0.66648707       0.49483711 </v>
    <v>       0.04770527       0.80973656       0.49575842 </v>
    <v>       0.04768648       0.95287918       0.49682088 </v>
    <v>       0.19053490       0.09656753       0.49782895 </v>
    <v>       0.18828779       0.23818683       0.50003792 </v>
    <v>       0.18665553       0.37910650       0.49931482 </v>
    <v>       0.19015657       0.52362047       0.49756155 </v>
    <v>       0.18949134       0.66655016       0.49518576 </v>
    <v>       0.19001591       0.81001312       0.49382871 </v>
    <v>       0.19072828       0.95357512       0.49511474 </v>
    <v>       0.33387279       0.09785043       0.50114861 </v>
    <v>       0.33349592       0.24140211       0.50768376 </v>
    <v>       0.32774678       0.51911952       0.51324352 </v>
    <v>       0.33514319       0.66972442       0.50407739 </v>
    <v>       0.33181285       0.80977111       0.49863072 </v>
    <v>       0.33279498       0.95348784       0.49773044 </v>
    <v>       0.47588015       0.09619484       0.50384628 </v>
    <v>       0.47776124       0.24110546       0.51244135 </v>
    <v>       0.47042141       0.80550533       0.50715184 </v>
    <v>       0.47489976       0.95232077       0.50244675 </v>
    <v>       0.61772109       0.09397205       0.50382801 </v>
    <v>       0.61931454       0.23794027       0.50917157 </v>
    <v>       0.61841285       0.81004453       0.51868616 </v>
    <v>       0.61642203       0.94934821       0.50603859 </v>
    <v>       0.75976113       0.09264148       0.50170251 </v>
    <v>       0.76092961       0.23649767       0.50230254 </v>
    <v>       0.76142048       0.38001350       0.50941379 </v>
    <v>       0.76030383       0.52361612       0.52250470 </v>
    <v>       0.76540844       0.67104888       0.52664240 </v>
    <v>       0.76163891       0.80419374       0.51834466 </v>
    <v>       0.75954265       0.94880098       0.50714190 </v>
    <v>       0.90224153       0.09287576       0.49892971 </v>
    <v>       0.90265504       0.23643587       0.49686021 </v>
    <v>       0.90335990       0.38014551       0.49827896 </v>
    <v>       0.90358666       0.52345844       0.50133505 </v>
    <v>       0.90477458       0.66620131       0.50485211 </v>
    <v>       0.90586529       0.80987540       0.50484874 </v>
    <v>       0.90365194       0.95100298       0.50266980 </v>
    <v>       0.47113364       0.37304828       0.52951931 </v>
    <v>       0.41533841       0.55818504       0.52982272 </v>
    <v>       0.63810209       0.53769444       0.57400638 </v>
    <v>       0.57359991       0.72147204       0.53078420 </v>
    <v>       0.42453036       0.71536598       0.50775874 </v>
    <v>       0.71900152       0.71524775       0.53022451 </v>
    <v>       0.32784096       0.37968582       0.51019364 </v>
    <v>       0.62158435       0.37940941       0.52096460 </v>
    <v>       0.58058073       0.60791525       0.47213901 </v>
    <v>       0.50865163       0.50851901       0.46389980 </v>
    <v>       0.55499344       0.55817241       0.42998931 </v>
   </varray>
  </structure>
  <varray name="forces" >
   <v>       0.00039014      -0.00075460       0.00256650 </v>
   <v>      -0.00007528      -0.00007454       0.00331403 </v>
   <v>      -0.00066910       0.00038431       0.00234456 </v>
   <v>      -0.00103254       0.00042567       0.00422844 </v>
   <v>      -0.00106768      -0.00060624       0.00672334 </v>
   <v>       0.00109194      -0.00016949       0.00513383 </v>
   <v>       0.00112506      -0.00034504       0.00338977 </v>
   <v>      -0.00029070      -0.00048424       0.00311232 </v>
   <v>      -0.00021829      -0.00006578       0.00357478 </v>
   <v>      -0.00008957      -0.00010193       0.00373210 </v>
   <v>      -0.00045786      -0.00016862       0.00123434 </v>
   <v>      -0.00106233      -0.00050473       0.00342475 </v>
   <v>       0.00120250      -0.00141344       0.00586989 </v>
   <v>       0.00088422      -0.00003945       0.00741146 </v>
   <v>      -0.00084581       0.00089292       0.00540790 </v>
   <v>      -0.00126692      -0.00015266       0.00445544 </v>
   <v>      -0.00093787      -0.00004617       0.00186930 </v>
   <v>      -0.00064388       0.00031877       0.00241253 </v>
   <v>      -0.00077798      -0.00004359       0.00154792 </v>
   <v>      -0.00050665      -0.00010489       0.00713493 </v>
   <v>      -0.00048485      -0.00003191       0.00701714 </v>
   <v>      -0.00086099      -0.00045103       0.00848097 </v>
   <v>      -0.00097262       0.00028588       0.00601722 </v>
   <v>      -0.00115426      -0.00008197      -0.00158171 </v>
   <v>      -0.00007470      -0.00072241       0.00901776 </v>
   <v>      -0.00047909       0.00011309       0.00668756 </v>
   <v>      -0.00129653      -0.00016942       0.00539407 </v>
   <v>      -0.00163799      -0.00006235       0.00450094 </v>
   <v>       0.00056770      -0.00077032       0.00107845 </v>
   <v>       0.00016470      -0.00050773       0.00201757 </v>
   <v>      -0.00061373       0.00017028       0.00329694 </v>
   <v>      -0.00102729      -0.00002731       0.00485537 </v>
   <v>       0.00005504       0.00016768       0.00431845 </v>
   <v>       0.00286050       0.00096839       0.00395898 </v>
   <v>       0.00048008      -0.00032428       0.00329747 </v>
   <v>       0.00035721      -0.00033148       0.00272140 </v>
   <v>      -0.00037529      -0.00064522       0.00368652 </v>
   <v>      -0.00031818      -0.00011733       0.00277744 </v>
   <v>      -0.00079867      -0.00035027       0.00510015 </v>
   <v>       0.00018738      -0.00002398       0.00316818 </v>
   <v>       0.00246996       0.00203346       0.00299030 </v>
   <v>       0.00102735      -0.00050325       0.00391263 </v>
   <v>       0.00015224      -0.00036832       0.00309838 </v>
   <v>      -0.00048500       0.00037735       0.00228692 </v>
   <v>      -0.00095709       0.00027146       0.00257661 </v>
   <v>      -0.00119741      -0.00006556       0.00532531 </v>
   <v>      -0.00040186      -0.00082617       0.00677713 </v>
   <v>       0.00269847      -0.00100632       0.00535084 </v>
   <v>       0.00048946      -0.00052780       0.00213735 </v>
   <v>      -0.00078152      -0.00087853       0.00419006 </v>
   <v>      -0.00095293       0.00009453       0.00355640 </v>
   <v>       0.00017522      -0.00002569       0.00232726 </v>
   <v>      -0.00074123       0.00004369       0.00268837 </v>
   <v>      -0.00011048      -0.00093955       0.00575012 </v>
   <v>       0.00040497      -0.00104613       0.00703061 </v>
   <v>       0.00013063       0.00014270       0.00460046 </v>
   <v>      -0.00087835       0.00068071       0.00572029 </v>
   <v>      -0.00111270      -0.00066589       0.00131480 </v>
   <v>      -0.00084766      -0.00007509       0.00001274 </v>
   <v>      -0.00051406       0.00005005       0.00405249 </v>
   <v>      -0.00052562       0.00002273       0.00913013 </v>
   <v>      -0.00122009       0.00010676       0.00704270 </v>
   <v>      -0.00088546      -0.00058129       0.00810711 </v>
   <v>      -0.00076633      -0.00042985       0.00361092 </v>
   <v>      -0.00030692      -0.00069770       0.00574979 </v>
   <v>      -0.00041203      -0.00041742       0.00880020 </v>
   <v>      -0.00105125       0.00022068       0.00408312 </v>
   <v>      -0.00122387       0.00009144       0.00517705 </v>
   <v>       0.00019299      -0.00014275       0.00125716 </v>
   <v>      -0.00006716      -0.00069281       0.00246720 </v>
   <v>      -0.00048692      -0.00026166       0.00438944 </v>
   <v>      -0.00061133       0.00030850       0.00318998 </v>
   <v>      -0.00082924      -0.00012903       0.00488619 </v>
   <v>       0.00058626       0.00032237       0.00387777 </v>
   <v>       0.00174288      -0.00088359       0.00320442 </v>
   <v>       0.00062422      -0.00026688       0.00303353 </v>
   <v>       0.00025365      -0.00041541       0.00284792 </v>
   <v>       0.00001078      -0.00021540       0.00189309 </v>
   <v>      -0.00032519      -0.00036454       0.00389574 </v>
   <v>      -0.00067255      -0.00019362       0.00472776 </v>
   <v>      -0.00043726      -0.00055391       0.00466758 </v>
   <v>       0.00078886      -0.00029468       0.00162155 </v>
   <v>      -0.00018117       0.00062696       0.00335652 </v>
   <v>       0.00040583      -0.00028970       0.00424135 </v>
   <v>      -0.00398215      -0.00240104       0.00105189 </v>
   <v>       0.00219503       0.00015251      -0.00422634 </v>
   <v>       0.00050312      -0.00082636       0.00329159 </v>
   <v>       0.00050207       0.00086000       0.01004684 </v>
   <v>      -0.00035564      -0.00078864       0.00315495 </v>
   <v>       0.00091523      -0.00066551       0.00324259 </v>
   <v>      -0.00058671      -0.00003952       0.00158616 </v>
   <v>      -0.00035582       0.00085836       0.00352589 </v>
   <v>       0.01275670      -0.06312729      -0.07649517 </v>
   <v>       0.03651134       0.05913115      -0.05324277 </v>
   <v>      -0.03060406       0.02117696      -0.23759190 </v>
  </varray>
  <varray name="stress" >
   <v>       1.00603980       0.61301362       0.00579669 </v>
   <v>       0.61301402      -9.60470063      -0.00389922 </v>
   <v>       0.00579595      -0.00389943      -0.17020924 </v>
  </varray>
  <energy>
   <i name="e_fr_energy">   -840.25771837 </i>
   <i name="e_wo_entrp">   -840.25771821 </i>
   <i name="e_0_energy">   -840.25771829 </i>
  </energy>
  <time name="totalsc">  472.76  476.09</time>
 </calculation>
 <calculation>
  <scstep>
   <time name="dav">   74.95   75.43</time>
   <time name="total">   86.13   86.69</time>
   <energy>
    <i name="alphaZ">    196.22536771 </i>
    <i name="ewald">  39637.66789085 </i>
    <i name="hartreedc"> -53832.98155763 </i>
    <i name="XCdc">   1420.47011589 </i>
    <i name="pawpsdc">  39735.98759713 </i>
    <i name="pawaedc"> -39821.72537839 </i>
    <i name="eentropy">     -0.00000016 </i>
    <i name="bandstr">  -4682.67364667 </i>
    <i name="atom">  16514.44393368 </i>
    <i name="e_fr_energy">   -832.58567758 </i>
    <i name="e_wo_entrp">   -832.58567742 </i>
    <i name="e_0_energy">   -832.58567750 </i>
   </energy>
  </scstep>
  <scstep>
   <time name="dav">   73.34   73.78</time>
   <time name="total">   84.57   85.13</time>
   <energy>
    <i name="e_fr_energy">   -832.58586743 </i>
    <i name="e_wo_entrp">   -832.58586727 </i>
    <i name="e_0_energy">   -832.58586735 </i>
   </energy>
  </scstep>
  <scstep>
   <time name="dav">   69.96   70.37</time>
   <time name="total">   80.68   81.22</time>
   <energy>
    <i name="e_fr_energy">   -832.58584711 </i>
    <i name="e_wo_entrp">   -832.58584695 </i>
    <i name="e_0_energy">   -832.58584703 </i>
   </energy>
  </scstep>
  <scstep>
   <time name="dav">   52.97   53.25</time>
   <time name="total">   63.65   64.04</time>
   <energy>
    <i name="e_fr_energy">   -832.58586142 </i>
    <i name="e_wo_entrp">   -832.58586126 </i>
    <i name="e_0_energy">   -832.58586134 </i>
   </energy>
  </scstep>
  <scstep>
   <time name="dav">   52.06   52.38</time>
   <time name="total">   62.35   62.81</time>
   <energy>
    <i name="e_fr_energy">   -832.58587535 </i>
    <i name="e_wo_entrp">   -832.58587519 </i>
    <i name="e_0_energy">   -832.58587527 </i>
   </energy>
  </scstep>
  <scstep>
   <time name="dav">   50.26   50.56</time>
   <time name="total">   55.38   55.74</time>
   <energy>
    <i name="alphaZ">    196.22536771 </i>
    <i name="ewald">  39637.66789085 </i>
    <i name="hartreedc"> -53832.70737990 </i>
    <i name="XCdc">   1420.45919419 </i>
    <i name="pawpsdc">  39734.28754521 </i>
    <i name="pawaedc"> -39820.02057227 </i>
    <i name="eentropy">     -0.00000016 </i>
    <i name="bandstr">  -4682.94185441 </i>
    <i name="atom">  16514.44393368 </i>
    <i name="e_fr_energy">   -832.58587510 </i>
    <i name="e_wo_entrp">   -832.58587494 </i>
    <i name="e_0_energy">   -832.58587502 </i>
   </energy>
  </scstep>
  <structure>
   <crystal>
[...]
       <r>   -17.9927     7.0802    34.3194 </r>
       <r>   -17.8698     6.6803    35.1403 </r>
       <r>   -17.7469     8.2727    36.1570 </r>
       <r>   -17.6241    13.0792    37.7644 </r>
       <r>   -17.5012    11.5215    39.1804 </r>
       <r>   -17.3783     9.8893    40.3957 </r>
       <r>   -17.2554     3.9860    40.8856 </r>
       <r>   -17.1325     8.3205    41.9082 </r>
       <r>   -17.0096     4.8109    42.4994 </r>
       <r>   -16.8867     4.4141    43.0419 </r>
       <r>   -16.7638     6.4074    43.8293 </r>
       <r>   -16.6409    15.1910    45.6963 </r>
       <r>   -16.5180    13.5948    47.3670 </r>
       <r>   -16.3951     4.4986    47.9199 </r>
       <r>   -16.2722     0.6520    48.0000 </r>
       <r>   -16.1493     0.0003    48.0000 </r>
       <r>   -16.0264     0.9002    48.1107 </r>
       <r>   -15.9035     5.6137    48.8006 </r>
       <r>   -15.7806     4.1140    49.3062 </r>
       <r>   -15.6577     6.8890    50.1528 </r>
       <r>   -15.5348     6.4620    50.9470 </r>
       <r>   -15.4119     6.4057    51.7342 </r>
       <r>   -15.2890    13.5006    53.3934 </r>
       <r>   -15.1661     9.5937    54.5724 </r>
       <r>   -15.0432     5.1488    55.2052 </r>
       <r>   -14.9203     7.9008    56.1762 </r>
       <r>   -14.7974    10.8675    57.5117 </r>
       <r>   -14.6745     7.6943    58.4573 </r>
       <r>   -14.5516    12.9821    60.0528 </r>
       <r>   -14.4287    10.0899    61.2928 </r>
       <r>   -14.3058     5.9288    62.0214 </r>
       <r>   -14.1829     4.8879    62.6221 </r>
       <r>   -14.0601     3.5962    63.0641 </r>
       <r>   -13.9372     4.5680    63.6255 </r>
       <r>   -13.8143    11.0990    64.9895 </r>
       <r>   -13.6914    11.1365    66.3582 </r>
       <r>   -13.5685     8.0918    67.3526 </r>
       <r>   -13.4456     5.4545    68.0230 </r>
       <r>   -13.3227     4.0100    68.5158 </r>
       <r>   -13.1998     4.1384    69.0244 </r>
       <r>   -13.0769     5.0276    69.6422 </r>
       <r>   -12.9540     7.5713    70.5727 </r>
       <r>   -12.8311    12.3105    72.0857 </r>
       <r>   -12.7082    16.4499    74.1073 </r>
       <r>   -12.5853     5.5643    74.7911 </r>
       <r>   -12.4624     8.6683    75.8564 </r>
       <r>   -12.3395    10.5310    77.1507 </r>
       <r>   -12.2166     5.4275    77.8177 </r>
       <r>   -12.0937     4.3006    78.3462 </r>
       <r>   -11.9708     9.9999    79.5752 </r>
       <r>   -11.8479     9.8533    80.7861 </r>
       <r>   -11.7250    13.5376    82.4498 </r>
       <r>   -11.6021    10.5126    83.7418 </r>
       <r>   -11.4792    14.5620    85.5314 </r>
       <r>   -11.3563     8.9555    86.6320 </r>
       <r>   -11.2334    12.3453    88.1492 </r>
       <r>   -11.1105     9.6636    89.3368 </r>
       <r>   -10.9876     8.1215    90.3349 </r>
       <r>   -10.8647     7.4008    91.2445 </r>
       <r>   -10.7418     4.3545    91.7796 </r>
       <r>   -10.6189     9.2135    92.9119 </r>
       <r>   -10.4961    13.7574    94.6027 </r>
       <r>   -10.3732    14.8553    96.4283 </r>
       <r>   -10.2503    16.5594    98.4634 </r>
       <r>   -10.1274    22.0815   101.1772 </r>
       <r>   -10.0045    16.9898   103.2652 </r>
       <r>    -9.8816    17.3397   105.3962 </r>
       <r>    -9.7587    23.7867   108.3195 </r>
       <r>    -9.6358    27.1970   111.6619 </r>
       <r>    -9.5129    19.3439   114.0392 </r>
       <r>    -9.3900    18.4114   116.3019 </r>
       <r>    -9.2671    21.2980   118.9193 </r>
       <r>    -9.1442    22.1959   121.6471 </r>
       <r>    -9.0213    22.1485   124.3691 </r>
       <r>    -8.8984    20.9289   126.9412 </r>
       <r>    -8.7755    28.5327   130.4478 </r>
       <r>    -8.6526     8.0530   131.4375 </r>
       <r>    -8.5297    12.4691   132.9699 </r>
       <r>    -8.4068    23.8068   135.8956 </r>
       <r>    -8.2839    22.5028   138.6612 </r>
       <r>    -8.1610    18.8339   140.9758 </r>
       <r>    -8.0381    13.8973   142.6837 </r>
       <r>    -7.9152     8.9416   143.7826 </r>
       <r>    -7.7923    13.8860   145.4891 </r>
       <r>    -7.6694     8.6631   146.5538 </r>
       <r>    -7.5465    14.2614   148.3065 </r>
       <r>    -7.4236    29.1046   151.8833 </r>
       <r>    -7.3007    16.5046   153.9117 </r>
       <r>    -7.1778    20.6839   156.4537 </r>
       <r>    -7.0549    12.6773   158.0117 </r>
       <r>    -6.9320    16.3225   160.0177 </r>
       <r>    -6.8092     7.0853   160.8884 </r>
       <r>    -6.6863    10.9890   162.2389 </r>
       <r>    -6.5634    14.9365   164.0746 </r>
       <r>    -6.4405     9.3307   165.2213 </r>
       <r>    -6.3176    24.5068   168.2331 </r>
       <r>    -6.1947    13.0007   169.8308 </r>
       <r>    -6.0718    15.4406   171.7284 </r>
       <r>    -5.9489    10.4047   173.0071 </r>
       <r>    -5.8260     7.5787   173.9385 </r>
       <r>    -5.7031     9.7641   175.1385 </r>
       <r>    -5.5802     4.6523   175.7103 </r>
       <r>    -5.4573     1.4343   175.8865 </r>
       <r>    -5.3344     6.5178   176.6875 </r>
       <r>    -5.2115    19.3939   179.0710 </r>
       <r>    -5.0886    16.2780   181.0715 </r>
       <r>    -4.9657    12.2945   182.5824 </r>
       <r>    -4.8428     9.6736   183.7713 </r>
       <r>    -4.7199     2.5219   184.0812 </r>
       <r>    -4.5970     2.7204   184.4155 </r>
       <r>    -4.4741     9.7383   185.6123 </r>
       <r>    -4.3512    16.5141   187.6419 </r>
       <r>    -4.2283    13.5975   189.3130 </r>
       <r>    -4.1054     9.4496   190.4743 </r>
       <r>    -3.9825    21.5864   193.1272 </r>
       <r>    -3.8596     7.1147   194.0015 </r>
       <r>    -3.7367     1.8118   194.2242 </r>
       <r>    -3.6138     1.8517   194.4518 </r>
       <r>    -3.4909     3.6888   194.9051 </r>
       <r>    -3.3680     2.5421   195.2175 </r>
       <r>    -3.2452     0.8739   195.3249 </r>
       <r>    -3.1223     1.4219   195.4997 </r>
       <r>    -2.9994     1.0483   195.6285 </r>
       <r>    -2.8765     1.9203   195.8645 </r>
       <r>    -2.7536     1.1018   195.9999 </r>
       <r>    -2.6307     0.0075   196.0008 </r>
       <r>    -2.5078     1.9159   196.2363 </r>
       <r>    -2.3849     2.1338   196.4985 </r>
       <r>    -2.2620     0.0159   196.5005 </r>
       <r>    -2.1391     1.4903   196.6836 </r>
       <r>    -2.0162     2.4357   196.9830 </r>
       <r>    -1.8933     2.4024   197.2782 </r>
       <r>    -1.7704     4.7850   197.8663 </r>
       <r>    -1.6475     1.0878   198.0000 </r>
       <r>    -1.5246     0.3221   198.0396 </r>
       <r>    -1.4017     6.2294   198.8051 </r>
       <r>    -1.2788     4.7738   199.3918 </r>
       <r>    -1.1559     5.7040   200.0928 </r>
       <r>    -1.0330    17.2417   202.2118 </r>
       <r>    -0.9101     5.9965   202.9487 </r>
       <r>    -0.7872     6.3491   203.7290 </r>
       <r>    -0.6643    14.0321   205.4535 </r>
       <r>    -0.5414     4.9542   206.0623 </r>
       <r>    -0.4185     5.2167   206.7034 </r>
       <r>    -0.2956     8.0744   207.6958 </r>
       <r>    -0.1727     9.0485   208.8078 </r>
       <r>    -0.0498    11.8667   210.2662 </r>
       <r>     0.0731    11.2185   211.6449 </r>
       <r>     0.1960     2.8718   211.9978 </r>
       <r>     0.3188     1.2461   212.1510 </r>
       <r>     0.4417     6.8374   212.9912 </r>
       <r>     0.5646     7.6156   213.9272 </r>
       <r>     0.6875     5.4021   214.5911 </r>
       <r>     0.8104     4.5568   215.1511 </r>
       <r>     0.9333     8.3645   216.1791 </r>
       <r>     1.0562    11.7916   217.6282 </r>
       <r>     1.1791     2.4774   217.9327 </r>
       <r>     1.3020    15.3913   219.8242 </r>
       <r>     1.4249    21.7301   222.4948 </r>
       <r>     1.5478     7.9976   223.4776 </r>
       <r>     1.6707     6.8929   224.3248 </r>
       <r>     1.7936     7.6057   225.2595 </r>
       <r>     1.9165    13.3219   226.8967 </r>
       <r>     2.0394    29.4391   230.5147 </r>
       <r>     2.1623     6.6670   231.3340 </r>
       <r>     2.2852    14.7592   233.1479 </r>
       <r>     2.4081    22.8413   235.9550 </r>
       <r>     2.5310    16.8358   238.0240 </r>
       <r>     2.6539     8.5181   239.0709 </r>
       <r>     2.7768    18.6784   241.3664 </r>
       <r>     2.8997    39.6780   246.2427 </r>
       <r>     3.0226    43.4674   251.5847 </r>
       <r>     3.1455     6.7314   252.4119 </r>
       <r>     3.2684    13.7828   254.1058 </r>
       <r>     3.3913    20.3189   256.6029 </r>
       <r>     3.5142    25.7805   259.7713 </r>
       <r>     3.6371    12.1560   261.2652 </r>
       <r>     3.7600    20.4535   263.7789 </r>
       <r>     3.8829    30.8813   267.5741 </r>
       <r>     4.0057    31.1095   271.3973 </r>
       <r>     4.1286    13.1229   273.0101 </r>
       <r>     4.2515     9.4239   274.1683 </r>
       <r>     4.3744     6.7183   274.9939 </r>
       <r>     4.4973     0.0495   275.0000 </r>
       <r>     4.6202     0.0000   275.0000 </r>
       <r>     4.7431     0.0000   275.0000 </r>
       <r>     4.8660     0.0000   275.0000 </r>
       <r>     4.9889     0.0000   275.0000 </r>
       <r>     5.1118     0.0000   275.0000 </r>
       <r>     5.2347     0.0000   275.0000 </r>
       <r>     5.3576     0.0000   275.0000 </r>
       <r>     5.4805     0.0000   275.0000 </r>
       <r>     5.6034     0.0000   275.0000 </r>
       <r>     5.7263     0.0000   275.0000 </r>
       <r>     5.8492     0.0000   275.0000 </r>
       <r>     5.9721     0.0000   275.0000 </r>
      </set>
     </set>
    </array>
   </total>
  </dos>
 </calculation>
 <structure name="finalpos" >
  <crystal>
   <varray name="basis" >
    <v>      17.27103806       0.00000000       0.00000000 </v>
    <v>      -8.63551903      14.95715771       0.00000000 </v>
    <v>       0.00000000       0.00000000      15.00000000 </v>
   </varray>
   <i name="volume">   3874.88459904 </i>
   <varray name="rec_basis" >
    <v>       0.05790040       0.03342881       0.00000000 </v>
    <v>       0.00000000       0.06685762       0.00000000 </v>
    <v>       0.00000000       0.00000000       0.06666667 </v>
   </varray>
  </crystal>
  <varray name="positions" >
   <v>       0.99856778       0.99906727       0.50395488 </v>
   <v>       0.99724504       0.14091796       0.50139178 </v>
   <v>       0.99739868       0.28424084       0.50016101 </v>
   <v>       0.99810655       0.42753263       0.50106020 </v>
   <v>       0.99850221       0.57067210       0.50303682 </v>
   <v>       0.99945527       0.71374878       0.50462716 </v>
   <v>       0.00041421       0.85744363       0.50489209 </v>
   <v>       0.14267901       0.00092328       0.50093413 </v>
   <v>       0.14125084       0.14267035       0.49973874 </v>
   <v>       0.13916631       0.28388149       0.49770976 </v>
   <v>       0.14068727       0.42785441       0.49741244 </v>
   <v>       0.14179983       0.57057584       0.49854164 </v>
   <v>       0.14188456       0.71386330       0.49961007 </v>
   <v>       0.14242284       0.85747343       0.50053764 </v>
   <v>       0.28541956       0.00135679       0.50152002 </v>
   <v>       0.28567807       0.14513191       0.50110518 </v>
   <v>       0.28382828       0.28972619       0.49828368 </v>
   <v>       0.28119005       0.42316286       0.49670876 </v>
   <v>       0.28665707       0.57079982       0.49807783 </v>
   <v>       0.28421679       0.71419180       0.49958775 </v>
   <v>       0.28439209       0.85765455       0.50038897 </v>
   <v>       0.42758293       0.00035572       0.50456633 </v>
   <v>       0.42880045       0.14493276       0.50579714 </v>
   <v>       0.42709874       0.28488806       0.50446803 </v>
   <v>       0.42611232       0.85642857       0.50401208 </v>
   <v>       0.56943542       0.99817524       0.50655569 </v>
   <v>       0.57034956       0.14199888       0.50816216 </v>
   <v>       0.57482634       0.28882332       0.51275718 </v>
   <v>       0.56752717       0.85316097       0.51124855 </v>
   <v>       0.71147182       0.99640597       0.50831003 </v>
   <v>       0.71253160       0.14076680       0.50699697 </v>
   <v>       0.71351511       0.28443830       0.51053816 </v>
   <v>       0.71018876       0.42440751       0.51909099 </v>
   <v>       0.71794856       0.57502521       0.53397003 </v>
   <v>       0.71158885       0.85260855       0.51653172 </v>
   <v>       0.85458586       0.99740834       0.50739698 </v>
   <v>       0.85451574       0.14055445       0.50430974 </v>
   <v>       0.85526211       0.28411874       0.50498672 </v>
   <v>       0.85580024       0.42752996       0.50844438 </v>
   <v>       0.85511298       0.57038101       0.51289401 </v>
   <v>       0.85856972       0.71478201       0.51468467 </v>
   <v>       0.85683748       0.85571371       0.51244352 </v>
   <v>       0.04588995       0.09429005       0.50137106 </v>
   <v>       0.04409515       0.23597668       0.49933308 </v>
   <v>       0.04528273       0.37984949       0.49911794 </v>
   <v>       0.04628250       0.52295474       0.50047253 </v>
   <v>       0.04664607       0.66609069       0.50197281 </v>
   <v>       0.04725561       0.80931066       0.50291979 </v>
   <v>       0.04725122       0.95250234       0.50294176 </v>
   <v>       0.19004621       0.09611340       0.50025237 </v>
   <v>       0.18775244       0.23770823       0.49831382 </v>
   <v>       0.18625768       0.37870853       0.49688573 </v>
   <v>       0.18995854       0.52328518       0.49751419 </v>
   <v>       0.18912268       0.66613654       0.49879098 </v>
   <v>       0.18954257       0.80954151       0.49969698 </v>
   <v>       0.19020266       0.95307470       0.50061876 </v>
   <v>       0.33336233       0.09734873       0.50272218 </v>
   <v>       0.33322018       0.24111046       0.50086708 </v>
   <v>       0.32848280       0.51888076       0.49783340 </v>
   <v>       0.33505817       0.66935773       0.50027109 </v>
   <v>       0.33141007       0.80933562       0.50098556 </v>
   <v>       0.33230715       0.95301174       0.50207485 </v>
   <v>       0.47537590       0.09569521       0.50647555 </v>
   <v>       0.47732510       0.24080832       0.50805870 </v>
   <v>       0.47011569       0.80509007       0.50658091 </v>
   <v>       0.47448062       0.95185878       0.50521417 </v>
   <v>       0.61724806       0.09350606       0.50725628 </v>
   <v>       0.61877502       0.23741255       0.51076277 </v>
   <v>       0.61773735       0.80932678       0.51942432 </v>
   <v>       0.61603605       0.94895708       0.50821924 </v>
   <v>       0.75939228       0.09237738       0.50633180 </v>
   <v>       0.76047310       0.23611418       0.50740636 </v>
   <v>       0.76080422       0.37956246       0.51274822 </v>
   <v>       0.75892548       0.52300491       0.52257634 </v>
   <v>       0.76414899       0.67042903       0.52509780 </v>
   <v>       0.76095803       0.80382126       0.51903814 </v>
   <v>       0.75905148       0.94847674       0.51027033 </v>
   <v>       0.90187119       0.09256027       0.50403087 </v>
   <v>       0.90227542       0.23612400       0.50286867 </v>
   <v>       0.90291111       0.37976928       0.50454920 </v>
   <v>       0.90306124       0.52305522       0.50766168 </v>
   <v>       0.90421092       0.66576128       0.51064922 </v>
   <v>       0.90544509       0.80953998       0.51035115 </v>
   <v>       0.90323654       0.95071732       0.50781936 </v>
   <v>       0.47190545       0.37426629       0.50452878 </v>
   <v>       0.41762689       0.55784015       0.49970403 </v>
   <v>       0.63137366       0.53607387       0.55604221 </v>
   <v>       0.57292109       0.72074753       0.53163084 </v>
   <v>       0.42443917       0.71501154       0.50379537 </v>
   <v>       0.71760872       0.71446800       0.52646075 </v>
   <v>       0.32764295       0.37920693       0.49694897 </v>
   <v>       0.62070826       0.37882252       0.51865116 </v>
   <v>       0.59411188       0.61777683       0.43907555 </v>
   <v>       0.52501070       0.52050166       0.41873048 </v>
   <v>       0.57162812       0.57446376       0.39033877 </v>
  </varray>
  <varray name="selective"  type="logical" >
   <v type="logical" >  T  T  T </v>
   <v type="logical" >  T  T  T </v>
   <v type="logical" >  T  T  T </v>
   <v type="logical" >  T  T  T </v>
   <v type="logical" >  T  T  T </v>
   <v type="logical" >  T  T  T </v>
   <v type="logical" >  T  T  T </v>
   <v type="logical" >  T  T  T </v>
   <v type="logical" >  T  T  T </v>
   <v type="logical" >  T  T  T </v>
   <v type="logical" >  T  T  T </v>
   <v type="logical" >  T  T  T </v>
   <v type="logical" >  T  T  T </v>
   <v type="logical" >  T  T  T </v>
   <v type="logical" >  T  T  T </v>
   <v type="logical" >  T  T  T </v>
   <v type="logical" >  T  T  T </v>
   <v type="logical" >  T  T  T </v>
   <v type="logical" >  T  T  T </v>
   <v type="logical" >  T  T  T </v>
   <v type="logical" >  T  T  T </v>
   <v type="logical" >  T  T  T </v>
   <v type="logical" >  T  T  T </v>
   <v type="logical" >  T  T  T </v>
   <v type="logical" >  T  T  T </v>
   <v type="logical" >  T  T  T </v>
   <v type="logical" >  T  T  T </v>
   <v type="logical" >  T  T  T </v>
   <v type="logical" >  T  T  T </v>
   <v type="logical" >  T  T  T </v>
   <v type="logical" >  T  T  T </v>
   <v type="logical" >  T  T  T </v>
   <v type="logical" >  T  T  T </v>
   <v type="logical" >  T  T  T </v>
   <v type="logical" >  T  T  T </v>
   <v type="logical" >  T  T  T </v>
   <v type="logical" >  T  T  T </v>
   <v type="logical" >  T  T  T </v>
   <v type="logical" >  T  T  T </v>
   <v type="logical" >  T  T  T </v>
   <v type="logical" >  T  T  T </v>
   <v type="logical" >  T  T  T </v>
   <v type="logical" >  T  T  T </v>
   <v type="logical" >  T  T  T </v>
   <v type="logical" >  T  T  T </v>
   <v type="logical" >  T  T  T </v>
   <v type="logical" >  T  T  T </v>
   <v type="logical" >  T  T  T </v>
   <v type="logical" >  T  T  T </v>
   <v type="logical" >  T  T  T </v>
   <v type="logical" >  T  T  T </v>
   <v type="logical" >  T  T  T </v>
   <v type="logical" >  T  T  T </v>
   <v type="logical" >  T  T  T </v>
   <v type="logical" >  T  T  T </v>
   <v type="logical" >  T  T  T </v>
   <v type="logical" >  T  T  T </v>
   <v type="logical" >  T  T  T </v>
   <v type="logical" >  T  T  T </v>
   <v type="logical" >  T  T  T </v>
   <v type="logical" >  T  T  T </v>
   <v type="logical" >  T  T  T </v>
   <v type="logical" >  T  T  T </v>
   <v type="logical" >  T  T  T </v>
   <v type="logical" >  T  T  T </v>
   <v type="logical" >  T  T  T </v>
   <v type="logical" >  T  T  T </v>
   <v type="logical" >  T  T  T </v>
   <v type="logical" >  T  T  T </v>
   <v type="logical" >  T  T  T </v>
   <v type="logical" >  T  T  T </v>
   <v type="logical" >  T  T  T </v>
   <v type="logical" >  T  T  T </v>
   <v type="logical" >  T  T  T </v>
   <v type="logical" >  T  T  T </v>
   <v type="logical" >  T  T  T </v>
   <v type="logical" >  T  T  T </v>
   <v type="logical" >  T  T  T </v>
   <v type="logical" >  T  T  T </v>
   <v type="logical" >  T  T  T </v>
   <v type="logical" >  T  T  T </v>
   <v type="logical" >  T  T  T </v>
   <v type="logical" >  T  T  T </v>
   <v type="logical" >  T  T  T </v>
   <v type="logical" >  T  T  T </v>
   <v type="logical" >  T  T  T </v>
   <v type="logical" >  T  T  T </v>
   <v type="logical" >  T  T  T </v>
   <v type="logical" >  T  T  T </v>
   <v type="logical" >  T  T  T </v>
   <v type="logical" >  T  T  T </v>
   <v type="logical" >  T  T  T </v>
   <v type="logical" >  T  T  T </v>
   <v type="logical" >  T  T  T </v>
   <v type="logical" >  T  T  T </v>
  </varray>
  <nose>
   <v>      -3.00000000       0.00000000       0.00010000       0.00010000 </v>
  </nose>
 </structure>
</modeling>
