unknown system                          
           1
    17.271038    0.000000    0.000000
    -8.635519   14.957158    0.000000
     0.000000    0.000000   15.000000
   C    F    N    H    O 
    84     4     4     2     1
Direct configuration=     1
   0.99898133  0.99940744  0.49826554
   0.99765098  0.14126094  0.49675469
   0.99779501  0.28454572  0.49510226
   0.99854365  0.42787839  0.49500316
   0.99894752  0.57106824  0.49588215
   0.99989554  0.71415199  0.49746303
   0.00080590  0.85781188  0.49807872
   0.14317098  0.00136660  0.49585677
   0.14175361  0.14312819  0.49787555
   0.13964919  0.28428830  0.49754302
   0.14104686  0.42817750  0.49654766
   0.14215298  0.57098020  0.49483461
   0.14231742  0.71431212  0.49364246
   0.14291563  0.85796382  0.49393053
   0.28594263  0.00187659  0.49731807
   0.28612053  0.14558020  0.50141600
   0.28421585  0.29020865  0.50606874
   0.28130986  0.42358545  0.50707055
   0.28648992  0.57112171  0.50462882
   0.28452435  0.71460369  0.49873502
   0.28485501  0.85811573  0.49590887
   0.42806448  0.00086008  0.50095827
   0.42931670  0.14541590  0.50528094
   0.42705059  0.28465220  0.51618467
   0.42649322  0.85686875  0.50254172
   0.56986120  0.99861617  0.50378629
   0.57086835  0.14252833  0.50563287
   0.57545949  0.28936184  0.51474896
   0.56794274  0.85362610  0.51053130
   0.71187024  0.99668977  0.50494247
   0.71298150  0.14112929  0.50250296
   0.71404120  0.28487111  0.50693367
   0.71110438  0.42492958  0.51888412
   0.72064842  0.57599388  0.53994505
   0.71220603  0.85303647  0.51522350
   0.85502199  0.99772362  0.50294043
   0.85486846  0.14084758  0.49888545
   0.85569515  0.28450436  0.49891760
   0.85632003  0.42794394  0.50304622
   0.85581934  0.57084774  0.50806215
   0.85912176  0.71514454  0.51048133
   0.85726681  0.85601444  0.50815714
   0.04633212  0.09468205  0.49701342
   0.04456940  0.23633021  0.49553049
   0.04567513  0.38014179  0.49465277
   0.04666146  0.52330267  0.49439533
   0.04708296  0.66648707  0.49483711
   0.04770527  0.80973656  0.49575842
   0.04768648  0.95287918  0.49682088
   0.19053490  0.09656753  0.49782895
   0.18828779  0.23818683  0.50003792
   0.18665553  0.37910650  0.49931482
   0.19015657  0.52362047  0.49756155
   0.18949134  0.66655016  0.49518576
   0.19001591  0.81001312  0.49382871
   0.19072828  0.95357512  0.49511474
   0.33387279  0.09785043  0.50114861
   0.33349592  0.24140211  0.50768376
   0.32774678  0.51911952  0.51324352
   0.33514319  0.66972442  0.50407739
   0.33181285  0.80977111  0.49863072
   0.33279498  0.95348784  0.49773044
   0.47588015  0.09619484  0.50384628
   0.47776124  0.24110546  0.51244135
   0.47042141  0.80550533  0.50715184
   0.47489976  0.95232077  0.50244675
   0.61772109  0.09397205  0.50382801
   0.61931454  0.23794027  0.50917157
   0.61841285  0.81004453  0.51868616
   0.61642203  0.94934821  0.50603859
   0.75976113  0.09264148  0.50170251
   0.76092961  0.23649767  0.50230254
   0.76142048  0.38001350  0.50941379
   0.76030383  0.52361612  0.52250470
   0.76540844  0.67104888  0.52664240
   0.76163891  0.80419374  0.51834466
   0.75954265  0.94880098  0.50714190
   0.90224153  0.09287576  0.49892971
   0.90265504  0.23643587  0.49686021
   0.90335990  0.38014551  0.49827896
   0.90358666  0.52345844  0.50133505
   0.90477458  0.66620131  0.50485211
   0.90586529  0.80987540  0.50484874
   0.90365194  0.95100298  0.50266980
   0.47113364  0.37304828  0.52951931
   0.41533841  0.55818504  0.52982272
   0.63810209  0.53769444  0.57400638
   0.57359991  0.72147204  0.53078420
   0.42453036  0.71536598  0.50775874
   0.71900152  0.71524775  0.53022451
   0.32784096  0.37968582  0.51019364
   0.62158435  0.37940941  0.52096460
   0.58058073  0.60791525  0.47213901
   0.50865163  0.50851901  0.46389980
   0.55499344  0.55817241  0.42998931
Direct configuration=     2
   0.99898092  0.99940656  0.49827458
   0.99765061  0.14126144  0.49676307
   0.99779445  0.28454528  0.49510870
   0.99854175  0.42787762  0.49501305
   0.99894490  0.57106688  0.49589682
   0.99989692  0.71415113  0.49747659
   0.00080685  0.85781070  0.49809012
   0.14316918  0.00136511  0.49586308
   0.14175178  0.14312802  0.49787931
   0.13964746  0.28428772  0.49754492
   0.14104498  0.42817558  0.49654621
   0.14215110  0.57097879  0.49483908
   0.14231685  0.71431047  0.49365351
   0.14291604  0.85796329  0.49394395
   0.28594150  0.00187743  0.49732585
   0.28611800  0.14557925  0.50141819
   0.28421400  0.29020855  0.50605886
   0.28130800  0.42358500  0.50705773
   0.28648857  0.57112130  0.50461892
   0.28452342  0.71460397  0.49874129
   0.28485374  0.85811542  0.49591878
   0.42806233  0.00085911  0.50097079
   0.42931523  0.14541578  0.50528815
   0.42704919  0.28465135  0.51616842
   0.42649163  0.85686744  0.50255314
   0.56985988  0.99861633  0.50379803
   0.57086593  0.14252796  0.50564274
   0.57545760  0.28936205  0.51475805
   0.56794123  0.85362489  0.51053572
   0.71186908  0.99668919  0.50495119
   0.71297954  0.14112959  0.50251243
   0.71403857  0.28487034  0.50694642
   0.71110410  0.42492933  0.51889982
   0.72065430  0.57599482  0.53996987
   0.71220548  0.85303576  0.51523844
   0.85502206  0.99772362  0.50295189
   0.85486747  0.14084683  0.49889646
   0.85569352  0.28450312  0.49892733
   0.85631693  0.42794226  0.50306060
   0.85581941  0.57084677  0.50807611
   0.85912578  0.71514524  0.51049786
   0.85726782  0.85601372  0.50817293
   0.04633204  0.09468052  0.49702056
   0.04456827  0.23633057  0.49553521
   0.04567331  0.38014326  0.49465817
   0.04665919  0.52330288  0.49440603
   0.04708056  0.66648552  0.49485109
   0.04770637  0.80973583  0.49577208
   0.04768640  0.95287837  0.49682866
   0.19053368  0.09656607  0.49783376
   0.18828702  0.23818680  0.50003734
   0.18665571  0.37910666  0.49931121
   0.19015488  0.52362166  0.49756090
   0.18948962  0.66654804  0.49519286
   0.19001487  0.81001099  0.49384010
   0.19072806  0.95357539  0.49512285
   0.33387188  0.09785164  0.50115492
   0.33349346  0.24140102  0.50767495
   0.32774484  0.51911958  0.51322113
   0.33514236  0.66972424  0.50407484
   0.33181184  0.80977071  0.49864180
   0.33279314  0.95348773  0.49774073
   0.47587810  0.09619392  0.50385872
   0.47775971  0.24110519  0.51244229
   0.47042058  0.80550376  0.50715850
   0.47489881  0.95231969  0.50245969
   0.61771985  0.09397191  0.50383691
   0.61931290  0.23794048  0.50918225
   0.61841377  0.81004429  0.51869705
   0.61642183  0.94934696  0.50604587
   0.75976005  0.09263997  0.50171434
   0.76092940  0.23649833  0.50231273
   0.76141968  0.38001385  0.50942823
   0.76030470  0.52361682  0.52252320
   0.76541081  0.67104903  0.52666435
   0.76163953  0.80419363  0.51836224
   0.75954241  0.94879979  0.50715418
   0.90224005  0.09287424  0.49893829
   0.90265308  0.23643502  0.49687105
   0.90335911  0.38014572  0.49829152
   0.90358554  0.52345845  0.50134876
   0.90477384  0.66620134  0.50486359
   0.90586543  0.80987592  0.50486374
   0.90365151  0.95100207  0.50268383
   0.47113210  0.37304886  0.52948672
   0.41534241  0.55818649  0.52977436
   0.63810896  0.53769347  0.57404202
   0.57359837  0.72147060  0.53080754
   0.42452865  0.71536459  0.50775665
   0.71900323  0.71524763  0.53024732
   0.32783984  0.37968517  0.51017647
   0.62158361  0.37941045  0.52097634
   0.58057921  0.60787656  0.47210979
   0.50870987  0.50857655  0.46387326
   0.55500406  0.55819506  0.42961356
Direct configuration=     3
   0.99898019  0.99940462  0.49828795
   0.99764965  0.14126058  0.49677514
   0.99779274  0.28454593  0.49511709
   0.99853935  0.42787825  0.49502772
   0.99894028  0.57106614  0.49591723
   0.99989515  0.71415049  0.49749458
   0.00080763  0.85780949  0.49810692
   0.14316768  0.00136373  0.49587260
   0.14175074  0.14312722  0.49788517
   0.13964625  0.28428726  0.49754790
   0.14104322  0.42817534  0.49654469
   0.14214769  0.57097734  0.49484622
   0.14231546  0.71430726  0.49366962
   0.14291686  0.85796266  0.49396356
   0.28594039  0.00187878  0.49733775
   0.28611503  0.14557838  0.50142185
   0.28421214  0.29020832  0.50604514
   0.28130691  0.42358482  0.50703969
   0.28648674  0.57112147  0.50460650
   0.28452164  0.71460332  0.49875103
   0.28485221  0.85811484  0.49593405
   0.42805978  0.00085763  0.50098971
   0.42931324  0.14541568  0.50529932
   0.42704663  0.28465088  0.51614562
   0.42649033  0.85686569  0.50257052
   0.56985868  0.99861573  0.50381519
   0.57086511  0.14252801  0.50565659
   0.57545488  0.28936270  0.51477083
   0.56794067  0.85362267  0.51054281
   0.71186797  0.99668722  0.50496300
   0.71297702  0.14112931  0.50252537
   0.71403630  0.28487009  0.50696497
   0.71110342  0.42492932  0.51892278
   0.72066403  0.57599800  0.54000492
   0.71220582  0.85303466  0.51525989
   0.85502154  0.99772222  0.50296872
   0.85486500  0.14084466  0.49891138
   0.85569221  0.28450274  0.49894193
   0.85631482  0.42794134  0.50308154
   0.85581985  0.57084671  0.50809511
   0.85912959  0.71514725  0.51052141
   0.85726838  0.85601277  0.50819603
   0.04633092  0.09467951  0.49703115
   0.04456685  0.23633058  0.49554258
   0.04567110  0.38014299  0.49466611
   0.04665608  0.52330208  0.49442184
   0.04707889  0.66648340  0.49487173
   0.04770843  0.80973406  0.49579176
   0.04768652  0.95287831  0.49683898
   0.19053068  0.09656410  0.49784100
   0.18828447  0.23818634  0.50003691
   0.18665302  0.37910625  0.49930670
   0.19015167  0.52361780  0.49756029
   0.18948794  0.66654601  0.49520373
   0.19001377  0.81000854  0.49385729
   0.19072741  0.95357497  0.49513516
   0.33387036  0.09785249  0.50116442
   0.33349050  0.24139976  0.50766262
   0.32774325  0.51911895  0.51318914
   0.33514103  0.66972395  0.50407173
   0.33181025  0.80977043  0.49865843
   0.33279148  0.95348923  0.49775509
   0.47587517  0.09619246  0.50387715
   0.47775785  0.24110457  0.51244395
   0.47041882  0.80550165  0.50716832
   0.47489689  0.95231838  0.50247920
   0.61771657  0.09397135  0.50384938
   0.61930995  0.23794028  0.50919822
   0.61841228  0.81004177  0.51871117
   0.61642024  0.94934543  0.50605662
   0.75975814  0.09263915  0.50173135
   0.76092745  0.23649840  0.50232778
   0.76141711  0.38001292  0.50944946
   0.76030668  0.52361825  0.52254901
   0.76541086  0.67104817  0.52669425
   0.76164078  0.80419318  0.51838569
   0.75954200  0.94879874  0.50717177
   0.90223944  0.09287361  0.49895106
   0.90265157  0.23643386  0.49688664
   0.90335659  0.38014474  0.49830990
   0.90358312  0.52345658  0.50136903
   0.90477611  0.66620191  0.50487940
   0.90586685  0.80987637  0.50488513
   0.90365158  0.95100121  0.50270399
   0.47112844  0.37304921  0.52944516
   0.41534943  0.55818800  0.52970767
   0.63811111  0.53769375  0.57408804
   0.57359726  0.72147022  0.53083944
   0.42452703  0.71536267  0.50775434
   0.71900550  0.71524678  0.53027972
   0.32783841  0.37968518  0.51015316
   0.62158273  0.37941171  0.52099350
   0.58054548  0.60773954  0.47195907
   0.50886049  0.50872061  0.46375564
   0.55498681  0.55824635  0.42923564
Direct configuration=     4
   0.99897933  0.99940250  0.49830532
   0.99764814  0.14125883  0.49679035
   0.99778987  0.28454665  0.49512764
   0.99853642  0.42787913  0.49504693
   0.99893555  0.57106445  0.49594189
   0.99989286  0.71415007  0.49751663
   0.00080888  0.85780866  0.49812856
   0.14316671  0.00136253  0.49588525
   0.14174964  0.14312561  0.49789318
   0.13964469  0.28428690  0.49755195
   0.14104067  0.42817535  0.49654369
   0.14214319  0.57097499  0.49485645
   0.14231260  0.71430320  0.49368959
   0.14291681  0.85796093  0.49398771
   0.28593921  0.00188021  0.49735378
   0.28611152  0.14557721  0.50142704
   0.28421090  0.29020901  0.50602971
   0.28130577  0.42358426  0.50701716
   0.28648423  0.57112134  0.50459238
   0.28451921  0.71460183  0.49876430
   0.28485073  0.85811445  0.49595482
   0.42805718  0.00085598  0.50101484
   0.42931079  0.14541496  0.50531450
   0.42704317  0.28465079  0.51611927
   0.42648905  0.85686375  0.50259377
   0.56985689  0.99861388  0.50383715
   0.57086399  0.14252793  0.50567456
   0.57545162  0.28936356  0.51478706
   0.56794043  0.85361947  0.51055272
   0.71186722  0.99668565  0.50497475
   0.71297458  0.14112868  0.50254038
   0.71403436  0.28487174  0.50698860
   0.71110295  0.42493083  0.51895121
   0.72067585  0.57600299  0.54004920
   0.71220655  0.85303278  0.51528661
   0.85502043  0.99771929  0.50298924
   0.85486179  0.14084184  0.49892999
   0.85569067  0.28450250  0.49896138
   0.85631311  0.42794033  0.50310852
   0.85582078  0.57084778  0.50811853
   0.85913124  0.71514874  0.51055088
   0.85726842  0.85601194  0.50822553
   0.04632867  0.09467860  0.49704505
   0.04456485  0.23632986  0.49555269
   0.04566820  0.38014144  0.49467631
   0.04665202  0.52330079  0.49444236
   0.04707752  0.66648117  0.49489835
   0.04771010  0.80973207  0.49581692
   0.04768606  0.95287747  0.49685202
   0.19052858  0.09656327  0.49784949
   0.18828074  0.23818508  0.50003696
   0.18664923  0.37910432  0.49930155
   0.19014786  0.52361439  0.49755984
   0.18948628  0.66654382  0.49521836
   0.19001269  0.81000592  0.49388016
   0.19072619  0.95357366  0.49515177
   0.33386797  0.09785273  0.50117710
   0.33348805  0.24139815  0.50764856
   0.32774304  0.51911802  0.51314893
   0.33513902  0.66972333  0.50406873
   0.33180996  0.80977206  0.49867953
   0.33278951  0.95349075  0.49777374
   0.47587188  0.09619074  0.50389981
   0.47775551  0.24110399  0.51244638
   0.47041664  0.80549901  0.50718113
   0.47489417  0.95231661  0.50250521
   0.61771246  0.09397033  0.50386555
   0.61930578  0.23793989  0.50921794
   0.61840853  0.81003613  0.51872904
   0.61641732  0.94934361  0.50606936
   0.75975493  0.09263842  0.50175254
   0.76092445  0.23649743  0.50234597
   0.76141276  0.38001074  0.50947565
   0.76030916  0.52361929  0.52258167
   0.76541148  0.67104791  0.52673121
   0.76164195  0.80419152  0.51841505
   0.75954125  0.94879732  0.50719385
   0.90223899  0.09287307  0.49896789
   0.90264996  0.23643228  0.49690614
   0.90335177  0.38014121  0.49833316
   0.90357871  0.52345196  0.50139421
   0.90477907  0.66620230  0.50489974
   0.90586867  0.80987579  0.50491108
   0.90365329  0.95100169  0.50272834
   0.47112316  0.37305064  0.52939479
   0.41535905  0.55818946  0.52962622
   0.63811138  0.53769994  0.57413601
   0.57359705  0.72147109  0.53087991
   0.42452559  0.71536032  0.50775246
   0.71900747  0.71524537  0.53031954
   0.32783657  0.37968540  0.51012613
   0.62158147  0.37941311  0.52101522
   0.58049923  0.60753084  0.47167713
   0.50908915  0.50892798  0.46353118
   0.55493321  0.55832248  0.42889541
Direct configuration=     5
   0.99897921  0.99940145  0.49832738
   0.99764621  0.14125720  0.49680912
   0.99778632  0.28454533  0.49514141
   0.99853216  0.42787758  0.49507159
   0.99893157  0.57106127  0.49597203
   0.99989341  0.71414950  0.49754409
   0.00081090  0.85780786  0.49815588
   0.14316619  0.00136129  0.49590156
   0.14174550  0.14312362  0.49790219
   0.13964115  0.28428548  0.49755684
   0.14103747  0.42817407  0.49654493
   0.14213842  0.57097141  0.49487066
   0.14230915  0.71429929  0.49371505
   0.14291641  0.85795786  0.49401717
   0.28593743  0.00188068  0.49737320
   0.28610805  0.14557555  0.50143358
   0.28420926  0.29020976  0.50601178
   0.28130322  0.42358232  0.50698842
   0.28648123  0.57111975  0.50457549
   0.28451705  0.71460085  0.49878143
   0.28484968  0.85811472  0.49598228
   0.42805463  0.00085342  0.50104452
   0.42930761  0.14541336  0.50533270
   0.42703901  0.28465088  0.51609069
   0.42648764  0.85686207  0.50262221
   0.56985349  0.99861086  0.50386427
   0.57085963  0.14252715  0.50569640
   0.57544671  0.28936401  0.51480574
   0.56793926  0.85361541  0.51056613
   0.71186513  0.99668407  0.50498672
   0.71297050  0.14112609  0.50255742
   0.71403048  0.28487030  0.50701816
   0.71110189  0.42493222  0.51898642
   0.72068634  0.57600906  0.54010416
   0.71220624  0.85302939  0.51531914
   0.85501970  0.99771652  0.50301468
   0.85485860  0.14084040  0.49895202
   0.85568737  0.28449999  0.49898699
   0.85630940  0.42793662  0.50314272
   0.85582233  0.57084879  0.50814775
   0.85913088  0.71514787  0.51058699
   0.85726926  0.85601147  0.50826228
   0.04632611  0.09467667  0.49706290
   0.04456171  0.23632822  0.49556612
   0.04566430  0.38014028  0.49468905
   0.04664742  0.52329795  0.49446742
   0.04707395  0.66647860  0.49493005
   0.04771193  0.80973075  0.49584752
   0.04768504  0.95287499  0.49686918
   0.19052724  0.09656258  0.49785954
   0.18827735  0.23818288  0.50003740
   0.18664555  0.37910194  0.49929546
   0.19014377  0.52361329  0.49755945
   0.18948392  0.66654064  0.49523732
   0.19001134  0.81000272  0.49390968
   0.19072441  0.95357140  0.49517369
   0.33386473  0.09785217  0.50119337
   0.33348857  0.24139855  0.50763330
   0.32774651  0.51911810  0.51309891
   0.33513646  0.66972179  0.50406590
   0.33180848  0.80977283  0.49870472
   0.33278768  0.95349108  0.49779667
   0.47586914  0.09618908  0.50392755
   0.47775271  0.24110564  0.51244866
   0.47041503  0.80549553  0.50719728
   0.47489054  0.95231348  0.50253760
   0.61770907  0.09396853  0.50388659
   0.61930182  0.23793998  0.50924242
   0.61840073  0.81002791  0.51874953
   0.61641459  0.94934066  0.50608472
   0.75975157  0.09263919  0.50177557
   0.76092084  0.23649594  0.50236839
   0.76140879  0.38000954  0.50950825
   0.76031125  0.52362125  0.52262248
   0.76541793  0.67104975  0.52677722
   0.76164256  0.80418790  0.51845280
   0.75953996  0.94879428  0.50722078
   0.90223696  0.09287059  0.49898983
   0.90264638  0.23642894  0.49692838
   0.90334657  0.38013790  0.49836093
   0.90357344  0.52344667  0.50142538
   0.90477890  0.66620103  0.50492528
   0.90587036  0.80987444  0.50494324
   0.90365472  0.95100116  0.50275797
   0.47111669  0.37305693  0.52933373
   0.41537462  0.55819379  0.52953173
   0.63810912  0.53771612  0.57418051
   0.57359718  0.72147608  0.53092991
   0.42452410  0.71535744  0.50775073
   0.71900836  0.71524349  0.53036732
   0.32783472  0.37968511  0.51009468
   0.62157990  0.37941503  0.52104201
   0.58050402  0.60735742  0.47131949
   0.50932342  0.50911094  0.46322518
   0.55485799  0.55841235  0.42849460
Direct configuration=     6
   0.99897961  0.99940069  0.49835364
   0.99764312  0.14125545  0.49683122
   0.99778217  0.28454168  0.49515866
   0.99852616  0.42787303  0.49510099
   0.99892755  0.57105652  0.49600739
   0.99989544  0.71414840  0.49757701
   0.00081239  0.85780604  0.49818820
   0.14316522  0.00136132  0.49591850
   0.14173996  0.14312145  0.49791233
   0.13963598  0.28428243  0.49756252
   0.14103315  0.42817114  0.49654827
   0.14213603  0.57096994  0.49488868
   0.14230596  0.71429591  0.49374641
   0.14291864  0.85795661  0.49405080
   0.28593602  0.00187944  0.49739345
   0.28610559  0.14557442  0.50144133
   0.28420701  0.29020946  0.50599195
   0.28130041  0.42357995  0.50695422
   0.28647888  0.57111705  0.50455592
   0.28451445  0.71460151  0.49880102
   0.28484846  0.85811449  0.49601170
   0.42805202  0.00085057  0.50107858
   0.42930414  0.14541185  0.50535384
   0.42703637  0.28465333  0.51606121
   0.42648695  0.85686075  0.50265400
   0.56984906  0.99860740  0.50389571
   0.57085290  0.14252611  0.50572124
   0.57544155  0.28936480  0.51482675
   0.56793660  0.85361298  0.51058201
   0.71186223  0.99668388  0.50499992
   0.71296481  0.14112298  0.50257717
   0.71402528  0.28486840  0.50705262
   0.71109958  0.42493150  0.51902515
   0.72069635  0.57601650  0.54016698
   0.71220303  0.85302425  0.51535611
   0.85501917  0.99771441  0.50304507
   0.85485562  0.14083926  0.49897757
   0.85568181  0.28449500  0.49901803
   0.85630295  0.42793035  0.50318321
   0.85582313  0.57084840  0.50818292
   0.85913274  0.71514614  0.51062694
   0.85727289  0.85600988  0.50830091
   0.04632249  0.09467310  0.49708293
   0.04455702  0.23632617  0.49558126
   0.04565961  0.38013921  0.49470440
   0.04664240  0.52329400  0.49449668
   0.04706906  0.66647517  0.49496587
   0.04771493  0.80973218  0.49588175
   0.04768427  0.95287217  0.49689108
   0.19052663  0.09656090  0.49787063
   0.18827429  0.23818035  0.50003817
   0.18664186  0.37909983  0.49928868
   0.19013977  0.52361312  0.49755967
   0.18948034  0.66653672  0.49526038
   0.19000962  0.80999897  0.49394526
   0.19072260  0.95356862  0.49520058
   0.33386117  0.09785081  0.50121281
   0.33348797  0.24139929  0.50761690
   0.32775498  0.51912011  0.51304126
   0.33513392  0.66971936  0.50406380
   0.33180593  0.80977169  0.49873417
   0.33278611  0.95348939  0.49782312
   0.47586609  0.09618716  0.50395976
   0.47774879  0.24110599  0.51245175
   0.47041390  0.80549198  0.50721503
   0.47488680  0.95230961  0.50257601
   0.61770544  0.09396559  0.50391232
   0.61929899  0.23793942  0.50927108
   0.61839448  0.81002068  0.51877415
   0.61641261  0.94933665  0.50610259
   0.75974816  0.09263878  0.50179920
   0.76091644  0.23649374  0.50239509
   0.76140541  0.38000897  0.50954711
   0.76030927  0.52362000  0.52266931
   0.76542508  0.67105572  0.52683227
   0.76164063  0.80418187  0.51849805
   0.75953767  0.94878944  0.50725118
   0.90223450  0.09286734  0.49901545
   0.90264146  0.23642513  0.49695305
   0.90334207  0.38013501  0.49839340
   0.90356938  0.52344256  0.50146208
   0.90477629  0.66619913  0.50495638
   0.90587182  0.80987367  0.50498005
   0.90365461  0.95099887  0.50279108
   0.47111141  0.37306631  0.52926007
   0.41539338  0.55820164  0.52942403
   0.63810083  0.53774081  0.57421780
   0.57359626  0.72148069  0.53098994
   0.42452211  0.71535398  0.50774931
   0.71900886  0.71524073  0.53042038
   0.32783242  0.37968390  0.51006002
   0.62157766  0.37941746  0.52107284
   0.58060826  0.60731482  0.47096092
   0.50948745  0.50918650  0.46288664
   0.55478170  0.55849734  0.42794497
Direct configuration=     7
   0.99897621  0.99939885  0.49838636
   0.99763776  0.14125113  0.49685823
   0.99777596  0.28453680  0.49518246
   0.99851779  0.42786744  0.49513560
   0.99892216  0.57105005  0.49605321
   0.99989600  0.71414751  0.49762074
   0.00081263  0.85780347  0.49822987
   0.14316342  0.00136066  0.49593929
   0.14173484  0.14311832  0.49792532
   0.13963462  0.28428078  0.49756720
   0.14102674  0.42816782  0.49655434
   0.14213245  0.57096609  0.49491047
   0.14230191  0.71429228  0.49378943
   0.14292203  0.85795701  0.49409381
   0.28593391  0.00187596  0.49741872
   0.28610405  0.14557586  0.50144993
   0.28420338  0.29020722  0.50596820
   0.28129937  0.42357942  0.50691213
   0.28647827  0.57111388  0.50453086
   0.28451055  0.71460174  0.49882610
   0.28484608  0.85811216  0.49604810
   0.42804880  0.00084752  0.50112240
   0.42929948  0.14541055  0.50538133
   0.42703521  0.28465934  0.51602750
   0.42648392  0.85685611  0.50269203
   0.56984435  0.99860350  0.50393566
   0.57084758  0.14252518  0.50575249
   0.57543684  0.28936653  0.51485331
   0.56793492  0.85361345  0.51060298
   0.71185901  0.99668250  0.50501868
   0.71296000  0.14112412  0.50260156
   0.71401934  0.28486650  0.50709674
   0.71109529  0.42492889  0.51907344
   0.72070618  0.57602420  0.54023763
   0.71219646  0.85301694  0.51540171
   0.85501669  0.99771099  0.50308531
   0.85485165  0.14083631  0.49901039
   0.85567366  0.28448858  0.49905857
   0.85629878  0.42792442  0.50323551
   0.85581969  0.57084325  0.50822713
   0.85913760  0.71514634  0.51067660
   0.85727541  0.85600550  0.50834748
   0.04631932  0.09467003  0.49710692
   0.04455010  0.23632273  0.49560072
   0.04565324  0.38013550  0.49472539
   0.04663719  0.52328884  0.49453469
   0.04706433  0.66647024  0.49501065
   0.04771823  0.80973384  0.49592460
   0.04768508  0.95287356  0.49691547
   0.19052412  0.09655917  0.49788455
   0.18826935  0.23817749  0.50003930
   0.18663655  0.37909727  0.49928057
   0.19013608  0.52361136  0.49756170
   0.18947693  0.66653496  0.49528977
   0.19000775  0.80999493  0.49399185
   0.19072183  0.95356702  0.49523590
   0.33385750  0.09784842  0.50123789
   0.33348352  0.24139939  0.50759777
   0.32776838  0.51912267  0.51296970
   0.33513113  0.66971657  0.50406281
   0.33180311  0.80976946  0.49877251
   0.33278472  0.95348883  0.49785476
   0.47586022  0.09618427  0.50400070
   0.47774356  0.24110534  0.51245690
   0.47041168  0.80548857  0.50723706
   0.47488359  0.95230653  0.50262431
   0.61769859  0.09395473  0.50394200
   0.61929609  0.23794018  0.50930563
   0.61839442  0.81001734  0.51880537
   0.61641006  0.94933278  0.50612567
   0.75974452  0.09263578  0.50182369
   0.76090982  0.23649127  0.50242894
   0.76140118  0.38000922  0.50959652
   0.76030247  0.52361579  0.52272851
   0.76543257  0.67105932  0.52689906
   0.76163938  0.80417720  0.51855345
   0.75953215  0.94878527  0.50728479
   0.90223055  0.09286430  0.49904868
   0.90263530  0.23642138  0.49698387
   0.90333540  0.38012850  0.49843483
   0.90356802  0.52343993  0.50150889
   0.90477395  0.66619687  0.50499847
   0.90587425  0.80987270  0.50502689
   0.90365258  0.95099378  0.50283090
   0.47110941  0.37308059  0.52917393
   0.41542047  0.55821424  0.52928812
   0.63808743  0.53777534  0.57424077
   0.57359228  0.72148158  0.53107143
   0.42451900  0.71534971  0.50774848
   0.71900765  0.71523634  0.53048327
   0.32782839  0.37968143  0.51001836
   0.62157269  0.37941961  0.52111108
   0.58083451  0.60740655  0.47053068
   0.50959138  0.50914622  0.46245384
   0.55469354  0.55858815  0.42722646
Direct configuration=     8
   0.99896983  0.99939464  0.49842685
   0.99763105  0.14124522  0.49689215
   0.99776704  0.28453164  0.49521524
   0.99850891  0.42786106  0.49517796
   0.99891881  0.57104390  0.49611077
   0.99989820  0.71414986  0.49767548
   0.00081378  0.85780593  0.49828110
   0.14316203  0.00135865  0.49596679
   0.14173142  0.14311383  0.49794211
   0.13963223  0.28427894  0.49757110
   0.14101657  0.42816287  0.49656125
   0.14212641  0.57096052  0.49493861
   0.14229620  0.71428772  0.49384874
   0.14292025  0.85795425  0.49414926
   0.28593137  0.00187246  0.49745342
   0.28610317  0.14557711  0.50145796
   0.28419375  0.29020129  0.50594178
   0.28130057  0.42358155  0.50686404
   0.28648083  0.57111119  0.50450029
   0.28450355  0.71459729  0.49885739
   0.28484272  0.85810931  0.49609441
   0.42804632  0.00084458  0.50117765
   0.42929262  0.14540836  0.50541763
   0.42703376  0.28466796  0.51598803
   0.42647748  0.85685151  0.50273665
   0.56983932  0.99859576  0.50398617
   0.57084523  0.14252175  0.50578985
   0.57543213  0.28936839  0.51488727
   0.56793513  0.85361240  0.51063125
   0.71185594  0.99667854  0.50504222
   0.71295920  0.14111799  0.50262920
   0.71401399  0.28487022  0.50714934
   0.71108849  0.42492596  0.51913346
   0.72071583  0.57603466  0.54031411
   0.71219283  0.85301090  0.51545464
   0.85500991  0.99770361  0.50313364
   0.85484767  0.14083232  0.49905014
   0.85566187  0.28448037  0.49910640
   0.85629477  0.42791978  0.50329892
   0.85581053  0.57083484  0.50828422
   0.85914253  0.71514581  0.51074052
   0.85727343  0.85599832  0.50840212
   0.04631625  0.09466889  0.49713476
   0.04454307  0.23631744  0.49562412
   0.04564712  0.38012927  0.49475534
   0.04663191  0.52328178  0.49458437
   0.04706155  0.66646550  0.49506649
   0.04772032  0.80973240  0.49598020
   0.04768417  0.95287593  0.49694620
   0.19052043  0.09655786  0.49790056
   0.18826279  0.23817375  0.50004019
   0.18663149  0.37909568  0.49927062
   0.19013404  0.52360575  0.49756665
   0.18947299  0.66653406  0.49532848
   0.19000348  0.80999436  0.49404996
   0.19072237  0.95356722  0.49528105
   0.33385363  0.09784576  0.50126945
   0.33347764  0.24139883  0.50757748
   0.32779054  0.51912797  0.51288591
   0.33512781  0.66971342  0.50406306
   0.33179936  0.80976957  0.49881859
   0.33278203  0.95348632  0.49789542
   0.47584757  0.09617967  0.50404937
   0.47773823  0.24110677  0.51246592
   0.47040792  0.80548482  0.50726516
   0.47487905  0.95230238  0.50268592
   0.61768820  0.09394436  0.50397632
   0.61928966  0.23794040  0.50934881
   0.61839265  0.81001359  0.51884994
   0.61640902  0.94933328  0.50615584
   0.75974167  0.09263367  0.50184829
   0.76090226  0.23649192  0.50247380
   0.76139292  0.38000891  0.50965690
   0.76028988  0.52360906  0.52280400
   0.76544276  0.67105933  0.52697710
   0.76164166  0.80417569  0.51861995
   0.75952490  0.94878173  0.50732301
   0.90222355  0.09285864  0.49908861
   0.90262739  0.23641684  0.49702417
   0.90332061  0.38011479  0.49848534
   0.90356546  0.52343456  0.50157054
   0.90477597  0.66619278  0.50505169
   0.90587830  0.80986985  0.50508419
   0.90364403  0.95098893  0.50287977
   0.47111555  0.37310369  0.52906993
   0.41545314  0.55822234  0.52912712
   0.63805890  0.53781645  0.57424020
   0.57359673  0.72148524  0.53117097
   0.42451562  0.71534577  0.50774828
   0.71900510  0.71522975  0.53055523
   0.32782276  0.37967730  0.50996625
   0.62156418  0.37941930  0.52115838
   0.58113034  0.60751460  0.46986959
   0.50972318  0.50907559  0.46181574
   0.55457674  0.55873125  0.42653305
Direct configuration=     9
   0.99896172  0.99939187  0.49847720
   0.99762402  0.14124025  0.49693588
   0.99776206  0.28452180  0.49526140
   0.99849241  0.42784370  0.49523205
   0.99891867  0.57104689  0.49618471
   0.99990132  0.71415065  0.49774440
   0.00081830  0.85781146  0.49834511
   0.14316235  0.00135817  0.49600525
   0.14172741  0.14310946  0.49796316
   0.13962276  0.28427549  0.49757494
   0.14101130  0.42815985  0.49657110
   0.14212245  0.57095510  0.49497788
   0.14229275  0.71428664  0.49392376
   0.14291783  0.85795390  0.49422046
   0.28593002  0.00187164  0.49750338
   0.28609948  0.14557348  0.50146690