  97  97   0   0
  0.3994726E+02  0.1727104E-08  0.1727104E-08  0.1500000E-08  0.5000000E-16
   1.0000000000000000E-004
  CAR 
 unknown system                          
      5.90129848    -31.32533376  301     -2.53649580      1.00000000
    -31.325  0.0000E+00  0.0000E+00  0.0000E+00  0.0000E+00
    -31.201  0.0000E+00  0.0000E+00  0.0000E+00  0.0000E+00
    -31.077  0.0000E+00  0.0000E+00  0.0000E+00  0.0000E+00
    -30.953  0.0000E+00  0.0000E+00  0.0000E+00  0.0000E+00
    -30.829  0.0000E+00  0.0000E+00  0.0000E+00  0.0000E+00
    -30.705  0.0000E+00  0.0000E+00  0.0000E+00  0.0000E+00
    -30.581  0.0000E+00  0.0000E+00  0.0000E+00  0.0000E+00
    -30.457  0.0000E+00  0.0000E+00  0.0000E+00  0.0000E+00
    -30.333  0.0000E+00  0.0000E+00  0.0000E+00  0.0000E+00
    -30.209  0.0000E+00  0.0000E+00  0.0000E+00  0.0000E+00
    -30.084  0.0000E+00  0.0000E+00  0.0000E+00  0.0000E+00
    -29.960  0.0000E+00  0.0000E+00  0.0000E+00  0.0000E+00
    -29.836  0.1241E-09  0.1241E-09  0.1540E-10  0.1540E-10
    -29.712  0.3420E-03  0.3420E-03  0.4243E-04  0.4243E-04
    -29.588  0.2381E-01  0.2381E-01  0.2997E-02  0.2997E-02
    -29.464  0.1243E-01  0.1243E-01  0.4540E-02  0.4540E-02
    -29.340  0.1740E-01  0.1740E-01  0.6699E-02  0.6699E-02
    -29.216  0.3103E-01  0.3103E-01  0.1055E-01  0.1055E-01
    -29.092  0.6535E-01  0.6535E-01  0.1866E-01  0.1866E-01
    -28.968  0.1081E-01  0.1081E-01  0.2000E-01  0.2000E-01
    -28.844  0.1822E-05  0.1822E-05  0.2000E-01  0.2000E-01
    -28.719  0.3189E-14  0.3189E-14  0.2000E-01  0.2000E-01
    -28.595  0.0000E+00  0.0000E+00  0.2000E-01  0.2000E-01
    -28.471  0.0000E+00  0.0000E+00  0.2000E-01  0.2000E-01
    -28.347  0.0000E+00  0.0000E+00  0.2000E-01  0.2000E-01
    -28.223  0.0000E+00  0.0000E+00  0.2000E-01  0.2000E-01
    -28.099  0.0000E+00  0.0000E+00  0.2000E-01  0.2000E-01
    -27.975  0.0000E+00  0.0000E+00  0.2000E-01  0.2000E-01
    -27.851  0.0000E+00  0.0000E+00  0.2000E-01  0.2000E-01
    -27.727  0.0000E+00  0.0000E+00  0.2000E-01  0.2000E-01
    -27.603  0.0000E+00  0.0000E+00  0.2000E-01  0.2000E-01
    -27.479  0.0000E+00  0.0000E+00  0.2000E-01  0.2000E-01
    -27.354  0.0000E+00  0.0000E+00  0.2000E-01  0.2000E-01
    -27.230  0.0000E+00  0.0000E+00  0.2000E-01  0.2000E-01
    -27.106  0.0000E+00  0.0000E+00  0.2000E-01  0.2000E-01
    -26.982  0.0000E+00  0.0000E+00  0.2000E-01  0.2000E-01
    -26.858  0.0000E+00  0.0000E+00  0.2000E-01  0.2000E-01
    -26.734  0.0000E+00  0.0000E+00  0.2000E-01  0.2000E-01
    -26.610  0.0000E+00  0.0000E+00  0.2000E-01  0.2000E-01
    -26.486  0.0000E+00  0.0000E+00  0.2000E-01  0.2000E-01
    -26.362  0.0000E+00  0.0000E+00  0.2000E-01  0.2000E-01
    -26.238  0.0000E+00  0.0000E+00  0.2000E-01  0.2000E-01
    -26.114  0.0000E+00  0.0000E+00  0.2000E-01  0.2000E-01
    -25.990  0.0000E+00  0.0000E+00  0.2000E-01  0.2000E-01
    -25.865  0.0000E+00  0.0000E+00  0.2000E-01  0.2000E-01
    -25.741  0.0000E+00  0.0000E+00  0.2000E-01  0.2000E-01
    -25.617  0.0000E+00  0.0000E+00  0.2000E-01  0.2000E-01
    -25.493  0.0000E+00  0.0000E+00  0.2000E-01  0.2000E-01
    -25.369  0.0000E+00  0.0000E+00  0.2000E-01  0.2000E-01
    -25.245  0.0000E+00  0.0000E+00  0.2000E-01  0.2000E-01
    -25.121  0.0000E+00  0.0000E+00  0.2000E-01  0.2000E-01
    -24.997  0.0000E+00  0.0000E+00  0.2000E-01  0.2000E-01
    -24.873  0.0000E+00  0.0000E+00  0.2000E-01  0.2000E-01
    -24.749  0.0000E+00  0.0000E+00  0.2000E-01  0.2000E-01
    -24.625  0.0000E+00  0.0000E+00  0.2000E-01  0.2000E-01
    -24.500  0.0000E+00  0.0000E+00  0.2000E-01  0.2000E-01
    -24.376  0.0000E+00  0.0000E+00  0.2000E-01  0.2000E-01
    -24.252  0.0000E+00  0.0000E+00  0.2000E-01  0.2000E-01
    -24.128  0.0000E+00  0.0000E+00  0.2000E-01  0.2000E-01
    -24.004  0.0000E+00  0.0000E+00  0.2000E-01  0.2000E-01
    -23.880  0.0000E+00  0.0000E+00  0.2000E-01  0.2000E-01
    -23.756  0.0000E+00  0.0000E+00  0.2000E-01  0.2000E-01
    -23.632  0.0000E+00  0.0000E+00  0.2000E-01  0.2000E-01
    -23.508  0.0000E+00  0.0000E+00  0.2000E-01  0.2000E-01
    -23.384  0.0000E+00  0.0000E+00  0.2000E-01  0.2000E-01
    -23.260  0.0000E+00  0.0000E+00  0.2000E-01  0.2000E-01
    -23.135  0.0000E+00  0.0000E+00  0.2000E-01  0.2000E-01
    -23.011  0.0000E+00  0.0000E+00  0.2000E-01  0.2000E-01
    -22.887  0.0000E+00  0.0000E+00  0.2000E-01  0.2000E-01
    -22.763  0.0000E+00  0.0000E+00  0.2000E-01  0.2000E-01
    -22.639  0.0000E+00  0.0000E+00  0.2000E-01  0.2000E-01
    -22.515  0.3838E-08  0.3838E-08  0.2000E-01  0.2000E-01
    -22.391  0.1398E-02  0.1398E-02  0.2017E-01  0.2017E-01
    -22.267  0.3956E-01  0.3956E-01  0.2508E-01  0.2508E-01
    -22.143  0.1277E-01  0.1277E-01  0.2667E-01  0.2667E-01
    -22.019  0.3647E-05  0.3647E-05  0.2667E-01  0.2667E-01
    -21.895  0.7175E-03  0.7175E-03  0.2676E-01  0.2676E-01
    -21.770  0.2684E-01  0.2684E-01  0.3009E-01  0.3009E-01
    -21.646  0.4324E-01  0.4324E-01  0.3545E-01  0.3545E-01
    -21.522  0.1840E-01  0.1840E-01  0.3773E-01  0.3773E-01
    -21.398  0.2490E-01  0.2490E-01  0.4083E-01  0.4083E-01
    -21.274  0.1118E-01  0.1118E-01  0.4221E-01  0.4221E-01
    -21.150  0.1919E-01  0.1919E-01  0.4459E-01  0.4459E-01
    -21.026  0.3648E-01  0.3648E-01  0.4912E-01  0.4912E-01
    -20.902  0.2270E-01  0.2270E-01  0.5194E-01  0.5194E-01
    -20.778  0.1592E-01  0.1592E-01  0.5391E-01  0.5391E-01
    -20.654  0.1388E-01  0.1388E-01  0.5564E-01  0.5564E-01
    -20.530  0.2555E-01  0.2555E-01  0.5881E-01  0.5881E-01
    -20.406  0.2712E-01  0.2712E-01  0.6217E-01  0.6217E-01
    -20.281  0.3533E-01  0.3533E-01  0.6656E-01  0.6656E-01
    -20.157  0.1156E-01  0.1156E-01  0.6799E-01  0.6799E-01
    -20.033  0.5341E-02  0.5341E-02  0.6865E-01  0.6865E-01
    -19.909  0.2736E-01  0.2736E-01  0.7205E-01  0.7205E-01
    -19.785  0.2335E-01  0.2335E-01  0.7495E-01  0.7495E-01
    -19.661  0.3215E-01  0.3215E-01  0.7894E-01  0.7894E-01
    -19.537  0.3621E-01  0.3621E-01  0.8343E-01  0.8343E-01
    -19.413  0.2148E-01  0.2148E-01  0.8609E-01  0.8609E-01
    -19.289  0.1655E-01  0.1655E-01  0.8815E-01  0.8815E-01
    -19.165  0.1401E-01  0.1401E-01  0.8989E-01  0.8989E-01
    -19.041  0.1875E-01  0.1875E-01  0.9221E-01  0.9221E-01
    -18.916  0.1563E-01  0.1563E-01  0.9415E-01  0.9415E-01
    -18.792  0.2523E-01  0.2523E-01  0.9728E-01  0.9728E-01
    -18.668  0.5023E-01  0.5023E-01  0.1035E+00  0.1035E+00
    -18.544  0.2165E-01  0.2165E-01  0.1062E+00  0.1062E+00
    -18.420  0.2019E-01  0.2019E-01  0.1087E+00  0.1087E+00
    -18.296  0.3105E-01  0.3105E-01  0.1126E+00  0.1126E+00
    -18.172  0.1715E-01  0.1715E-01  0.1147E+00  0.1147E+00
    -18.048  0.1497E-01  0.1497E-01  0.1165E+00  0.1165E+00
    -17.924  0.1993E-01  0.1993E-01  0.1190E+00  0.1190E+00
    -17.800  0.1965E-01  0.1965E-01  0.1215E+00  0.1215E+00
    -17.676  0.2529E-01  0.2529E-01  0.1246E+00  0.1246E+00
    -17.551  0.5052E-01  0.5052E-01  0.1309E+00  0.1309E+00
    -17.427  0.3433E-01  0.3433E-01  0.1351E+00  0.1351E+00
    -17.303  0.3188E-01  0.3188E-01  0.1391E+00  0.1391E+00
    -17.179  0.1464E-01  0.1464E-01  0.1409E+00  0.1409E+00
    -17.055  0.2180E-01  0.2180E-01  0.1436E+00  0.1436E+00
    -16.931  0.2896E-01  0.2896E-01  0.1472E+00  0.1472E+00
    -16.807  0.1939E-01  0.1939E-01  0.1496E+00  0.1496E+00
    -16.683  0.1801E-01  0.1801E-01  0.1518E+00  0.1518E+00
    -16.559  0.4366E-01  0.4366E-01  0.1573E+00  0.1573E+00
    -16.435  0.4080E-01  0.4080E-01  0.1623E+00  0.1623E+00
    -16.311  0.2114E-01  0.2114E-01  0.1649E+00  0.1649E+00
    -16.187  0.5638E-03  0.5638E-03  0.1650E+00  0.1650E+00
    -16.062  0.1045E-01  0.1045E-01  0.1663E+00  0.1663E+00
    -15.938  0.5350E-02  0.5350E-02  0.1670E+00  0.1670E+00
    -15.814  0.9299E-02  0.9299E-02  0.1681E+00  0.1681E+00
    -15.690  0.2119E-01  0.2119E-01  0.1708E+00  0.1708E+00
    -15.566  0.1758E-01  0.1758E-01  0.1729E+00  0.1729E+00
    -15.442  0.2610E-01  0.2610E-01  0.1762E+00  0.1762E+00
    -15.318  0.2293E-01  0.2293E-01  0.1790E+00  0.1790E+00
    -15.194  0.4110E-01  0.4110E-01  0.1841E+00  0.1841E+00
    -15.070  0.2768E-01  0.2768E-01  0.1876E+00  0.1876E+00
    -14.946  0.2590E-01  0.2590E-01  0.1908E+00  0.1908E+00
    -14.822  0.2226E-01  0.2226E-01  0.1935E+00  0.1935E+00
    -14.697  0.3039E-01  0.3039E-01  0.1973E+00  0.1973E+00
    -14.573  0.3342E-01  0.3342E-01  0.2015E+00  0.2015E+00
    -14.449  0.4836E-01  0.4836E-01  0.2075E+00  0.2075E+00
    -14.325  0.3130E-01  0.3130E-01  0.2113E+00  0.2113E+00
    -14.201  0.1580E-01  0.1580E-01  0.2133E+00  0.2133E+00
    -14.077  0.1775E-01  0.1775E-01  0.2155E+00  0.2155E+00
    -13.953  0.1482E-01  0.1482E-01  0.2173E+00  0.2173E+00
    -13.829  0.1804E-01  0.1804E-01  0.2196E+00  0.2196E+00
    -13.705  0.4174E-01  0.4174E-01  0.2248E+00  0.2248E+00
    -13.581  0.3318E-01  0.3318E-01  0.2289E+00  0.2289E+00
    -13.457  0.2700E-01  0.2700E-01  0.2322E+00  0.2322E+00
    -13.332  0.1849E-01  0.1849E-01  0.2345E+00  0.2345E+00
    -13.208  0.7741E-02  0.7741E-02  0.2355E+00  0.2355E+00
    -13.084  0.1951E-01  0.1951E-01  0.2379E+00  0.2379E+00
    -12.960  0.2267E-01  0.2267E-01  0.2407E+00  0.2407E+00
    -12.836  0.2656E-01  0.2656E-01  0.2440E+00  0.2440E+00
    -12.712  0.7124E-01  0.7124E-01  0.2528E+00  0.2528E+00
    -12.588  0.2292E-01  0.2292E-01  0.2557E+00  0.2557E+00
    -12.464  0.2632E-01  0.2632E-01  0.2590E+00  0.2590E+00
    -12.340  0.4027E-01  0.4027E-01  0.2640E+00  0.2640E+00
    -12.216  0.2299E-01  0.2299E-01  0.2668E+00  0.2668E+00
    -12.092  0.2022E-01  0.2022E-01  0.2693E+00  0.2693E+00
    -11.967  0.2668E-01  0.2668E-01  0.2726E+00  0.2726E+00
    -11.843  0.4340E-01  0.4340E-01  0.2780E+00  0.2780E+00
    -11.719  0.3777E-01  0.3777E-01  0.2827E+00  0.2827E+00
    -11.595  0.4707E-01  0.4707E-01  0.2885E+00  0.2885E+00
    -11.471  0.3794E-01  0.3794E-01  0.2932E+00  0.2932E+00
    -11.347  0.3508E-01  0.3508E-01  0.2976E+00  0.2976E+00
    -11.223  0.4778E-01  0.4778E-01  0.3035E+00  0.3035E+00
    -11.099  0.3352E-01  0.3352E-01  0.3077E+00  0.3077E+00
    -10.975  0.3017E-01  0.3017E-01  0.3114E+00  0.3114E+00
    -10.851  0.2754E-01  0.2754E-01  0.3149E+00  0.3149E+00
    -10.727  0.3511E-01  0.3511E-01  0.3192E+00  0.3192E+00
    -10.603  0.2691E-01  0.2691E-01  0.3225E+00  0.3225E+00
    -10.478  0.4282E-01  0.4282E-01  0.3279E+00  0.3279E+00
    -10.354  0.5545E-01  0.5545E-01  0.3347E+00  0.3347E+00
    -10.230  0.5664E-01  0.5664E-01  0.3418E+00  0.3418E+00
    -10.106  0.5900E-01  0.5900E-01  0.3491E+00  0.3491E+00
     -9.982  0.6941E-01  0.6941E-01  0.3577E+00  0.3577E+00
     -9.858  0.7080E-01  0.7080E-01  0.3665E+00  0.3665E+00
     -9.734  0.5428E-01  0.5428E-01  0.3732E+00  0.3732E+00
     -9.610  0.7588E-01  0.7588E-01  0.3826E+00  0.3826E+00
     -9.486  0.6883E-01  0.6883E-01  0.3912E+00  0.3912E+00
     -9.362  0.9245E-01  0.9245E-01  0.4027E+00  0.4027E+00
     -9.238  0.7525E-01  0.7525E-01  0.4120E+00  0.4120E+00
     -9.113  0.5857E-01  0.5857E-01  0.4193E+00  0.4193E+00
     -8.989  0.7344E-01  0.7344E-01  0.4284E+00  0.4284E+00
     -8.865  0.9077E-01  0.9077E-01  0.4396E+00  0.4396E+00
     -8.741  0.7681E-01  0.7681E-01  0.4492E+00  0.4492E+00
     -8.617  0.5613E-01  0.5613E-01  0.4561E+00  0.4561E+00
     -8.493  0.3819E-01  0.3819E-01  0.4609E+00  0.4609E+00
     -8.369  0.6164E-01  0.6164E-01  0.4685E+00  0.4685E+00
     -8.245  0.6354E-01  0.6354E-01  0.4764E+00  0.4764E+00
     -8.121  0.6384E-01  0.6384E-01  0.4843E+00  0.4843E+00
     -7.997  0.7068E-01  0.7068E-01  0.4931E+00  0.4931E+00
     -7.873  0.5539E-01  0.5539E-01  0.5000E+00  0.5000E+00
     -7.748  0.3667E-01  0.3667E-01  0.5045E+00  0.5045E+00
     -7.624  0.4561E-01  0.4561E-01  0.5102E+00  0.5102E+00
     -7.500  0.4628E-01  0.4628E-01  0.5159E+00  0.5159E+00
     -7.376  0.7011E-01  0.7011E-01  0.5246E+00  0.5246E+00
     -7.252  0.5913E-01  0.5913E-01  0.5320E+00  0.5320E+00
     -7.128  0.6950E-01  0.6950E-01  0.5406E+00  0.5406E+00
     -7.004  0.6945E-01  0.6945E-01  0.5492E+00  0.5492E+00
     -6.880  0.3579E-01  0.3579E-01  0.5536E+00  0.5536E+00
     -6.756  0.4497E-01  0.4497E-01  0.5592E+00  0.5592E+00
     -6.632  0.3657E-01  0.3657E-01  0.5638E+00  0.5638E+00
     -6.508  0.2827E-01  0.2827E-01  0.5673E+00  0.5673E+00
     -6.383  0.3152E-01  0.3152E-01  0.5712E+00  0.5712E+00
     -6.259  0.7638E-01  0.7638E-01  0.5807E+00  0.5807E+00
     -6.135  0.6664E-01  0.6664E-01  0.5889E+00  0.5889E+00
     -6.011  0.1720E-01  0.1720E-01  0.5911E+00  0.5911E+00
     -5.887  0.4246E-01  0.4246E-01  0.5963E+00  0.5963E+00
     -5.763  0.4961E-01  0.4961E-01  0.6025E+00  0.6025E+00
     -5.639  0.3650E-01  0.3650E-01  0.6070E+00  0.6070E+00
     -5.515  0.1770E-01  0.1770E-01  0.6092E+00  0.6092E+00
     -5.391  0.2221E-01  0.2221E-01  0.6120E+00  0.6120E+00
     -5.267  0.9746E-02  0.9746E-02  0.6132E+00  0.6132E+00
     -5.143  0.5369E-01  0.5369E-01  0.6198E+00  0.6198E+00
     -5.019  0.5537E-01  0.5537E-01  0.6267E+00  0.6267E+00
     -4.894  0.5384E-01  0.5384E-01  0.6334E+00  0.6334E+00
     -4.770  0.1582E-01  0.1582E-01  0.6354E+00  0.6354E+00
     -4.646  0.2165E-01  0.2165E-01  0.6380E+00  0.6380E+00
     -4.522  0.1646E-01  0.1646E-01  0.6401E+00  0.6401E+00
     -4.398  0.4424E-01  0.4424E-01  0.6456E+00  0.6456E+00
     -4.274  0.2723E-01  0.2723E-01  0.6490E+00  0.6490E+00
     -4.150  0.2334E-01  0.2334E-01  0.6518E+00  0.6518E+00
     -4.026  0.4678E-01  0.4678E-01  0.6577E+00  0.6577E+00
     -3.902  0.2272E-01  0.2272E-01  0.6605E+00  0.6605E+00
     -3.778  0.1837E-01  0.1837E-01  0.6628E+00  0.6628E+00
     -3.654  0.9386E-02  0.9386E-02  0.6639E+00  0.6639E+00
     -3.529  0.2385E-01  0.2385E-01  0.6669E+00  0.6669E+00
     -3.405  0.6592E-02  0.6592E-02  0.6677E+00  0.6677E+00
     -3.281  0.1928E-01  0.1928E-01  0.6701E+00  0.6701E+00
     -3.157  0.6492E-02  0.6492E-02  0.6709E+00  0.6709E+00
     -3.033  0.6089E-02  0.6089E-02  0.6717E+00  0.6717E+00
     -2.909  0.1652E-03  0.1652E-03  0.6717E+00  0.6717E+00
     -2.785  0.6288E-02  0.6288E-02  0.6725E+00  0.6725E+00
     -2.661  0.7040E-02  0.7040E-02  0.6733E+00  0.6733E+00
     -2.537  0.6939E-04  0.6939E-04  0.6733E+00  0.6733E+00
     -2.413  0.7911E-04  0.7911E-04  0.6733E+00  0.6733E+00
     -2.289  0.1066E-01  0.1066E-01  0.6747E+00  0.6747E+00
     -2.164  0.2692E-02  0.2692E-02  0.6750E+00  0.6750E+00
     -2.040  0.5081E-03  0.5081E-03  0.6751E+00  0.6751E+00
     -1.916  0.6509E-02  0.6509E-02  0.6759E+00  0.6759E+00
     -1.792  0.1269E-01  0.1269E-01  0.6774E+00  0.6774E+00
     -1.668  0.1459E-01  0.1459E-01  0.6793E+00  0.6793E+00
     -1.544  0.5958E-02  0.5958E-02  0.6800E+00  0.6800E+00
     -1.420  0.1019E-02  0.1019E-02  0.6801E+00  0.6801E+00
     -1.296  0.1746E-01  0.1746E-01  0.6823E+00  0.6823E+00
     -1.172  0.1277E-01  0.1277E-01  0.6839E+00  0.6839E+00
     -1.048  0.3274E-01  0.3274E-01  0.6879E+00  0.6879E+00
     -0.924  0.5726E-01  0.5726E-01  0.6950E+00  0.6950E+00
     -0.799  0.1125E-01  0.1125E-01  0.6964E+00  0.6964E+00
     -0.675  0.3290E-01  0.3290E-01  0.7005E+00  0.7005E+00
     -0.551  0.3900E-01  0.3900E-01  0.7054E+00  0.7054E+00
     -0.427  0.1810E-01  0.1810E-01  0.7076E+00  0.7076E+00
     -0.303  0.1883E-01  0.1883E-01  0.7099E+00  0.7099E+00
     -0.179  0.1962E-01  0.1962E-01  0.7124E+00  0.7124E+00
     -0.055  0.3105E-01  0.3105E-01  0.7162E+00  0.7162E+00
      0.069  0.4710E-01  0.4710E-01  0.7221E+00  0.7221E+00
      0.193  0.3551E-01  0.3551E-01  0.7265E+00  0.7265E+00
      0.317  0.3894E-02  0.3894E-02  0.7270E+00  0.7270E+00
      0.441  0.1839E-01  0.1839E-01  0.7292E+00  0.7292E+00
      0.565  0.1706E-01  0.1706E-01  0.7314E+00  0.7314E+00
      0.690  0.2178E-01  0.2178E-01  0.7341E+00  0.7341E+00
      0.814  0.2166E-01  0.2166E-01  0.7368E+00  0.7368E+00
      0.938  0.2025E-01  0.2025E-01  0.7393E+00  0.7393E+00
      1.062  0.3599E-01  0.3599E-01  0.7437E+00  0.7437E+00
      1.186  0.1979E-01  0.1979E-01  0.7462E+00  0.7462E+00
      1.310  0.3188E-01  0.3188E-01  0.7501E+00  0.7501E+00
      1.434  0.7157E-01  0.7157E-01  0.7590E+00  0.7590E+00
      1.558  0.5293E-01  0.5293E-01  0.7656E+00  0.7656E+00
      1.682  0.2184E-01  0.2184E-01  0.7683E+00  0.7683E+00
      1.806  0.2242E-01  0.2242E-01  0.7711E+00  0.7711E+00
      1.930  0.4669E-01  0.4669E-01  0.7769E+00  0.7769E+00
      2.055  0.8371E-01  0.8371E-01  0.7873E+00  0.7873E+00
      2.179  0.4212E-01  0.4212E-01  0.7925E+00  0.7925E+00
      2.303  0.3564E-01  0.3564E-01  0.7969E+00  0.7969E+00
      2.427  0.6881E-01  0.6881E-01  0.8055E+00  0.8055E+00
      2.551  0.7456E-01  0.7456E-01  0.8147E+00  0.8147E+00
      2.675  0.3544E-01  0.3544E-01  0.8191E+00  0.8191E+00
      2.799  0.5991E-01  0.5991E-01  0.8265E+00  0.8265E+00
      2.923  0.1156E+00  0.1156E+00  0.8409E+00  0.8409E+00
      3.047  0.1453E+00  0.1453E+00  0.8589E+00  0.8589E+00
      3.171  0.4178E-01  0.4178E-01  0.8641E+00  0.8641E+00
      3.295  0.4503E-01  0.4503E-01  0.8697E+00  0.8697E+00
      3.420  0.5696E-01  0.5696E-01  0.8767E+00  0.8767E+00
      3.544  0.8493E-01  0.8493E-01  0.8873E+00  0.8873E+00
      3.668  0.5069E-01  0.5069E-01  0.8936E+00  0.8936E+00
      3.792  0.6940E-01  0.6940E-01  0.9022E+00  0.9022E+00
      3.916  0.9860E-01  0.9860E-01  0.9144E+00  0.9144E+00
      4.040  0.8907E-01  0.8907E-01  0.9255E+00  0.9255E+00
      4.164  0.5155E-01  0.5155E-01  0.9319E+00  0.9319E+00
      4.288  0.1168E-01  0.1167E-01  0.9333E+00  0.9333E+00
      4.412  0.8826E-04  0.8828E-04  0.9333E+00  0.9333E+00
      4.536  0.3119E-10  0.3121E-10  0.9333E+00  0.9333E+00
      4.660  0.0000E+00  0.0000E+00  0.9333E+00  0.9333E+00
      4.784  0.0000E+00  0.0000E+00  0.9333E+00  0.9333E+00
      4.909  0.0000E+00  0.0000E+00  0.9333E+00  0.9333E+00
      5.033  0.0000E+00  0.0000E+00  0.9333E+00  0.9333E+00
      5.157  0.0000E+00  0.0000E+00  0.9333E+00  0.9333E+00
      5.281  0.0000E+00  0.0000E+00  0.9333E+00  0.9333E+00
      5.405  0.0000E+00  0.0000E+00  0.9333E+00  0.9333E+00
      5.529  0.0000E+00  0.0000E+00  0.9333E+00  0.9333E+00
      5.653  0.0000E+00  0.0000E+00  0.9333E+00  0.9333E+00
      5.777  0.0000E+00  0.0000E+00  0.9333E+00  0.9333E+00
      5.901  0.0000E+00  0.0000E+00  0.9333E+00  0.9333E+00
