 vasp.6.4.2 20Jul23 (build Jan 24 2024 13:44:02) complex                         
 POSCAR found type information on POSCAR C F N H O 
 04/POSCAR found :  5 types and      97 ions
 scaLAPACK will be used selectively (only on CPU)
 LDA part: xc-table for Pade appr. of Perdew
 POSCAR found type information on POSCAR C F N H O 
 00/POSCAR found :  5 types and      97 ions
 POSCAR found type information on POSCAR C F N H O 
 06/POSCAR found :  5 types and      97 ions
 POSCAR, INCAR and KPOINTS ok, starting setup
 FFT: planning ... GRIDC
 FFT: planning ... GRID_SOFT
 FFT: planning ... GRID
 WAVECAR not read
 entering main loop
       N       E                     dE             d eps       ncg     rms          rms(c)
DAV:   1     0.376134137324E+04    0.37613E+04   -0.15574E+05  4840   0.111E+03
DAV:   2    -0.176189307576E+03   -0.39375E+04   -0.37228E+04  6700   0.275E+02
DAV:   3    -0.861560625427E+03   -0.68537E+03   -0.68212E+03  5550   0.120E+02
DAV:   4    -0.883835110525E+03   -0.22274E+02   -0.22165E+02  5530   0.269E+01
DAV:   5    -0.884523009100E+03   -0.68790E+00   -0.68690E+00  6430   0.403E+00    0.525E+01
DAV:   6    -0.866914473147E+03    0.17609E+02   -0.21173E+01  5450   0.969E+00    0.339E+01
DAV:   7    -0.846321886789E+03    0.20593E+02   -0.35126E+01  5290   0.100E+01    0.206E+01
DAV:   8    -0.841450457144E+03    0.48714E+01   -0.19913E+01  5270   0.700E+00    0.865E+00
DAV:   9    -0.841626491016E+03   -0.17603E+00   -0.11859E+00  5290   0.230E+00    0.406E+00
DAV:  10    -0.841450192858E+03    0.17630E+00   -0.51401E-01  5220   0.133E+00    0.143E+00
DAV:  11    -0.841420777040E+03    0.29416E-01   -0.15870E-01  5200   0.763E-01    0.394E-01
DAV:  12    -0.841420036193E+03    0.74085E-03   -0.26838E-02  5270   0.338E-01    0.152E-01
DAV:  13    -0.841420268401E+03   -0.23221E-03   -0.35815E-03  5360   0.120E-01    0.107E-01
DAV:  14    -0.841420273668E+03   -0.52670E-05   -0.49384E-04  5200   0.446E-02    0.755E-02
DAV:  15    -0.841420336197E+03   -0.62529E-04   -0.23621E-04  5050   0.340E-02    0.294E-02
DAV:  16    -0.841420347205E+03   -0.11008E-04   -0.62068E-05  5150   0.160E-02    0.180E-02
DAV:  17    -0.841420346183E+03    0.10215E-05   -0.17249E-05  5620   0.105E-02    0.820E-03
DAV:  18    -0.841420345902E+03    0.28140E-06   -0.46378E-06  4420   0.645E-03
   1 F= -.84925830E+03 E0= -.84925830E+03  d E =-.849258E+03  mag=    -0.0000
quench:  g(F)=  0.334E-03 g(S)=  0.000E+00 dE (1.order)=-0.668E-03
 bond charge predicted
       N       E                     dE             d eps       ncg     rms          rms(c)
DAV:   1    -0.841420400576E+03   -0.54393E-04   -0.35971E-03  4760   0.124E-01    0.124E-02
DAV:   2    -0.841420407011E+03   -0.64347E-05   -0.87721E-05  5270   0.187E-02    0.985E-03
DAV:   3    -0.841420406204E+03    0.80741E-06   -0.35333E-06  4970   0.408E-03
   2 F= -.84925835E+03 E0= -.84925835E+03  d E =-.565239E-04  mag=     0.0000
quench:  g(F)=  0.211E-03 g(S)=  0.000E+00 dE (1.order)=-0.824E-03
 bond charge predicted
       N       E                     dE             d eps       ncg     rms          rms(c)
DAV:   1    -0.841420475620E+03   -0.68609E-04   -0.10019E-02  4680   0.201E-01    0.197E-02
DAV:   2    -0.841420491049E+03   -0.15429E-04   -0.20668E-04  4700   0.277E-02    0.154E-02
DAV:   3    -0.841420490061E+03    0.98869E-06   -0.37689E-06  4910   0.415E-03
   3 F= -.84925842E+03 E0= -.84925842E+03  d E =-.651299E-04  mag=    -0.0000
quench:  g(F)=  0.212E-03 g(S)=  0.000E+00 dE (1.order)=-0.122E-02
 bond charge predicted
       N       E                     dE             d eps       ncg     rms          rms(c)
DAV:   1    -0.841420583081E+03   -0.92032E-04   -0.21284E-02  4660   0.294E-01    0.273E-02
DAV:   2    -0.841420616001E+03   -0.32919E-04   -0.42940E-04  4640   0.399E-02    0.212E-02
DAV:   3    -0.841420614565E+03    0.14358E-05   -0.76103E-06  5480   0.582E-03    0.163E-02
DAV:   4    -0.841420618485E+03   -0.39204E-05   -0.80024E-06  4500   0.697E-03    0.453E-03
DAV:   5    -0.841420619176E+03   -0.69091E-06   -0.24685E-06  3890   0.284E-03
   4 F= -.84925852E+03 E0= -.84925852E+03  d E =-.985468E-04  mag=     0.0000
quench:  g(F)=  0.220E-03 g(S)=  0.000E+00 dE (1.order)=-0.155E-02
 bond charge predicted
       N       E                     dE             d eps       ncg     rms          rms(c)
DAV:   1    -0.841420695840E+03   -0.77355E-04   -0.31014E-02  4680   0.356E-01    0.323E-02
DAV:   2    -0.841420747833E+03   -0.51993E-04   -0.66065E-04  4680   0.498E-02    0.251E-02
DAV:   3    -0.841420744073E+03    0.37597E-05   -0.13964E-05  5720   0.775E-03    0.195E-02
DAV:   4    -0.841420745810E+03   -0.17368E-05   -0.13732E-05  4600   0.892E-03    0.655E-03
DAV:   5    -0.841420747004E+03   -0.11943E-05   -0.42249E-06  4130   0.372E-03    0.354E-03
DAV:   6    -0.841420746976E+03    0.27860E-07   -0.78345E-07  3070   0.237E-03
   5 F= -.84925861E+03 E0= -.84925861E+03  d E =-.944944E-04  mag=    -0.0000
quench:  g(F)=  0.340E-03 g(S)=  0.000E+00 dE (1.order)=-0.174E-02
 bond charge predicted
       N       E                     dE             d eps       ncg     rms          rms(c)
DAV:   1    -0.841420780258E+03   -0.33253E-04   -0.28308E-02  4640   0.347E-01    0.322E-02
DAV:   2    -0.841420830662E+03   -0.50405E-04   -0.66110E-04  5200   0.499E-02    0.271E-02
DAV:   3    -0.841420824210E+03    0.64521E-05   -0.18371E-05  5920   0.856E-03    0.212E-02
DAV:   4    -0.841420821170E+03    0.30406E-05   -0.21437E-05  4620   0.104E-02    0.744E-03
DAV:   5    -0.841420821975E+03   -0.80571E-06   -0.55427E-06  4200   0.427E-03
   6 F= -.84925866E+03 E0= -.84925866E+03  d E =-.521084E-04  mag=     0.0000
quench:  g(F)=  0.544E-03 g(S)=  0.000E+00 dE (1.order)=-0.109E-02
 bond charge predicted
       N       E                     dE             d eps       ncg     rms          rms(c)
DAV:   1    -0.841420925590E+03   -0.10442E-03   -0.62343E-03  4660   0.164E-01    0.169E-02
DAV:   2    -0.841420936015E+03   -0.10425E-04   -0.15169E-04  5540   0.237E-02    0.147E-02
DAV:   3    -0.841420933638E+03    0.23769E-05   -0.59488E-06  5560   0.473E-03    0.112E-02
DAV:   4    -0.841420931862E+03    0.17763E-05   -0.55038E-06  4380   0.511E-03    0.457E-03
DAV:   5    -0.841420931942E+03   -0.79955E-07   -0.15024E-06  3250   0.230E-03
   7 F= -.84925877E+03 E0= -.84925877E+03  d E =-.101045E-03  mag=     0.0000
quench:  g(F)=  0.208E-03 g(S)=  0.000E+00 dE (1.order)=-0.793E-03
 bond charge predicted
       N       E                     dE             d eps       ncg     rms          rms(c)
DAV:   1    -0.841421000837E+03   -0.68975E-04   -0.84719E-03  4640   0.185E-01    0.165E-02
DAV:   2    -0.841421014419E+03   -0.13583E-04   -0.17268E-04  4620   0.256E-02    0.129E-02
DAV:   3    -0.841421013479E+03    0.93992E-06   -0.32948E-06  4630   0.391E-03
   8 F= -.84925883E+03 E0= -.84925883E+03  d E =-.650577E-04  mag=     0.0000
quench:  g(F)=  0.208E-03 g(S)=  0.000E+00 dE (1.order)=-0.116E-02
 bond charge predicted
       N       E                     dE             d eps       ncg     rms          rms(c)
DAV:   1    -0.841421105137E+03   -0.90718E-04   -0.18175E-02  4580   0.271E-01    0.256E-02
DAV:   2    -0.841421131691E+03   -0.26554E-04   -0.35375E-04  4620   0.366E-02    0.204E-02
DAV:   3    -0.841421130270E+03    0.14214E-05   -0.74806E-06  5430   0.572E-03    0.155E-02
DAV:   4    -0.841421132706E+03   -0.24359E-05   -0.69610E-06  4420   0.643E-03    0.467E-03
DAV:   5    -0.841421133391E+03   -0.68518E-06   -0.23198E-06  3750   0.269E-03
   9 F= -.84925893E+03 E0= -.84925893E+03  d E =-.959896E-04  mag=    -0.0000
quench:  g(F)=  0.225E-03 g(S)=  0.000E+00 dE (1.order)=-0.146E-02
 bond charge predicted
       N       E                     dE             d eps       ncg     rms          rms(c)
DAV:   1    -0.841421212072E+03   -0.79366E-04   -0.28012E-02  4540   0.339E-01    0.302E-02
DAV:   2    -0.841421258432E+03   -0.46360E-04   -0.58845E-04  4640   0.470E-02    0.241E-02
DAV:   3    -0.841421254940E+03    0.34920E-05   -0.12915E-05  5760   0.745E-03    0.187E-02
DAV:   4    -0.841421255853E+03   -0.91305E-06   -0.13371E-05  4500   0.875E-03    0.616E-03
DAV:   5    -0.841421256727E+03   -0.87351E-06   -0.40217E-06  4100   0.364E-03
  10 F= -.84925902E+03 E0= -.84925902E+03  d E =-.963677E-04  mag=     0.0000
quench:  g(F)=  0.353E-03 g(S)=  0.000E+00 dE (1.order)=-0.154E-02
 bond charge predicted
       N       E                     dE             d eps       ncg     rms          rms(c)
DAV:   1    -0.841421288716E+03   -0.32863E-04   -0.23677E-02  4540   0.320E-01    0.302E-02
DAV:   2    -0.841421330968E+03   -0.42252E-04   -0.55801E-04  5260   0.458E-02    0.256E-02
DAV:   3    -0.841421325567E+03    0.54016E-05   -0.17236E-05  5840   0.809E-03    0.198E-02
DAV:   4    -0.841421322899E+03    0.26672E-05   -0.15203E-05  4560   0.887E-03    0.787E-03
DAV:   5    -0.841421323666E+03   -0.76682E-06   -0.47085E-06  3720   0.398E-03
  11 F= -.84925907E+03 E0= -.84925907E+03  d E =-.431425E-04  mag=     0.0000
quench:  g(F)=  0.470E-03 g(S)=  0.000E+00 dE (1.order)=-0.920E-03
 bond charge predicted
       N       E                     dE             d eps       ncg     rms          rms(c)
DAV:   1    -0.841421421074E+03   -0.98174E-04   -0.47805E-03  4540   0.144E-01    0.148E-02
DAV:   2    -0.841421429281E+03   -0.82071E-05   -0.11858E-04  5470   0.208E-02    0.131E-02
DAV:   3    -0.841421427436E+03    0.18451E-05   -0.49315E-06  4720   0.431E-03    0.100E-02
DAV:   4    -0.841421426014E+03    0.14218E-05   -0.51109E-06  4320   0.476E-03    0.423E-03
DAV:   5    -0.841421426016E+03   -0.19645E-08   -0.10231E-06  2920   0.199E-03
  12 F= -.84925916E+03 E0= -.84925916E+03  d E =-.955931E-04  mag=    -0.0000
quench:  g(F)=  0.201E-03 g(S)=  0.000E+00 dE (1.order)=-0.768E-03
 bond charge predicted
       N       E                     dE             d eps       ncg     rms          rms(c)
DAV:   1    -0.841421493177E+03   -0.67163E-04   -0.79116E-03  4560   0.180E-01    0.159E-02
DAV:   2    -0.841421506253E+03   -0.13076E-04   -0.16418E-04  4560   0.250E-02    0.122E-02
DAV:   3    -0.841421505431E+03    0.82284E-06   -0.29840E-06  4480   0.374E-03
  13 F= -.84925922E+03 E0= -.84925922E+03  d E =-.630768E-04  mag=    -0.0000
quench:  g(F)=  0.206E-03 g(S)=  0.000E+00 dE (1.order)=-0.113E-02
 bond charge predicted
       N       E                     dE             d eps       ncg     rms          rms(c)
DAV:   1    -0.841421597904E+03   -0.91651E-04   -0.17694E-02  4520   0.270E-01    0.250E-02
DAV:   2    -0.841421624957E+03   -0.27053E-04   -0.35639E-04  4560   0.369E-02    0.196E-02
DAV:   3    -0.841421623672E+03    0.12851E-05   -0.68385E-06  5390   0.550E-03    0.150E-02
DAV:   4    -0.841421626561E+03   -0.28892E-05   -0.70582E-06  4320   0.648E-03    0.432E-03
DAV:   5    -0.841421627131E+03   -0.57020E-06   -0.21721E-06  3730   0.266E-03
  14 F= -.84925932E+03 E0= -.84925932E+03  d E =-.978058E-04  mag=    -0.0000
quench:  g(F)=  0.217E-03 g(S)=  0.000E+00 dE (1.order)=-0.140E-02
 bond charge predicted
       N       E                     dE             d eps       ncg     rms          rms(c)
DAV:   1    -0.841421703953E+03   -0.77392E-04   -0.29253E-02  4540   0.348E-01    0.308E-02
DAV:   2    -0.841421753464E+03   -0.49511E-04   -0.63253E-04  4560   0.492E-02    0.239E-02
DAV:   3    -0.841421750152E+03    0.33126E-05   -0.12880E-05  5740   0.741E-03    0.185E-02
DAV:   4    -0.841421752502E+03   -0.23501E-05   -0.12800E-05  4460   0.860E-03    0.620E-03
DAV:   5    -0.841421753628E+03   -0.11260E-05   -0.37904E-06  4090   0.355E-03    0.339E-03
DAV:   6    -0.841421753622E+03    0.58862E-08   -0.74217E-07  2880   0.222E-03
  15 F= -.84925942E+03 E0= -.84925942E+03  d E =-.971440E-04  mag=    -0.0000
quench:  g(F)=  0.322E-03 g(S)=  0.000E+00 dE (1.order)=-0.150E-02
 bond charge predicted
       N       E                     dE             d eps       ncg     rms          rms(c)
DAV:   1    -0.841421792932E+03   -0.39305E-04   -0.25202E-02  4520   0.328E-01    0.303E-02
DAV:   2    -0.841421836788E+03   -0.43856E-04   -0.58063E-04  4950   0.470E-02    0.254E-02
DAV:   3    -0.841421831248E+03    0.55400E-05   -0.16220E-05  5920   0.812E-03    0.197E-02
DAV:   4    -0.841421828938E+03    0.23103E-05   -0.18295E-05  4600   0.955E-03    0.732E-03
DAV:   5    -0.841421829678E+03   -0.73962E-06   -0.47881E-06  3990   0.401E-03
  16 F= -.84925947E+03 E0= -.84925947E+03  d E =-.499459E-04  mag=    -0.0000
quench:  g(F)=  0.459E-03 g(S)=  0.000E+00 dE (1.order)=-0.957E-03
 bond charge predicted
       N       E                     dE             d eps       ncg     rms          rms(c)
DAV:   1    -0.841421924781E+03   -0.95843E-04   -0.55638E-03  4540   0.155E-01    0.158E-02
DAV:   2    -0.841421933800E+03   -0.90187E-05   -0.13390E-04  5320   0.224E-02    0.139E-02
DAV:   3    -0.841421931653E+03    0.21463E-05   -0.58764E-06  5530   0.463E-03    0.104E-02
DAV:   4    -0.841421930196E+03    0.14577E-05   -0.45960E-06  4400   0.460E-03    0.462E-03
DAV:   5    -0.841421930236E+03   -0.40054E-07   -0.12428E-06  3200   0.212E-03
  17 F= -.84925956E+03 E0= -.84925956E+03  d E =-.931706E-04  mag=    -0.0000
quench:  g(F)=  0.193E-03 g(S)=  0.000E+00 dE (1.order)=-0.744E-03
 bond charge predicted
       N       E                     dE             d eps       ncg     rms          rms(c)
DAV:   1    -0.841421994581E+03   -0.64385E-04   -0.75689E-03  4540   0.176E-01    0.156E-02
DAV:   2    -0.841422006758E+03   -0.12177E-04   -0.15727E-04  4560   0.245E-02    0.121E-02
DAV:   3    -0.841422005986E+03    0.77171E-06   -0.29174E-06  4470   0.366E-03
  18 F= -.84925962E+03 E0= -.84925962E+03  d E =-.611838E-04  mag=     0.0000
quench:  g(F)=  0.194E-03 g(S)=  0.000E+00 dE (1.order)=-0.106E-02
 bond charge predicted
       N       E                     dE             d eps       ncg     rms          rms(c)
DAV:   1    -0.841422098365E+03   -0.91607E-04   -0.16629E-02  4520   0.261E-01    0.241E-02
DAV:   2    -0.841422123501E+03   -0.25136E-04   -0.33326E-04  4520   0.357E-02    0.190E-02
DAV:   3    -0.841422122273E+03    0.12280E-05   -0.65666E-06  5380   0.536E-03    0.145E-02
DAV:   4    -0.841422124878E+03   -0.26051E-05   -0.66938E-06  4320   0.616E-03    0.417E-03
DAV:   5    -0.841422125422E+03   -0.54445E-06   -0.20131E-06  3600   0.253E-03
  19 F= -.84925972E+03 E0= -.84925972E+03  d E =-.974225E-04  mag=    -0.0000
quench:  g(F)=  0.216E-03 g(S)=  0.000E+00 dE (1.order)=-0.132E-02
 bond charge predicted
       N       E                     dE             d eps       ncg     rms          rms(c)
DAV:   1    -0.841422208422E+03   -0.83544E-04   -0.27845E-02  4540   0.341E-01    0.301E-02
DAV:   2    -0.841422256483E+03   -0.48061E-04   -0.60953E-04  4520   0.481E-02    0.235E-02
DAV:   3    -0.841422253187E+03    0.32961E-05   -0.12127E-05  5780   0.720E-03    0.182E-02
DAV:   4    -0.841422255125E+03   -0.19376E-05   -0.12740E-05  4400   0.857E-03    0.599E-03
DAV:   5    -0.841422256211E+03   -0.10860E-05   -0.37811E-06  3910   0.350E-03    0.331E-03
DAV:   6    -0.841422256224E+03   -0.13875E-07   -0.71048E-07  2960   0.215E-03
  20 F= -.84925982E+03 E0= -.84925982E+03  d E =-.100394E-03  mag=     0.0000
quench:  g(F)=  0.311E-03 g(S)=  0.000E+00 dE (1.order)=-0.135E-02
 bond charge predicted
       N       E                     dE             d eps       ncg     rms          rms(c)
DAV:   1    -0.841422295833E+03   -0.39623E-04   -0.22593E-02  4520   0.311E-01    0.289E-02
DAV:   2    -0.841422335802E+03   -0.39969E-04   -0.53188E-04  5020   0.447E-02    0.245E-02
DAV:   3    -0.841422330662E+03    0.51396E-05   -0.16151E-05  5960   0.783E-03    0.191E-02
DAV:   4    -0.841422328177E+03    0.24855E-05   -0.15669E-05  4480   0.884E-03    0.744E-03
DAV:   5    -0.841422328949E+03   -0.77276E-06   -0.43574E-06  3540   0.390E-03
  21 F= -.84925988E+03 E0= -.84925988E+03  d E =-.595808E-04  mag=     0.0000
quench:  g(F)=  0.408E-03 g(S)=  0.000E+00 dE (1.order)=-0.882E-03
 bond charge predicted
       N       E                     dE             d eps       ncg     rms          rms(c)
DAV:   1    -0.841422426747E+03   -0.98570E-04   -0.58076E-03  4520   0.159E-01    0.160E-02
DAV:   2    -0.841422436730E+03   -0.99832E-05   -0.14385E-04  5260   0.231E-02    0.139E-02
DAV:   3    -0.841422434701E+03    0.20291E-05   -0.55825E-06  5100   0.453E-03    0.107E-02
DAV:   4    -0.841422433409E+03    0.12916E-05   -0.52127E-06  4260   0.492E-03    0.462E-03
DAV:   5    -0.841422433547E+03   -0.13714E-06   -0.12592E-06  3060   0.215E-03
  22 F= -.84925998E+03 E0= -.84925998E+03  d E =-.941339E-04  mag=    -0.0000
quench:  g(F)=  0.185E-03 g(S)=  0.000E+00 dE (1.order)=-0.725E-03
 bond charge predicted
       N       E                     dE             d eps       ncg     rms          rms(c)
DAV:   1    -0.841422500653E+03   -0.67243E-04   -0.76882E-03  4540   0.177E-01    0.157E-02
DAV:   2    -0.841422512630E+03   -0.11977E-04   -0.16094E-04  4520   0.246E-02    0.122E-02
DAV:   3    -0.841422511860E+03    0.76963E-06   -0.29575E-06  4630   0.368E-03
  23 F= -.84926004E+03 E0= -.84926004E+03  d E =-.659685E-04  mag=     0.0000
quench:  g(F)=  0.192E-03 g(S)=  0.000E+00 dE (1.order)=-0.101E-02
 bond charge predicted
       N       E                     dE             d eps       ncg     rms          rms(c)
DAV:   1    -0.841422604522E+03   -0.91892E-04   -0.16135E-02  4520   0.256E-01    0.244E-02
DAV:   2    -0.841422627769E+03   -0.23246E-04   -0.32004E-04  4520   0.347E-02    0.194E-02
DAV:   3    -0.841422626339E+03    0.14292E-05   -0.68079E-06  5390   0.541E-03    0.147E-02
DAV:   4    -0.841422629044E+03   -0.27044E-05   -0.65197E-06  4280   0.617E-03    0.451E-03
DAV:   5    -0.841422629768E+03   -0.72422E-06   -0.20802E-06  3580   0.256E-03
  24 F= -.84926014E+03 E0= -.84926014E+03  d E =-.959072E-04  mag=     0.0000
quench:  g(F)=  0.215E-03 g(S)=  0.000E+00 dE (1.order)=-0.118E-02
 bond charge predicted
       N       E                     dE             d eps       ncg     rms          rms(c)
DAV:   1    -0.841422699133E+03   -0.70090E-04   -0.22990E-02  4540   0.308E-01    0.280E-02
DAV:   2    -0.841422737086E+03   -0.37953E-04   -0.49596E-04  4630   0.431E-02    0.226E-02
DAV:   3    -0.841422733675E+03    0.34107E-05   -0.12092E-05  5800   0.702E-03    0.174E-02
DAV:   4    -0.841422734041E+03   -0.36587E-06   -0.11246E-05  4440   0.782E-03    0.618E-03
DAV:   5    -0.841422734989E+03   -0.94801E-06   -0.34105E-06  3730   0.336E-03
  25 F= -.84926022E+03 E0= -.84926022E+03  d E =-.819755E-04  mag=    -0.0000
quench:  g(F)=  0.282E-03 g(S)=  0.000E+00 dE (1.order)=-0.115E-02
 bond charge predicted
       N       E                     dE             d eps       ncg     rms          rms(c)
DAV:   1    -0.841422793114E+03   -0.59073E-04   -0.13658E-02  4520   0.242E-01    0.237E-02
DAV:   2    -0.841422816186E+03   -0.23072E-04   -0.32148E-04  5260   0.343E-02    0.207E-02
DAV:   3    -0.841422812107E+03    0.40784E-05   -0.11466E-05  5870   0.655E-03    0.159E-02
DAV:   4    -0.841422809547E+03    0.25607E-05   -0.10689E-05  4420   0.723E-03    0.648E-03
DAV:   5    -0.841422809857E+03   -0.31046E-06   -0.29213E-06  3520   0.315E-03
  26 F= -.84926028E+03 E0= -.84926028E+03  d E =-.577541E-04  mag=    -0.0000
quench:  g(F)=  0.339E-03 g(S)=  0.000E+00 dE (1.order)=-0.733E-03
 bond charge predicted
       N       E                     dE             d eps       ncg     rms          rms(c)
DAV:   1    -0.841422878495E+03   -0.68948E-04   -0.33069E-03  4520   0.119E-01    0.119E-02
DAV:   2    -0.841422883961E+03   -0.54663E-05   -0.78956E-05  5200   0.170E-02    0.105E-02
DAV:   3    -0.841422882811E+03    0.11499E-05   -0.29990E-06  4270   0.340E-03    0.809E-03
DAV:   4    -0.841422881991E+03    0.81991E-06   -0.36990E-06  4110   0.397E-03
  27 F= -.84926034E+03 E0= -.84926034E+03  d E =-.672779E-04  mag=     0.0000
quench:  g(F)=  0.174E-03 g(S)=  0.000E+00 dE (1.order)=-0.701E-03
 bond charge predicted
       N       E                     dE             d eps       ncg     rms          rms(c)
DAV:   1    -0.841422946173E+03   -0.63362E-04   -0.62201E-03  4540   0.157E-01    0.145E-02
DAV:   2    -0.841422955061E+03   -0.88884E-05   -0.12005E-04  4520   0.212E-02    0.117E-02
DAV:   3    -0.841422954321E+03    0.74022E-06   -0.24775E-06  4260   0.339E-03
  28 F= -.84926040E+03 E0= -.84926040E+03  d E =-.592448E-04  mag=    -0.0000
quench:  g(F)=  0.189E-03 g(S)=  0.000E+00 dE (1.order)=-0.941E-03
 bond charge predicted
       N       E                     dE             d eps       ncg     rms          rms(c)
DAV:   1    -0.841423052886E+03   -0.97825E-04   -0.13333E-02  4520   0.230E-01    0.218E-02
DAV:   2    -0.841423070476E+03   -0.17590E-04   -0.24151E-04  4540   0.302E-02    0.181E-02
DAV:   3    -0.841423069006E+03    0.14702E-05   -0.59647E-06  5340   0.509E-03    0.135E-02
DAV:   4    -0.841423070415E+03   -0.14092E-05   -0.62978E-06  4320   0.592E-03    0.377E-03
DAV:   5    -0.841423070758E+03   -0.34325E-06   -0.19381E-06  3570   0.244E-03
  29 F= -.84926049E+03 E0= -.84926049E+03  d E =-.903585E-04  mag=     0.0000
quench:  g(F)=  0.207E-03 g(S)=  0.000E+00 dE (1.order)=-0.105E-02
 bond charge predicted
       N       E                     dE             d eps       ncg     rms          rms(c)
DAV:   1    -0.841423160594E+03   -0.90179E-04   -0.20893E-02  4540   0.290E-01    0.268E-02
DAV:   2    -0.841423191434E+03   -0.30840E-04   -0.41535E-04  4640   0.394E-02    0.224E-02
DAV:   3    -0.841423187981E+03    0.34533E-05   -0.11455E-05  5820   0.692E-03    0.171E-02
DAV:   4    -0.841423187909E+03    0.71370E-07   -0.10747E-05  4400   0.768E-03    0.582E-03
DAV:   5    -0.841423188692E+03   -0.78243E-06   -0.33455E-06  3850   0.320E-03
  30 F= -.84926059E+03 E0= -.84926059E+03  d E =-.948723E-04  mag=     0.0000
quench:  g(F)=  0.261E-03 g(S)=  0.000E+00 dE (1.order)=-0.100E-02
 bond charge predicted
       N       E                     dE             d eps       ncg     rms          rms(c)
DAV:   1    -0.841423243144E+03   -0.55235E-04   -0.17734E-02  4520   0.273E-01    0.267E-02
DAV:   2    -0.841423271349E+03   -0.28205E-04   -0.40470E-04  5360   0.389E-02    0.233E-02
DAV:   3    -0.841423266305E+03    0.50442E-05   -0.15723E-05  5760   0.795E-03    0.179E-02
DAV:   4    -0.841423263309E+03    0.29965E-05   -0.11561E-05  4560   0.771E-03    0.751E-03
DAV:   5    -0.841423263778E+03   -0.46905E-06   -0.37749E-06  3660   0.361E-03
  31 F= -.84926064E+03 E0= -.84926064E+03  d E =-.516196E-04  mag=     0.0000
quench:  g(F)=  0.279E-03 g(S)=  0.000E+00 dE (1.order)=-0.683E-03
 bond charge predicted
       N       E                     dE             d eps       ncg     rms          rms(c)
DAV:   1    -0.841423351505E+03   -0.88196E-04   -0.40794E-03  4540   0.132E-01    0.138E-02
DAV:   2    -0.841423358148E+03   -0.66431E-05   -0.10097E-04  5500   0.193E-02    0.122E-02
DAV:   3    -0.841423356552E+03    0.15957E-05   -0.46199E-06  5040   0.424E-03    0.927E-03
DAV:   4    -0.841423355453E+03    0.10986E-05   -0.33107E-06  4060   0.396E-03    0.423E-03
DAV:   5    -0.841423355483E+03   -0.29722E-07   -0.96935E-07  2960   0.196E-03
  32 F= -.84926073E+03 E0= -.84926073E+03  d E =-.858997E-04  mag=    -0.0000
quench:  g(F)=  0.170E-03 g(S)=  0.000E+00 dE (1.order)=-0.683E-03
 bond charge predicted
       N       E                     dE             d eps       ncg     rms          rms(c)
DAV:   1    -0.841423428869E+03   -0.73416E-04   -0.64521E-03  4540   0.160E-01    0.145E-02
DAV:   2    -0.841423438205E+03   -0.93355E-05   -0.12511E-04  4520   0.218E-02    0.119E-02
DAV:   3    -0.841423437256E+03    0.94833E-06   -0.27864E-06  4500   0.357E-03
  33 F= -.84926079E+03 E0= -.84926079E+03  d E =-.674895E-04  mag=     0.0000
quench:  g(F)=  0.186E-03 g(S)=  0.000E+00 dE (1.order)=-0.879E-03
 bond charge predicted
       N       E                     dE             d eps       ncg     rms          rms(c)
DAV:   1    -0.841423537313E+03   -0.99109E-04   -0.13935E-02  4520   0.236E-01    0.228E-02
DAV:   2    -0.841423556704E+03   -0.19390E-04   -0.26164E-04  4740   0.315E-02    0.187E-02
DAV:   3    -0.841423555087E+03    0.16165E-05   -0.62799E-06  5460   0.524E-03    0.141E-02
DAV:   4    -0.841423556519E+03   -0.14316E-05   -0.61219E-06  4320   0.591E-03    0.409E-03
DAV:   5    -0.841423556947E+03   -0.42799E-06   -0.19522E-06  3600   0.247E-03
  34 F= -.84926089E+03 E0= -.84926089E+03  d E =-.100704E-03  mag=     0.0000
quench:  g(F)=  0.197E-03 g(S)=  0.000E+00 dE (1.order)=-0.977E-03
 bond charge predicted
       N       E                     dE             d eps       ncg     rms          rms(c)
DAV:   1    -0.841423646594E+03   -0.90075E-04   -0.23362E-02  4540   0.310E-01    0.294E-02
DAV:   2    -0.841423687947E+03   -0.41353E-04   -0.52288E-04  5020   0.441E-02    0.234E-02
DAV:   3    -0.841423684602E+03    0.33444E-05   -0.10940E-05  5700   0.697E-03    0.182E-02
DAV:   4    -0.841423684937E+03   -0.33424E-06   -0.11577E-05  4480   0.831E-03    0.578E-03
DAV:   5    -0.841423685747E+03   -0.80981E-06   -0.36530E-06  4240   0.346E-03
  35 F= -.84926099E+03 E0= -.84926099E+03  d E =-.996201E-04  mag=    -0.0000
quench:  g(F)=  0.252E-03 g(S)=  0.000E+00 dE (1.order)=-0.972E-03
 bond charge predicted
       N       E                     dE             d eps       ncg     rms          rms(c)
DAV:   1    -0.841423724135E+03   -0.39199E-04   -0.18609E-02  4520   0.282E-01    0.286E-02
DAV:   2    -0.841423764225E+03   -0.40090E-04   -0.50121E-04  5120   0.432E-02    0.232E-02
DAV:   3    -0.841423760591E+03    0.36342E-05   -0.12732E-05  5840   0.736E-03    0.184E-02
DAV:   4    -0.841423757828E+03    0.27630E-05   -0.10470E-05  4780   0.764E-03    0.736E-03
DAV:   5    -0.841423758353E+03   -0.52487E-06   -0.38427E-06  4080   0.396E-03
  36 F= -.84926106E+03 E0= -.84926106E+03  d E =-.686113E-04  mag=    -0.0000
quench:  g(F)=  0.267E-03 g(S)=  0.000E+00 dE (1.order)=-0.699E-03
 bond charge predicted
       N       E                     dE             d eps       ncg     rms          rms(c)
DAV:   1    -0.841423844869E+03   -0.87041E-04   -0.48906E-03  4540   0.146E-01    0.148E-02
DAV:   2    -0.841423854824E+03   -0.99544E-05   -0.13527E-04  5300   0.227E-02    0.126E-02
DAV:   3    -0.841423853490E+03    0.13339E-05   -0.43295E-06  5120   0.437E-03    0.998E-03
DAV:   4    -0.841423852398E+03    0.10918E-05   -0.32340E-06  4320   0.409E-03    0.448E-03
DAV:   5    -0.841423852520E+03   -0.12186E-06   -0.11811E-06  3120   0.229E-03
  37 F= -.84926114E+03 E0= -.84926114E+03  d E =-.769018E-04  mag=     0.0000
quench:  g(F)=  0.175E-03 g(S)=  0.000E+00 dE (1.order)=-0.686E-03
 bond charge predicted
       N       E                     dE             d eps       ncg     rms          rms(c)
DAV:   1    -0.841423924030E+03   -0.71632E-04   -0.60554E-03  4540   0.155E-01    0.139E-02
DAV:   2    -0.841423932754E+03   -0.87240E-05   -0.11732E-04  4560   0.210E-02    0.115E-02
DAV:   3    -0.841423931839E+03    0.91472E-06   -0.26894E-06  4380   0.352E-03
  38 F= -.84926121E+03 E0= -.84926121E+03  d E =-.654234E-04  mag=    -0.0000
quench:  g(F)=  0.186E-03 g(S)=  0.000E+00 dE (1.order)=-0.833E-03
 bond charge predicted
       N       E                     dE             d eps       ncg     rms          rms(c)
DAV:   1    -0.841424030555E+03   -0.97801E-04   -0.12444E-02  4520   0.222E-01    0.214E-02
DAV:   2    -0.841424046815E+03   -0.16259E-04   -0.22859E-04  4540   0.293E-02    0.179E-02
DAV:   3    -0.841424045171E+03    0.16436E-05   -0.59704E-06  5440   0.505E-03    0.133E-02
DAV:   4    -0.841424046472E+03   -0.13009E-05   -0.61020E-06  4320   0.574E-03    0.392E-03
DAV:   5    -0.841424046830E+03   -0.35805E-06   -0.18963E-06  3520   0.237E-03
  39 F= -.84926130E+03 E0= -.84926130E+03  d E =-.914015E-04  mag=    -0.0000
quench:  g(F)=  0.192E-03 g(S)=  0.000E+00 dE (1.order)=-0.906E-03
 bond charge predicted
       N       E                     dE             d eps       ncg     rms          rms(c)
DAV:   1    -0.841424122265E+03   -0.75793E-04   -0.17076E-02  4540   0.263E-01    0.244E-02
DAV:   2    -0.841424148523E+03   -0.26258E-04   -0.34957E-04  4860   0.361E-02    0.207E-02
DAV:   3    -0.841424145249E+03    0.32738E-05   -0.10229E-05  5760   0.637E-03    0.159E-02
DAV:   4    -0.841424144392E+03    0.85716E-06   -0.98091E-06  4480   0.717E-03
  40 F= -.84926138E+03 E0= -.84926138E+03  d E =-.786271E-04  mag=     0.0000
quench:  g(F)=  0.251E-03 g(S)=  0.000E+00 dE (1.order)=-0.861E-03
 bond charge predicted
       N       E                     dE             d eps       ncg     rms          rms(c)
DAV:   1    -0.841424214045E+03   -0.68795E-04   -0.10256E-02  4500   0.209E-01    0.213E-02
DAV:   2    -0.841424230871E+03   -0.16826E-04   -0.24359E-04  5380   0.299E-02    0.186E-02
DAV:   3    -0.841424227587E+03    0.32831E-05   -0.10033E-05  5780   0.610E-03    0.141E-02
DAV:   4    -0.841424225672E+03    0.19150E-05   -0.68508E-06  4460   0.576E-03    0.618E-03
DAV:   5    -0.841424225940E+03   -0.26773E-06   -0.22161E-06  3340   0.286E-03
  41 F= -.84926144E+03 E0= -.84926144E+03  d E =-.617649E-04  mag=    -0.0000
quench:  g(F)=  0.222E-03 g(S)=  0.000E+00 dE (1.order)=-0.629E-03
 bond charge predicted
       N       E                     dE             d eps       ncg     rms          rms(c)
DAV:   1    -0.841424284819E+03   -0.59146E-04   -0.26394E-03  4500   0.106E-01    0.105E-02
DAV:   2    -0.841424289095E+03   -0.42762E-05   -0.61450E-05  5280   0.149E-02    0.939E-03
DAV:   3    -0.841424288202E+03    0.89283E-06   -0.19952E-06  3780   0.291E-03
  42 F= -.84926150E+03 E0= -.84926150E+03  d E =-.578820E-04  mag=    -0.0000
quench:  g(F)=  0.174E-03 g(S)=  0.000E+00 dE (1.order)=-0.659E-03
 bond charge predicted
       N       E                     dE             d eps       ncg     rms          rms(c)
DAV:   1    -0.841424356271E+03   -0.67176E-04   -0.53163E-03  4540   0.145E-01    0.143E-02
DAV:   2    -0.841424362951E+03   -0.66802E-05   -0.96623E-05  4580   0.190E-02    0.118E-02
DAV:   3    -0.841424362177E+03    0.77407E-06   -0.24347E-06  4140   0.335E-03
  43 F= -.84926155E+03 E0= -.84926155E+03  d E =-.598005E-04  mag=     0.0000
quench:  g(F)=  0.177E-03 g(S)=  0.000E+00 dE (1.order)=-0.778E-03
 bond charge predicted
       N       E                     dE             d eps       ncg     rms          rms(c)
DAV:   1    -0.841424457166E+03   -0.94215E-04   -0.12099E-02  4540   0.219E-01    0.209E-02
DAV:   2    -0.841424473073E+03   -0.15907E-04   -0.22052E-04  4540   0.288E-02    0.173E-02
DAV:   3    -0.841424471689E+03    0.13839E-05   -0.52665E-06  5120   0.483E-03    0.130E-02
DAV:   4    -0.841424473293E+03   -0.16040E-05   -0.58252E-06  4300   0.568E-03    0.367E-03
DAV:   5    -0.841424473608E+03   -0.31461E-06   -0.17485E-06  3590   0.232E-03
  44 F= -.84926165E+03 E0= -.84926165E+03  d E =-.913484E-04  mag=     0.0000
quench:  g(F)=  0.194E-03 g(S)=  0.000E+00 dE (1.order)=-0.851E-03
 bond charge predicted
       N       E                     dE             d eps       ncg     rms          rms(c)
DAV:   1    -0.841424572072E+03   -0.98779E-04   -0.20319E-02  4520   0.284E-01    0.257E-02
DAV:   2    -0.841424602569E+03   -0.30497E-04   -0.40144E-04  4620   0.388E-02    0.210E-02
DAV:   3    -0.841424599559E+03    0.30101E-05   -0.99393E-06  5690   0.651E-03    0.161E-02
DAV:   4    -0.841424600160E+03   -0.60103E-06   -0.97747E-06  4360   0.730E-03
  45 F= -.84926175E+03 E0= -.84926175E+03  d E =-.104806E-03  mag=    -0.0000
quench:  g(F)=  0.213E-03 g(S)=  0.000E+00 dE (1.order)=-0.819E-03
 bond charge predicted
       N       E                     dE             d eps       ncg     rms          rms(c)
DAV:   1    -0.841424663287E+03   -0.63728E-04   -0.20611E-02  4510   0.294E-01    0.288E-02
DAV:   2    -0.841424696510E+03   -0.33223E-04   -0.45690E-04  5260   0.415E-02    0.245E-02
DAV:   3    -0.841424692046E+03    0.44644E-05   -0.14800E-05  5780   0.786E-03    0.187E-02
DAV:   4    -0.841424691223E+03    0.82240E-06   -0.12367E-05  4620   0.804E-03    0.748E-03
DAV:   5    -0.841424692206E+03   -0.98297E-06   -0.39408E-06  3700   0.368E-03
  46 F= -.84926181E+03 E0= -.84926181E+03  d E =-.625373E-04  mag=    -0.0000
quench:  g(F)=  0.237E-03 g(S)=  0.000E+00 dE (1.order)=-0.693E-03
 bond charge predicted
       N       E                     dE             d eps       ncg     rms          rms(c)
DAV:   1    -0.841424777976E+03   -0.86753E-04   -0.54965E-03  4540   0.154E-01    0.161E-02
DAV:   2    -0.841424787433E+03   -0.94562E-05   -0.13940E-04  5500   0.231E-02    0.141E-02
DAV:   3    -0.841424785356E+03    0.20767E-05   -0.65043E-06  5580   0.505E-03    0.108E-02
DAV:   4    -0.841424783758E+03    0.15980E-05   -0.39354E-06  4380   0.439E-03    0.520E-03
DAV:   5    -0.841424783711E+03    0.46755E-07   -0.13002E-06  3060   0.239E-03
  47 F= -.84926190E+03 E0= -.84926190E+03  d E =-.888322E-04  mag=    -0.0000
quench:  g(F)=  0.171E-03 g(S)=  0.000E+00 dE (1.order)=-0.642E-03
 bond charge predicted
       N       E                     dE             d eps       ncg     rms          rms(c)
DAV:   1    -0.841424852668E+03   -0.68910E-04   -0.44804E-03  4540   0.134E-01    0.121E-02
DAV:   2    -0.841424859157E+03   -0.64887E-05   -0.88217E-05  4700   0.183E-02    0.102E-02
DAV:   3    -0.841424858403E+03    0.75386E-06   -0.21676E-06  4100   0.321E-03
  48 F= -.84926196E+03 E0= -.84926196E+03  d E =-.593322E-04  mag=     0.0000
quench:  g(F)=  0.174E-03 g(S)=  0.000E+00 dE (1.order)=-0.753E-03
 bond charge predicted
       N       E                     dE             d eps       ncg     rms          rms(c)
DAV:   1    -0.841424948879E+03   -0.89722E-04   -0.93761E-03  4520   0.194E-01    0.188E-02
DAV:   2    -0.841424961796E+03   -0.12917E-04   -0.17597E-04  4820   0.259E-02    0.157E-02
DAV:   3    -0.841424960359E+03    0.14363E-05   -0.47334E-06  5160   0.452E-03    0.117E-02
DAV:   4    -0.841424960966E+03   -0.60673E-06   -0.52368E-06  4280   0.516E-03
  49 F= -.84926205E+03 E0= -.84926205E+03  d E =-.849396E-04  mag=    -0.0000
quench:  g(F)=  0.189E-03 g(S)=  0.000E+00 dE (1.order)=-0.806E-03
 bond charge predicted
       N       E                     dE             d eps       ncg     rms          rms(c)
DAV:   1    -0.841425055568E+03   -0.95209E-04   -0.14292E-02  4500   0.242E-01    0.227E-02
DAV:   2    -0.841425077752E+03   -0.22184E-04   -0.29697E-04  4960   0.337E-02    0.190E-02
DAV:   3    -0.841425075383E+03    0.23693E-05   -0.81651E-06  5760   0.593E-03    0.145E-02
DAV:   4    -0.841425075540E+03   -0.15758E-06   -0.75785E-06  4340   0.650E-03
  50 F= -.84926213E+03 E0= -.84926213E+03  d E =-.847336E-04  mag=     0.0000
quench:  g(F)=  0.212E-03 g(S)=  0.000E+00 dE (1.order)=-0.780E-03
 bond charge predicted
       N       E                     dE             d eps       ncg     rms          rms(c)
DAV:   1    -0.841425134573E+03   -0.59190E-04   -0.10893E-02  4510   0.215E-01    0.217E-02
DAV:   2    -0.841425153684E+03   -0.19111E-04   -0.26152E-04  5240   0.316E-02    0.185E-02
DAV:   3    -0.841425150720E+03    0.29635E-05   -0.99026E-06  5900   0.624E-03    0.141E-02
DAV:   4    -0.841425149051E+03    0.16690E-05   -0.63262E-06  4640   0.564E-03    0.636E-03
DAV:   5    -0.841425149296E+03   -0.24452E-06   -0.21955E-06  3460   0.296E-03
  51 F= -.84926220E+03 E0= -.84926220E+03  d E =-.661353E-04  mag=     0.0000
quench:  g(F)=  0.222E-03 g(S)=  0.000E+00 dE (1.order)=-0.631E-03
 bond charge predicted
       N       E                     dE             d eps       ncg     rms          rms(c)
DAV:   1    -0.841425223604E+03   -0.74553E-04   -0.40194E-03  4520   0.131E-01    0.129E-02
DAV:   2    -0.841425230626E+03   -0.70217E-05   -0.98664E-05  5300   0.192E-02    0.113E-02
DAV:   3    -0.841425229453E+03    0.11727E-05   -0.32947E-06  4440   0.376E-03    0.880E-03
DAV:   4    -0.841425228728E+03    0.72572E-06   -0.40360E-06  4280   0.434E-03
  52 F= -.84926226E+03 E0= -.84926226E+03  d E =-.660365E-04  mag=     0.0000
quench:  g(F)=  0.170E-03 g(S)=  0.000E+00 dE (1.order)=-0.637E-03
 bond charge predicted
       N       E                     dE             d eps       ncg     rms          rms(c)
DAV:   1    -0.841425299908E+03   -0.70455E-04   -0.50308E-03  4520   0.142E-01    0.135E-02
DAV:   2    -0.841425307025E+03   -0.71168E-05   -0.98283E-05  4680   0.193E-02    0.112E-02
DAV:   3    -0.841425306175E+03    0.85029E-06   -0.25203E-06  4260   0.337E-03
  53 F= -.84926233E+03 E0= -.84926233E+03  d E =-.642838E-04  mag=    -0.0000
quench:  g(F)=  0.178E-03 g(S)=  0.000E+00 dE (1.order)=-0.745E-03
 bond charge predicted
       N       E                     dE             d eps       ncg     rms          rms(c)
DAV:   1    -0.841425399050E+03   -0.92025E-04   -0.10253E-02  4500   0.204E-01    0.199E-02
DAV:   2    -0.841425413323E+03   -0.14273E-04   -0.19863E-04  4840   0.275E-02    0.166E-02
DAV:   3    -0.841425411868E+03    0.14553E-05   -0.51037E-06  5200   0.474E-03    0.124E-02
DAV:   4    -0.841425412798E+03   -0.93065E-06   -0.58105E-06  4320   0.561E-03
  54 F= -.84926242E+03 E0= -.84926242E+03  d E =-.878831E-04  mag=    -0.0000
quench:  g(F)=  0.195E-03 g(S)=  0.000E+00 dE (1.order)=-0.767E-03
 bond charge predicted
       N       E                     dE             d eps       ncg     rms          rms(c)
DAV:   1    -0.841425482582E+03   -0.70714E-04   -0.13508E-02  4500   0.238E-01    0.228E-02
DAV:   2    -0.841425504875E+03   -0.22293E-04   -0.29544E-04  5040   0.337E-02    0.189E-02
DAV:   3    -0.841425502437E+03    0.24376E-05   -0.87636E-06  5840   0.595E-03    0.145E-02
DAV:   4    -0.841425502074E+03    0.36277E-06   -0.62598E-06  4440   0.583E-03
  55 F= -.84926249E+03 E0= -.84926249E+03  d E =-.736632E-04  mag=     0.0000
quench:  g(F)=  0.212E-03 g(S)=  0.000E+00 dE (1.order)=-0.711E-03
 bond charge predicted
       N       E                     dE             d eps       ncg     rms          rms(c)
DAV:   1    -0.841425574702E+03   -0.72264E-04   -0.77567E-03  4500   0.183E-01    0.185E-02
DAV:   2    -0.841425588465E+03   -0.13763E-04   -0.19224E-04  5320   0.268E-02    0.159E-02
DAV:   3    -0.841425586217E+03    0.22475E-05   -0.69693E-06  5670   0.523E-03    0.120E-02
DAV:   4    -0.841425585013E+03    0.12047E-05   -0.49483E-06  4360   0.499E-03    0.536E-03
DAV:   5    -0.841425585261E+03   -0.24802E-06   -0.15825E-06  3400   0.245E-03
  56 F= -.84926256E+03 E0= -.84926256E+03  d E =-.678471E-04  mag=    -0.0000
quench:  g(F)=  0.191E-03 g(S)=  0.000E+00 dE (1.order)=-0.613E-03
 bond charge predicted
       N       E                     dE             d eps       ncg     rms          rms(c)
DAV:   1    -0.841425640152E+03   -0.55139E-04   -0.33437E-03  4500   0.119E-01    0.115E-02
DAV:   2    -0.841425645922E+03   -0.57702E-05   -0.78205E-05  5200   0.171E-02    0.997E-03
DAV:   3    -0.841425645009E+03    0.91294E-06   -0.23811E-06  4090   0.319E-03
  57 F= -.84926261E+03 E0= -.84926261E+03  d E =-.536633E-04  mag=     0.0000
quench:  g(F)=  0.169E-03 g(S)=  0.000E+00 dE (1.order)=-0.656E-03
 bond charge predicted
       N       E                     dE             d eps       ncg     rms          rms(c)
DAV:   1    -0.841425715374E+03   -0.69452E-04   -0.56075E-03  4520   0.151E-01    0.147E-02
DAV:   2    -0.841425723233E+03   -0.78592E-05   -0.11027E-04  4560   0.205E-02    0.122E-02
DAV:   3    -0.841425722390E+03    0.84305E-06   -0.25951E-06  4260   0.350E-03
  58 F= -.84926268E+03 E0= -.84926268E+03  d E =-.651870E-04  mag=    -0.0000
quench:  g(F)=  0.175E-03 g(S)=  0.000E+00 dE (1.order)=-0.751E-03
 bond charge predicted
       N       E                     dE             d eps       ncg     rms          rms(c)
DAV:   1    -0.841425803429E+03   -0.80196E-04   -0.10432E-02  4500   0.205E-01    0.201E-02
DAV:   2    -0.841425817799E+03   -0.14370E-04   -0.19712E-04  4820   0.274E-02    0.167E-02
DAV:   3    -0.841425816376E+03    0.14229E-05   -0.52544E-06  5300   0.475E-03    0.125E-02
DAV:   4    -0.841425817179E+03   -0.80241E-06   -0.51543E-06  4260   0.519E-03
  59 F= -.84926276E+03 E0= -.84926276E+03  d E =-.825197E-04  mag=     0.0000
quench:  g(F)=  0.197E-03 g(S)=  0.000E+00 dE (1.order)=-0.766E-03
 bond charge predicted
       N       E                     dE             d eps       ncg     rms          rms(c)
DAV:   1    -0.841425881349E+03   -0.64973E-04   -0.13257E-02  4500   0.235E-01    0.231E-02
DAV:   2    -0.841425903517E+03   -0.22168E-04   -0.29526E-04  5120   0.332E-02    0.192E-02
DAV:   3    -0.841425901035E+03    0.24823E-05   -0.82539E-06  5760   0.595E-03    0.147E-02
DAV:   4    -0.841425900614E+03    0.42140E-06   -0.70389E-06  4520   0.646E-03
  60 F= -.84926282E+03 E0= -.84926282E+03  d E =-.632892E-04  mag=    -0.0000
quench:  g(F)=  0.221E-03 g(S)=  0.000E+00 dE (1.order)=-0.696E-03
 bond charge predicted
       N       E                     dE             d eps       ncg     rms          rms(c)
DAV:   1    -0.841425951859E+03   -0.50824E-04   -0.62284E-03  4520   0.163E-01    0.170E-02
DAV:   2    -0.841425964057E+03   -0.12199E-04   -0.16477E-04  5360   0.247E-02    0.145E-02
DAV:   3    -0.841425962199E+03    0.18582E-05   -0.61834E-06  5520   0.488E-03    0.112E-02
DAV:   4    -0.841425960779E+03    0.14197E-05   -0.35477E-06  4460   0.422E-03    0.523E-03
DAV:   5    -0.841425960807E+03   -0.27372E-07   -0.13972E-06  3120   0.246E-03
  61 F= -.84926288E+03 E0= -.84926288E+03  d E =-.615322E-04  mag=    -0.0000
quench:  g(F)=  0.180E-03 g(S)=  0.000E+00 dE (1.order)=-0.592E-03
 reached required accuracy - stopping structural energy minimisation
