<?xml version="1.0" encoding="ISO-8859-1"?>
<modeling>
 <generator>
  <i name="program" type="string">vasp </i>
  <i name="version" type="string">6.4.2  </i>
  <i name="subversion" type="string">20Jul23 (build Jan 24 2024 13:44:02) complex                          parallel </i>
  <i name="platform" type="string">LinuxNV </i>
  <i name="date" type="string">2025 11 14 </i>
  <i name="time" type="string">00:02:37 </i>
 </generator>
 <incar>
  <i type="int" name="ISTART">     0</i>
  <i type="string" name="ALGO">Normal</i>
  <i type="logical" name="ADDGRID"> T  </i>
  <i type="int" name="ISPIN">     2</i>
  <i type="int" name="IMIX">     4</i>
  <i name="AMIX">      0.20000000</i>
  <i name="BMIX">      0.00010000</i>
  <i name="AMIX_MAG">      0.80000000</i>
  <i name="BMIX_MAG">      0.00010000</i>
  <i type="int" name="ICHARG">     2</i>
  <i type="int" name="NELM">   200</i>
  <i type="int" name="IBRION">     3</i>
  <i name="EDIFF">      0.00000100</i>
  <i name="EDIFFG">     -0.03000000</i>
  <i type="int" name="NSW">   300</i>
  <i type="int" name="ISIF">     2</i>
  <i type="int" name="ISYM">     0</i>
  <i name="ENCUT">    520.00000000</i>
  <i name="POTIM">      0.05000000</i>
  <v name="MAGMOM">      0.60000000      0.60000000      0.60000000      0.60000000      0.60000000      0.60000000      0.60000000      0.60000000      0.60000000      0.60000000      0.60000000      0.60000000      0.60000000      0.60000000      0.60000000      0.60000000      0.60000000      0.60000000      0.60000000      0.60000000
      0.60000000      0.60000000      0.60000000      0.60000000      0.60000000      0.60000000      0.60000000      0.60000000      0.60000000      0.60000000      0.60000000      0.60000000      0.60000000      0.60000000      0.60000000      0.60000000      0.60000000      0.60000000      0.60000000      0.60000000
      0.60000000      0.60000000      0.60000000      0.60000000      0.60000000      0.60000000      0.60000000      0.60000000      0.60000000      0.60000000      0.60000000      0.60000000      0.60000000      0.60000000      0.60000000      0.60000000      0.60000000      0.60000000      0.60000000      0.60000000
      0.60000000      0.60000000      0.60000000      0.60000000      0.60000000      0.60000000      0.60000000      0.60000000      0.60000000      0.60000000      0.60000000      0.60000000      0.60000000      0.60000000      0.60000000      0.60000000      0.60000000      0.60000000      0.60000000      0.60000000
      0.60000000      0.60000000      0.60000000      0.60000000      0.60000000      0.60000000      0.60000000      0.60000000      0.60000000      0.60000000      0.60000000      0.60000000      0.60000000      0.60000000      0.60000000      0.60000000      0.60000000</v>
  <i type="string" name="LREAL">Auto</i>
  <i type="int" name="ISMEAR">     0</i>
  <i name="SIGMA">      0.05000000</i>
  <i type="logical" name="LWAVE"> F  </i>
  <i type="logical" name="LCHARG"> F  </i>
  <i type="logical" name="LASPH"> T  </i>
  <i type="int" name="IVDW">    12</i>
  <i name="SPRING">     -5.00000000</i>
 </incar>
 <primitive_cell>
  <structure name="primitive_cell" >
   <crystal>
    <varray name="basis" >
     <v>      17.27103806       0.00000000       0.00000000 </v>
     <v>      -8.63551903      14.95715771       0.00000000 </v>
     <v>       0.00000000       0.00000000      15.00000000 </v>
    </varray>
    <i name="volume">   3874.88459904 </i>
    <varray name="rec_basis" >
     <v>       0.05790040       0.03342881      -0.00000000 </v>
     <v>       0.00000000       0.06685762       0.00000000 </v>
     <v>       0.00000000      -0.00000000       0.06666667 </v>
    </varray>
   </crystal>
   <varray name="positions" >
    <v>       0.99831278       0.99892209       0.50315350 </v>
    <v>       0.99763356       0.14136414       0.50523628 </v>
    <v>       0.99785081       0.28454811       0.50494679 </v>
    <v>       0.99850087       0.42774736       0.50462351 </v>
    <v>       0.99890486       0.57084267       0.50052734 </v>
    <v>       0.99986522       0.71415489       0.49846841 </v>
    <v>       0.99991462       0.85719051       0.49984997 </v>
    <v>       0.14172841       0.99977005       0.49259647 </v>
    <v>       0.14081270       0.14203363       0.49778502 </v>
    <v>       0.14010742       0.28456636       0.49682075 </v>
    <v>       0.14098084       0.42812530       0.49563940 </v>
    <v>       0.14160340       0.57082490       0.49651149 </v>
    <v>       0.14183821       0.71376499       0.49297574 </v>
    <v>       0.14201026       0.85688064       0.49146507 </v>
    <v>       0.28451456       0.99948351       0.49074600 </v>
    <v>       0.28413526       0.14189537       0.49135301 </v>
    <v>       0.28318860       0.28523398       0.49017199 </v>
    <v>       0.28097533       0.42658404       0.47220430 </v>
    <v>       0.28507513       0.57195999       0.48229502 </v>
    <v>       0.28430549       0.71444882       0.49182579 </v>
    <v>       0.28428693       0.85705094       0.49124246 </v>
    <v>       0.42747850       0.99939515       0.49448487 </v>
    <v>       0.42721840       0.14219203       0.49567410 </v>
    <v>       0.42210122       0.27762276       0.51945645 </v>
    <v>       0.42639672       0.85601075       0.49780213 </v>
    <v>       0.56956860       0.99811590       0.50334922 </v>
    <v>       0.57003658       0.14160276       0.50446609 </v>
    <v>       0.57073444       0.28526975       0.50589309 </v>
    <v>       0.56756664       0.85339909       0.51510210 </v>
    <v>       0.71163419       0.99666605       0.51225270 </v>
    <v>       0.71259478       0.14101435       0.50858635 </v>
    <v>       0.71309254       0.28475586       0.51125768 </v>
    <v>       0.71408783       0.42870173       0.51454344 </v>
    <v>       0.72362525       0.57677224       0.54804631 </v>
    <v>       0.71194129       0.85323920       0.52835943 </v>
    <v>       0.85482090       0.99781088       0.51238171 </v>
    <v>       0.85476800       0.14090056       0.50935543 </v>
    <v>       0.85540557       0.28438011       0.50973418 </v>
    <v>       0.85627895       0.42792281       0.51150770 </v>
    <v>       0.85722825       0.57199867       0.50912189 </v>
    <v>       0.85916759       0.71529420       0.51546313 </v>
    <v>       0.85691171       0.85603284       0.51688437 </v>
    <v>       0.04570021       0.09421575       0.50214964 </v>
    <v>       0.04494012       0.23659731       0.50282545 </v>
    <v>       0.04569676       0.38003906       0.50248295 </v>
    <v>       0.04642349       0.52306204       0.50091367 </v>
    <v>       0.04675066       0.66613680       0.49642413 </v>
    <v>       0.04705633       0.80926037       0.49565274 </v>
    <v>       0.04659260       0.95204217       0.49796281 </v>
    <v>       0.18880570       0.09461121       0.49225166 </v>
    <v>       0.18770157       0.23716935       0.49621271 </v>
    <v>       0.18711404       0.37957287       0.49041576 </v>
    <v>       0.18942229       0.52361385       0.49289288 </v>
    <v>       0.18910907       0.66619530       0.49308392 </v>
    <v>       0.18937471       0.80917246       0.49101410 </v>
    <v>       0.18945044       0.95203975       0.49065394 </v>
    <v>       0.33206755       0.09467727       0.49235185 </v>
    <v>       0.33126692       0.23684528       0.49842132 </v>
    <v>       0.32440803       0.37568383       0.46797617 </v>
    <v>       0.32528695       0.52108640       0.46298355 </v>
    <v>       0.33511697       0.66996320       0.48959114 </v>
    <v>       0.33166820       0.80928002       0.49311504 </v>
    <v>       0.33211851       0.95201108       0.49148302 </v>
    <v>       0.47514445       0.09455811       0.49688655 </v>
    <v>       0.47440518       0.23712276       0.50539265 </v>
    <v>       0.47027121       0.80460772       0.50419732 </v>
    <v>       0.47466986       0.95135453       0.49843217 </v>
    <v>       0.61730177       0.09348550       0.50550356 </v>
    <v>       0.61796746       0.23713570       0.50914399 </v>
    <v>       0.62239540       0.37895402       0.49734105 </v>
    <v>       0.61797004       0.81117891       0.53319703 </v>
    <v>       0.61616901       0.94911358       0.50925945 </v>
    <v>       0.75955995       0.09268378       0.50985851 </v>
    <v>       0.76031532       0.23650343       0.50985942 </v>
    <v>       0.76106226       0.38018029       0.51494020 </v>
    <v>       0.76237509       0.52572106       0.52214355 </v>
    <v>       0.76651249       0.67149112       0.53707364 </v>
    <v>       0.76194251       0.80478105       0.53184495 </v>
    <v>       0.75932979       0.94882516       0.51684116 </v>
    <v>       0.90221983       0.09305034       0.50888645 </v>
    <v>       0.90256840       0.23645863       0.50828719 </v>
    <v>       0.90325155       0.37999399       0.50912058 </v>
    <v>       0.90379806       0.52337791       0.50575154 </v>
    <v>       0.90520563       0.66683405       0.50674185 </v>
    <v>       0.90536976       0.80976583       0.51001044 </v>
    <v>       0.90321990       0.95089370       0.51060093 </v>
    <v>       0.45915044       0.35715176       0.56258490 </v>
    <v>       0.40985737       0.41635412       0.43941418 </v>
    <v>       0.40973909       0.56280468       0.43449709 </v>
    <v>       0.64379497       0.53503342       0.59008141 </v>
    <v>       0.58332647       0.42319302       0.46333498 </v>
    <v>       0.57235115       0.72539074       0.55855836 </v>
    <v>       0.42456493       0.71455780       0.49748431 </v>
    <v>       0.72065771       0.71616671       0.54609731 </v>
    <v>       0.60559927       0.63072481       0.50781417 </v>
    <v>       0.52809741       0.53270210       0.50105755 </v>
    <v>       0.56744854       0.58411265       0.46511209 </v>
   </varray>
  </structure>
  <varray name="primitive_index" >
   <v type="int" >        1 </v>
   <v type="int" >        2 </v>
   <v type="int" >        3 </v>
   <v type="int" >        4 </v>
   <v type="int" >        5 </v>
   <v type="int" >        6 </v>
   <v type="int" >        7 </v>
   <v type="int" >        8 </v>
   <v type="int" >        9 </v>
   <v type="int" >       10 </v>
   <v type="int" >       11 </v>
   <v type="int" >       12 </v>
   <v type="int" >       13 </v>
   <v type="int" >       14 </v>
   <v type="int" >       15 </v>
   <v type="int" >       16 </v>
   <v type="int" >       17 </v>
   <v type="int" >       18 </v>
   <v type="int" >       19 </v>
   <v type="int" >       20 </v>
   <v type="int" >       21 </v>
   <v type="int" >       22 </v>
   <v type="int" >       23 </v>
   <v type="int" >       24 </v>
   <v type="int" >       25 </v>
   <v type="int" >       26 </v>
   <v type="int" >       27 </v>
   <v type="int" >       28 </v>
   <v type="int" >       29 </v>
   <v type="int" >       30 </v>
   <v type="int" >       31 </v>
   <v type="int" >       32 </v>
   <v type="int" >       33 </v>
   <v type="int" >       34 </v>
   <v type="int" >       35 </v>
   <v type="int" >       36 </v>
   <v type="int" >       37 </v>
   <v type="int" >       38 </v>
   <v type="int" >       39 </v>
   <v type="int" >       40 </v>
   <v type="int" >       41 </v>
   <v type="int" >       42 </v>
   <v type="int" >       43 </v>
   <v type="int" >       44 </v>
   <v type="int" >       45 </v>
   <v type="int" >       46 </v>
   <v type="int" >       47 </v>
   <v type="int" >       48 </v>
   <v type="int" >       49 </v>
   <v type="int" >       50 </v>
   <v type="int" >       51 </v>
   <v type="int" >       52 </v>
   <v type="int" >       53 </v>
   <v type="int" >       54 </v>
   <v type="int" >       55 </v>
   <v type="int" >       56 </v>
   <v type="int" >       57 </v>
   <v type="int" >       58 </v>
   <v type="int" >       59 </v>
   <v type="int" >       60 </v>
   <v type="int" >       61 </v>
   <v type="int" >       62 </v>
   <v type="int" >       63 </v>
   <v type="int" >       64 </v>
   <v type="int" >       65 </v>
   <v type="int" >       66 </v>
   <v type="int" >       67 </v>
   <v type="int" >       68 </v>
   <v type="int" >       69 </v>
   <v type="int" >       70 </v>
   <v type="int" >       71 </v>
   <v type="int" >       72 </v>
   <v type="int" >       73 </v>
   <v type="int" >       74 </v>
   <v type="int" >       75 </v>
   <v type="int" >       76 </v>
   <v type="int" >       77 </v>
   <v type="int" >       78 </v>
   <v type="int" >       79 </v>
   <v type="int" >       80 </v>
   <v type="int" >       81 </v>
   <v type="int" >       82 </v>
   <v type="int" >       83 </v>
   <v type="int" >       84 </v>
   <v type="int" >       85 </v>
   <v type="int" >       86 </v>
   <v type="int" >       87 </v>
   <v type="int" >       88 </v>
   <v type="int" >       89 </v>
   <v type="int" >       90 </v>
   <v type="int" >       91 </v>
   <v type="int" >       92 </v>
   <v type="int" >       93 </v>
   <v type="int" >       94 </v>
   <v type="int" >       95 </v>
   <v type="int" >       96 </v>
   <v type="int" >       97 </v>
  </varray>
 </primitive_cell>
 <kpoints>
  <generation param="Gamma">
   <v type="int" name="divisions">       2        2        1 </v>
   <v name="usershift">      0.00000000       0.00000000       0.00000000 </v>
   <v name="genvec1">      0.50000000       0.00000000       0.00000000 </v>
   <v name="genvec2">      0.00000000       0.50000000       0.00000000 </v>
   <v name="genvec3">      0.00000000       0.00000000       1.00000000 </v>
   <v name="shift">      0.00000000       0.00000000       0.00000000 </v>
  </generation>
  <varray name="kpointlist" >
   <v>       0.00000000       0.00000000       0.00000000 </v>
   <v>       0.50000000       0.00000000       0.00000000 </v>
   <v>       0.00000000       0.50000000       0.00000000 </v>
   <v>       0.50000000       0.50000000       0.00000000 </v>
  </varray>
  <varray name="weights" >
   <v>       0.25000000 </v>
   <v>       0.25000000 </v>
   <v>       0.25000000 </v>
   <v>       0.25000000 </v>
  </varray>
 </kpoints>
 <parameters>
  <separator name="general" >
   <i type="string" name="SYSTEM">unknown system</i>
   <i type="logical" name="LCOMPAT"> F  </i>
  </separator>
  <separator name="electronic" >
   <i type="string" name="PREC">normal</i>
   <i name="ENMAX">    520.00000000</i>
   <i name="ENAUG">    644.87300000</i>
   <i name="EDIFF">      0.00000100</i>
   <i type="int" name="IALGO">    38</i>
   <i type="int" name="IWAVPR">    11</i>
   <i type="int" name="NBANDS">   280</i>
   <i type="int" name="NBANDSLOW">    -1</i>
   <i type="int" name="NBANDSHIGH">    -1</i>
   <i name="NELECT">    404.00000000</i>
   <i type="int" name="TURBO">     0</i>
   <i type="int" name="IRESTART">     0</i>
   <i type="int" name="NREBOOT">     0</i>
   <i type="int" name="NMIN">     0</i>
   <i name="EREF">      0.00000000</i>
   <separator name="electronic smearing" >
    <i type="int" name="ISMEAR">     0</i>
    <i name="SIGMA">      0.05000000</i>
    <i name="KSPACING">      0.50000000</i>
    <i type="logical" name="KGAMMA"> T  </i>
    <i type="logical" name="KBLOWUP"> T  </i>
   </separator>
   <separator name="electronic projectors" >
    <i type="logical" name="LREAL"> T  </i>
    <v name="ROPT">     -0.00050000     -0.00050000     -0.00050000     -0.00050000     -0.00050000</v>
    <i type="int" name="LMAXPAW">  -100</i>
    <i type="int" name="LMAXMIX">     2</i>
    <i type="logical" name="NLSPLINE"> F  </i>
   </separator>
   <separator name="electronic startup" >
    <i type="int" name="ISTART">     0</i>
    <i type="int" name="ICHARG">     2</i>
    <i type="int" name="INIWAV">     1</i>
   </separator>
   <separator name="electronic spin" >
    <i type="int" name="ISPIN">     2</i>
    <i type="logical" name="LNONCOLLINEAR"> F  </i>
    <v name="MAGMOM">      0.60000000      0.60000000      0.60000000      0.60000000      0.60000000      0.60000000      0.60000000      0.60000000      0.60000000      0.60000000      0.60000000      0.60000000      0.60000000      0.60000000      0.60000000      0.60000000      0.60000000      0.60000000      0.60000000      0.60000000
      0.60000000      0.60000000      0.60000000      0.60000000      0.60000000      0.60000000      0.60000000      0.60000000      0.60000000      0.60000000      0.60000000      0.60000000      0.60000000      0.60000000      0.60000000      0.60000000      0.60000000      0.60000000      0.60000000      0.60000000
      0.60000000      0.60000000      0.60000000      0.60000000      0.60000000      0.60000000      0.60000000      0.60000000      0.60000000      0.60000000      0.60000000      0.60000000      0.60000000      0.60000000      0.60000000      0.60000000      0.60000000      0.60000000      0.60000000      0.60000000
      0.60000000      0.60000000      0.60000000      0.60000000      0.60000000      0.60000000      0.60000000      0.60000000      0.60000000      0.60000000      0.60000000      0.60000000      0.60000000      0.60000000      0.60000000      0.60000000      0.60000000      0.60000000      0.60000000      0.60000000
      0.60000000      0.60000000      0.60000000      0.60000000      0.60000000      0.60000000      0.60000000      0.60000000      0.60000000      0.60000000      0.60000000      0.60000000      0.60000000      0.60000000      0.60000000      0.60000000      0.60000000</v>
    <i name="NUPDOWN">     -1.00000000</i>
    <i type="logical" name="LSORBIT"> F  </i>
    <v name="SAXIS">      0.00000000      0.00000000      1.00000000</v>
    <i type="logical" name="LSPIRAL"> F  </i>
    <v name="QSPIRAL">      0.00000000      0.00000000      0.00000000</v>
    <i type="logical" name="LZEROZ"> F  </i>
   </separator>
   <separator name="electronic exchange-correlation" >
    <i type="logical" name="LASPH"> T  </i>
    <i type="logical" name="LMETAGGA"> F  </i>
   </separator>
   <separator name="electronic convergence" >
    <i type="int" name="NELM">   200</i>
    <i type="int" name="NELMDL">    -5</i>
    <i type="int" name="NELMIN">     2</i>
    <i name="ENINI">    520.00000000</i>
    <separator name="electronic convergence detail" >
     <i type="logical" name="LDIAG"> T  </i>
     <i type="logical" name="LSUBROT"> F  </i>
     <i name="WEIMIN">      0.00100000</i>
     <i name="EBREAK">      0.00000000</i>
     <i name="DEPER">      0.30000000</i>
     <i type="int" name="NRMM">     4</i>
     <i name="TIME">      0.40000000</i>
    </separator>
   </separator>
   <separator name="electronic mixer" >
    <i name="AMIX">      0.20000000</i>
    <i name="BMIX">      0.00010000</i>
    <i name="AMIN">      0.10000000</i>
    <i name="AMIX_MAG">      0.80000000</i>
    <i name="BMIX_MAG">      0.00010000</i>
    <separator name="electronic mixer details" >
     <i type="int" name="IMIX">     4</i>
     <i type="logical" name="MIXFIRST"> F  </i>
     <i type="int" name="MAXMIX">   -45</i>
     <i name="WC">    100.00000000</i>
     <i type="int" name="INIMIX">     1</i>
     <i type="int" name="MIXPRE">     1</i>
     <i type="int" name="MREMOVE">     5</i>
    </separator>
   </separator>
   <separator name="electronic dipolcorrection" >
    <i type="logical" name="LDIPOL"> F  </i>
    <i type="logical" name="LMONO"> F  </i>
    <i type="int" name="IDIPOL">     0</i>
    <i name="EPSILON">      1.00000000</i>
    <v name="DIPOL">   -100.00000000   -100.00000000   -100.00000000</v>
    <i name="EFIELD">      0.00000000</i>
   </separator>
  </separator>
  <separator name="grids" >
   <i type="int" name="NGX">    96</i>
   <i type="int" name="NGY">    96</i>
   <i type="int" name="NGZ">    84</i>
   <i type="int" name="NGXF">   192</i>
   <i type="int" name="NGYF">   192</i>
   <i type="int" name="NGZF">   168</i>
   <i type="logical" name="ADDGRID"> T  </i>
  </separator>
  <separator name="ionic" >
   <i type="int" name="NSW">   300</i>
   <i type="int" name="IBRION">     3</i>
   <i type="int" name="MDALGO">     0</i>
   <i type="int" name="ISIF">     2</i>
   <i name="PSTRESS">      0.00000000</i>
   <i name="EDIFFG">     -0.03000000</i>
   <i type="int" name="NFREE">     0</i>
   <i name="POTIM">      0.05000000</i>
   <i name="SMASS">     -3.00000000</i>
   <i name="SCALEE">      1.00000000</i>
  </separator>
  <separator name="ionic md" >
   <i name="TEBEG">      0.00010000</i>
   <i name="TEEND">      0.00010000</i>
   <i type="int" name="NBLOCK">     1</i>
   <i type="int" name="KBLOCK">   300</i>
   <i type="int" name="NPACO">   256</i>
   <i name="APACO">     10.00000000</i>
  </separator>
  <separator name="symmetry" >
   <i type="int" name="ISYM">     0</i>
   <i name="SYMPREC">      0.00001000</i>
  </separator>
  <separator name="dos" >
   <i type="int" name="LORBIT">     0</i>
   <v name="RWIGS">     -1.00000000     -1.00000000     -1.00000000     -1.00000000     -1.00000000</v>
   <i type="int" name="NEDOS">   301</i>
   <i name="EMIN">     10.00000000</i>
   <i name="EMAX">    -10.00000000</i>
   <i name="EFERMI">      0.00000000</i>
  </separator>
  <separator name="writing" >
   <i type="int" name="NWRITE">     2</i>
   <i type="logical" name="LWAVE"> F  </i>
   <i type="logical" name="LDOWNSAMPLE"> F  </i>
   <i type="logical" name="LCHARG"> F  </i>
   <i type="logical" name="LPARD"> F  </i>
   <i type="logical" name="LVTOT"> F  </i>
   <i type="logical" name="LVHAR"> F  </i>
   <i type="logical" name="LELF"> F  </i>
   <i type="logical" name="LOPTICS"> F  </i>
   <v name="STM">      0.00000000      0.00000000      0.00000000      0.00000000      0.00000000      0.00000000      0.00000000</v>
  </separator>
  <separator name="performance" >
   <i type="int" name="NPAR">     5</i>
   <i type="int" name="NSIM">     4</i>
   <i type="int" name="NBLK">    -1</i>
   <i type="logical" name="LPLANE"> T  </i>
   <i type="logical" name="LSCALAPACK"> T  </i>
   <i type="logical" name="LSCAAWARE"> F  </i>
   <i type="logical" name="LSCALU"> F  </i>
   <i type="logical" name="LASYNC"> F  </i>
   <i type="logical" name="LORBITALREAL"> F  </i>
  </separator>
  <separator name="miscellaneous" >
   <i type="int" name="IDIOT">     3</i>
   <i type="int" name="PHON_NSTRUCT">    -1</i>
   <i type="logical" name="LMUSIC"> F  </i>
   <v name="POMASS">     12.01100000     18.99800000     14.00100000      1.00000000     16.00000000</v>
   <v name="DARWINR">      0.00000000      0.00000000      0.00000000      0.00000000      0.00000000</v>
   <v name="DARWINV">      1.00000000      1.00000000      1.00000000      1.00000000      1.00000000</v>
   <i type="logical" name="LCORR"> T  </i>
  </separator>
  <i type="logical" name="GGA_COMPAT"> T  </i>
  <i type="logical" name="LBERRY"> F  </i>
  <i type="int" name="ICORELEVEL">     0</i>
  <i type="logical" name="LDAU"> F  </i>
  <i type="int" name="I_CONSTRAINED_M">     0</i>
  <separator name="electronic exchange-correlation" >
   <i type="string" name="GGA">--</i>
   <i type="int" name="VOSKOWN">     0</i>
   <i type="logical" name="LHFCALC"> F  </i>
   <i type="string" name="PRECFOCK"></i>
   <i type="logical" name="LSYMGRAD"> F  </i>
   <i type="logical" name="LHFONE"> F  </i>
   <i type="logical" name="LRHFCALC"> F  </i>
   <i type="logical" name="LTHOMAS"> F  </i>
   <i type="logical" name="LMODELHF"> F  </i>
   <i type="logical" name="LFOCKACE"> F  </i>
   <i name="ENCUT4O">     -1.00000000</i>
   <i type="int" name="EXXOEP">     0</i>
   <i type="int" name="FOURORBIT">     0</i>
   <i name="AEXX">      0.00000000</i>
   <i name="HFALPHA">      0.00000000</i>
   <i name="MCALPHA">      0.00000000</i>
   <i name="ALDAX">      1.00000000</i>
   <i name="AGGAX">      1.00000000</i>
   <i name="ALDAC">      1.00000000</i>
   <i name="AGGAC">      1.00000000</i>
   <i type="int" name="NKREDX">     1</i>
   <i type="int" name="NKREDY">     1</i>
   <i type="int" name="NKREDZ">     1</i>
   <i type="logical" name="SHIFTRED"> F  </i>
   <i type="logical" name="ODDONLY"> F  </i>
   <i type="logical" name="EVENONLY"> F  </i>
   <i type="int" name="LMAXFOCK">     0</i>
   <i type="int" name="NMAXFOCKAE">     0</i>
   <i type="logical" name="LFOCKAEDFT"> F  </i>
   <i name="HFSCREEN">      0.00000000</i>
   <i name="HFSCREENC">      0.00000000</i>
   <i type="int" name="NBANDSGWLOW">     0</i>
  </separator>
  <separator name="vdW DFT" >
   <i type="logical" name="LUSE_VDW"> F  </i>
   <i type="int" name="IVDW_NL">     1</i>
   <i type="logical" name="LSPIN_VDW"> F  </i>
   <i name="Zab_VDW">     -0.84910000</i>
   <i name="PARAM1">      0.12340000</i>
   <i name="PARAM2">      1.00000000</i>
   <i name="PARAM3">      0.00000000</i>
  </separator>
  <separator name="model GW" >
   <i type="int" name="MODEL_GW">     0</i>
   <i name="MODEL_EPS0">     23.96835834</i>
   <i name="MODEL_ALPHA">      1.00000000</i>
  </separator>
  <separator name="linear response parameters" >
   <i type="logical" name="LEPSILON"> F  </i>
   <i type="logical" name="LRPA"> F  </i>
   <i type="logical" name="LNABLA"> F  </i>
   <i type="logical" name="LVEL"> F  </i>
   <i name="CSHIFT">      0.10000000</i>
   <i name="OMEGAMAX">     -1.00000000</i>
   <i name="DEG_THRESHOLD">      0.00200000</i>
   <i name="RTIME">     -0.10000000</i>
   <i name="WPLASMAI">      0.00000000</i>
   <v name="DFIELD">      0.00000000      0.00000000      0.00000000</v>
   <v name="WPLASMA">      0.00000000      0.00000000      0.00000000      0.00000000      0.00000000      0.00000000      0.00000000      0.00000000      0.00000000</v>
  </separator>
  <separator name="orbital magnetization" >
   <i type="logical" name="NUCIND"> F  </i>
   <v name="MAGPOS">      0.00000000      0.00000000      0.00000000</v>
   <i type="logical" name="LNICSALL"> T  </i>
   <i type="logical" name="ORBITALMAG"> F  </i>
   <i type="logical" name="LMAGBLOCH"> F  </i>
   <i type="logical" name="LCHIMAG"> F  </i>
   <i type="logical" name="LGAUGE"> T  </i>
   <i type="int" name="MAGATOM">     0</i>
   <v name="MAGDIPOL">      0.00000000      0.00000000      0.00000000</v>
   <v name="AVECCONST">      0.00000000      0.00000000      0.00000000</v>
  </separator>
  <separator name="response functions" >
   <i type="logical" name="LALL_IN_ONE"> F  </i>
   <i type="int" name="IALL_IN_ONE">    -1</i>
   <i type="int" name="NBANDS_WAVE">    -1</i>
   <i type="logical" name="LFINITE_TEMPERATURE"> F  </i>
   <i type="logical" name="LADDER"> F  </i>
   <i type="logical" name="LRPAFORCE"> F  </i>
   <i type="logical" name="LFXC"> F  </i>
   <i type="logical" name="LHARTREE"> T  </i>
   <i type="int" name="IBSE">     0</i>
   <v type="int" name="KPOINT">    -1     0     0     0</v>
   <i type="logical" name="LTCTC"> F  </i>
   <i type="logical" name="LTCTE"> F  </i>
   <i type="logical" name="LTETE"> F  </i>
   <i type="logical" name="LTRIPLET"> F  </i>
   <i type="logical" name="LFXCEPS"> F  </i>
   <i type="logical" name="LFXHEG"> F  </i>
   <i type="int" name="NATURALO">     2</i>
   <i type="logical" name="LHOLEGF"> F  </i>
   <i type="logical" name="L2ORDER"> F  </i>
   <i type="logical" name="LDMP1"> F  </i>
   <i type="logical" name="LMP2LT"> F  </i>
   <i type="logical" name="LSMP2LT"> F  </i>
   <i type="logical" name="LGWLF"> F  </i>
   <i name="ENCUTGW">     -1.60000002</i>
   <i name="ENCUTGWSOFT">     -1.60000002</i>
   <i name="ENCUTLF">     -1.00000000</i>
   <i type="logical" name="LESF_SPLINES"> F  </i>
   <i type="int" name="LMAXMP2">    -1</i>
   <i name="SCISSOR">      0.00000000</i>
   <i type="int" name="NOMEGA">     0</i>
   <i type="int" name="NOMEGAR">     0</i>
   <i type="int" name="NBANDSGW">    -1</i>
   <i type="int" name="NBANDSO">    -1</i>
   <i type="int" name="NBANDSV">    -1</i>
   <i type="int" name="NELMGW">     1</i>
   <i type="int" name="NELMHF">     1</i>
   <i type="int" name="DIM">     3</i>
   <i type="int" name="IESPILON">     4</i>
   <i type="int" name="ANTIRES">     0</i>
   <i name="OMEGAMAX">    -30.00000000</i>
   <i name="OMEGAMIN">    -30.00000000</i>
   <i name="OMEGATL">   -200.00000000</i>
   <i type="int" name="OMEGAGRID">     0</i>
   <i name="CSHIFT">     -0.10000000</i>
   <i type="logical" name="LSELFENERGY"> F  </i>
   <i type="logical" name="LSPECTRAL"> F  </i>
   <i type="logical" name="LSPECTRALGW"> F  </i>
   <i type="logical" name="LSINGLES"> F  </i>
   <i type="logical" name="LFERMIGW"> F  </i>
   <i type="logical" name="ODDONLYGW"> F  </i>
   <i type="logical" name="EVENONLYGW"> F  </i>
   <i type="int" name="NKREDLFX">     1</i>
   <i type="int" name="NKREDLFY">     1</i>
   <i type="int" name="NKREDLFZ">     1</i>
   <i type="int" name="MAXMEM">  2800</i>
   <i type="int" name="TELESCOPE">     0</i>
   <i type="int" name="NTAUPAR">    -1</i>
   <i type="int" name="NOMEGAPAR">    -1</i>
   <i name="DAMP_NEWTON">      0.80000001</i>
   <i name="LAMBDA">      1.00000000</i>
  </separator>
  <separator name="External order field" >
   <i name="OFIELD_KAPPA">      0.00000000</i>
   <v name="OFIELD_K">      0.00000000      0.00000000      0.00000000</v>
   <i name="OFIELD_Q6_NEAR">      0.00000000</i>
   <i name="OFIELD_Q6_FAR">      0.00000000</i>
   <i name="OFIELD_A">      0.00000000</i>
  </separator>
  <separator name="optional k-points parameters" >
   <i type="int" name="KPOINTS_OPT_MODE">     1</i>
   <i type="logical" name="LKPOINTS_OPT"> F  </i>
  </separator>
 </parameters>
 <atominfo>
  <atoms>      97 </atoms>
  <types>       5 </types>
  <array name="atoms" >
   <dimension dim="1">ion</dimension>
   <field type="string">element</field>
   <field type="int">atomtype</field>
   <set>
    <rc><c>C </c><c>   1</c></rc>
    <rc><c>C </c><c>   1</c></rc>
    <rc><c>C </c><c>   1</c></rc>
    <rc><c>C </c><c>   1</c></rc>
    <rc><c>C </c><c>   1</c></rc>
    <rc><c>C </c><c>   1</c></rc>
    <rc><c>C </c><c>   1</c></rc>
    <rc><c>C </c><c>   1</c></rc>
    <rc><c>C </c><c>   1</c></rc>
    <rc><c>C </c><c>   1</c></rc>
    <rc><c>C </c><c>   1</c></rc>
    <rc><c>C </c><c>   1</c></rc>
    <rc><c>C </c><c>   1</c></rc>
    <rc><c>C </c><c>   1</c></rc>
    <rc><c>C </c><c>   1</c></rc>
    <rc><c>C </c><c>   1</c></rc>
    <rc><c>C </c><c>   1</c></rc>
    <rc><c>C </c><c>   1</c></rc>
    <rc><c>C </c><c>   1</c></rc>
    <rc><c>C </c><c>   1</c></rc>
    <rc><c>C </c><c>   1</c></rc>
    <rc><c>C </c><c>   1</c></rc>
    <rc><c>C </c><c>   1</c></rc>
    <rc><c>C </c><c>   1</c></rc>
    <rc><c>C </c><c>   1</c></rc>
    <rc><c>C </c><c>   1</c></rc>
    <rc><c>C </c><c>   1</c></rc>
    <rc><c>C </c><c>   1</c></rc>
    <rc><c>C </c><c>   1</c></rc>
    <rc><c>C </c><c>   1</c></rc>
    <rc><c>C </c><c>   1</c></rc>
    <rc><c>C </c><c>   1</c></rc>
    <rc><c>C </c><c>   1</c></rc>
    <rc><c>C </c><c>   1</c></rc>
    <rc><c>C </c><c>   1</c></rc>
    <rc><c>C </c><c>   1</c></rc>
    <rc><c>C </c><c>   1</c></rc>
    <rc><c>C </c><c>   1</c></rc>
    <rc><c>C </c><c>   1</c></rc>
    <rc><c>C </c><c>   1</c></rc>
    <rc><c>C </c><c>   1</c></rc>
    <rc><c>C </c><c>   1</c></rc>
    <rc><c>C </c><c>   1</c></rc>
    <rc><c>C </c><c>   1</c></rc>
    <rc><c>C </c><c>   1</c></rc>
    <rc><c>C </c><c>   1</c></rc>
    <rc><c>C </c><c>   1</c></rc>
    <rc><c>C </c><c>   1</c></rc>
    <rc><c>C </c><c>   1</c></rc>
    <rc><c>C </c><c>   1</c></rc>
    <rc><c>C </c><c>   1</c></rc>
    <rc><c>C </c><c>   1</c></rc>
    <rc><c>C </c><c>   1</c></rc>
    <rc><c>C </c><c>   1</c></rc>
    <rc><c>C </c><c>   1</c></rc>
    <rc><c>C </c><c>   1</c></rc>
    <rc><c>C </c><c>   1</c></rc>
    <rc><c>C </c><c>   1</c></rc>
    <rc><c>C </c><c>   1</c></rc>
    <rc><c>C </c><c>   1</c></rc>
    <rc><c>C </c><c>   1</c></rc>
    <rc><c>C </c><c>   1</c></rc>
    <rc><c>C </c><c>   1</c></rc>
    <rc><c>C </c><c>   1</c></rc>
    <rc><c>C </c><c>   1</c></rc>
    <rc><c>C </c><c>   1</c></rc>
    <rc><c>C </c><c>   1</c></rc>
    <rc><c>C </c><c>   1</c></rc>
    <rc><c>C </c><c>   1</c></rc>
    <rc><c>C </c><c>   1</c></rc>
    <rc><c>C </c><c>   1</c></rc>
    <rc><c>C </c><c>   1</c></rc>
    <rc><c>C </c><c>   1</c></rc>
    <rc><c>C </c><c>   1</c></rc>
    <rc><c>C </c><c>   1</c></rc>
    <rc><c>C </c><c>   1</c></rc>
    <rc><c>C </c><c>   1</c></rc>
    <rc><c>C </c><c>   1</c></rc>
    <rc><c>C </c><c>   1</c></rc>
    <rc><c>C </c><c>   1</c></rc>
    <rc><c>C </c><c>   1</c></rc>
    <rc><c>C </c><c>   1</c></rc>
    <rc><c>C </c><c>   1</c></rc>
    <rc><c>C </c><c>   1</c></rc>
    <rc><c>C </c><c>   1</c></rc>
    <rc><c>C </c><c>   1</c></rc>
    <rc><c>F </c><c>   2</c></rc>
    <rc><c>F </c><c>   2</c></rc>
    <rc><c>F </c><c>   2</c></rc>
    <rc><c>F </c><c>   2</c></rc>
    <rc><c>F </c><c>   2</c></rc>
    <rc><c>F </c><c>   2</c></rc>
    <rc><c>N </c><c>   3</c></rc>
    <rc><c>N </c><c>   3</c></rc>
    <rc><c>H </c><c>   4</c></rc>
    <rc><c>H </c><c>   4</c></rc>
    <rc><c>O </c><c>   5</c></rc>
   </set>
  </array>
  <array name="atomtypes" >
   <dimension dim="1">type</dimension>
   <field type="int">atomspertype</field>
   <field type="string">element</field>
   <field>mass</field>
   <field>valence</field>
   <field type="string">pseudopotential</field>
   <set>
    <rc><c>  86</c><c>C </c><c>     12.01100000</c><c>      4.00000000</c><c>  PAW_PBE C 08Apr2002                   </c></rc>
    <rc><c>   6</c><c>F </c><c>     18.99800000</c><c>      7.00000000</c><c>  PAW_PBE F 08Apr2002                   </c></rc>
    <rc><c>   2</c><c>N </c><c>     14.00100000</c><c>      5.00000000</c><c>  PAW_PBE N 08Apr2002                   </c></rc>
    <rc><c>   2</c><c>H </c><c>      1.00000000</c><c>      1.00000000</c><c>  PAW_PBE H 15Jun2001                   </c></rc>
    <rc><c>   1</c><c>O </c><c>     16.00000000</c><c>      6.00000000</c><c>  PAW_PBE O 08Apr2002                   </c></rc>
   </set>
  </array>
 </atominfo>
 <structure name="initialpos" >
  <crystal>
   <varray name="basis" >
    <v>      17.27103806       0.00000000       0.00000000 </v>
    <v>      -8.63551903      14.95715771       0.00000000 </v>
    <v>       0.00000000       0.00000000      15.00000000 </v>
   </varray>
   <i name="volume">   3874.88459904 </i>
   <varray name="rec_basis" >
    <v>       0.05790040       0.03342881      -0.00000000 </v>
    <v>       0.00000000       0.06685762       0.00000000 </v>
    <v>       0.00000000      -0.00000000       0.06666667 </v>
   </varray>
  </crystal>
  <varray name="positions" >
   <v>       0.99831278       0.99892209       0.50315350 </v>
   <v>       0.99763356       0.14136414       0.50523628 </v>
   <v>       0.99785081       0.28454811       0.50494679 </v>
   <v>       0.99850087       0.42774736       0.50462351 </v>
   <v>       0.99890486       0.57084267       0.50052734 </v>
   <v>       0.99986522       0.71415489       0.49846841 </v>
   <v>       0.99991462       0.85719051       0.49984997 </v>
   <v>       0.14172841       0.99977005       0.49259647 </v>
   <v>       0.14081270       0.14203363       0.49778502 </v>
   <v>       0.14010742       0.28456636       0.49682075 </v>
   <v>       0.14098084       0.42812530       0.49563940 </v>
   <v>       0.14160340       0.57082490       0.49651149 </v>
   <v>       0.14183821       0.71376499       0.49297574 </v>
   <v>       0.14201026       0.85688064       0.49146507 </v>
   <v>       0.28451456       0.99948351       0.49074600 </v>
   <v>       0.28413526       0.14189537       0.49135301 </v>
   <v>       0.28318860       0.28523398       0.49017199 </v>
   <v>       0.28097533       0.42658404       0.47220430 </v>
   <v>       0.28507513       0.57195999       0.48229502 </v>
   <v>       0.28430549       0.71444882       0.49182579 </v>
   <v>       0.28428693       0.85705094       0.49124246 </v>
   <v>       0.42747850       0.99939515       0.49448487 </v>
   <v>       0.42721840       0.14219203       0.49567410 </v>
   <v>       0.42210122       0.27762276       0.51945645 </v>
   <v>       0.42639672       0.85601075       0.49780213 </v>
   <v>       0.56956860       0.99811590       0.50334922 </v>
   <v>       0.57003658       0.14160276       0.50446609 </v>
   <v>       0.57073444       0.28526975       0.50589309 </v>
   <v>       0.56756664       0.85339909       0.51510210 </v>
   <v>       0.71163419       0.99666605       0.51225270 </v>
   <v>       0.71259478       0.14101435       0.50858635 </v>
   <v>       0.71309254       0.28475586       0.51125768 </v>
   <v>       0.71408783       0.42870173       0.51454344 </v>
   <v>       0.72362525       0.57677224       0.54804631 </v>
   <v>       0.71194129       0.85323920       0.52835943 </v>
   <v>       0.85482090       0.99781088       0.51238171 </v>
   <v>       0.85476800       0.14090056       0.50935543 </v>
   <v>       0.85540557       0.28438011       0.50973418 </v>
   <v>       0.85627895       0.42792281       0.51150770 </v>
   <v>       0.85722825       0.57199867       0.50912189 </v>
   <v>       0.85916759       0.71529420       0.51546313 </v>
   <v>       0.85691171       0.85603284       0.51688437 </v>
   <v>       0.04570021       0.09421575       0.50214964 </v>
   <v>       0.04494012       0.23659731       0.50282545 </v>
   <v>       0.04569676       0.38003906       0.50248295 </v>
   <v>       0.04642349       0.52306204       0.50091367 </v>
   <v>       0.04675066       0.66613680       0.49642413 </v>
   <v>       0.04705633       0.80926037       0.49565274 </v>
   <v>       0.04659260       0.95204217       0.49796281 </v>
   <v>       0.18880570       0.09461121       0.49225166 </v>
   <v>       0.18770157       0.23716935       0.49621271 </v>
   <v>       0.18711404       0.37957287       0.49041576 </v>
   <v>       0.18942229       0.52361385       0.49289288 </v>
   <v>       0.18910907       0.66619530       0.49308392 </v>
   <v>       0.18937471       0.80917246       0.49101410 </v>
   <v>       0.18945044       0.95203975       0.49065394 </v>
   <v>       0.33206755       0.09467727       0.49235185 </v>
   <v>       0.33126692       0.23684528       0.49842132 </v>
   <v>       0.32440803       0.37568383       0.46797617 </v>
   <v>       0.32528695       0.52108640       0.46298355 </v>
   <v>       0.33511697       0.66996320       0.48959114 </v>
   <v>       0.33166820       0.80928002       0.49311504 </v>
   <v>       0.33211851       0.95201108       0.49148302 </v>
   <v>       0.47514445       0.09455811       0.49688655 </v>
   <v>       0.47440518       0.23712276       0.50539265 </v>
   <v>       0.47027121       0.80460772       0.50419732 </v>
   <v>       0.47466986       0.95135453       0.49843217 </v>
   <v>       0.61730177       0.09348550       0.50550356 </v>
   <v>       0.61796746       0.23713570       0.50914399 </v>
   <v>       0.62239540       0.37895402       0.49734105 </v>
   <v>       0.61797004       0.81117891       0.53319703 </v>
   <v>       0.61616901       0.94911358       0.50925945 </v>
   <v>       0.75955995       0.09268378       0.50985851 </v>
   <v>       0.76031532       0.23650343       0.50985942 </v>
   <v>       0.76106226       0.38018029       0.51494020 </v>
   <v>       0.76237509       0.52572106       0.52214355 </v>
   <v>       0.76651249       0.67149112       0.53707364 </v>
   <v>       0.76194251       0.80478105       0.53184495 </v>
   <v>       0.75932979       0.94882516       0.51684116 </v>
   <v>       0.90221983       0.09305034       0.50888645 </v>
   <v>       0.90256840       0.23645863       0.50828719 </v>
   <v>       0.90325155       0.37999399       0.50912058 </v>
   <v>       0.90379806       0.52337791       0.50575154 </v>
   <v>       0.90520563       0.66683405       0.50674185 </v>
   <v>       0.90536976       0.80976583       0.51001044 </v>
   <v>       0.90321990       0.95089370       0.51060093 </v>
   <v>       0.45915044       0.35715176       0.56258490 </v>
   <v>       0.40985737       0.41635412       0.43941418 </v>
   <v>       0.40973909       0.56280468       0.43449709 </v>
   <v>       0.64379497       0.53503342       0.59008141 </v>
   <v>       0.58332647       0.42319302       0.46333498 </v>
   <v>       0.57235115       0.72539074       0.55855836 </v>
   <v>       0.42456493       0.71455780       0.49748431 </v>
   <v>       0.72065771       0.71616671       0.54609731 </v>
   <v>       0.60559927       0.63072481       0.50781417 </v>
   <v>       0.52809741       0.53270210       0.50105755 </v>
   <v>       0.56744854       0.58411265       0.46511209 </v>
  </varray>
  <varray name="selective"  type="logical" >
   <v type="logical" >  T  T  T </v>
   <v type="logical" >  T  T  T </v>
   <v type="logical" >  T  T  T </v>
   <v type="logical" >  T  T  T </v>
   <v type="logical" >  T  T  T </v>
   <v type="logical" >  T  T  T </v>
   <v type="logical" >  T  T  T </v>
   <v type="logical" >  T  T  T </v>
   <v type="logical" >  T  T  T </v>
   <v type="logical" >  T  T  T </v>
   <v type="logical" >  T  T  T </v>
   <v type="logical" >  T  T  T </v>
   <v type="logical" >  T  T  T </v>
   <v type="logical" >  T  T  T </v>
   <v type="logical" >  T  T  T </v>
   <v type="logical" >  T  T  T </v>
   <v type="logical" >  T  T  T </v>
   <v type="logical" >  T  T  T </v>
   <v type="logical" >  T  T  T </v>
   <v type="logical" >  T  T  T </v>
   <v type="logical" >  T  T  T </v>
   <v type="logical" >  T  T  T </v>
   <v type="logical" >  T  T  T </v>
   <v type="logical" >  T  T  T </v>
   <v type="logical" >  T  T  T </v>
   <v type="logical" >  T  T  T </v>
   <v type="logical" >  T  T  T </v>
   <v type="logical" >  T  T  T </v>
   <v type="logical" >  T  T  T </v>
   <v type="logical" >  T  T  T </v>
   <v type="logical" >  T  T  T </v>
   <v type="logical" >  T  T  T </v>
   <v type="logical" >  T  T  T </v>
   <v type="logical" >  T  T  T </v>
   <v type="logical" >  T  T  T </v>
   <v type="logical" >  T  T  T </v>
   <v type="logical" >  T  T  T </v>
   <v type="logical" >  T  T  T </v>
   <v type="logical" >  T  T  T </v>
   <v type="logical" >  T  T  T </v>
   <v type="logical" >  T  T  T </v>
   <v type="logical" >  T  T  T </v>
   <v type="logical" >  T  T  T </v>
   <v type="logical" >  T  T  T </v>
   <v type="logical" >  T  T  T </v>
   <v type="logical" >  T  T  T </v>
   <v type="logical" >  T  T  T </v>
   <v type="logical" >  T  T  T </v>
   <v type="logical" >  T  T  T </v>
   <v type="logical" >  T  T  T </v>
   <v type="logical" >  T  T  T </v>
   <v type="logical" >  T  T  T </v>
   <v type="logical" >  T  T  T </v>
   <v type="logical" >  T  T  T </v>
   <v type="logical" >  T  T  T </v>
   <v type="logical" >  T  T  T </v>
   <v type="logical" >  T  T  T </v>
   <v type="logical" >  T  T  T </v>
   <v type="logical" >  T  T  T </v>
   <v type="logical" >  T  T  T </v>
   <v type="logical" >  T  T  T </v>
   <v type="logical" >  T  T  T </v>
   <v type="logical" >  T  T  T </v>
   <v type="logical" >  T  T  T </v>
   <v type="logical" >  T  T  T </v>
   <v type="logical" >  T  T  T </v>
   <v type="logical" >  T  T  T </v>
   <v type="logical" >  T  T  T </v>
   <v type="logical" >  T  T  T </v>
   <v type="logical" >  T  T  T </v>
   <v type="logical" >  T  T  T </v>
   <v type="logical" >  T  T  T </v>
   <v type="logical" >  T  T  T </v>
   <v type="logical" >  T  T  T </v>
   <v type="logical" >  T  T  T </v>
   <v type="logical" >  T  T  T </v>
   <v type="logical" >  T  T  T </v>
   <v type="logical" >  T  T  T </v>
   <v type="logical" >  T  T  T </v>
   <v type="logical" >  T  T  T </v>
   <v type="logical" >  T  T  T </v>
   <v type="logical" >  T  T  T </v>
   <v type="logical" >  T  T  T </v>
   <v type="logical" >  T  T  T </v>
   <v type="logical" >  T  T  T </v>
   <v type="logical" >  T  T  T </v>
   <v type="logical" >  T  T  T </v>
   <v type="logical" >  T  T  T </v>
   <v type="logical" >  T  T  T </v>
   <v type="logical" >  T  T  T </v>
   <v type="logical" >  T  T  T </v>
   <v type="logical" >  T  T  T </v>
   <v type="logical" >  T  T  T </v>
   <v type="logical" >  T  T  T </v>
   <v type="logical" >  T  T  T </v>
   <v type="logical" >  T  T  T </v>
   <v type="logical" >  T  T  F </v>
  </varray>
  <nose>
   <v>      -3.00000000       0.00000000       0.00010000       0.00010000 </v>
  </nose>
 </structure>
 <calculation>
  <scstep>
   <time name="dav">   78.38   78.88</time>
   <time name="total">   85.57   86.10</time>
   <energy>
    <i name="alphaZ">    207.25300192 </i>
    <i name="ewald">  41319.85256860 </i>
    <i name="hartreedc"> -55019.43177805 </i>
    <i name="XCdc">   1433.55087375 </i>
    <i name="pawpsdc">  13324.18077321 </i>
    <i name="pawaedc"> -13407.67620897 </i>
    <i name="eentropy">     -0.04122193 </i>
    <i name="bandstr">  -1695.24655767 </i>
    <i name="atom">  17598.89992239 </i>
    <i name="e_fr_energy">   3761.34137324 </i>
    <i name="e_wo_entrp">   3761.38259517 </i>
    <i name="e_0_energy">   3761.36198420 </i>
   </energy>
  </scstep>
  <scstep>
   <time name="dav">  100.76  101.44</time>
   <time name="total">  100.76  101.44</time>
   <energy>
    <i name="e_fr_energy">   -176.18930758 </i>
    <i name="e_wo_entrp">   -176.18583675 </i>
    <i name="e_0_energy">   -176.18757216 </i>
   </energy>
  </scstep>
  <scstep>
   <time name="dav">   86.80   87.37</time>
   <time name="total">   86.80   87.37</time>
   <energy>
    <i name="e_fr_energy">   -861.56062543 </i>
    <i name="e_wo_entrp">   -861.55515534 </i>
    <i name="e_0_energy">   -861.55789038 </i>
   </energy>
  </scstep>
  <scstep>
   <time name="dav">   86.64   87.24</time>
   <time name="total">   86.65   87.24</time>
   <energy>
    <i name="e_fr_energy">   -883.83511052 </i>
    <i name="e_wo_entrp">   -883.82917803 </i>
    <i name="e_0_energy">   -883.83214427 </i>
   </energy>
  </scstep>
  <scstep>
   <time name="dav">   97.29   97.92</time>
   <time name="total">  103.29  103.96</time>
   <energy>
    <i name="e_fr_energy">   -884.52300910 </i>
    <i name="e_wo_entrp">   -884.51699728 </i>
    <i name="e_0_energy">   -884.52000319 </i>
   </energy>
  </scstep>
  <scstep>
   <time name="dav">   85.23   85.77</time>
   <time name="total">   97.75   98.36</time>
   <energy>
    <i name="e_fr_energy">   -866.91447315 </i>
    <i name="e_wo_entrp">   -866.91421138 </i>
    <i name="e_0_energy">   -866.91434226 </i>
   </energy>
  </scstep>
  <scstep>
   <time name="dav">   83.02   83.57</time>
   <time name="total">   95.48   96.10</time>
   <energy>
    <i name="e_fr_energy">   -846.32188679 </i>
    <i name="e_wo_entrp">   -846.32188596 </i>
    <i name="e_0_energy">   -846.32188637 </i>
   </energy>
  </scstep>
  <scstep>
   <time name="dav">   83.40   83.92</time>
   <time name="total">   95.79   96.39</time>
   <energy>
    <i name="e_fr_energy">   -841.45045714 </i>
    <i name="e_wo_entrp">   -841.45045714 </i>
    <i name="e_0_energy">   -841.45045714 </i>
   </energy>
  </scstep>
  <scstep>
   <time name="dav">   83.85   84.40</time>
   <time name="total">   96.21   96.83</time>
   <energy>
    <i name="e_fr_energy">   -841.62649102 </i>
    <i name="e_wo_entrp">   -841.62649101 </i>
    <i name="e_0_energy">   -841.62649102 </i>
   </energy>
  </scstep>
  <scstep>
   <time name="dav">   82.67   83.21</time>
   <time name="total">   94.72   95.33</time>
   <energy>
    <i name="e_fr_energy">   -841.45019286 </i>
    <i name="e_wo_entrp">   -841.45019286 </i>
    <i name="e_0_energy">   -841.45019286 </i>
   </energy>
  </scstep>
  <scstep>
   <time name="dav">   82.20   82.74</time>
   <time name="total">   94.58   95.19</time>
   <energy>
    <i name="e_fr_energy">   -841.42077704 </i>
    <i name="e_wo_entrp">   -841.42077704 </i>
    <i name="e_0_energy">   -841.42077704 </i>
   </energy>
  </scstep>
  <scstep>
   <time name="dav">   83.42   83.98</time>
   <time name="total">   95.74   96.36</time>
   <energy>
    <i name="e_fr_energy">   -841.42003619 </i>
    <i name="e_wo_entrp">   -841.42003619 </i>
    <i name="e_0_energy">   -841.42003619 </i>
   </energy>
  </scstep>
  <scstep>
   <time name="dav">   83.57   84.17</time>
   <time name="total">   95.94   96.61</time>
   <energy>
    <i name="e_fr_energy">   -841.42026840 </i>
    <i name="e_wo_entrp">   -841.42026840 </i>
    <i name="e_0_energy">   -841.42026840 </i>
   </energy>
  </scstep>
  <scstep>
   <time name="dav">   83.24   83.82</time>
   <time name="total">   95.32   95.97</time>
   <energy>
    <i name="e_fr_energy">   -841.42027367 </i>
    <i name="e_wo_entrp">   -841.42027367 </i>
    <i name="e_0_energy">   -841.42027367 </i>
   </energy>
  </scstep>
  <scstep>
   <time name="dav">   80.77   81.29</time>
   <time name="total">   93.08   93.68</time>
   <energy>
    <i name="e_fr_energy">   -841.42033620 </i>
    <i name="e_wo_entrp">   -841.42033620 </i>
    <i name="e_0_energy">   -841.42033620 </i>
   </energy>
  </scstep>
  <scstep>
   <time name="dav">   82.11   82.65</time>
   <time name="total">   94.45   95.07</time>
   <energy>
    <i name="e_fr_energy">   -841.42034720 </i>
    <i name="e_wo_entrp">   -841.42034720 </i>
    <i name="e_0_energy">   -841.42034720 </i>
   </energy>
  </scstep>
  <scstep>
   <time name="dav">   87.09   87.68</time>
   <time name="total">   99.85  100.54</time>
   <energy>
    <i name="e_fr_energy">   -841.42034618 </i>
    <i name="e_wo_entrp">   -841.42034618 </i>
    <i name="e_0_energy">   -841.42034618 </i>
   </energy>
  </scstep>
  <scstep>
   <time name="dav">   71.10   71.55</time>
   <time name="total">   78.02   78.51</time>
   <energy>
    <i name="alphaZ">    207.25300192 </i>
    <i name="ewald">  41319.85256860 </i>
    <i name="hartreedc"> -56502.01961124 </i>
    <i name="XCdc">   1483.44370012 </i>
    <i name="pawpsdc">  40890.98574065 </i>
    <i name="pawaedc"> -40985.77624740 </i>
    <i name="eentropy">     -0.00000000 </i>
    <i name="bandstr">  -4854.05942094 </i>
    <i name="atom">  17598.89992239 </i>
    <i name="e_fr_energy">   -841.42034590 </i>
    <i name="e_wo_entrp">   -841.42034590 </i>
    <i name="e_0_energy">   -841.42034590 </i>
   </energy>
  </scstep>
  <structure>
   <crystal>
    <varray name="basis" >
     <v>      17.27103806       0.00000000       0.00000000 </v>
     <v>      -8.63551903      14.95715771       0.00000000 </v>
     <v>       0.00000000       0.00000000      15.00000000 </v>
    </varray>
    <i name="volume">   3874.88459904 </i>
    <varray name="rec_basis" >
     <v>       0.05790040       0.03342881      -0.00000000 </v>
     <v>       0.00000000       0.06685762       0.00000000 </v>
     <v>       0.00000000      -0.00000000       0.06666667 </v>
    </varray>
   </crystal>
   <varray name="positions" >
    <v>       0.99831278       0.99892209       0.50315350 </v>
    <v>       0.99763356       0.14136414       0.50523628 </v>
    <v>       0.99785081       0.28454811       0.50494679 </v>
    <v>       0.99850087       0.42774736       0.50462351 </v>
    <v>       0.99890486       0.57084267       0.50052734 </v>
    <v>       0.99986522       0.71415489       0.49846841 </v>
    <v>       0.99991462       0.85719051       0.49984997 </v>
    <v>       0.14172841       0.99977005       0.49259647 </v>
    <v>       0.14081270       0.14203363       0.49778502 </v>
    <v>       0.14010742       0.28456636       0.49682075 </v>
    <v>       0.14098084       0.42812530       0.49563940 </v>
    <v>       0.14160340       0.57082490       0.49651149 </v>
    <v>       0.14183821       0.71376499       0.49297574 </v>
    <v>       0.14201026       0.85688064       0.49146507 </v>
    <v>       0.28451456       0.99948351       0.49074600 </v>
    <v>       0.28413526       0.14189537       0.49135301 </v>
    <v>       0.28318860       0.28523398       0.49017199 </v>
    <v>       0.28097533       0.42658404       0.47220430 </v>
    <v>       0.28507513       0.57195999       0.48229502 </v>
    <v>       0.28430549       0.71444882       0.49182579 </v>
    <v>       0.28428693       0.85705094       0.49124246 </v>
    <v>       0.42747850       0.99939515       0.49448487 </v>
    <v>       0.42721840       0.14219203       0.49567410 </v>
    <v>       0.42210122       0.27762276       0.51945645 </v>
    <v>       0.42639672       0.85601075       0.49780213 </v>
    <v>       0.56956860       0.99811590       0.50334922 </v>
    <v>       0.57003658       0.14160276       0.50446609 </v>
    <v>       0.57073444       0.28526975       0.50589309 </v>
    <v>       0.56756664       0.85339909       0.51510210 </v>
    <v>       0.71163419       0.99666605       0.51225270 </v>
    <v>       0.71259478       0.14101435       0.50858635 </v>
    <v>       0.71309254       0.28475586       0.51125768 </v>
    <v>       0.71408783       0.42870173       0.51454344 </v>
    <v>       0.72362525       0.57677224       0.54804631 </v>
    <v>       0.71194129       0.85323920       0.52835943 </v>
    <v>       0.85482090       0.99781088       0.51238171 </v>
    <v>       0.85476800       0.14090056       0.50935543 </v>
    <v>       0.85540557       0.28438011       0.50973418 </v>
    <v>       0.85627895       0.42792281       0.51150770 </v>
    <v>       0.85722825       0.57199867       0.50912189 </v>
    <v>       0.85916759       0.71529420       0.51546313 </v>
    <v>       0.85691171       0.85603284       0.51688437 </v>
    <v>       0.04570021       0.09421575       0.50214964 </v>
    <v>       0.04494012       0.23659731       0.50282545 </v>
    <v>       0.04569676       0.38003906       0.50248295 </v>
    <v>       0.04642349       0.52306204       0.50091367 </v>
    <v>       0.04675066       0.66613680       0.49642413 </v>
    <v>       0.04705633       0.80926037       0.49565274 </v>
    <v>       0.04659260       0.95204217       0.49796281 </v>
    <v>       0.18880570       0.09461121       0.49225166 </v>
    <v>       0.18770157       0.23716935       0.49621271 </v>
    <v>       0.18711404       0.37957287       0.49041576 </v>
    <v>       0.18942229       0.52361385       0.49289288 </v>
    <v>       0.18910907       0.66619530       0.49308392 </v>
    <v>       0.18937471       0.80917246       0.49101410 </v>
    <v>       0.18945044       0.95203975       0.49065394 </v>
    <v>       0.33206755       0.09467727       0.49235185 </v>
    <v>       0.33126692       0.23684528       0.49842132 </v>
    <v>       0.32440803       0.37568383       0.46797617 </v>
    <v>       0.32528695       0.52108640       0.46298355 </v>
    <v>       0.33511697       0.66996320       0.48959114 </v>
    <v>       0.33166820       0.80928002       0.49311504 </v>
    <v>       0.33211851       0.95201108       0.49148302 </v>
    <v>       0.47514445       0.09455811       0.49688655 </v>
    <v>       0.47440518       0.23712276       0.50539265 </v>
    <v>       0.47027121       0.80460772       0.50419732 </v>
    <v>       0.47466986       0.95135453       0.49843217 </v>
    <v>       0.61730177       0.09348550       0.50550356 </v>
    <v>       0.61796746       0.23713570       0.50914399 </v>
    <v>       0.62239540       0.37895402       0.49734105 </v>
    <v>       0.61797004       0.81117891       0.53319703 </v>
    <v>       0.61616901       0.94911358       0.50925945 </v>
    <v>       0.75955995       0.09268378       0.50985851 </v>
    <v>       0.76031532       0.23650343       0.50985942 </v>
    <v>       0.76106226       0.38018029       0.51494020 </v>
    <v>       0.76237509       0.52572106       0.52214355 </v>
    <v>       0.76651249       0.67149112       0.53707364 </v>
    <v>       0.76194251       0.80478105       0.53184495 </v>
    <v>       0.75932979       0.94882516       0.51684116 </v>
    <v>       0.90221983       0.09305034       0.50888645 </v>
    <v>       0.90256840       0.23645863       0.50828719 </v>
    <v>       0.90325155       0.37999399       0.50912058 </v>
    <v>       0.90379806       0.52337791       0.50575154 </v>
    <v>       0.90520563       0.66683405       0.50674185 </v>
    <v>       0.90536976       0.80976583       0.51001044 </v>
    <v>       0.90321990       0.95089370       0.51060093 </v>
    <v>       0.45915044       0.35715176       0.56258490 </v>
    <v>       0.40985737       0.41635412       0.43941418 </v>
    <v>       0.40973909       0.56280468       0.43449709 </v>
    <v>       0.64379497       0.53503342       0.59008141 </v>
    <v>       0.58332647       0.42319302       0.46333498 </v>
    <v>       0.57235115       0.72539074       0.55855836 </v>
    <v>       0.42456493       0.71455780       0.49748431 </v>
    <v>       0.72065771       0.71616671       0.54609731 </v>
    <v>       0.60559927       0.63072481       0.50781417 </v>
    <v>       0.52809741       0.53270210       0.50105755 </v>
    <v>       0.56744854       0.58411265       0.46511209 </v>
   </varray>
  </structure>
  <varray name="forces" >
   <v>      -0.00475243       0.00566692       0.00564079 </v>
   <v>      -0.00234927       0.00086865      -0.00157227 </v>
   <v>      -0.00282098      -0.00186077      -0.00385665 </v>
   <v>      -0.01697723      -0.00839081       0.00035124 </v>
   <v>      -0.00426342      -0.00324177       0.00443017 </v>
   <v>       0.00138116      -0.00403432       0.00580848 </v>
   <v>      -0.00200511       0.00055160       0.00642875 </v>
   <v>      -0.00294003       0.00162610      -0.00069596 </v>
   <v>      -0.00777221      -0.00106787      -0.00227392 </v>
   <v>      -0.00343081      -0.00583805      -0.00380810 </v>
   <v>      -0.00251208      -0.00316304      -0.00391762 </v>
   <v>      -0.00137494       0.00517012      -0.00316652 </v>
   <v>      -0.00967914      -0.00172379       0.00201835 </v>
   <v>       0.00182540      -0.00252847       0.00030525 </v>
   <v>       0.00305016       0.00085180      -0.00228062 </v>
   <v>      -0.00188890      -0.00167370      -0.00342364 </v>
   <v>      -0.00281692      -0.00589809      -0.00060500 </v>
   <v>      -0.00919234      -0.00762991       0.00061117 </v>
   <v>      -0.00472389       0.00297078       0.00078989 </v>
   <v>       0.00328861      -0.00061836      -0.00056885 </v>
   <v>       0.00946372      -0.00244204       0.00128572 </v>
   <v>       0.00236786      -0.00352457       0.00066158 </v>
   <v>      -0.00458704      -0.00436646       0.00348370 </v>
   <v>      -0.00407395       0.00002916       0.00550901 </v>
   <v>       0.00328587      -0.00376303       0.00355885 </v>
   <v>      -0.00137221      -0.00843851       0.00692225 </v>
   <v>       0.00239699      -0.00184360       0.00680241 </v>
   <v>       0.00366443       0.00809342       0.01103696 </v>
   <v>      -0.00777484      -0.00444837       0.00715915 </v>
   <v>      -0.00981123      -0.00446660       0.00740691 </v>
   <v>      -0.00174669       0.00333924       0.00508723 </v>
   <v>       0.00791431       0.00454788       0.00977314 </v>
   <v>       0.00821826       0.00939693       0.01802991 </v>
   <v>      -0.00760375       0.00378162       0.01934835 </v>
   <v>      -0.00434378      -0.00138643       0.01144393 </v>
   <v>       0.00268409      -0.00018653       0.00779281 </v>
   <v>       0.00537677       0.00340384       0.00083135 </v>
   <v>      -0.00101848       0.00089636       0.00262477 </v>
   <v>       0.00056537      -0.00475212       0.00850007 </v>
   <v>      -0.00016244      -0.00266200       0.01074709 </v>
   <v>      -0.00336853      -0.00124450       0.01519815 </v>
   <v>       0.00158172       0.00228073       0.01213428 </v>
   <v>       0.01141254      -0.00596752       0.00217511 </v>
   <v>      -0.00135485       0.00165668      -0.00357760 </v>
   <v>       0.00606789       0.00192524      -0.00526914 </v>
   <v>       0.00436441       0.00432312      -0.00098059 </v>
   <v>       0.00098487       0.00421146       0.00302524 </v>
   <v>      -0.00185429       0.00289313       0.00338254 </v>
   <v>       0.00285943      -0.00277738       0.00358094 </v>
   <v>       0.00076397      -0.00290601      -0.00299567 </v>
   <v>       0.00251831       0.00116177      -0.00371520 </v>
   <v>       0.00550398       0.00603638      -0.00631771 </v>
   <v>      -0.00087319      -0.00096944      -0.00369737 </v>
   <v>       0.00169192      -0.01090891      -0.00225629 </v>
   <v>      -0.00544134       0.00344448      -0.00015855 </v>
   <v>      -0.00305263      -0.00294127      -0.00136124 </v>
   <v>      -0.00038718       0.00036608      -0.00081726 </v>
   <v>      -0.00071633       0.00000068      -0.00055371 </v>
   <v>       0.00510370       0.00530864      -0.00148303 </v>
   <v>       0.01641288       0.00401568      -0.00243945 </v>
   <v>      -0.00031308      -0.00333750       0.00065543 </v>
   <v>      -0.00940361       0.00409666       0.00178479 </v>
   <v>      -0.00491683      -0.00082153      -0.00086340 </v>
   <v>       0.00008700       0.00144953       0.00314718 </v>
   <v>       0.00055588      -0.00193199       0.00706825 </v>
   <v>       0.00023773      -0.00181904       0.00608250 </v>
   <v>      -0.00234494       0.00499248       0.00344376 </v>
   <v>      -0.00323526       0.00194418       0.00643337 </v>
   <v>      -0.00814798      -0.00565314       0.00931426 </v>
   <v>      -0.01476269      -0.01637229       0.01135536 </v>
   <v>       0.00684924      -0.00702147       0.00935506 </v>
   <v>       0.00748816       0.01218931       0.00970254 </v>
   <v>       0.00271615      -0.00817144       0.00424333 </v>
   <v>      -0.00646495      -0.00094197       0.00531319 </v>
   <v>      -0.00363747      -0.00541699       0.01130117 </v>
   <v>      -0.00116106      -0.00120085       0.01593171 </v>
   <v>       0.00125781      -0.00173092       0.01346378 </v>
   <v>       0.00058234       0.00303119       0.01259920 </v>
   <v>       0.00012493       0.00296151       0.00990303 </v>
   <v>      -0.00809424      -0.00072312       0.00310018 </v>
   <v>       0.00027241      -0.00282786      -0.00079166 </v>
   <v>       0.00459118       0.00663726       0.00256454 </v>
   <v>      -0.00279252       0.00637802       0.00893968 </v>
   <v>      -0.00159404       0.00055309       0.01175905 </v>
   <v>       0.00016528       0.00105437       0.01214690 </v>
   <v>      -0.00186133      -0.00325855       0.01004208 </v>
   <v>      -0.00599319      -0.00441436       0.00528985 </v>
   <v>      -0.00021501       0.00082102       0.00886924 </v>
   <v>      -0.00130065      -0.00105834       0.02418777 </v>
   <v>      -0.00724269       0.00503634       0.01280810 </v>
   <v>       0.00232892      -0.00150375       0.01386829 </v>
   <v>      -0.00001266       0.00061855      -0.00280836 </v>
   <v>      -0.00095763       0.00057953       0.00560811 </v>
   <v>      -0.00000573      -0.00251199       0.01466450 </v>
   <v>       0.01707903       0.01101108      -0.04242078 </v>
   <v>       0.01703342       0.00585975      -0.05232266 </v>
   <v>       0.04738191       0.03034892      -0.32783291 </v>
  </varray>
  <varray name="stress" >
   <v>       1.85021110       0.89296157      -0.01608873 </v>
   <v>       0.89296172      -4.24402091      -0.02179223 </v>
   <v>      -0.01608981      -0.02179308      -0.24992499 </v>
  </varray>
  <energy>
   <i name="e_fr_energy">   -849.25829790 </i>
   <i name="e_wo_entrp">   -849.25829790 </i>
   <i name="e_0_energy">   -849.25829790 </i>
  </energy>
  <time name="totalsc"> 2026.90 2039.69</time>
 </calculation>
 <calculation>
  <scstep>
   <time name="dav">   77.03   77.53</time>
   <time name="total">   90.24   90.81</time>
   <energy>
    <i name="alphaZ">    207.25300192 </i>
    <i name="ewald">  41319.63275096 </i>
    <i name="hartreedc"> -56501.75582297 </i>
    <i name="XCdc">   1483.44340311 </i>
    <i name="pawpsdc">  40890.05232473 </i>
    <i name="pawaedc"> -40984.84246023 </i>
    <i name="eentropy">     -0.00000000 </i>
    <i name="bandstr">  -4854.10352049 </i>
    <i name="atom">  17598.89992239 </i>
    <i name="e_fr_energy">   -841.42040058 </i>
    <i name="e_wo_entrp">   -841.42040058 </i>
    <i name="e_0_energy">   -841.42040058 </i>
   </energy>
  </scstep>
  <scstep>
   <time name="dav">   83.03   83.57</time>
   <time name="total">   96.70   97.32</time>
   <energy>
    <i name="e_fr_energy">   -841.42040701 </i>
    <i name="e_wo_entrp">   -841.42040701 </i>
    <i name="e_0_energy">   -841.42040701 </i>
   </energy>
  </scstep>
  <scstep>
   <time name="dav">   78.60   79.10</time>
   <time name="total">   85.71   86.24</time>
   <energy>
    <i name="alphaZ">    207.25300192 </i>
    <i name="ewald">  41319.63275096 </i>
    <i name="hartreedc"> -56501.73384245 </i>
    <i name="XCdc">   1483.44266127 </i>
    <i name="pawpsdc">  40889.81195225 </i>
    <i name="pawaedc"> -40984.60132167 </i>
    <i name="eentropy">     -0.00000000 </i>
    <i name="bandstr">  -4854.12553087 </i>
    <i name="atom">  17598.89992239 </i>
    <i name="e_fr_energy">   -841.42040620 </i>
    <i name="e_wo_entrp">   -841.42040620 </i>
    <i name="e_0_energy">   -841.42040620 </i>
   </energy>
  </scstep>
  <structure>
   <crystal>
    <varray name="basis" >
     <v>      17.27103806       0.00000000       0.00000000 </v>
     <v>      -8.63551903      14.95715771       0.00000000 </v>
     <v>       0.00000000       0.00000000      15.00000000 </v>
    </varray>
    <i name="volume">   3874.88459904 </i>
    <varray name="rec_basis" >
     <v>       0.05790040       0.03342881      -0.00000000 </v>
     <v>       0.00000000       0.06685762       0.00000000 </v>
     <v>       0.00000000      -0.00000000       0.06666667 </v>
    </varray>
   </crystal>
   <varray name="positions" >
    <v>       0.99831251       0.99892604       0.50315706 </v>
    <v>       0.99763321       0.14136510       0.50523532 </v>
    <v>       0.99784939       0.28454732       0.50494461 </v>
    <v>       0.99848958       0.42774237       0.50462433 </v>
    <v>       0.99890249       0.57084105       0.50053040 </v>
    <v>       0.99986556       0.71415278       0.49847195 </v>
    <v>       0.99991426       0.85719121       0.49985385 </v>
    <v>       0.14172792       0.99977151       0.49259602 </v>
    <v>       0.14080862       0.14203336       0.49778274 </v>
    <v>       0.14010426       0.28456308       0.49681700 </v>
    <v>       0.14097909       0.42812364       0.49563553 </v>
    <v>       0.14160522       0.57082870       0.49650949 </v>
    <v>       0.14183314       0.71376436       0.49297715 </v>
    <v>       0.14201123       0.85687951       0.49146547 </v>
    <v>       0.28451727       0.99948460       0.49074463 </v>
    <v>       0.28413425       0.14189484       0.49134941 </v>
    <v>       0.28318545       0.28523070       0.49016684 </v>
    <v>       0.28096713       0.42657897       0.47219540 </v>
    <v>       0.28507359       0.57196207       0.48228841 </v>
    <v>       0.28430801       0.71444873       0.49182336 </v>
    <v>       0.28429222       0.85704980       0.49124315 </v>
    <v>       0.42747939       0.99939337       0.49448497 </v>
    <v>       0.42721517       0.14218992       0.49567531 </v>
    <v>       0.42209962       0.27762396       0.51945567 </v>
    <v>       0.42639811       0.85600862       0.49780274 </v>
    <v>       0.56956579       0.99811102       0.50335224 </v>
    <v>       0.57003804       0.14160219       0.50446949 </v>
    <v>       0.57073995       0.28527582       0.50589795 </v>
    <v>       0.56756148       0.85339685       0.51510556 </v>
    <v>       0.71162793       0.99666361       0.51225638 </v>
    <v>       0.71259557       0.14101694       0.50858878 </v>
    <v>       0.71309919       0.28475922       0.51126306 </v>
    <v>       0.71409665       0.42870825       0.51455343 </v>
    <v>       0.72362376       0.57677489       0.54805758 </v>
    <v>       0.71193894       0.85323874       0.52836686 </v>
    <v>       0.85482293       0.99781108       0.51238608 </v>
    <v>       0.85477279       0.14090314       0.50935567 </v>
    <v>       0.85540606       0.28438107       0.50973589 </v>
    <v>       0.85627873       0.42792017       0.51151288 </v>
    <v>       0.85722853       0.57199741       0.50912754 </v>
    <v>       0.85916583       0.71529363       0.51547155 </v>
    <v>       0.85691361       0.85603439       0.51689155 </v>
    <v>       0.04570527       0.09421224       0.50215094 </v>
    <v>       0.04494063       0.23659882       0.50282323 </v>
    <v>       0.04570162       0.38004072       0.50247977 </v>
    <v>       0.04642831       0.52306527       0.50091367 </v>
    <v>       0.04675349       0.66613999       0.49642622 </v>
    <v>       0.04705698       0.80926269       0.49565487 </v>
    <v>       0.04659390       0.95204072       0.49796509 </v>
    <v>       0.18880578       0.09460975       0.49224904 </v>
    <v>       0.18770391       0.23717058       0.49620811 </v>
    <v>       0.18711961       0.37957717       0.49040852 </v>
    <v>       0.18942230       0.52361362       0.49288880 </v>
    <v>       0.18910740       0.66618869       0.49308193 </v>
    <v>       0.18937358       0.80917516       0.49101410 </v>
    <v>       0.18944853       0.95203833       0.49065321 </v>
    <v>       0.33206816       0.09467811       0.49235073 </v>
    <v>       0.33126704       0.23684600       0.49841738 </v>
    <v>       0.32441196       0.37568695       0.46796638 </v>
    <v>       0.32529518       0.52108856       0.46296605 </v>
    <v>       0.33511657       0.66996130       0.48958606 </v>
    <v>       0.33166504       0.80928300       0.49311498 </v>
    <v>       0.33211621       0.95201101       0.49148250 </v>
    <v>       0.47514565       0.09455961       0.49688795 </v>
    <v>       0.47440562       0.23712245       0.50539474 </v>
    <v>       0.47027147       0.80460667       0.50419848 </v>
    <v>       0.47467084       0.95135816       0.49843337 </v>
    <v>       0.61730129       0.09348731       0.50550661 </v>
    <v>       0.61796184       0.23713271       0.50914868 </v>
    <v>       0.62238329       0.37894424       0.49734601 </v>
    <v>       0.61797224       0.81117567       0.53320502 </v>
    <v>       0.61617778       0.94912200       0.50926410 </v>
    <v>       0.75955953       0.09267893       0.50986047 </v>
    <v>       0.76031217       0.23650324       0.50986229 </v>
    <v>       0.76105948       0.38017717       0.51494657 </v>
    <v>       0.76237548       0.52572066       0.52215213 </v>
    <v>       0.76651295       0.67149002       0.53708068 </v>
    <v>       0.76194395       0.80478296       0.53185248 </v>
    <v>       0.75933142       0.94882745       0.51684662 </v>
    <v>       0.90221576       0.09305024       0.50888817 </v>
    <v>       0.90256840       0.23645719       0.50828681 </v>
    <v>       0.90325718       0.37999867       0.50912251 </v>
    <v>       0.90379968       0.52338242       0.50575679 </v>
    <v>       0.90520576       0.66683484       0.50674854 </v>
    <v>       0.90537068       0.80976676       0.51001745 </v>
    <v>       0.90321827       0.95089179       0.51060706 </v>
    <v>       0.45914636       0.35715140       0.56258150 </v>
    <v>       0.40985565       0.41635294       0.43940857 </v>
    <v>       0.40972888       0.56280210       0.43447863 </v>
    <v>       0.64379450       0.53503571       0.59008973 </v>
    <v>       0.58332978       0.42319371       0.46334028 </v>
    <v>       0.57235178       0.72539441       0.55856479 </v>
    <v>       0.42456561       0.71455830       0.49748224 </v>
    <v>       0.72065673       0.71616472       0.54610534 </v>
    <v>       0.60559501       0.63072187       0.50781616 </v>
    <v>       0.52811078       0.53269010       0.50105408 </v>
    <v>       0.56744679       0.58411918       0.46511209 </v>
   </varray>
  </structure>
  <varray name="forces" >
   <v>      -0.00064888      -0.00017284       0.00576902 </v>
   <v>      -0.00071944      -0.00108676      -0.00126451 </v>
   <v>      -0.00114878       0.00042771      -0.00400293 </v>
   <v>      -0.00431874      -0.00123729      -0.00042019 </v>
   <v>      -0.00079841       0.00003840       0.00430344 </v>
   <v>      -0.00069964      -0.00010662       0.00606399 </v>
   <v>      -0.00087950       0.00013852       0.00662628 </v>
   <v>      -0.00113696      -0.00067168      -0.00074637 </v>
   <v>      -0.00088855      -0.00113113      -0.00252813 </v>
   <v>      -0.00053944      -0.00086045      -0.00446874 </v>
   <v>      -0.00006254      -0.00004309      -0.00454044 </v>
   <v>       0.00012987       0.00049366      -0.00310497 </v>
   <v>      -0.00091432      -0.00070060       0.00005178 </v>
   <v>      -0.00069898      -0.00027163       0.00034433 </v>
   <v>      -0.00059083      -0.00051335      -0.00226681 </v>
   <v>      -0.00103595      -0.00103532      -0.00330727 </v>
   <v>      -0.00059859      -0.00066914      -0.00197943 </v>
   <v>      -0.00116599      -0.00144039      -0.00206303 </v>
   <v>       0.00065494      -0.00089730      -0.00091608 </v>
   <v>      -0.00031780      -0.00115817      -0.00067681 </v>
   <v>      -0.00092662      -0.00038025      -0.00022227 </v>
   <v>      -0.00069698       0.00004086       0.00071785 </v>
   <v>       0.00034457       0.00042665       0.00237760 </v>
   <v>      -0.00179489      -0.00188481       0.00474702 </v>
   <v>      -0.00049020      -0.00087312       0.00352166 </v>
   <v>      -0.00041145      -0.00121794       0.00720670 </v>
   <v>      -0.00097682      -0.00064494       0.00687501 </v>
   <v>      -0.00119551      -0.00050676       0.01155836 </v>
   <v>      -0.00082638      -0.00121691       0.00822954 </v>
   <v>      -0.00220559      -0.00097031       0.00788998 </v>
   <v>      -0.00083958      -0.00035820       0.00526617 </v>
   <v>      -0.00113350      -0.00091289       0.00977774 </v>
   <v>      -0.00272222      -0.00107781       0.01678230 </v>
   <v>      -0.00557782       0.00065384       0.01539275 </v>
   <v>      -0.00031581       0.00031824       0.01005200 </v>
   <v>      -0.00077658      -0.00080486       0.00822171 </v>
   <v>       0.00050058      -0.00052357       0.00110407 </v>
   <v>      -0.00071715      -0.00024231       0.00267288 </v>
   <v>       0.00049910       0.00022136       0.00738540 </v>
   <v>      -0.00202535       0.00019815       0.01177574 </v>
   <v>      -0.00111479      -0.00008247       0.01499579 </v>
   <v>      -0.00015819      -0.00078596       0.01176887 </v>
   <v>       0.00236897      -0.00162275       0.00234443 </v>
   <v>      -0.00200233      -0.00091529      -0.00362210 </v>
   <v>      -0.00120105      -0.00081090      -0.00474286 </v>
   <v>      -0.00135128       0.00036513      -0.00048820 </v>
   <v>      -0.00132457       0.00030376       0.00345161 </v>
   <v>      -0.00139701      -0.00028714       0.00365466 </v>
   <v>      -0.00126741      -0.00015150       0.00394864 </v>
   <v>      -0.00169993      -0.00063372      -0.00294151 </v>
   <v>      -0.00146490      -0.00086908      -0.00371004 </v>
   <v>      -0.00030738      -0.00044750      -0.00522118 </v>
   <v>      -0.00116694      -0.00070014      -0.00392040 </v>
   <v>      -0.00059827      -0.00039993      -0.00096894 </v>
   <v>      -0.00096159       0.00028525       0.00010537 </v>
   <v>      -0.00109947      -0.00082033      -0.00139171 </v>
   <v>      -0.00143001      -0.00044472      -0.00094080 </v>
   <v>      -0.00150573      -0.00151065      -0.00072484 </v>
   <v>       0.00027540      -0.00315957       0.00277238 </v>
   <v>       0.00311137       0.00072297       0.00198954 </v>
   <v>      -0.00043588       0.00180626       0.00247046 </v>
   <v>      -0.00147810       0.00057150       0.00195575 </v>
   <v>      -0.00049971      -0.00125170      -0.00072405 </v>
   <v>      -0.00031096      -0.00141363       0.00324110 </v>
   <v>      -0.00137287      -0.00135655       0.00714730 </v>
   <v>      -0.00066931      -0.00149471       0.00593079 </v>
   <v>      -0.00017103      -0.00106656       0.00366175 </v>
   <v>      -0.00091966      -0.00094443       0.00659970 </v>
   <v>      -0.00025482      -0.00102062       0.01013054 </v>
   <v>      -0.00256814      -0.00316548       0.01398374 </v>
   <v>      -0.00015715      -0.00289127       0.00779244 </v>
   <v>      -0.00110095      -0.00112112       0.00931734 </v>
   <v>       0.00072442      -0.00261675       0.00433345 </v>
   <v>      -0.00134421       0.00130882       0.00558719 </v>
   <v>       0.00084376       0.00028716       0.01034988 </v>
   <v>      -0.00194831       0.00090675       0.01723133 </v>
   <v>      -0.00035666      -0.00174490       0.01300442 </v>
   <v>       0.00025681       0.00025661       0.01342885 </v>
   <v>      -0.00112001       0.00084542       0.01028505 </v>
   <v>      -0.00187513       0.00039357       0.00290634 </v>
   <v>      -0.00133264       0.00000617      -0.00075743 </v>
   <v>      -0.00129456       0.00101095       0.00316413 </v>
   <v>      -0.00216036       0.00029404       0.00932909 </v>
   <v>      -0.00139418      -0.00058806       0.01201965 </v>
   <v>      -0.00044728       0.00019372       0.01259927 </v>
   <v>      -0.00069824      -0.00003476       0.01003851 </v>
   <v>      -0.00624520      -0.00280701       0.00591518 </v>
   <v>       0.00172430       0.00265397       0.00766603 </v>
   <v>       0.00560669       0.00202149       0.02072134 </v>
   <v>      -0.00865064       0.00471148       0.01379214 </v>
   <v>      -0.00013716      -0.00140417       0.01332358 </v>
   <v>       0.00304639      -0.00644689      -0.00261247 </v>
   <v>      -0.00140738      -0.00141120       0.00538050 </v>
   <v>       0.00008840       0.00082344       0.01426093 </v>
   <v>       0.01788216       0.01313069      -0.04038073 </v>
   <v>       0.01813932       0.00967267      -0.05476141 </v>
   <v>       0.04500013       0.02450269      -0.32689574 </v>
  </varray>
  <varray name="stress" >
   <v>       1.85498633       0.89517346      -0.01649174 </v>
   <v>       0.89517360      -4.24311288      -0.02042718 </v>
   <v>      -0.01649283      -0.02042804      -0.23598507 </v>
  </varray>
  <energy>
   <i name="e_fr_energy">   -849.25835443 </i>
   <i name="e_wo_entrp">   -849.25835443 </i>
   <i name="e_0_energy">   -849.25835443 </i>
  </energy>
  <time name="totalsc">  498.15  501.42</time>
 </calculation>
 <calculation>
  <scstep>
   <time name="dav">   76.19   76.69</time>
   <time name="total">   89.50   90.06</time>
   <energy>
    <i name="alphaZ">    207.25300192 </i>
    <i name="ewald">  41319.04663659 </i>
    <i name="hartreedc"> -56501.15653364 </i>
    <i name="XCdc">   1483.44213587 </i>
    <i name="pawpsdc">  40889.53109551 </i>
    <i name="pawaedc"> -40984.32063017 </i>
    <i name="eentropy">     -0.00000000 </i>
    <i name="bandstr">  -4854.11610408 </i>
    <i name="atom">  17598.89992239 </i>
    <i name="e_fr_energy">   -841.42047562 </i>
    <i name="e_wo_entrp">   -841.42047562 </i>
    <i name="e_0_energy">   -841.42047562 </i>
   </energy>
  </scstep>
  <scstep>
   <time name="dav">   75.89   76.36</time>
   <time name="total">   89.51   90.13</time>
   <energy>
    <i name="e_fr_energy">   -841.42049105 </i>
    <i name="e_wo_entrp">   -841.42049105 </i>
    <i name="e_0_energy">   -841.42049105 </i>
   </energy>
  </scstep>
  <scstep>
   <time name="dav">   78.25   78.74</time>
   <time name="total">   85.26   85.78</time>
   <energy>
    <i name="alphaZ">    207.25300192 </i>
    <i name="ewald">  41319.04663659 </i>
    <i name="hartreedc"> -56501.13874607 </i>
[...]
       <r>   -17.7997     5.8951    36.4374 </r>
       <r>   -17.6756     7.5863    37.3788 </r>
       <r>   -17.5515    15.1565    39.2595 </r>
       <r>   -17.4274    10.3004    40.5377 </r>
       <r>   -17.3033     9.5644    41.7245 </r>
       <r>   -17.1792     4.3935    42.2697 </r>
       <r>   -17.0551     6.5393    43.0812 </r>
       <r>   -16.9310     8.6868    44.1591 </r>
       <r>   -16.8069     5.8173    44.8810 </r>
       <r>   -16.6829     5.4033    45.5514 </r>
       <r>   -16.5588    13.0994    47.1769 </r>
       <r>   -16.4347    12.2408    48.6959 </r>
       <r>   -16.3106     6.3426    49.4829 </r>
       <r>   -16.1865     0.1691    49.5039 </r>
       <r>   -16.0624     3.1357    49.8930 </r>
       <r>   -15.9383     1.6051    50.0922 </r>
       <r>   -15.8142     2.7896    50.4383 </r>
       <r>   -15.6901     6.3583    51.2273 </r>
       <r>   -15.5661     5.2725    51.8816 </r>
       <r>   -15.4420     7.8289    52.8531 </r>
       <r>   -15.3179     6.8797    53.7068 </r>
       <r>   -15.1938    12.3289    55.2366 </r>
       <r>   -15.0697     8.3052    56.2672 </r>
       <r>   -14.9456     7.7692    57.2313 </r>
       <r>   -14.8215     6.6782    58.0600 </r>
       <r>   -14.6974     9.1175    59.1914 </r>
       <r>   -14.5733    10.0259    60.4355 </r>
       <r>   -14.4493    14.5094    62.2359 </r>
       <r>   -14.3252     9.3889    63.4010 </r>
       <r>   -14.2011     4.7399    63.9891 </r>
       <r>   -14.0770     5.3265    64.6501 </r>
       <r>   -13.9529     4.4449    65.2016 </r>
       <r>   -13.8288     5.4109    65.8731 </r>
       <r>   -13.7047    12.5229    67.4270 </r>
       <r>   -13.5806     9.9536    68.6622 </r>
       <r>   -13.4566     8.1011    69.6674 </r>
       <r>   -13.3325     5.5477    70.3558 </r>
       <r>   -13.2084     2.3222    70.6440 </r>
       <r>   -13.0843     5.8540    71.3704 </r>
       <r>   -12.9602     6.8019    72.2144 </r>
       <r>   -12.8361     7.9667    73.2030 </r>
       <r>   -12.7120    21.3707    75.8549 </r>
       <r>   -12.5879     6.8746    76.7079 </r>
       <r>   -12.4638     7.8972    77.6879 </r>
       <r>   -12.3398    12.0821    79.1871 </r>
       <r>   -12.2157     6.8958    80.0428 </r>
       <r>   -12.0916     6.0649    80.7954 </r>
       <r>   -11.9675     8.0031    81.7885 </r>
       <r>   -11.8434    13.0187    83.4040 </r>
       <r>   -11.7193    11.3311    84.8100 </r>
       <r>   -11.5952    14.1195    86.5621 </r>
       <r>   -11.4711    11.3821    87.9745 </r>
       <r>   -11.3470    10.5237    89.2804 </r>
       <r>   -11.2230    14.3337    91.0590 </r>
       <r>   -11.0989    10.0555    92.3068 </r>
       <r>   -10.9748     9.0500    93.4298 </r>
       <r>   -10.8507     8.2628    94.4551 </r>
       <r>   -10.7266    10.5316    95.7620 </r>
       <r>   -10.6025     8.0740    96.7639 </r>
       <r>   -10.4784    12.8452    98.3578 </r>
       <r>   -10.3543    16.6355   100.4221 </r>
       <r>   -10.2302    16.9919   102.5306 </r>
       <r>   -10.1062    17.7012   104.7271 </r>
       <r>    -9.9821    20.8244   107.3112 </r>
       <r>    -9.8580    21.2390   109.9467 </r>
       <r>    -9.7339    16.2840   111.9674 </r>
       <r>    -9.6098    22.7650   114.7922 </r>
       <r>    -9.4857    20.6499   117.3547 </r>
       <r>    -9.3616    27.7356   120.7963 </r>
       <r>    -9.2375    22.5740   123.5975 </r>
       <r>    -9.1134    17.5725   125.7781 </r>
       <r>    -8.9894    22.0330   128.5121 </r>
       <r>    -8.8653    27.2304   131.8911 </r>
       <r>    -8.7412    23.0424   134.7504 </r>
       <r>    -8.6171    16.8395   136.8400 </r>
       <r>    -8.4930    11.4574   138.2617 </r>
       <r>    -8.3689    18.4933   140.5565 </r>
       <r>    -8.2448    19.0611   142.9218 </r>
       <r>    -8.1207    19.1521   145.2984 </r>
       <r>    -7.9966    21.2046   147.9296 </r>
       <r>    -7.8726    16.6174   149.9917 </r>
       <r>    -7.7485    11.0020   151.3569 </r>
       <r>    -7.6244    13.6836   153.0549 </r>
       <r>    -7.5003    13.8845   154.7778 </r>
       <r>    -7.3762    21.0317   157.3876 </r>
       <r>    -7.2521    17.7378   159.5886 </r>
       <r>    -7.1280    20.8503   162.1759 </r>
       <r>    -7.0039    20.8350   164.7613 </r>
       <r>    -6.8798    10.7371   166.0937 </r>
       <r>    -6.7558    13.4923   167.7679 </r>
       <r>    -6.6317    10.9708   169.1293 </r>
       <r>    -6.5076     8.4817   170.1817 </r>
       <r>    -6.3835     9.4550   171.3550 </r>
       <r>    -6.2594    22.9146   174.1984 </r>
       <r>    -6.1353    19.9911   176.6791 </r>
       <r>    -6.0112     5.1586   177.3192 </r>
       <r>    -5.8871    12.7370   178.8998 </r>
       <r>    -5.7630    14.8831   180.7466 </r>
       <r>    -5.6390    10.9508   182.1055 </r>
       <r>    -5.5149     5.3107   182.7645 </r>
       <r>    -5.3908     6.6628   183.5912 </r>
       <r>    -5.2667     2.9238   183.9540 </r>
       <r>    -5.1426    16.1056   185.9526 </r>
       <r>    -5.0185    16.6108   188.0138 </r>
       <r>    -4.8944    16.1510   190.0179 </r>
       <r>    -4.7703     4.7453   190.6068 </r>
       <r>    -4.6462     6.4957   191.4128 </r>
       <r>    -4.5222     4.9366   192.0254 </r>
       <r>    -4.3981    13.2718   193.6723 </r>
       <r>    -4.2740     8.1692   194.6860 </r>
       <r>    -4.1499     7.0019   195.5549 </r>
       <r>    -4.0258    14.0341   197.2963 </r>
       <r>    -3.9017     6.8163   198.1422 </r>
       <r>    -3.7776     5.5124   198.8262 </r>
       <r>    -3.6535     2.8157   199.1756 </r>
       <r>    -3.5294     7.1560   200.0636 </r>
       <r>    -3.4054     1.9775   200.3089 </r>
       <r>    -3.2813     5.7847   201.0268 </r>
       <r>    -3.1572     1.9475   201.2684 </r>
       <r>    -3.0331     1.8267   201.4951 </r>
       <r>    -2.9090     0.0496   201.5013 </r>
       <r>    -2.7849     1.8863   201.7353 </r>
       <r>    -2.6608     2.1121   201.9974 </r>
       <r>    -2.5367     0.0208   202.0000 </r>
       <r>    -2.4126     0.0237   202.0029 </r>
       <r>    -2.2886     3.1981   202.3998 </r>
       <r>    -2.1645     0.8075   202.5000 </r>
       <r>    -2.0404     0.1524   202.5189 </r>
       <r>    -1.9163     1.9526   202.7612 </r>
       <r>    -1.7922     3.8085   203.2338 </r>
       <r>    -1.6681     4.3767   203.7769 </r>
       <r>    -1.5440     1.7874   203.9987 </r>
       <r>    -1.4199     0.3056   204.0366 </r>
       <r>    -1.2959     5.2386   204.6867 </r>
       <r>    -1.1718     3.8296   205.1619 </r>
       <r>    -1.0477     9.8217   206.3806 </r>
       <r>    -0.9236    17.1774   208.5122 </r>
       <r>    -0.7995     3.3755   208.9310 </r>
       <r>    -0.6754     9.8711   210.1559 </r>
       <r>    -0.5513    11.6996   211.6077 </r>
       <r>    -0.4272     5.4312   212.2817 </r>
       <r>    -0.3031     5.6488   212.9826 </r>
       <r>    -0.1791     5.8870   213.7131 </r>
       <r>    -0.0550     9.3150   214.8690 </r>
       <r>     0.0691    14.1314   216.6226 </r>
       <r>     0.1932    10.6520   217.9444 </r>
       <r>     0.3173     1.1682   218.0893 </r>
       <r>     0.4414     5.5172   218.7739 </r>
       <r>     0.5655     5.1187   219.4091 </r>
       <r>     0.6896     6.5340   220.2199 </r>
       <r>     0.8137     6.4968   221.0261 </r>
       <r>     0.9377     6.0742   221.7798 </r>
       <r>     1.0618    10.7960   223.1195 </r>
       <r>     1.1859     5.9374   223.8563 </r>
       <r>     1.3100     9.5628   225.0429 </r>
       <r>     1.4341    21.4695   227.7070 </r>
       <r>     1.5582    15.8800   229.6776 </r>
       <r>     1.6823     6.5527   230.4907 </r>
       <r>     1.8064     6.7274   231.3255 </r>
       <r>     1.9305    14.0069   233.0636 </r>
       <r>     2.0545    25.1143   236.1800 </r>
       <r>     2.1786    12.6363   237.7480 </r>
       <r>     2.3027    10.6908   239.0746 </r>
       <r>     2.4268    20.6429   241.6362 </r>
       <r>     2.5509    22.3672   244.4117 </r>
       <r>     2.6750    10.6319   245.7310 </r>
       <r>     2.7991    17.9736   247.9613 </r>
       <r>     2.9232    34.6665   252.2630 </r>
       <r>     3.0473    43.5957   257.6728 </r>
       <r>     3.1713    12.5334   259.2280 </r>
       <r>     3.2954    13.5077   260.9042 </r>
       <r>     3.4195    17.0882   263.0246 </r>
       <r>     3.5436    25.4783   266.1862 </r>
       <r>     3.6677    15.2063   268.0731 </r>
       <r>     3.7918    20.8209   270.6568 </r>
       <r>     3.9159    29.5789   274.3272 </r>
       <r>     4.0400    26.7205   277.6429 </r>
       <r>     4.1641    15.4663   279.5621 </r>
       <r>     4.2881     3.5024   279.9967 </r>
       <r>     4.4122     0.0265   280.0000 </r>
       <r>     4.5363     0.0000   280.0000 </r>
       <r>     4.6604     0.0000   280.0000 </r>
       <r>     4.7845     0.0000   280.0000 </r>
       <r>     4.9086     0.0000   280.0000 </r>
       <r>     5.0327     0.0000   280.0000 </r>
       <r>     5.1568     0.0000   280.0000 </r>
       <r>     5.2809     0.0000   280.0000 </r>
       <r>     5.4049     0.0000   280.0000 </r>
       <r>     5.5290     0.0000   280.0000 </r>
       <r>     5.6531     0.0000   280.0000 </r>
       <r>     5.7772     0.0000   280.0000 </r>
       <r>     5.9013     0.0000   280.0000 </r>
      </set>
     </set>
    </array>
   </total>
  </dos>
 </calculation>
 <structure name="finalpos" >
  <crystal>
   <varray name="basis" >
    <v>      17.27103806       0.00000000       0.00000000 </v>
    <v>      -8.63551903      14.95715771       0.00000000 </v>
    <v>       0.00000000       0.00000000      15.00000000 </v>
   </varray>
   <i name="volume">   3874.88459904 </i>
   <varray name="rec_basis" >
    <v>       0.05790040       0.03342881      -0.00000000 </v>
    <v>       0.00000000       0.06685762       0.00000000 </v>
    <v>       0.00000000      -0.00000000       0.06666667 </v>
   </varray>
  </crystal>
  <varray name="positions" >
   <v>       0.99831992       0.99894757       0.50350396 </v>
   <v>       0.99764030       0.14138338       0.50526843 </v>
   <v>       0.99784487       0.28456325       0.50478016 </v>
   <v>       0.99849342       0.42775373       0.50466375 </v>
   <v>       0.99890212       0.57086279       0.50095288 </v>
   <v>       0.99985731       0.71417084       0.49902348 </v>
   <v>       0.99992615       0.85721656       0.50036531 </v>
   <v>       0.14171081       0.99976696       0.49249607 </v>
   <v>       0.14078571       0.14203099       0.49741911 </v>
   <v>       0.14006870       0.28456196       0.49619158 </v>
   <v>       0.14095923       0.42811596       0.49492739 </v>
   <v>       0.14161499       0.57082730       0.49624811 </v>
   <v>       0.14182857       0.71376416       0.49301927 </v>
   <v>       0.14200603       0.85687755       0.49156444 </v>
   <v>       0.28451830       0.99948734       0.49061464 </v>
   <v>       0.28409654       0.14188802       0.49088865 </v>
   <v>       0.28309908       0.28522017       0.48931701 </v>
   <v>       0.28089289       0.42656673       0.47087590 </v>
   <v>       0.28505859       0.57195706       0.48126655 </v>
   <v>       0.28432024       0.71442898       0.49149613 </v>
   <v>       0.28430291       0.85704277       0.49121722 </v>
   <v>       0.42748779       0.99938525       0.49460803 </v>
   <v>       0.42720235       0.14220215       0.49573776 </v>
   <v>       0.42193994       0.27761469       0.51920268 </v>
   <v>       0.42640356       0.85597636       0.49790888 </v>
   <v>       0.56956281       0.99807906       0.50373045 </v>
   <v>       0.57001728       0.14159598       0.50487212 </v>
   <v>       0.57069224       0.28527681       0.50654298 </v>
   <v>       0.56754684       0.85335005       0.51554993 </v>
   <v>       0.71162125       0.99666450       0.51288298 </v>
   <v>       0.71257962       0.14100931       0.50897304 </v>
   <v>       0.71306311       0.28475557       0.51191931 </v>
   <v>       0.71408981       0.42873124       0.51556554 </v>
   <v>       0.72368447       0.57692189       0.54907022 </v>
   <v>       0.71196892       0.85330529       0.52925106 </v>
   <v>       0.85484803       0.99784959       0.51298777 </v>
   <v>       0.85477052       0.14091736       0.50965093 </v>
   <v>       0.85539382       0.28439012       0.51001852 </v>
   <v>       0.85628347       0.42793240       0.51224209 </v>
   <v>       0.85723586       0.57202909       0.51018457 </v>
   <v>       0.85920874       0.71536788       0.51646916 </v>
   <v>       0.85695790       0.85609178       0.51779707 </v>
   <v>       0.04569279       0.09421452       0.50216385 </v>
   <v>       0.04491923       0.23660546       0.50257456 </v>
   <v>       0.04570052       0.38005097       0.50217816 </v>
   <v>       0.04643718       0.52308153       0.50097717 </v>
   <v>       0.04674093       0.66615640       0.49673711 </v>
   <v>       0.04705252       0.80926461       0.49602625 </v>
   <v>       0.04658493       0.95204394       0.49823928 </v>
   <v>       0.18876361       0.09458865       0.49186653 </v>
   <v>       0.18764045       0.23715947       0.49553936 </v>
   <v>       0.18709244       0.37957769       0.48946296 </v>
   <v>       0.18942409       0.52361213       0.49217849 </v>
   <v>       0.18911196       0.66618975       0.49288151 </v>
   <v>       0.18937192       0.80917161       0.49103627 </v>
   <v>       0.18943650       0.95202730       0.49057025 </v>
   <v>       0.33205000       0.09468356       0.49215857 </v>
   <v>       0.33119625       0.23685020       0.49781114 </v>
   <v>       0.32431561       0.37563725       0.46690493 </v>
   <v>       0.32520766       0.52109948       0.46148237 </v>
   <v>       0.33513882       0.66994651       0.48899957 </v>
   <v>       0.33166804       0.80926160       0.49303811 </v>
   <v>       0.33212154       0.95200566       0.49147012 </v>
   <v>       0.47513682       0.09456286       0.49711260 </v>
   <v>       0.47434643       0.23713426       0.50556903 </v>
   <v>       0.47026891       0.80454721       0.50427468 </v>
   <v>       0.47467153       0.95133182       0.49867764 </v>
   <v>       0.61728921       0.09347664       0.50588830 </v>
   <v>       0.61792866       0.23712469       0.50976911 </v>
   <v>       0.62240224       0.37897727       0.49821407 </v>
   <v>       0.61797557       0.81116784       0.53389233 </v>
   <v>       0.61617171       0.94908631       0.50978532 </v>
   <v>       0.75955152       0.09267769       0.51030495 </v>
   <v>       0.76029584       0.23650924       0.51028474 </v>
   <v>       0.76105322       0.38018530       0.51579271 </v>
   <v>       0.76238071       0.52576821       0.52329088 </v>
   <v>       0.76658377       0.67161679       0.53811768 </v>
   <v>       0.76200227       0.80487778       0.53283885 </v>
   <v>       0.75935860       0.94887434       0.51757060 </v>
   <v>       0.90222204       0.09307171       0.50920792 </v>
   <v>       0.90255781       0.23646640       0.50839414 </v>
   <v>       0.90325800       0.38001024       0.50947789 </v>
   <v>       0.90380124       0.52340782       0.50657672 </v>
   <v>       0.90520198       0.66687526       0.50765348 </v>
   <v>       0.90541971       0.80982613       0.51091198 </v>
   <v>       0.90323914       0.95093132       0.51124966 </v>
   <v>       0.45877456       0.35714046       0.56233100 </v>
   <v>       0.40985055       0.41630258       0.43873531 </v>
   <v>       0.40949324       0.56286490       0.43264159 </v>
   <v>       0.64362720       0.53528320       0.59073733 </v>
   <v>       0.58348502       0.42333510       0.46405808 </v>
   <v>       0.57238634       0.72537244       0.55917449 </v>
   <v>       0.42458485       0.71451950       0.49714465 </v>
   <v>       0.72068775       0.71624880       0.54710377 </v>
   <v>       0.60528987       0.63048189       0.50816482 </v>
   <v>       0.52994244       0.53155044       0.50037119 </v>
   <v>       0.56717579       0.58431314       0.46511209 </v>
  </varray>
  <varray name="selective"  type="logical" >
   <v type="logical" >  T  T  T </v>
   <v type="logical" >  T  T  T </v>
   <v type="logical" >  T  T  T </v>
   <v type="logical" >  T  T  T </v>
   <v type="logical" >  T  T  T </v>
   <v type="logical" >  T  T  T </v>
   <v type="logical" >  T  T  T </v>
   <v type="logical" >  T  T  T </v>
   <v type="logical" >  T  T  T </v>
   <v type="logical" >  T  T  T </v>
   <v type="logical" >  T  T  T </v>
   <v type="logical" >  T  T  T </v>
   <v type="logical" >  T  T  T </v>
   <v type="logical" >  T  T  T </v>
   <v type="logical" >  T  T  T </v>
   <v type="logical" >  T  T  T </v>
   <v type="logical" >  T  T  T </v>
   <v type="logical" >  T  T  T </v>
   <v type="logical" >  T  T  T </v>
   <v type="logical" >  T  T  T </v>
   <v type="logical" >  T  T  T </v>
   <v type="logical" >  T  T  T </v>
   <v type="logical" >  T  T  T </v>
   <v type="logical" >  T  T  T </v>
   <v type="logical" >  T  T  T </v>
   <v type="logical" >  T  T  T </v>
   <v type="logical" >  T  T  T </v>
   <v type="logical" >  T  T  T </v>
   <v type="logical" >  T  T  T </v>
   <v type="logical" >  T  T  T </v>
   <v type="logical" >  T  T  T </v>
   <v type="logical" >  T  T  T </v>
   <v type="logical" >  T  T  T </v>
   <v type="logical" >  T  T  T </v>
   <v type="logical" >  T  T  T </v>
   <v type="logical" >  T  T  T </v>
   <v type="logical" >  T  T  T </v>
   <v type="logical" >  T  T  T </v>
   <v type="logical" >  T  T  T </v>
   <v type="logical" >  T  T  T </v>
   <v type="logical" >  T  T  T </v>
   <v type="logical" >  T  T  T </v>
   <v type="logical" >  T  T  T </v>
   <v type="logical" >  T  T  T </v>
   <v type="logical" >  T  T  T </v>
   <v type="logical" >  T  T  T </v>
   <v type="logical" >  T  T  T </v>
   <v type="logical" >  T  T  T </v>
   <v type="logical" >  T  T  T </v>
   <v type="logical" >  T  T  T </v>
   <v type="logical" >  T  T  T </v>
   <v type="logical" >  T  T  T </v>
   <v type="logical" >  T  T  T </v>
   <v type="logical" >  T  T  T </v>
   <v type="logical" >  T  T  T </v>
   <v type="logical" >  T  T  T </v>
   <v type="logical" >  T  T  T </v>
   <v type="logical" >  T  T  T </v>
   <v type="logical" >  T  T  T </v>
   <v type="logical" >  T  T  T </v>
   <v type="logical" >  T  T  T </v>
   <v type="logical" >  T  T  T </v>
   <v type="logical" >  T  T  T </v>
   <v type="logical" >  T  T  T </v>
   <v type="logical" >  T  T  T </v>
   <v type="logical" >  T  T  T </v>
   <v type="logical" >  T  T  T </v>
   <v type="logical" >  T  T  T </v>
   <v type="logical" >  T  T  T </v>
   <v type="logical" >  T  T  T </v>
   <v type="logical" >  T  T  T </v>
   <v type="logical" >  T  T  T </v>
   <v type="logical" >  T  T  T </v>
   <v type="logical" >  T  T  T </v>
   <v type="logical" >  T  T  T </v>
   <v type="logical" >  T  T  T </v>
   <v type="logical" >  T  T  T </v>
   <v type="logical" >  T  T  T </v>
   <v type="logical" >  T  T  T </v>
   <v type="logical" >  T  T  T </v>
   <v type="logical" >  T  T  T </v>
   <v type="logical" >  T  T  T </v>
   <v type="logical" >  T  T  T </v>
   <v type="logical" >  T  T  T </v>
   <v type="logical" >  T  T  T </v>
   <v type="logical" >  T  T  T </v>
   <v type="logical" >  T  T  T </v>
   <v type="logical" >  T  T  T </v>
   <v type="logical" >  T  T  T </v>
   <v type="logical" >  T  T  T </v>
   <v type="logical" >  T  T  T </v>
   <v type="logical" >  T  T  T </v>
   <v type="logical" >  T  T  T </v>
   <v type="logical" >  T  T  T </v>
   <v type="logical" >  T  T  T </v>
   <v type="logical" >  T  T  T </v>
   <v type="logical" >  T  T  F </v>
  </varray>
  <nose>
   <v>      -3.00000000       0.00000000       0.00010000       0.00010000 </v>
  </nose>
 </structure>
</modeling>
