unknown system                          
            1
    17.271038    0.000000    0.000000
    -8.635519   14.957158    0.000000
     0.000000    0.000000   15.000000
   C    F    N    H    O 
    86     6     2     2     1
Direct configuration=     1
   0.99831278  0.99892209  0.50315350
   0.99763356  0.14136414  0.50523628
   0.99785081  0.28454811  0.50494679
   0.99850087  0.42774736  0.50462351
   0.99890486  0.57084267  0.50052734
   0.99986522  0.71415489  0.49846841
   0.99991462  0.85719051  0.49984997
   0.14172841  0.99977005  0.49259647
   0.14081270  0.14203363  0.49778502
   0.14010742  0.28456636  0.49682075
   0.14098084  0.42812530  0.49563940
   0.14160340  0.57082490  0.49651149
   0.14183821  0.71376499  0.49297574
   0.14201026  0.85688064  0.49146507
   0.28451456  0.99948351  0.49074600
   0.28413526  0.14189537  0.49135301
   0.28318860  0.28523398  0.49017199
   0.28097533  0.42658404  0.47220430
   0.28507513  0.57195999  0.48229502
   0.28430549  0.71444882  0.49182579
   0.28428693  0.85705094  0.49124246
   0.42747850  0.99939515  0.49448487
   0.42721840  0.14219203  0.49567410
   0.42210122  0.27762276  0.51945645
   0.42639672  0.85601075  0.49780213
   0.56956860  0.99811590  0.50334922
   0.57003658  0.14160276  0.50446609
   0.57073444  0.28526975  0.50589309
   0.56756664  0.85339909  0.51510210
   0.71163419  0.99666605  0.51225270
   0.71259478  0.14101435  0.50858635
   0.71309254  0.28475586  0.51125768
   0.71408783  0.42870173  0.51454344
   0.72362525  0.57677224  0.54804631
   0.71194129  0.85323920  0.52835943
   0.85482090  0.99781088  0.51238171
   0.85476800  0.14090056  0.50935543
   0.85540557  0.28438011  0.50973418
   0.85627895  0.42792281  0.51150770
   0.85722825  0.57199867  0.50912189
   0.85916759  0.71529420  0.51546313
   0.85691171  0.85603284  0.51688437
   0.04570021  0.09421575  0.50214964
   0.04494012  0.23659731  0.50282545
   0.04569676  0.38003906  0.50248295
   0.04642349  0.52306204  0.50091367
   0.04675066  0.66613680  0.49642413
   0.04705633  0.80926037  0.49565274
   0.04659260  0.95204217  0.49796281
   0.18880570  0.09461121  0.49225166
   0.18770157  0.23716935  0.49621271
   0.18711404  0.37957287  0.49041576
   0.18942229  0.52361385  0.49289288
   0.18910907  0.66619530  0.49308392
   0.18937471  0.80917246  0.49101410
   0.18945044  0.95203975  0.49065394
   0.33206755  0.09467727  0.49235185
   0.33126692  0.23684528  0.49842132
   0.32440803  0.37568383  0.46797617
   0.32528695  0.52108640  0.46298355
   0.33511697  0.66996320  0.48959114
   0.33166820  0.80928002  0.49311504
   0.33211851  0.95201108  0.49148302
   0.47514445  0.09455811  0.49688655
   0.47440518  0.23712276  0.50539265
   0.47027121  0.80460772  0.50419732
   0.47466986  0.95135453  0.49843217
   0.61730177  0.09348550  0.50550356
   0.61796746  0.23713570  0.50914399
   0.62239540  0.37895402  0.49734105
   0.61797004  0.81117891  0.53319703
   0.61616901  0.94911358  0.50925945
   0.75955995  0.09268378  0.50985851
   0.76031532  0.23650343  0.50985942
   0.76106226  0.38018029  0.51494020
   0.76237509  0.52572106  0.52214355
   0.76651249  0.67149112  0.53707364
   0.76194251  0.80478105  0.53184495
   0.75932979  0.94882516  0.51684116
   0.90221983  0.09305034  0.50888645
   0.90256840  0.23645863  0.50828719
   0.90325155  0.37999399  0.50912058
   0.90379806  0.52337791  0.50575154
   0.90520563  0.66683405  0.50674185
   0.90536976  0.80976583  0.51001044
   0.90321990  0.95089370  0.51060093
   0.45915044  0.35715176  0.56258490
   0.40985737  0.41635412  0.43941418
   0.40973909  0.56280468  0.43449709
   0.64379497  0.53503342  0.59008141
   0.58332647  0.42319302  0.46333498
   0.57235115  0.72539074  0.55855836
   0.42456493  0.71455780  0.49748431
   0.72065771  0.71616671  0.54609731
   0.60559927  0.63072481  0.50781417
   0.52809741  0.53270210  0.50105755
   0.56744854  0.58411265  0.46511209
Direct configuration=     2
   0.99831251  0.99892604  0.50315706
   0.99763321  0.14136510  0.50523532
   0.99784939  0.28454732  0.50494461
   0.99848958  0.42774237  0.50462433
   0.99890249  0.57084105  0.50053040
   0.99986556  0.71415278  0.49847195
   0.99991426  0.85719121  0.49985385
   0.14172792  0.99977151  0.49259602
   0.14080862  0.14203336  0.49778274
   0.14010426  0.28456308  0.49681700
   0.14097909  0.42812364  0.49563553
   0.14160522  0.57082870  0.49650949
   0.14183314  0.71376436  0.49297715
   0.14201123  0.85687951  0.49146547
   0.28451727  0.99948460  0.49074463
   0.28413425  0.14189484  0.49134941
   0.28318545  0.28523070  0.49016684
   0.28096713  0.42657897  0.47219540
   0.28507359  0.57196207  0.48228841
   0.28430801  0.71444873  0.49182336
   0.28429222  0.85704980  0.49124315
   0.42747939  0.99939337  0.49448497
   0.42721517  0.14218992  0.49567531
   0.42209962  0.27762396  0.51945567
   0.42639811  0.85600862  0.49780274
   0.56956579  0.99811102  0.50335224
   0.57003804  0.14160219  0.50446949
   0.57073995  0.28527582  0.50589795
   0.56756148  0.85339685  0.51510556
   0.71162793  0.99666361  0.51225638
   0.71259557  0.14101694  0.50858878
   0.71309919  0.28475922  0.51126306
   0.71409665  0.42870825  0.51455343
   0.72362376  0.57677489  0.54805758
   0.71193894  0.85323874  0.52836686
   0.85482293  0.99781108  0.51238608
   0.85477279  0.14090314  0.50935567
   0.85540606  0.28438107  0.50973589
   0.85627873  0.42792017  0.51151288
   0.85722853  0.57199741  0.50912754
   0.85916583  0.71529363  0.51547155
   0.85691361  0.85603439  0.51689155
   0.04570527  0.09421224  0.50215094
   0.04494063  0.23659882  0.50282323
   0.04570162  0.38004072  0.50247977
   0.04642831  0.52306527  0.50091367
   0.04675349  0.66613999  0.49642622
   0.04705698  0.80926269  0.49565487
   0.04659390  0.95204072  0.49796509
   0.18880578  0.09460975  0.49224904
   0.18770391  0.23717058  0.49620811
   0.18711961  0.37957717  0.49040852
   0.18942230  0.52361362  0.49288880
   0.18910740  0.66618869  0.49308193
   0.18937358  0.80917516  0.49101410
   0.18944853  0.95203833  0.49065321
   0.33206816  0.09467811  0.49235073
   0.33126704  0.23684600  0.49841738
   0.32441196  0.37568695  0.46796638
   0.32529518  0.52108856  0.46296605
   0.33511657  0.66996130  0.48958606
   0.33166504  0.80928300  0.49311498
   0.33211621  0.95201101  0.49148250
   0.47514565  0.09455961  0.49688795
   0.47440562  0.23712245  0.50539474
   0.47027147  0.80460667  0.50419848
   0.47467084  0.95135816  0.49843337
   0.61730129  0.09348731  0.50550661
   0.61796184  0.23713271  0.50914868
   0.62238329  0.37894424  0.49734601
   0.61797224  0.81117567  0.53320502
   0.61617778  0.94912200  0.50926410
   0.75955953  0.09267893  0.50986047
   0.76031217  0.23650324  0.50986229
   0.76105948  0.38017717  0.51494657
   0.76237548  0.52572066  0.52215213
   0.76651295  0.67149002  0.53708068
   0.76194395  0.80478296  0.53185248
   0.75933142  0.94882745  0.51684662
   0.90221576  0.09305024  0.50888817
   0.90256840  0.23645719  0.50828681
   0.90325718  0.37999867  0.50912251
   0.90379968  0.52338242  0.50575679
   0.90520576  0.66683484  0.50674854
   0.90537068  0.80976676  0.51001745
   0.90321827  0.95089179  0.51060706
   0.45914636  0.35715140  0.56258150
   0.40985565  0.41635294  0.43940857
   0.40972888  0.56280210  0.43447863
   0.64379450  0.53503571  0.59008973
   0.58332978  0.42319371  0.46334028
   0.57235178  0.72539441  0.55856479
   0.42456561  0.71455830  0.49748224
   0.72065673  0.71616472  0.54610534
   0.60559501  0.63072187  0.50781616
   0.52811078  0.53269010  0.50105408
   0.56744679  0.58411918  0.46511209
Direct configuration=     3
   0.99831277  0.99892639  0.50316442
   0.99763304  0.14136447  0.50523379
   0.99784990  0.28454869  0.50494004
   0.99848572  0.42774162  0.50462500
   0.99890376  0.57084204  0.50053640
   0.99986645  0.71415362  0.49847942
   0.99991454  0.85719206  0.49986194
   0.14172747  0.99977144  0.49259503
   0.14080811  0.14203274  0.49777782
   0.14010439  0.28456292  0.49680859
   0.14098034  0.42812434  0.49562691
   0.14160754  0.57083027  0.49650555
   0.14183345  0.71376441  0.49297744
   0.14201182  0.85688014  0.49146631
   0.28451775  0.99948500  0.49074188
   0.28413360  0.14189457  0.49134230
   0.28318498  0.28523088  0.49015472
   0.28096369  0.42657683  0.47217409
   0.28507402  0.57196126  0.48227295
   0.28430868  0.71444786  0.49181833
   0.28429250  0.85705016  0.49124260
   0.42748003  0.99939441  0.49448525
   0.42721733  0.14219189  0.49567633
   0.42209772  0.27762389  0.51945314
   0.42639852  0.85600808  0.49780395
   0.56956591  0.99811056  0.50335871
   0.57003795  0.14160257  0.50447642
   0.57073999  0.28527687  0.50590843
   0.56756101  0.85339653  0.51511392
   0.71162614  0.99666323  0.51226443
   0.71259579  0.14101736  0.50859391
   0.71309887  0.28475889  0.51127393
   0.71409530  0.42870776  0.51457194
   0.72362100  0.57677614  0.54807516
   0.71193985  0.85324003  0.52838002
   0.85482272  0.99781068  0.51239544
   0.85477440  0.14090323  0.50935652
   0.85540665  0.28438152  0.50973941
   0.85628143  0.42792129  0.51152188
   0.85722886  0.57199858  0.50914027
   0.85916557  0.71529399  0.51548826
   0.85691349  0.85603354  0.51690554
   0.04570812  0.09421082  0.50215376
   0.04493926  0.23659852  0.50281870
   0.04570144  0.38004050  0.50247403
   0.04642899  0.52306662  0.50091430
   0.04675402  0.66614135  0.49643098
   0.04705674  0.80926324  0.49565953
   0.04659360  0.95204123  0.49797017
   0.18880464  0.09460977  0.49224383
   0.18770284  0.23717040  0.49619888
   0.18712010  0.37957740  0.49039538
   0.18942215  0.52361351  0.49288032
   0.18910826  0.66618904  0.49307960
   0.18937429  0.80917649  0.49101443
   0.18944823  0.95203824  0.49065171
   0.33206767  0.09467878  0.49234831
   0.33126540  0.23684548  0.49840924
   0.32440896  0.37568224  0.46795224
   0.32529467  0.52108865  0.46293669
   0.33511897  0.66996414  0.48957822
   0.33166531  0.80928442  0.49311508
   0.33211624  0.95201033  0.49148164
   0.47514575  0.09455894  0.49689090
   0.47440470  0.23712256  0.50539907
   0.47027118  0.80460497  0.50420062
   0.47467133  0.95135759  0.49843608
   0.61730104  0.09348721  0.50551298
   0.61796241  0.23713269  0.50915921
   0.62238119  0.37894169  0.49735942
   0.61797146  0.81117449  0.53321904
   0.61617712  0.94912167  0.50927297
   0.75956003  0.09267638  0.50986453
   0.76031304  0.23650577  0.50986844
   0.76106263  0.38017831  0.51495816
   0.76237675  0.52572260  0.52217111
   0.76651203  0.67148781  0.53709427
   0.76194468  0.80478319  0.53186871
   0.75933191  0.94882930  0.51685811
   0.90221527  0.09305150  0.50889138
   0.90256842  0.23645797  0.50828609
   0.90325824  0.38000076  0.50912718
   0.90379969  0.52338362  0.50576789
   0.90520550  0.66683496  0.50676236
   0.90537130  0.80976752  0.51003216
   0.90321838  0.95089213  0.51061941
   0.45913889  0.35715274  0.56257550
   0.40985556  0.41635296  0.43939581
   0.40971819  0.56280090  0.43443728
   0.64379175  0.53503990  0.59010776
   0.58333372  0.42319521  0.46335029
   0.57235190  0.72539259  0.55857788
   0.42456516  0.71455673  0.49747782
   0.72065703  0.71616507  0.54612099
   0.60558886  0.63071878  0.50782251
   0.52814139  0.53267100  0.50104363
   0.56743712  0.58412483  0.46511209
Direct configuration=     4
   0.99831271  0.99892524  0.50317574
   0.99763394  0.14136353  0.50523211
   0.99784925  0.28454942  0.50493289
   0.99849301  0.42774467  0.50462471
   0.99890433  0.57084407  0.50054540
   0.99986587  0.71415497  0.49849113
   0.99991426  0.85719261  0.49987446
   0.14172661  0.99977166  0.49259330
   0.14080943  0.14203330  0.49777028
   0.14010187  0.28456153  0.49679819
   0.14097932  0.42812426  0.49561306
   0.14160738  0.57083002  0.49649967
   0.14183540  0.71376627  0.49297786
   0.14201133  0.85688079  0.49146739
   0.28451744  0.99948527  0.49073766
   0.28413204  0.14189456  0.49133155
   0.28318585  0.28522741  0.49013913
   0.28096208  0.42657452  0.47214070
   0.28507700  0.57196140  0.48225097
   0.28431028  0.71445086  0.49181116
   0.28429227  0.85705113  0.49124167
   0.42747994  0.99939346  0.49448580
   0.42721692  0.14219219  0.49567781
   0.42209297  0.27762317  0.51944847
   0.42639851  0.85600748  0.49780576
   0.56956554  0.99811042  0.50336816
   0.57003793  0.14160252  0.50448685
   0.57073763  0.28527421  0.50592456
   0.56756020  0.85339455  0.51512715
   0.71163487  0.99666257  0.51227578
   0.71259726  0.14101731  0.50860175
   0.71309938  0.28476051  0.51129012
   0.71409499  0.42870704  0.51459916
   0.72362523  0.57677807  0.54809957
   0.71194012  0.85324123  0.52840097
   0.85482264  0.99781221  0.51240968
   0.85477025  0.14090393  0.50935966
   0.85540719  0.28438355  0.50974448
   0.85628287  0.42792448  0.51153580
   0.85722828  0.57199974  0.50916103
   0.85916567  0.71529270  0.51551001
   0.85691426  0.85603447  0.51692742
   0.04570136  0.09421614  0.50215313
   0.04493903  0.23659801  0.50281101
   0.04570070  0.38004257  0.50246549
   0.04642955  0.52306711  0.50091527
   0.04675487  0.66614223  0.49643803
   0.04705700  0.80926415  0.49566673
   0.04659308  0.95204157  0.49797770
   0.18880396  0.09460938  0.49223548
   0.18770128  0.23717006  0.49618436
   0.18711662  0.37957414  0.49037979
   0.18942448  0.52361418  0.49286662
   0.18910992  0.66619074  0.49307521
   0.18937466  0.80917648  0.49101454
   0.18944875  0.95203930  0.49064915
   0.33206893  0.09467997  0.49234389
   0.33126438  0.23684490  0.49839666
   0.32440687  0.37568170  0.46792824
   0.32528944  0.52108607  0.46289635
   0.33511864  0.66996239  0.48956505
   0.33166582  0.80928321  0.49311434
   0.33211716  0.95201173  0.49147989
   0.47514644  0.09456045  0.49689525
   0.47440482  0.23712388  0.50540535
   0.47027134  0.80460373  0.50420362
   0.47467155  0.95135738  0.49844011
   0.61730159  0.09348740  0.50552271
   0.61796235  0.23713327  0.50917528
   0.62238402  0.37894353  0.49738045
   0.61797099  0.81117451  0.53323886
   0.61617473  0.94911995  0.50928617
   0.75956013  0.09267751  0.50987068
   0.76031193  0.23650079  0.50987506
   0.76106011  0.38017877  0.51497385
   0.76237430  0.52572340  0.52220023
   0.76651057  0.67148877  0.53711638
   0.76194513  0.80478329  0.53189268
   0.75933142  0.94882973  0.51687537
   0.90221700  0.09305091  0.50889581
   0.90256866  0.23645921  0.50828473
   0.90325701  0.37999992  0.50913421
   0.90380137  0.52338496  0.50578413
   0.90520672  0.66683726  0.50678304
   0.90537158  0.80976762  0.51005428
   0.90321834  0.95089205  0.51063766
   0.45913266  0.35715162  0.56256444
   0.40985359  0.41635165  0.43937612
   0.40970755  0.56280027  0.43437769
   0.64378687  0.53504596  0.59013501
   0.58333890  0.42319772  0.46336547
   0.57235187  0.72539092  0.55859769
   0.42456718  0.71455654  0.49747137
   0.72065710  0.71616517  0.54614355
   0.60557967  0.63071396  0.50783115
   0.52818499  0.53264245  0.50102900
   0.56742329  0.58413434  0.46511209
Direct configuration=     5
   0.99831092  0.99893151  0.50318924
   0.99762833  0.14137157  0.50523388
   0.99784981  0.28454930  0.50492419
   0.99848022  0.42774342  0.50462552
   0.99890210  0.57084263  0.50055499
   0.99986779  0.71415330  0.49850242
   0.99991221  0.85719360  0.49988696
   0.14172637  0.99977135  0.49259107
   0.14080282  0.14203863  0.49776403
   0.14010083  0.28456121  0.49678424
   0.14098108  0.42812450  0.49559567
   0.14161215  0.57083297  0.49649217
   0.14183104  0.71376421  0.49297993
   0.14201236  0.85688176  0.49146877
   0.28451980  0.99948826  0.49073267
   0.28413285  0.14189325  0.49131863
   0.28318318  0.28523223  0.49011708
   0.28095380  0.42657055  0.47210141
   0.28507563  0.57196080  0.48222340
   0.28431110  0.71444696  0.49180246
   0.28429439  0.85705162  0.49124068
   0.42748237  0.99939660  0.49448700
   0.42721926  0.14219491  0.49568022
   0.42209151  0.27762091  0.51944048
   0.42640040  0.85600730  0.49780815
   0.56957252  0.99811344  0.50337317
   0.57003949  0.14160347  0.50450000
   0.57074259  0.28527879  0.50594065
   0.56755746  0.85339293  0.51514008
   0.71161420  0.99666243  0.51229143
   0.71259374  0.14101394  0.50861115
   0.71309926  0.28475769  0.51130873
   0.71409677  0.42871249  0.51462743
   0.72361842  0.57678048  0.54813722
   0.71193847  0.85324074  0.52842445
   0.85482762  0.99781100  0.51242367
   0.85478085  0.14090540  0.50936103
   0.85540373  0.28437780  0.50974854
   0.85628173  0.42792270  0.51155313
   0.85722999  0.57200052  0.50918446
   0.85915676  0.71528886  0.51553370
   0.85691291  0.85603101  0.51695256
   0.04571647  0.09420412  0.50215726
   0.04493690  0.23660018  0.50280200
   0.04570492  0.38004262  0.50245514
   0.04643333  0.52307089  0.50091651
   0.04675432  0.66614441  0.49644333
   0.04705694  0.80926600  0.49567621
   0.04659399  0.95204304  0.49798728
   0.18880223  0.09460931  0.49222535
   0.18770429  0.23716874  0.49616682
   0.18711786  0.37957446  0.49036123
   0.18942589  0.52361511  0.49284946
   0.18911078  0.66619200  0.49306955
   0.18937566  0.80917998  0.49101452
   0.18944764  0.95203993  0.49064609
   0.33206499  0.09468100  0.49234086
   0.33126217  0.23684259  0.49838091
   0.32440387  0.37567470  0.46789773
   0.32528763  0.52108435  0.46284277
   0.33512101  0.66996681  0.48955222
   0.33166760  0.80928823  0.49311267
   0.33211678  0.95201156  0.49147768
   0.47514609  0.09455935  0.49690080
   0.47440042  0.23712250  0.50541229
   0.47027116  0.80460223  0.50420723
   0.47467060  0.95135630  0.49844534
   0.61730181  0.09348754  0.50553496
   0.61796231  0.23713310  0.50919159
   0.62238351  0.37894095  0.49740792
   0.61797142  0.81117256  0.53326460
   0.61618363  0.94912145  0.50930267
   0.75956147  0.09267443  0.50987899
   0.76031597  0.23651305  0.50988844
   0.76106062  0.38017561  0.51499353
   0.76237200  0.52571299  0.52223245
   0.76651413  0.67149017  0.53714422
   0.76194604  0.80478574  0.53192247
   0.75933703  0.94882878  0.51689678
   0.90221176  0.09305286  0.50890192
   0.90256821  0.23646072  0.50828353
   0.90326370  0.38000718  0.50914257
   0.90380106  0.52338935  0.50580431
   0.90520608  0.66683569  0.50680818
   0.90537239  0.80976768  0.51008067
   0.90321970  0.95089347  0.51065999
   0.45912689  0.35715932  0.56256400
   0.40985397  0.41634790  0.43935597
   0.40969587  0.56279719  0.43431318
   0.64378209  0.53505126  0.59016037
   0.58334726  0.42320262  0.46338648
   0.57235284  0.72539163  0.55862475
   0.42456614  0.71455372  0.49746303
   0.72065530  0.71616533  0.54617066
   0.60556749  0.63070809  0.50784489
   0.52824163  0.53260685  0.50101176
   0.56740189  0.58414363  0.46511209
Direct configuration=     6
   0.99831635  0.99891918  0.50319978
   0.99764362  0.14135460  0.50523299
   0.99784980  0.28455674  0.50492015
   0.99850446  0.42774996  0.50462433
   0.99890525  0.57084649  0.50056251
   0.99986378  0.71415735  0.49851315
   0.99991422  0.85719433  0.49989852
   0.14172513  0.99977364  0.49258963
   0.14081752  0.14202853  0.49775443
   0.14010401  0.28456067  0.49677266
   0.14098012  0.42812539  0.49558237
   0.14161042  0.57083180  0.49648652
   0.14183976  0.71377125  0.49297958
   0.14201101  0.85688352  0.49147008
   0.28451580  0.99948578  0.49072918
   0.28412626  0.14189370  0.49130866
   0.28318462  0.28522192  0.49010114
   0.28095818  0.42656873  0.47206876
   0.28507958  0.57196095  0.48219980
   0.28431284  0.71445718  0.49179658
   0.28429304  0.85705379  0.49123957
   0.42747978  0.99939228  0.49448839
   0.42721399  0.14219150  0.49568210
   0.42208629  0.27762797  0.51943947
   0.42639934  0.85600760  0.49781017
   0.56956671  0.99810828  0.50337952
   0.57003644  0.14160296  0.50451006
   0.57073517  0.28527159  0.50595510
   0.56756146  0.85338865  0.51515315
   0.71165051  0.99666147  0.51230507
   0.71260474  0.14102403  0.50862001
   0.71309868  0.28476749  0.51132209
   0.71408736  0.42869584  0.51464974
   0.72362810  0.57677511  0.54815758
   0.71194387  0.85324428  0.52844482
   0.85482147  0.99781022  0.51243672
   0.85476463  0.14090434  0.50936494
   0.85541186  0.28439598  0.50975167
   0.85628306  0.42792719  0.51156704
   0.85722443  0.57199824  0.50920673
   0.85916706  0.71529160  0.51554953
   0.85691688  0.85603621  0.51697401
   0.04568885  0.09422999  0.50215861
   0.04493741  0.23659832  0.50279521
   0.04569800  0.38004453  0.50245037
   0.04642954  0.52306893  0.50091788
   0.04675246  0.66613915  0.49644871
   0.04705544  0.80926381  0.49568058
   0.04658894  0.95204243  0.49799496
   0.18880137  0.09461253  0.49221785
   0.18769647  0.23717589  0.49615386
   0.18711445  0.37957120  0.49034444
   0.18942539  0.52361382  0.49283739
   0.18911317  0.66619390  0.49306771
   0.18937431  0.80917524  0.49101489
   0.18945143  0.95204112  0.49064353
   0.33207273  0.09468206  0.49233745
   0.33126402  0.23684705  0.49836939
   0.32440181  0.37568205  0.46787203
   0.32527754  0.52108167  0.46280664
   0.33511896  0.66995973  0.48954032
   0.33166774  0.80928064  0.49311121
   0.33212035  0.95201527  0.49147613
   0.47515018  0.09456430  0.49690582
   0.47441060  0.23712503  0.50541460
   0.47027183  0.80460038  0.50420978
   0.47467981  0.95136100  0.49844920
   0.61730326  0.09348713  0.50554402
   0.61796247  0.23713180  0.50920575
   0.62238618  0.37895115  0.49742391
   0.61796558  0.81117395  0.53328210
   0.61616371  0.94911477  0.50931310
   0.75955957  0.09268038  0.50988576
   0.76030875  0.23649253  0.50989542
   0.76105935  0.38017817  0.51501043
   0.76237761  0.52573831  0.52226355
   0.76650364  0.67148689  0.53717001
   0.76194829  0.80478510  0.53193773
   0.75932731  0.94883328  0.51691261
   0.90222330  0.09305275  0.50890628
   0.90257021  0.23645844  0.50828203
   0.90324373  0.37999088  0.50914831
   0.90380079  0.52338364  0.50581997
   0.90520505  0.66683802  0.50682689
   0.90536745  0.80976342  0.51010030
   0.90321903  0.95089079  0.51067711
   0.45911575  0.35715168  0.56254898
   0.40985543  0.41635072  0.43934777
   0.40968962  0.56279577  0.43425593
   0.64377213  0.53505381  0.59018553
   0.58334871  0.42320826  0.46340489
   0.57235264  0.72539010  0.55864817
   0.42457000  0.71455591  0.49745775
   0.72065663  0.71616694  0.54619173
   0.60555694  0.63070111  0.50785094
   0.52828237  0.53257797  0.50099885
   0.56739069  0.58415625  0.46511209
Direct configuration=     7
   0.99831218  0.99892837  0.50320432
   0.99763437  0.14136690  0.50523362
   0.99784931  0.28455142  0.50491837
   0.99849047  0.42774609  0.50462501
   0.99890304  0.57084441  0.50056562
   0.99986493  0.71415423  0.49851585
   0.99991102  0.85719215  0.49990320
   0.14172494  0.99977213  0.49258889
   0.14080655  0.14203593  0.49775288
   0.14009903  0.28456134  0.49676821
   0.14097997  0.42812402  0.49557723
   0.14161136  0.57083284  0.49648437
   0.14183520  0.71376689  0.49298012
   0.14201130  0.85688210  0.49147031
   0.28451943  0.99948795  0.49072779
   0.28413101  0.14189448  0.49130511
   0.28318292  0.28522893  0.49009297
   0.28095305  0.42656894  0.47205747
   0.28507745  0.57196044  0.48219144
   0.28431295  0.71445135  0.49179421
   0.28429542  0.85705290  0.49124000
   0.42748382  0.99939558  0.49448909
   0.42721852  0.14219419  0.49568315
   0.42208860  0.27762387  0.51943544
   0.42640201  0.85600781  0.49781098
   0.56957035  0.99811150  0.50338223
   0.57003913  0.14160237  0.50451404
   0.57073906  0.28527561  0.50595964
   0.56755849  0.85339222  0.51515587
   0.71163135  0.99666236  0.51230939
   0.71259788  0.14101781  0.50862303
   0.71309921  0.28476213  0.51132699
   0.71409344  0.42870748  0.51465972
   0.72362067  0.57677981  0.54817160
   0.71193958  0.85324175  0.52845160
   0.85482525  0.99781286  0.51244153
   0.85477320  0.14090534  0.50936542
   0.85540587  0.28438381  0.50975328
   0.85628154  0.42792461  0.51157252
   0.85722768  0.57200171  0.50921380
   0.85915941  0.71528909  0.51555851
   0.85691497  0.85603345  0.51698230
   0.04570597  0.09421412  0.50215887
   0.04493852  0.23659948  0.50279264
   0.04570368  0.38004613  0.50244786
   0.04643292  0.52307053  0.50091798
   0.04675427  0.66614359  0.49645069
   0.04705595  0.80926605  0.49568261
   0.04659404  0.95204304  0.49799640
   0.18880169  0.09460891  0.49221453
   0.18770134  0.23716878  0.49614934
   0.18711656  0.37957336  0.49033688
   0.18942553  0.52361429  0.49283225
   0.18911366  0.66619485  0.49306653
   0.18937555  0.80917934  0.49101478
   0.18944833  0.95204149  0.49064262
   0.33206617  0.09468032  0.49233621
   0.33126194  0.23684430  0.49836443
   0.32440117  0.37567508  0.46786393
   0.32528031  0.52108137  0.46279142
   0.33512095  0.66996306  0.48953586
   0.33166855  0.80928635  0.49311050
   0.33211842  0.95201353  0.49147544
   0.47514682  0.09456122  0.49690745
   0.47440347  0.23712482  0.50541732
   0.47027145  0.80460016  0.50421092
   0.47467396  0.95135787  0.49845018
   0.61730410  0.09348869  0.50554649
   0.61796223  0.23713387  0.50921095
   0.62238228  0.37894623  0.49743087
   0.61797076  0.81117253  0.53329024
   0.61617686  0.94911596  0.50931741
   0.75956190  0.09267698  0.50988768
   0.76031267  0.23650351  0.50989853
   0.76106009  0.38017888  0.51501650
   0.76237358  0.52572251  0.52227157
   0.76650908  0.67148873  0.53717751
   0.76194987  0.80478790  0.53194431
   0.75933393  0.94882994  0.51691921
   0.90221770  0.09305054  0.50890835
   0.90256910  0.23646226  0.50828168
   0.90325874  0.38000335  0.50914946
   0.90380060  0.52338653  0.50582601
   0.90520530  0.66683716  0.50683187
   0.90537158  0.80976624  0.51010703
   0.90321975  0.95089120  0.51068277
   0.45911406  0.35715556  0.56254973
   0.40985713  0.41635280  0.43934345
   0.40968106  0.56279183  0.43423844
   0.64377230  0.53505557  0.59019290
   0.58335115  0.42321080  0.46341176
   0.57235272  0.72539113  0.55865684
   0.42456814  0.71455358  0.49745526
   0.72065551  0.71616591  0.54619955
   0.60555464  0.63070049  0.50785493
   0.52829947  0.53256978  0.50099214
   0.56738316  0.58415662  0.46511209
Direct configuration=     8
   0.99831319  0.99892718  0.50321179
   0.99763621  0.14136521  0.50523310
   0.99785038  0.28455364  0.50491475
   0.99848928  0.42774730  0.50462503
   0.99890325  0.57084448  0.50057130
   0.99986600  0.71415511  0.49852125
   0.99991239  0.85719382  0.49991141
   0.14172527  0.99977215  0.49258736
   0.14080766  0.14203542  0.49774824
   0.14010175  0.28456090  0.49675894
   0.14098049  0.42812496  0.49556714
   0.14161256  0.57083374  0.49648034
   0.14183668  0.71376879  0.49298023
   0.14201134  0.85688345  0.49147073
   0.28451794  0.99948735  0.49072512
   0.28412948  0.14189352  0.49129789
   0.28318235  0.28522761  0.49007942
   0.28095045  0.42656645  0.47203426
   0.28507632  0.57195941  0.48217435
   0.28431415  0.71445183  0.49178977
   0.28429454  0.85705350  0.49123880
   0.42748245  0.99939547  0.49449002
   0.42721682  0.14219420  0.49568453
   0.42208489  0.27762283  0.51943072
   0.42640159  0.85600705  0.49781206
   0.56957156  0.99811088  0.50338720
   0.57003891  0.14160364  0.50452132
   0.57073846  0.28527763  0.50596907
   0.56756011  0.85339196  0.51516353
   0.71163191  0.99666262  0.51231827
   0.71259849  0.14101737  0.50862890
   0.71309922  0.28476287  0.51133675
   0.71409476  0.42870966  0.51467467
   0.72361802  0.57677863  0.54819087
   0.71194129  0.85324124  0.52846445
   0.85482582  0.99781016  0.51245120
   0.85477671  0.14090536  0.50936660
   0.85540577  0.28438526  0.50975452
   0.85628248  0.42792517  0.51158269
   0.85722725  0.57200214  0.50922862
   0.85915910  0.71528954  0.51557291
   0.85691668  0.85603384  0.51699732
   0.04570715  0.09421323  0.50216147
   0.04493650  0.23659995  0.50278794
   0.04570318  0.38004384  0.50244353
   0.04643298  0.52307146  0.50091854
   0.04675378  0.66614327  0.49645474
   0.04705470  0.80926445  0.49568670
   0.04659204  0.95204314  0.49800035
   0.18880098  0.09461049  0.49220860
   0.18769925  0.23717072  0.49614047
   0.18711549  0.37957288  0.49032269
   0.18942611  0.52361464  0.49282206
   0.18911395  0.66619451  0.49306413
   0.18937603  0.80917919  0.49101475
   0.18944875  0.95204080  0.49064073
   0.33206745  0.09468042  0.49233404
   0.33126250  0.23684522  0.49835533
   0.32439982  0.37567561  0.46784586
   0.32527653  0.52108039  0.46276705
   0.33512169  0.66996296  0.48952666
   0.33167025  0.80928647  0.49310928
   0.33212030  0.95201414  0.49147434
   0.47514872  0.09456175  0.49691117
   0.47440368  0.23712380  0.50541939
   0.47027187  0.80459985  0.50421278
   0.47467607  0.95135840  0.49845278
   0.61730388  0.09348786  0.50555145
   0.61796232  0.23713310  0.50922115
   0.62238372  0.37894707  0.49744489
   0.61796864  0.81117202  0.53330378
   0.61617786  0.94911644  0.50932425
   0.75956243  0.09267703  0.50989150
   0.76031237  0.23650436  0.50990433
   0.76106037  0.38017901  0.51502789
   0.76236999  0.52571918  0.52229183
   0.76650903  0.67148914  0.53719448
   0.76194849  0.80478634  0.53195838
   0.75933456  0.94883068  0.51693112
   0.90221706  0.09305360  0.50891197
   0.90256873  0.23646128  0.50828098
   0.90325911  0.38000427  0.50915455
   0.90380030  0.52338799  0.50583763
   0.90520373  0.66683789  0.50684223
   0.90536999  0.80976500  0.51012117
   0.90321825  0.95089232  0.51069421
   0.45910889  0.35715790  0.56254810
   0.40985896  0.41635503  0.43933498
   0.40967546  0.56279153  0.43420806
   0.64376716  0.53505715  0.59020491
   0.58335507  0.42321465  0.46342506
   0.57235296  0.72539214  0.55867451
   0.42456854  0.71455255  0.49745072
   0.72065593  0.71616815  0.54621379
   0.60554801  0.63069686  0.50786126
   0.52832887  0.53254979  0.50098303
   0.56737218  0.58416305  0.46511209
Direct configuration=     9