  98  98   0   0
  0.3953964E+02  0.1727104E-08  0.1727104E-08  0.1500000E-08  0.0000000E+00
  1.000000000000000E-004
  CAR 
 unknown system                          
      5.91547677    -25.61672842  301     -2.36778950      1.00000000
    -25.617  0.0000E+00  0.0000E+00  0.0000E+00  0.0000E+00
    -25.512  0.0000E+00  0.0000E+00  0.0000E+00  0.0000E+00
    -25.407  0.0000E+00  0.0000E+00  0.0000E+00  0.0000E+00
    -25.301  0.0000E+00  0.0000E+00  0.0000E+00  0.0000E+00
    -25.196  0.0000E+00  0.0000E+00  0.0000E+00  0.0000E+00
    -25.091  0.0000E+00  0.0000E+00  0.0000E+00  0.0000E+00
    -24.986  0.0000E+00  0.0000E+00  0.0000E+00  0.0000E+00
    -24.881  0.0000E+00  0.0000E+00  0.0000E+00  0.0000E+00
    -24.776  0.0000E+00  0.0000E+00  0.0000E+00  0.0000E+00
    -24.671  0.0000E+00  0.0000E+00  0.0000E+00  0.0000E+00
    -24.566  0.0000E+00  0.0000E+00  0.0000E+00  0.0000E+00
    -24.461  0.2165E-16  0.2165E-16  0.2276E-17  0.2276E-17
    -24.355  0.5437E-08  0.5437E-08  0.5715E-09  0.5715E-09
    -24.250  0.2780E-03  0.2780E-03  0.2922E-04  0.2922E-04
    -24.145  0.7904E-02  0.7904E-02  0.8600E-03  0.8600E-03
    -24.040  0.1331E-02  0.1331E-02  0.1000E-02  0.1000E-02
    -23.935  0.2402E-06  0.2402E-06  0.1000E-02  0.1000E-02
    -23.830  0.1009E-13  0.1009E-13  0.1000E-02  0.1000E-02
    -23.725  0.0000E+00  0.0000E+00  0.1000E-02  0.1000E-02
    -23.620  0.0000E+00  0.0000E+00  0.1000E-02  0.1000E-02
    -23.515  0.0000E+00  0.0000E+00  0.1000E-02  0.1000E-02
    -23.409  0.0000E+00  0.0000E+00  0.1000E-02  0.1000E-02
    -23.304  0.0000E+00  0.0000E+00  0.1000E-02  0.1000E-02
    -23.199  0.0000E+00  0.0000E+00  0.1000E-02  0.1000E-02
    -23.094  0.0000E+00  0.0000E+00  0.1000E-02  0.1000E-02
    -22.989  0.0000E+00  0.0000E+00  0.1000E-02  0.1000E-02
    -22.884  0.0000E+00  0.0000E+00  0.1000E-02  0.1000E-02
    -22.779  0.0000E+00  0.0000E+00  0.1000E-02  0.1000E-02
    -22.674  0.0000E+00  0.0000E+00  0.1000E-02  0.1000E-02
    -22.569  0.0000E+00  0.0000E+00  0.1000E-02  0.1000E-02
    -22.464  0.2626E-14  0.2626E-14  0.1000E-02  0.1000E-02
    -22.358  0.1064E-06  0.1064E-06  0.1000E-02  0.1000E-02
    -22.253  0.9745E-03  0.9745E-03  0.1102E-02  0.1102E-02
    -22.148  0.8119E-02  0.8119E-02  0.1956E-02  0.1956E-02
    -22.043  0.4202E-03  0.4202E-03  0.2000E-02  0.2000E-02
    -21.938  0.1389E-07  0.1389E-07  0.2000E-02  0.2000E-02
    -21.833  0.6166E-07  0.6166E-07  0.2000E-02  0.2000E-02
    -21.728  0.5162E-03  0.5162E-03  0.2054E-02  0.2054E-02
    -21.623  0.7534E-02  0.7534E-02  0.2846E-02  0.2846E-02
    -21.518  0.7638E-02  0.7638E-02  0.3649E-02  0.3649E-02
    -21.412  0.1991E-02  0.1991E-02  0.3858E-02  0.3858E-02
    -21.307  0.8823E-02  0.8823E-02  0.4786E-02  0.4786E-02
    -21.202  0.6388E-02  0.6388E-02  0.5457E-02  0.5457E-02
    -21.097  0.6126E-02  0.6126E-02  0.6101E-02  0.6101E-02
    -20.992  0.1629E-02  0.1629E-02  0.6272E-02  0.6272E-02
    -20.887  0.8971E-02  0.8971E-02  0.7215E-02  0.7215E-02
    -20.782  0.1357E-01  0.1357E-01  0.8641E-02  0.8641E-02
    -20.677  0.3023E-02  0.3023E-02  0.8959E-02  0.8959E-02
    -20.572  0.6106E-02  0.6106E-02  0.9601E-02  0.9601E-02
    -20.466  0.1615E-02  0.1615E-02  0.9770E-02  0.9770E-02
    -20.361  0.5990E-02  0.5990E-02  0.1040E-01  0.1040E-01
    -20.256  0.1217E-01  0.1217E-01  0.1168E-01  0.1168E-01
    -20.151  0.1206E-01  0.1206E-01  0.1295E-01  0.1295E-01
    -20.046  0.3859E-02  0.3859E-02  0.1335E-01  0.1335E-01
    -19.941  0.5092E-02  0.5092E-02  0.1389E-01  0.1389E-01
    -19.836  0.3578E-02  0.3578E-02  0.1426E-01  0.1426E-01
    -19.731  0.4369E-02  0.4369E-02  0.1472E-01  0.1472E-01
    -19.626  0.8913E-02  0.8913E-02  0.1566E-01  0.1566E-01
    -19.521  0.5294E-02  0.5294E-02  0.1622E-01  0.1622E-01
    -19.415  0.1513E-01  0.1513E-01  0.1781E-01  0.1781E-01
    -19.310  0.9375E-02  0.9375E-02  0.1879E-01  0.1879E-01
    -19.205  0.3692E-02  0.3692E-02  0.1918E-01  0.1918E-01
    -19.100  0.5196E-02  0.5196E-02  0.1973E-01  0.1973E-01
    -18.995  0.4569E-02  0.4569E-02  0.2021E-01  0.2021E-01
    -18.890  0.8098E-02  0.8098E-02  0.2106E-01  0.2106E-01
    -18.785  0.5597E-02  0.5597E-02  0.2165E-01  0.2165E-01
    -18.680  0.5073E-02  0.5073E-02  0.2218E-01  0.2218E-01
    -18.575  0.5303E-02  0.5303E-02  0.2274E-01  0.2274E-01
    -18.469  0.1761E-01  0.1761E-01  0.2459E-01  0.2459E-01
    -18.364  0.6697E-02  0.6697E-02  0.2529E-01  0.2529E-01
    -18.259  0.5895E-02  0.5895E-02  0.2591E-01  0.2591E-01
    -18.154  0.7014E-02  0.7014E-02  0.2665E-01  0.2665E-01
    -18.049  0.6442E-02  0.6442E-02  0.2733E-01  0.2733E-01
    -17.944  0.8478E-02  0.8478E-02  0.2822E-01  0.2822E-01
    -17.839  0.5773E-02  0.5773E-02  0.2882E-01  0.2882E-01
    -17.734  0.5660E-02  0.5660E-02  0.2942E-01  0.2942E-01
    -17.629  0.1797E-02  0.1797E-02  0.2961E-01  0.2961E-01
    -17.523  0.7155E-02  0.7155E-02  0.3036E-01  0.3036E-01
    -17.418  0.1358E-01  0.1358E-01  0.3179E-01  0.3179E-01
    -17.313  0.1219E-01  0.1219E-01  0.3307E-01  0.3307E-01
    -17.208  0.9167E-02  0.9167E-02  0.3403E-01  0.3403E-01
    -17.103  0.1197E-01  0.1197E-01  0.3529E-01  0.3529E-01
    -16.998  0.5605E-02  0.5605E-02  0.3588E-01  0.3588E-01
    -16.893  0.5472E-02  0.5472E-02  0.3645E-01  0.3645E-01
    -16.788  0.1054E-01  0.1054E-01  0.3756E-01  0.3756E-01
    -16.683  0.5078E-02  0.5078E-02  0.3810E-01  0.3810E-01
    -16.577  0.2006E-02  0.2006E-02  0.3831E-01  0.3831E-01
    -16.472  0.6614E-02  0.6614E-02  0.3900E-01  0.3900E-01
    -16.367  0.1007E-01  0.1007E-01  0.4006E-01  0.4006E-01
    -16.262  0.1815E-01  0.1815E-01  0.4197E-01  0.4197E-01
    -16.157  0.5846E-02  0.5846E-02  0.4258E-01  0.4258E-01
    -16.052  0.3720E-02  0.3720E-02  0.4297E-01  0.4297E-01
    -15.947  0.6008E-03  0.6008E-03  0.4304E-01  0.4304E-01
    -15.842  0.3942E-02  0.3942E-02  0.4345E-01  0.4345E-01
    -15.737  0.4295E-02  0.4295E-02  0.4390E-01  0.4390E-01
    -15.632  0.3301E-02  0.3301E-02  0.4425E-01  0.4425E-01
    -15.526  0.1986E-02  0.1986E-02  0.4446E-01  0.4446E-01
    -15.421  0.5212E-02  0.5212E-02  0.4501E-01  0.4501E-01
    -15.316  0.8267E-02  0.8267E-02  0.4587E-01  0.4587E-01
    -15.211  0.6903E-02  0.6903E-02  0.4660E-01  0.4660E-01
    -15.106  0.6925E-02  0.6925E-02  0.4733E-01  0.4733E-01
    -15.001  0.7197E-02  0.7197E-02  0.4808E-01  0.4808E-01
    -14.896  0.9879E-02  0.9879E-02  0.4912E-01  0.4912E-01
    -14.791  0.1489E-01  0.1489E-01  0.5069E-01  0.5069E-01
    -14.686  0.3963E-02  0.3963E-02  0.5110E-01  0.5110E-01
    -14.580  0.7335E-02  0.7335E-02  0.5188E-01  0.5188E-01
    -14.475  0.1117E-01  0.1117E-01  0.5305E-01  0.5305E-01
    -14.370  0.9318E-02  0.9318E-02  0.5403E-01  0.5403E-01
    -14.265  0.6145E-02  0.6145E-02  0.5467E-01  0.5467E-01
    -14.160  0.1058E-01  0.1058E-01  0.5579E-01  0.5579E-01
    -14.055  0.1081E-01  0.1081E-01  0.5692E-01  0.5692E-01
    -13.950  0.7881E-02  0.7881E-02  0.5775E-01  0.5775E-01
    -13.845  0.6000E-02  0.6000E-02  0.5838E-01  0.5838E-01
    -13.740  0.3956E-02  0.3956E-02  0.5880E-01  0.5880E-01
    -13.634  0.4360E-02  0.4360E-02  0.5925E-01  0.5925E-01
    -13.529  0.7035E-02  0.7035E-02  0.5999E-01  0.5999E-01
    -13.424  0.8859E-02  0.8859E-02  0.6093E-01  0.6093E-01
    -13.319  0.8590E-02  0.8590E-02  0.6183E-01  0.6183E-01
    -13.214  0.9340E-02  0.9340E-02  0.6281E-01  0.6281E-01
    -13.109  0.6202E-02  0.6202E-02  0.6346E-01  0.6346E-01
    -13.004  0.5898E-02  0.5898E-02  0.6408E-01  0.6408E-01
    -12.899  0.3949E-02  0.3949E-02  0.6450E-01  0.6450E-01
    -12.794  0.1164E-02  0.1164E-02  0.6462E-01  0.6462E-01
    -12.689  0.9902E-02  0.9902E-02  0.6566E-01  0.6566E-01
    -12.583  0.5855E-02  0.5855E-02  0.6628E-01  0.6628E-01
    -12.478  0.1016E-01  0.1016E-01  0.6734E-01  0.6734E-01
    -12.373  0.1509E-01  0.1509E-01  0.6893E-01  0.6893E-01
    -12.268  0.1276E-01  0.1276E-01  0.7027E-01  0.7027E-01
    -12.163  0.9192E-02  0.9192E-02  0.7124E-01  0.7124E-01
    -12.058  0.5046E-02  0.5046E-02  0.7177E-01  0.7177E-01
    -11.953  0.9501E-02  0.9501E-02  0.7277E-01  0.7277E-01
    -11.848  0.8565E-02  0.8565E-02  0.7367E-01  0.7367E-01
    -11.743  0.6807E-02  0.6807E-02  0.7438E-01  0.7438E-01
    -11.637  0.9454E-02  0.9454E-02  0.7538E-01  0.7538E-01
    -11.532  0.5722E-02  0.5722E-02  0.7598E-01  0.7598E-01
    -11.427  0.1173E-01  0.1173E-01  0.7721E-01  0.7721E-01
    -11.322  0.1091E-01  0.1091E-01  0.7836E-01  0.7836E-01
    -11.217  0.1159E-01  0.1159E-01  0.7958E-01  0.7958E-01
    -11.112  0.1178E-01  0.1178E-01  0.8081E-01  0.8081E-01
    -11.007  0.9281E-02  0.9281E-02  0.8179E-01  0.8179E-01
    -10.902  0.7576E-02  0.7576E-02  0.8259E-01  0.8259E-01
    -10.797  0.1231E-01  0.1231E-01  0.8388E-01  0.8388E-01
    -10.691  0.1263E-01  0.1263E-01  0.8521E-01  0.8521E-01
    -10.586  0.6192E-02  0.6192E-02  0.8586E-01  0.8586E-01
    -10.481  0.7174E-02  0.7174E-02  0.8661E-01  0.8661E-01
    -10.376  0.3906E-02  0.3906E-02  0.8702E-01  0.8702E-01
    -10.271  0.3003E-02  0.3003E-02  0.8734E-01  0.8734E-01
    -10.166  0.7014E-02  0.7014E-02  0.8808E-01  0.8808E-01
    -10.061  0.1945E-01  0.1945E-01  0.9012E-01  0.9012E-01
     -9.956  0.1665E-01  0.1665E-01  0.9187E-01  0.9187E-01
     -9.851  0.1450E-01  0.1450E-01  0.9339E-01  0.9339E-01
     -9.746  0.1920E-01  0.1920E-01  0.9541E-01  0.9541E-01
     -9.640  0.1838E-01  0.1838E-01  0.9734E-01  0.9734E-01
     -9.535  0.1419E-01  0.1419E-01  0.9884E-01  0.9884E-01
     -9.430  0.1295E-01  0.1295E-01  0.1002E+00  0.1002E+00
     -9.325  0.1875E-01  0.1875E-01  0.1022E+00  0.1022E+00
     -9.220  0.1708E-01  0.1708E-01  0.1040E+00  0.1040E+00
     -9.115  0.1546E-01  0.1546E-01  0.1056E+00  0.1056E+00
     -9.010  0.1668E-01  0.1668E-01  0.1073E+00  0.1073E+00
     -8.905  0.2372E-01  0.2372E-01  0.1098E+00  0.1098E+00
     -8.800  0.3244E-01  0.3244E-01  0.1132E+00  0.1132E+00
     -8.694  0.2614E-01  0.2614E-01  0.1160E+00  0.1160E+00
     -8.589  0.1816E-01  0.1816E-01  0.1179E+00  0.1179E+00
     -8.484  0.1997E-01  0.1997E-01  0.1200E+00  0.1200E+00
     -8.379  0.1940E-01  0.1940E-01  0.1220E+00  0.1220E+00
     -8.274  0.1715E-01  0.1715E-01  0.1238E+00  0.1238E+00
     -8.169  0.2222E-01  0.2222E-01  0.1262E+00  0.1262E+00
     -8.064  0.2794E-01  0.2794E-01  0.1291E+00  0.1291E+00
     -7.959  0.1873E-01  0.1873E-01  0.1311E+00  0.1311E+00
     -7.854  0.1483E-01  0.1483E-01  0.1326E+00  0.1326E+00
     -7.748  0.1522E-01  0.1522E-01  0.1342E+00  0.1342E+00
     -7.643  0.2003E-01  0.2003E-01  0.1363E+00  0.1363E+00
     -7.538  0.1391E-01  0.1391E-01  0.1378E+00  0.1378E+00
     -7.433  0.9665E-02  0.9665E-02  0.1388E+00  0.1388E+00
     -7.328  0.4755E-02  0.4755E-02  0.1393E+00  0.1393E+00
     -7.223  0.1978E-01  0.1978E-01  0.1414E+00  0.1414E+00
     -7.118  0.2452E-01  0.2452E-01  0.1440E+00  0.1440E+00
     -7.013  0.1927E-01  0.1927E-01  0.1460E+00  0.1460E+00
     -6.908  0.1666E-01  0.1666E-01  0.1478E+00  0.1478E+00
     -6.803  0.1015E-01  0.1015E-01  0.1488E+00  0.1488E+00
     -6.697  0.1196E-01  0.1196E-01  0.1501E+00  0.1501E+00
     -6.592  0.1237E-01  0.1237E-01  0.1514E+00  0.1514E+00
     -6.487  0.9157E-02  0.9157E-02  0.1523E+00  0.1523E+00
     -6.382  0.1131E-01  0.1131E-01  0.1535E+00  0.1535E+00
     -6.277  0.1300E-01  0.1300E-01  0.1549E+00  0.1549E+00
     -6.172  0.1288E-01  0.1288E-01  0.1563E+00  0.1563E+00
     -6.067  0.2416E-01  0.2416E-01  0.1588E+00  0.1588E+00
     -5.962  0.1687E-01  0.1687E-01  0.1606E+00  0.1606E+00
     -5.857  0.1420E-01  0.1420E-01  0.1621E+00  0.1621E+00
     -5.751  0.1131E-01  0.1131E-01  0.1632E+00  0.1632E+00
     -5.646  0.1591E-01  0.1591E-01  0.1649E+00  0.1649E+00
     -5.541  0.1295E-01  0.1295E-01  0.1663E+00  0.1663E+00
     -5.436  0.7740E-02  0.7740E-02  0.1671E+00  0.1671E+00
     -5.331  0.4793E-02  0.4793E-02  0.1676E+00  0.1676E+00
     -5.226  0.2378E-02  0.2378E-02  0.1678E+00  0.1678E+00
     -5.121  0.1928E-02  0.1928E-02  0.1681E+00  0.1681E+00
     -5.016  0.1040E-01  0.1040E-01  0.1691E+00  0.1691E+00
     -4.911  0.2319E-01  0.2319E-01  0.1716E+00  0.1716E+00
     -4.805  0.1487E-01  0.1487E-01  0.1731E+00  0.1731E+00
     -4.700  0.1706E-01  0.1706E-01  0.1749E+00  0.1749E+00
     -4.595  0.4784E-02  0.4784E-02  0.1754E+00  0.1754E+00
     -4.490  0.9397E-02  0.9397E-02  0.1764E+00  0.1764E+00
     -4.385  0.7764E-02  0.7764E-02  0.1772E+00  0.1772E+00
     -4.280  0.6793E-03  0.6793E-03  0.1773E+00  0.1773E+00
     -4.175  0.8588E-02  0.8588E-02  0.1782E+00  0.1782E+00
     -4.070  0.7313E-02  0.7313E-02  0.1790E+00  0.1790E+00
     -3.965  0.7714E-02  0.7714E-02  0.1798E+00  0.1798E+00
     -3.860  0.9406E-02  0.9406E-02  0.1808E+00  0.1808E+00
     -3.754  0.5721E-02  0.5721E-02  0.1814E+00  0.1814E+00
     -3.649  0.5128E-02  0.5128E-02  0.1819E+00  0.1819E+00
     -3.544  0.6908E-03  0.6908E-03  0.1820E+00  0.1820E+00
     -3.439  0.6107E-05  0.6107E-05  0.1820E+00  0.1820E+00
     -3.334  0.1332E-02  0.1332E-02  0.1821E+00  0.1821E+00
     -3.229  0.3967E-02  0.3967E-02  0.1826E+00  0.1826E+00
     -3.124  0.5322E-02  0.5322E-02  0.1831E+00  0.1831E+00
     -3.019  0.2433E-02  0.2433E-02  0.1834E+00  0.1834E+00
     -2.914  0.1208E-02  0.1208E-02  0.1835E+00  0.1835E+00
     -2.808  0.3736E-05  0.3736E-05  0.1835E+00  0.1835E+00
     -2.703  0.2115E-05  0.2115E-05  0.1835E+00  0.1835E+00
     -2.598  0.1151E-02  0.1151E-02  0.1836E+00  0.1836E+00
     -2.493  0.3361E-02  0.3361E-02  0.1840E+00  0.1840E+00
     -2.388  0.2426E-03  0.2426E-03  0.1840E+00  0.1840E+00
     -2.283  0.2163E-04  0.2163E-04  0.1840E+00  0.1840E+00
     -2.178  0.2897E-02  0.2897E-02  0.1843E+00  0.1843E+00
     -2.073  0.1835E-02  0.1835E-02  0.1845E+00  0.1845E+00
     -1.968  0.3392E-05  0.3392E-05  0.1845E+00  0.1845E+00
     -1.862  0.7362E-04  0.7362E-04  0.1845E+00  0.1845E+00
     -1.757  0.2075E-02  0.2075E-02  0.1847E+00  0.1847E+00
     -1.652  0.2553E-02  0.2553E-02  0.1850E+00  0.1850E+00
     -1.547  0.5530E-02  0.5530E-02  0.1856E+00  0.1856E+00
     -1.442  0.3989E-02  0.3989E-02  0.1860E+00  0.1860E+00
     -1.337  0.1604E-03  0.1604E-03  0.1860E+00  0.1860E+00
     -1.232  0.3835E-02  0.3835E-02  0.1864E+00  0.1864E+00
     -1.127  0.7466E-02  0.7466E-02  0.1872E+00  0.1872E+00
     -1.022  0.2843E-02  0.2843E-02  0.1875E+00  0.1875E+00
     -0.917  0.1557E-02  0.1557E-02  0.1877E+00  0.1877E+00
     -0.811  0.1072E-01  0.1072E-01  0.1888E+00  0.1888E+00
     -0.706  0.1698E-01  0.1698E-01  0.1906E+00  0.1906E+00
     -0.601  0.5523E-02  0.5523E-02  0.1912E+00  0.1912E+00
     -0.496  0.9879E-02  0.9879E-02  0.1922E+00  0.1922E+00
     -0.391  0.1038E-01  0.1038E-01  0.1933E+00  0.1933E+00
     -0.286  0.6138E-02  0.6138E-02  0.1939E+00  0.1939E+00
     -0.181  0.3290E-02  0.3290E-02  0.1943E+00  0.1943E+00
     -0.076  0.8161E-02  0.8161E-02  0.1951E+00  0.1951E+00
      0.029  0.1043E-01  0.1043E-01  0.1962E+00  0.1962E+00
      0.135  0.1001E-01  0.1001E-01  0.1973E+00  0.1973E+00
      0.240  0.1045E-01  0.1045E-01  0.1984E+00  0.1984E+00
      0.345  0.9836E-02  0.9836E-02  0.1994E+00  0.1994E+00
      0.450  0.5199E-02  0.5199E-02  0.2000E+00  0.2000E+00
      0.555  0.8742E-02  0.8742E-02  0.2009E+00  0.2009E+00
      0.660  0.4223E-02  0.4223E-02  0.2013E+00  0.2013E+00
      0.765  0.7698E-02  0.7698E-02  0.2021E+00  0.2021E+00
      0.870  0.8643E-02  0.8643E-02  0.2030E+00  0.2030E+00
      0.975  0.6657E-02  0.6657E-02  0.2037E+00  0.2037E+00
      1.081  0.1103E-01  0.1103E-01  0.2049E+00  0.2049E+00
      1.186  0.6818E-02  0.6818E-02  0.2056E+00  0.2056E+00
      1.291  0.8229E-02  0.8229E-02  0.2065E+00  0.2065E+00
      1.396  0.8635E-02  0.8635E-02  0.2074E+00  0.2074E+00
      1.501  0.1110E-01  0.1110E-01  0.2086E+00  0.2086E+00
      1.606  0.2065E-01  0.2065E-01  0.2107E+00  0.2107E+00
      1.711  0.1473E-01  0.1473E-01  0.2123E+00  0.2123E+00
      1.816  0.1096E-01  0.1096E-01  0.2134E+00  0.2134E+00
      1.921  0.1152E-01  0.1152E-01  0.2146E+00  0.2146E+00
      2.027  0.1660E-01  0.1660E-01  0.2164E+00  0.2164E+00
      2.132  0.2081E-01  0.2081E-01  0.2186E+00  0.2186E+00
      2.237  0.1620E-01  0.1620E-01  0.2203E+00  0.2203E+00
      2.342  0.1900E-01  0.1900E-01  0.2223E+00  0.2223E+00
      2.447  0.2853E-01  0.2853E-01  0.2253E+00  0.2253E+00
      2.552  0.7503E-02  0.7502E-02  0.2261E+00  0.2261E+00
      2.657  0.1078E-01  0.1078E-01  0.2272E+00  0.2272E+00
      2.762  0.1904E-01  0.1904E-01  0.2292E+00  0.2292E+00
      2.867  0.3080E-01  0.3080E-01  0.2324E+00  0.2324E+00
      2.972  0.3404E-01  0.3404E-01  0.2360E+00  0.2360E+00
      3.078  0.2006E-01  0.2006E-01  0.2381E+00  0.2381E+00
      3.183  0.2115E-01  0.2115E-01  0.2403E+00  0.2403E+00
      3.288  0.2581E-01  0.2581E-01  0.2430E+00  0.2430E+00
      3.393  0.1520E-01  0.1520E-01  0.2446E+00  0.2446E+00
      3.498  0.2472E-01  0.2472E-01  0.2472E+00  0.2472E+00
      3.603  0.1856E-01  0.1856E-01  0.2492E+00  0.2492E+00
      3.708  0.1406E-01  0.1406E-01  0.2507E+00  0.2507E+00
      3.813  0.2797E-01  0.2797E-01  0.2536E+00  0.2536E+00
      3.918  0.1908E-01  0.1908E-01  0.2556E+00  0.2556E+00
      4.024  0.2442E-01  0.2442E-01  0.2582E+00  0.2582E+00
      4.129  0.1821E-01  0.1821E-01  0.2601E+00  0.2601E+00
      4.234  0.1241E-01  0.1241E-01  0.2614E+00  0.2614E+00
      4.339  0.3745E-01  0.3745E-01  0.2653E+00  0.2653E+00
      4.444  0.3131E-01  0.3132E-01  0.2686E+00  0.2686E+00
      4.549  0.1287E-01  0.1287E-01  0.2700E+00  0.2700E+00
      4.654  0.1440E-03  0.1440E-03  0.2700E+00  0.2700E+00
      4.759  0.1907E-08  0.1906E-08  0.2700E+00  0.2700E+00
      4.864  0.6074E-17  0.6074E-17  0.2700E+00  0.2700E+00
      4.970  0.0000E+00  0.0000E+00  0.2700E+00  0.2700E+00
      5.075  0.0000E+00  0.0000E+00  0.2700E+00  0.2700E+00
      5.180  0.0000E+00  0.0000E+00  0.2700E+00  0.2700E+00
      5.285  0.0000E+00  0.0000E+00  0.2700E+00  0.2700E+00
      5.390  0.0000E+00  0.0000E+00  0.2700E+00  0.2700E+00
      5.495  0.0000E+00  0.0000E+00  0.2700E+00  0.2700E+00
      5.600  0.0000E+00  0.0000E+00  0.2700E+00  0.2700E+00
      5.705  0.0000E+00  0.0000E+00  0.2700E+00  0.2700E+00
      5.810  0.0000E+00  0.0000E+00  0.2700E+00  0.2700E+00
      5.915  0.0000E+00  0.0000E+00  0.2700E+00  0.2700E+00
