       N       E                     dE             d eps       ncg     rms          rms(c)
DAV:   1     0.324646304465E+04    0.32465E+04   -0.13709E+05  4630   0.103E+03
DAV:   2    -0.262533618499E+03   -0.35090E+04   -0.32974E+04  6560   0.254E+02
DAV:   3    -0.870571875611E+03   -0.60804E+03   -0.60531E+03  5450   0.109E+02
DAV:   4    -0.892420224810E+03   -0.21848E+02   -0.21773E+02  5510   0.259E+01
DAV:   5    -0.893033557870E+03   -0.61333E+00   -0.61254E+00  6160   0.372E+00    0.520E+01
DAV:   6    -0.875120011338E+03    0.17914E+02   -0.22501E+01  5320   0.715E+00    0.339E+01
DAV:   7    -0.852285790325E+03    0.22834E+02   -0.33371E+01  5130   0.853E+00    0.205E+01
DAV:   8    -0.847391765215E+03    0.48940E+01   -0.24609E+01  5290   0.729E+00    0.828E+00
DAV:   9    -0.847255167183E+03    0.13660E+00   -0.11547E+00  4980   0.196E+00    0.319E+00
DAV:  10    -0.847173716547E+03    0.81451E-01   -0.40423E-01  5120   0.108E+00    0.925E-01
DAV:  11    -0.847160993924E+03    0.12723E-01   -0.74472E-02  4920   0.472E-01    0.309E-01
DAV:  12    -0.847159735735E+03    0.12582E-02   -0.71532E-03  5340   0.155E-01    0.157E-01
DAV:  13    -0.847159487993E+03    0.24774E-03   -0.25325E-03  5420   0.986E-02    0.717E-02
DAV:  14    -0.847159597491E+03   -0.10950E-03   -0.40656E-04  5190   0.377E-02    0.497E-02
DAV:  15    -0.847159637301E+03   -0.39810E-04   -0.64754E-05  4800   0.151E-02    0.239E-02
DAV:  16    -0.847159644011E+03   -0.67105E-05   -0.26089E-05  4960   0.976E-03    0.846E-03
DAV:  17    -0.847159643939E+03    0.71894E-07   -0.49976E-06  5430   0.480E-03
   1 F= -.85495541E+03 E0= -.85495541E+03  d E =-.854955E+03  mag=     0.0001
       N       E                     dE             d eps       ncg     rms          rms(c)
DAV:   1    -0.847159701294E+03   -0.57283E-04   -0.13676E-03  4610   0.709E-02    0.896E-03
DAV:   2    -0.847159703322E+03   -0.20277E-05   -0.31779E-05  4950   0.997E-03    0.750E-03
DAV:   3    -0.847159702584E+03    0.73722E-06   -0.13174E-06  3630   0.233E-03
   2 F= -.85495546E+03 E0= -.85495546E+03  d E =-.456975E-04  mag=    -0.0000
       N       E                     dE             d eps       ncg     rms          rms(c)
DAV:   1    -0.847159773490E+03   -0.70168E-04   -0.24044E-03  4500   0.786E-02    0.130E-02
DAV:   2    -0.847159776228E+03   -0.27380E-05   -0.43755E-05  4700   0.972E-03    0.102E-02
DAV:   3    -0.847159775873E+03    0.35520E-06   -0.10705E-06  3780   0.211E-03
   3 F= -.85495550E+03 E0= -.85495550E+03  d E =-.490449E-04  mag=     0.0000
       N       E                     dE             d eps       ncg     rms          rms(c)
DAV:   1    -0.847159912781E+03   -0.13655E-03   -0.44991E-03  4500   0.974E-02    0.171E-02
DAV:   2    -0.847159917803E+03   -0.50217E-05   -0.79148E-05  4670   0.118E-02    0.129E-02
DAV:   3    -0.847159917455E+03    0.34717E-06   -0.15163E-06  3830   0.237E-03
   4 F= -.85495561E+03 E0= -.85495561E+03  d E =-.107106E-03  mag=    -0.0000
       N       E                     dE             d eps       ncg     rms          rms(c)
DAV:   1    -0.847160075159E+03   -0.15736E-03   -0.85663E-03  4480   0.141E-01    0.235E-02
DAV:   2    -0.847160085326E+03   -0.10167E-04   -0.15282E-04  4650   0.172E-02    0.180E-02
DAV:   3    -0.847160084475E+03    0.85095E-06   -0.31556E-06  4270   0.340E-03
   5 F= -.85495573E+03 E0= -.85495573E+03  d E =-.121278E-03  mag=     0.0000
       N       E                     dE             d eps       ncg     rms          rms(c)
DAV:   1    -0.847160291485E+03   -0.20616E-03   -0.11488E-02  4540   0.147E-01    0.278E-02
DAV:   2    -0.847160303590E+03   -0.12105E-04   -0.18955E-04  4660   0.169E-02    0.207E-02
DAV:   3    -0.847160303201E+03    0.38872E-06   -0.29127E-06  3950   0.311E-03
   6 F= -.85495589E+03 E0= -.85495589E+03  d E =-.159784E-03  mag=    -0.0000
       N       E                     dE             d eps       ncg     rms          rms(c)
DAV:   1    -0.847160543471E+03   -0.23988E-03   -0.17162E-02  4500   0.190E-01    0.330E-02
DAV:   2    -0.847160563340E+03   -0.19869E-04   -0.29319E-04  4680   0.227E-02    0.248E-02
DAV:   3    -0.847160562131E+03    0.12085E-05   -0.53116E-06  4480   0.430E-03    0.180E-02
DAV:   4    -0.847160568008E+03   -0.58764E-05   -0.11391E-05  4330   0.596E-03    0.359E-03
DAV:   5    -0.847160567929E+03    0.78893E-07   -0.20854E-06  3950   0.249E-03
   7 F= -.85495609E+03 E0= -.85495609E+03  d E =-.193117E-03  mag=    -0.0000
       N       E                     dE             d eps       ncg     rms          rms(c)
DAV:   1    -0.847160857696E+03   -0.28969E-03   -0.25309E-02  4540   0.222E-01    0.392E-02
DAV:   2    -0.847160887756E+03   -0.30061E-04   -0.43564E-04  4620   0.264E-02    0.298E-02
DAV:   3    -0.847160884853E+03    0.29034E-05   -0.69097E-06  4590   0.487E-03    0.219E-02
DAV:   4    -0.847160893484E+03   -0.86309E-05   -0.20552E-05  4250   0.741E-03    0.492E-03
DAV:   5    -0.847160892945E+03    0.53876E-06   -0.41805E-06  4440   0.360E-03
   8 F= -.85495632E+03 E0= -.85495632E+03  d E =-.236491E-03  mag=    -0.0000
       N       E                     dE             d eps       ncg     rms          rms(c)
DAV:   1    -0.847161234944E+03   -0.34146E-03   -0.45102E-02  4500   0.299E-01    0.515E-02
DAV:   2    -0.847161291023E+03   -0.56079E-04   -0.80058E-04  4600   0.361E-02    0.392E-02
DAV:   3    -0.847161284874E+03    0.61488E-05   -0.13281E-05  5070   0.664E-03    0.290E-02
DAV:   4    -0.847161298736E+03   -0.13862E-04   -0.36015E-05  4360   0.999E-03    0.639E-03
DAV:   5    -0.847161298397E+03    0.33893E-06   -0.67582E-06  4770   0.437E-03
   9 F= -.85495662E+03 E0= -.85495662E+03  d E =-.293799E-03  mag=     0.0000
       N       E                     dE             d eps       ncg     rms          rms(c)
DAV:   1    -0.847161714862E+03   -0.41613E-03   -0.72091E-02  4480   0.367E-01    0.651E-02
DAV:   2    -0.847161803137E+03   -0.88274E-04   -0.12795E-03  4600   0.440E-02    0.486E-02
DAV:   3    -0.847161793452E+03    0.96849E-05   -0.19517E-05  5090   0.794E-03    0.359E-02
DAV:   4    -0.847161817706E+03   -0.24255E-04   -0.53693E-05  4380   0.119E-02    0.727E-03
DAV:   5    -0.847161817357E+03    0.34927E-06   -0.97521E-06  4880   0.507E-03
  10 F= -.85495699E+03 E0= -.85495699E+03  d E =-.373746E-03  mag=    -0.0000
       N       E                     dE             d eps       ncg     rms          rms(c)
DAV:   1    -0.847162289400E+03   -0.47169E-03   -0.10890E-01  4460   0.448E-01    0.805E-02
DAV:   2    -0.847162420238E+03   -0.13084E-03   -0.19238E-03  4580   0.535E-02    0.596E-02
DAV:   3    -0.847162406186E+03    0.14052E-04   -0.28298E-05  5160   0.958E-03    0.439E-02
DAV:   4    -0.847162446839E+03   -0.40653E-04   -0.77724E-05  4410   0.143E-02    0.881E-03
DAV:   5    -0.847162445992E+03    0.84740E-06   -0.14270E-05  4860   0.625E-03    0.579E-03
DAV:   6    -0.847162445876E+03    0.11578E-06   -0.34084E-06  4050   0.305E-03
  11 F= -.85495744E+03 E0= -.85495744E+03  d E =-.445675E-03  mag=    -0.0000
       N       E                     dE             d eps       ncg     rms          rms(c)
DAV:   1    -0.847162969631E+03   -0.52364E-03   -0.16755E-01  4400   0.562E-01    0.981E-02
DAV:   2    -0.847163171998E+03   -0.20237E-03   -0.29370E-03  4640   0.674E-02    0.746E-02
DAV:   3    -0.847163145079E+03    0.26918E-04   -0.46376E-05  5200   0.123E-02    0.552E-02
DAV:   4    -0.847163204053E+03   -0.58973E-04   -0.13662E-04  4560   0.188E-02    0.122E-02
DAV:   5    -0.847163202321E+03    0.17318E-05   -0.25348E-05  4820   0.832E-03    0.774E-03
DAV:   6    -0.847163202354E+03   -0.32793E-07   -0.60216E-06  4300   0.390E-03
  12 F= -.85495797E+03 E0= -.85495797E+03  d E =-.533535E-03  mag=    -0.0000
       N       E                     dE             d eps       ncg     rms          rms(c)
DAV:   1    -0.847163653948E+03   -0.45163E-03   -0.25587E-01  4360   0.726E-01    0.123E-01
DAV:   2    -0.847163983711E+03   -0.32976E-03   -0.46471E-03  4540   0.893E-02    0.915E-02
DAV:   3    -0.847163945791E+03    0.37920E-04   -0.85527E-05  5200   0.172E-02    0.668E-02
DAV:   4    -0.847164016080E+03   -0.70290E-04   -0.17158E-04  4530   0.234E-02    0.151E-02
DAV:   5    -0.847164016964E+03   -0.88341E-06   -0.34207E-05  4880   0.102E-02    0.900E-03
DAV:   6    -0.847164016743E+03    0.22131E-06   -0.78094E-06  4690   0.474E-03
  13 F= -.85495850E+03 E0= -.85495850E+03  d E =-.533435E-03  mag=     0.0000
       N       E                     dE             d eps       ncg     rms          rms(c)
DAV:   1    -0.847163539709E+03    0.47725E-03   -0.47741E-01  4320   0.108E+00    0.160E-01
DAV:   2    -0.847164242290E+03   -0.70258E-03   -0.95462E-03  4580   0.141E-01    0.128E-01
DAV:   3    -0.847164132124E+03    0.11017E-03   -0.23266E-04  5480   0.280E-02    0.966E-02
DAV:   4    -0.847164173201E+03   -0.41077E-04   -0.42317E-04  4640   0.379E-02    0.280E-02
DAV:   5    -0.847164187670E+03   -0.14469E-04   -0.83985E-05  4860   0.151E-02    0.155E-02
DAV:   6    -0.847164188943E+03   -0.12734E-05   -0.17443E-05  4700   0.699E-03    0.710E-03
DAV:   7    -0.847164188656E+03    0.28670E-06   -0.16941E-06  3920   0.265E-03
  14 F= -.85495834E+03 E0= -.85495834E+03  d E =0.163294E-03  mag=     0.0000
       N       E                     dE             d eps       ncg     rms          rms(c)
DAV:   1    -0.847165240525E+03   -0.10516E-02   -0.60564E-02  4470   0.489E-01    0.554E-02
DAV:   2    -0.847165352748E+03   -0.11222E-03   -0.15819E-03  4740   0.710E-02    0.499E-02
DAV:   3    -0.847165323736E+03    0.29012E-04   -0.67859E-05  6040   0.149E-02    0.381E-02
DAV:   4    -0.847165298885E+03    0.24851E-04   -0.56436E-05  4500   0.156E-02    0.169E-02
DAV:   5    -0.847165297915E+03    0.97002E-06   -0.17509E-05  4760   0.741E-03    0.606E-03
DAV:   6    -0.847165298201E+03   -0.28611E-06   -0.12726E-06  3160   0.232E-03
  15 F= -.85495944E+03 E0= -.85495944E+03  d E =-.110240E-02  mag=     0.0000
       N       E                     dE             d eps       ncg     rms          rms(c)
DAV:   1    -0.847165309371E+03   -0.11456E-04   -0.44928E-05  4480   0.118E-02    0.237E-03
DAV:   2    -0.847165309378E+03   -0.62137E-08   -0.95112E-07  3240   0.169E-03
  16 F= -.85495945E+03 E0= -.85495945E+03  d E =-.865894E-05  mag=     0.0000
       N       E                     dE             d eps       ncg     rms          rms(c)
DAV:   1    -0.847165329148E+03   -0.19776E-04   -0.15754E-04  4440   0.216E-02    0.363E-03
DAV:   2    -0.847165329302E+03   -0.15418E-06   -0.31266E-06  3610   0.285E-03
  17 F= -.85495946E+03 E0= -.85495946E+03  d E =-.148824E-04  mag=     0.0000
       N       E                     dE             d eps       ncg     rms          rms(c)
DAV:   1    -0.847165355179E+03   -0.26032E-04   -0.29338E-04  4440   0.282E-02    0.575E-03
DAV:   2    -0.847165355407E+03   -0.22796E-06   -0.56594E-06  4080   0.362E-03
  18 F= -.85495948E+03 E0= -.85495948E+03  d E =-.185097E-04  mag=     0.0000
       N       E                     dE             d eps       ncg     rms          rms(c)
DAV:   1    -0.847165387770E+03   -0.32591E-04   -0.41436E-04  4440   0.311E-02    0.743E-03
DAV:   2    -0.847165387974E+03   -0.20409E-06   -0.73199E-06  4010   0.376E-03
  19 F= -.85495951E+03 E0= -.85495951E+03  d E =-.222749E-04  mag=     0.0000
       N       E                     dE             d eps       ncg     rms          rms(c)
DAV:   1    -0.847165428756E+03   -0.40986E-04   -0.54415E-04  4460   0.335E-02    0.879E-03
DAV:   2    -0.847165428962E+03   -0.20618E-06   -0.91355E-06  3940   0.387E-03
  20 F= -.85495953E+03 E0= -.85495953E+03  d E =-.281834E-04  mag=     0.0000
       N       E                     dE             d eps       ncg     rms          rms(c)
DAV:   1    -0.847165479220E+03   -0.50464E-04   -0.72164E-04  4460   0.384E-02    0.102E-02
DAV:   2    -0.847165479552E+03   -0.33225E-06   -0.12159E-05  4270   0.444E-03    0.790E-03
DAV:   3    -0.847165479938E+03   -0.38608E-06   -0.44832E-07  3220   0.133E-03
  21 F= -.85495957E+03 E0= -.85495957E+03  d E =-.357894E-04  mag=    -0.0000
       N       E                     dE             d eps       ncg     rms          rms(c)
DAV:   1    -0.847165544617E+03   -0.65065E-04   -0.11898E-03  4450   0.499E-02    0.892E-03
DAV:   2    -0.847165546042E+03   -0.14246E-05   -0.20865E-05  4530   0.585E-03    0.646E-03
DAV:   3    -0.847165546066E+03   -0.24811E-07   -0.29789E-07  3430   0.109E-03
  22 F= -.85495962E+03 E0= -.85495962E+03  d E =-.463399E-04  mag=     0.0000
       N       E                     dE             d eps       ncg     rms          rms(c)
DAV:   1    -0.847165626159E+03   -0.80118E-04   -0.19575E-03  4430   0.631E-02    0.114E-02
DAV:   2    -0.847165628484E+03   -0.23243E-05   -0.34258E-05  4600   0.734E-03    0.824E-03
DAV:   3    -0.847165628433E+03    0.50444E-07   -0.49268E-07  3650   0.135E-03
  23 F= -.85495967E+03 E0= -.85495967E+03  d E =-.569362E-04  mag=     0.0000
       N       E                     dE             d eps       ncg     rms          rms(c)
DAV:   1    -0.847165727818E+03   -0.99334E-04   -0.31454E-03  4420   0.773E-02    0.144E-02
DAV:   2    -0.847165731455E+03   -0.36373E-05   -0.54068E-05  4600   0.885E-03    0.104E-02
DAV:   3    -0.847165731411E+03    0.44871E-07   -0.72054E-07  3620   0.158E-03
  24 F= -.85495974E+03 E0= -.85495974E+03  d E =-.706515E-04  mag=     0.0000
       N       E                     dE             d eps       ncg     rms          rms(c)
DAV:   1    -0.847165855242E+03   -0.12379E-03   -0.48305E-03  4360   0.955E-02    0.177E-02
DAV:   2    -0.847165860804E+03   -0.55614E-05   -0.82344E-05  4580   0.110E-02    0.130E-02
DAV:   3    -0.847165860742E+03    0.61482E-07   -0.11263E-06  3680   0.198E-03
  25 F= -.85495983E+03 E0= -.85495983E+03  d E =-.890431E-04  mag=     0.0000
       N       E                     dE             d eps       ncg     rms          rms(c)
DAV:   1    -0.847166010448E+03   -0.14964E-03   -0.76611E-03  4360   0.120E-01    0.223E-02
DAV:   2    -0.847166018814E+03   -0.83655E-05   -0.13038E-04  4540   0.138E-02    0.164E-02
DAV:   3    -0.847166018875E+03   -0.61038E-07   -0.18295E-06  3830   0.249E-03
  26 F= -.85495994E+03 E0= -.85495994E+03  d E =-.108696E-03  mag=     0.0000
       N       E                     dE             d eps       ncg     rms          rms(c)
DAV:   1    -0.847166202273E+03   -0.18346E-03   -0.11934E-02  4340   0.148E-01    0.279E-02
DAV:   2    -0.847166215456E+03   -0.13182E-04   -0.20164E-04  4540   0.170E-02    0.203E-02
DAV:   3    -0.847166215239E+03    0.21654E-06   -0.28021E-06  3940   0.304E-03
  27 F= -.85496008E+03 E0= -.85496008E+03  d E =-.136072E-03  mag=    -0.0000
       N       E                     dE             d eps       ncg     rms          rms(c)
DAV:   1    -0.847166434950E+03   -0.21949E-03   -0.18749E-02  4340   0.186E-01    0.350E-02
DAV:   2    -0.847166455464E+03   -0.20514E-04   -0.31853E-04  4460   0.213E-02    0.253E-02
DAV:   3    -0.847166455283E+03    0.18089E-06   -0.45532E-06  4180   0.385E-03
  28 F= -.85496024E+03 E0= -.85496024E+03  d E =-.164753E-03  mag=     0.0000
       N       E                     dE             d eps       ncg     rms          rms(c)
DAV:   1    -0.847166716737E+03   -0.26127E-03   -0.28216E-02  4360   0.227E-01    0.430E-02
DAV:   2    -0.847166745921E+03   -0.29183E-04   -0.47385E-04  4410   0.259E-02    0.312E-02
DAV:   3    -0.847166745699E+03    0.22131E-06   -0.67899E-06  4500   0.468E-03
  29 F= -.85496044E+03 E0= -.85496044E+03  d E =-.196234E-03  mag=     0.0000
       N       E                     dE             d eps       ncg     rms          rms(c)
DAV:   1    -0.847167054105E+03   -0.30818E-03   -0.43747E-02  4360   0.281E-01    0.530E-02
DAV:   2    -0.847167098401E+03   -0.44296E-04   -0.73596E-04  4430   0.322E-02    0.388E-02
DAV:   3    -0.847167096719E+03    0.16824E-05   -0.10502E-05  4680   0.572E-03    0.282E-02
DAV:   4    -0.847167119327E+03   -0.22608E-04   -0.25870E-05  4180   0.807E-03    0.511E-03
DAV:   5    -0.847167119142E+03    0.18416E-06   -0.45626E-06  4380   0.334E-03
  30 F= -.85496070E+03 E0= -.85496070E+03  d E =-.257567E-03  mag=     0.0000
       N       E                     dE             d eps       ncg     rms          rms(c)
DAV:   1    -0.847167450674E+03   -0.33135E-03   -0.60612E-02  4400   0.332E-01    0.612E-02
DAV:   2    -0.847167518542E+03   -0.67867E-04   -0.10677E-03  4470   0.392E-02    0.455E-02
DAV:   3    -0.847167512239E+03    0.63025E-05   -0.15537E-05  4980   0.718E-03    0.333E-02
DAV:   4    -0.847167541674E+03   -0.29435E-04   -0.45357E-05  4140   0.107E-02    0.759E-03
DAV:   5    -0.847167540657E+03    0.10175E-05   -0.89175E-06  4920   0.515E-03    0.429E-03
DAV:   6    -0.847167540779E+03   -0.12177E-06   -0.20065E-06  3860   0.215E-03
  31 F= -.85496098E+03 E0= -.85496098E+03  d E =-.285619E-03  mag=     0.0000
       N       E                     dE             d eps       ncg     rms          rms(c)
DAV:   1    -0.847167909633E+03   -0.36898E-03   -0.95845E-02  4400   0.409E-01    0.764E-02
DAV:   2    -0.847168021806E+03   -0.11217E-03   -0.17032E-03  4460   0.482E-02    0.562E-02
DAV:   3    -0.847168011934E+03    0.98715E-05   -0.23710E-05  5060   0.862E-03    0.412E-02
DAV:   4    -0.847168051558E+03   -0.39623E-04   -0.68671E-05  4240   0.128E-02    0.830E-03
DAV:   5    -0.847168050865E+03    0.69282E-06   -0.12145E-05  4900   0.553E-03    0.556E-03
DAV:   6    -0.847168050720E+03    0.14437E-06   -0.30806E-06  3840   0.279E-03
  32 F= -.85496132E+03 E0= -.85496132E+03  d E =-.339864E-03  mag=     0.0000
       N       E                     dE             d eps       ncg     rms          rms(c)
DAV:   1    -0.847168433162E+03   -0.38230E-03   -0.14618E-01  4380   0.503E-01    0.941E-02
DAV:   2    -0.847168618013E+03   -0.18485E-03   -0.26337E-03  4480   0.596E-02    0.686E-02
DAV:   3    -0.847168601795E+03    0.16219E-04   -0.37038E-05  5090   0.107E-02    0.502E-02
DAV:   4    -0.847168648398E+03   -0.46603E-04   -0.99540E-05  4420   0.157E-02    0.974E-03
DAV:   5    -0.847168648344E+03    0.53493E-07   -0.17687E-05  4940   0.663E-03    0.669E-03
DAV:   6    -0.847168648099E+03    0.24540E-06   -0.41358E-06  4160   0.337E-03
  33 F= -.85496171E+03 E0= -.85496171E+03  d E =-.392086E-03  mag=    -0.0000
       N       E                     dE             d eps       ncg     rms          rms(c)
DAV:   1    -0.847169026588E+03   -0.37824E-03   -0.18703E-01  4360   0.595E-01    0.106E-01
DAV:   2    -0.847169271902E+03   -0.24531E-03   -0.33365E-03  4480   0.717E-02    0.798E-02
DAV:   3    -0.847169248208E+03    0.23694E-04   -0.54826E-05  5160   0.135E-02    0.586E-02
DAV:   4    -0.847169299190E+03   -0.50982E-04   -0.14355E-04  4480   0.198E-02    0.137E-02
DAV:   5    -0.847169298157E+03    0.10324E-05   -0.27255E-05  4900   0.905E-03    0.815E-03
DAV:   6    -0.847169298575E+03   -0.41728E-06   -0.73019E-06  4340   0.425E-03
  34 F= -.85496213E+03 E0= -.85496213E+03  d E =-.417005E-03  mag=     0.0000
       N       E                     dE             d eps       ncg     rms          rms(c)
DAV:   1    -0.847169402506E+03   -0.10435E-03   -0.31725E-01  4320   0.810E-01    0.136E-01
DAV:   2    -0.847169858486E+03   -0.45598E-03   -0.60453E-03  4610   0.102E-01    0.102E-01
DAV:   3    -0.847169807348E+03    0.51138E-04   -0.11822E-04  5290   0.200E-02    0.751E-02
DAV:   4    -0.847169853277E+03   -0.45929E-04   -0.23063E-04  4500   0.273E-02    0.182E-02
DAV:   5    -0.847169860474E+03   -0.71973E-05   -0.44948E-05  4860   0.112E-02    0.111E-02
DAV:   6    -0.847169861045E+03   -0.57034E-06   -0.10221E-05  4740   0.545E-03    0.548E-03
DAV:   7    -0.847169861058E+03   -0.13802E-07   -0.11933E-06  3940   0.219E-03
  35 F= -.85496241E+03 E0= -.85496241E+03  d E =-.276905E-03  mag=     0.0000
       N       E                     dE             d eps       ncg     rms          rms(c)
DAV:   1    -0.847170176018E+03   -0.31497E-03   -0.13787E-02  4340   0.237E-01    0.269E-02
DAV:   2    -0.847170200191E+03   -0.24174E-04   -0.34948E-04  5240   0.345E-02    0.242E-02
DAV:   3    -0.847170192785E+03    0.74064E-05   -0.17485E-05  5960   0.771E-03    0.181E-02
DAV:   4    -0.847170186893E+03    0.58921E-05   -0.14568E-05  4440   0.804E-03    0.769E-03
DAV:   5    -0.847170186609E+03    0.28424E-06   -0.38717E-06  3580   0.354E-03
  36 F= -.85496273E+03 E0= -.85496273E+03  d E =-.323162E-03  mag=    -0.0000
       N       E                     dE             d eps       ncg     rms          rms(c)
DAV:   1    -0.847169988650E+03    0.19824E-03   -0.14115E-02  4340   0.240E-01    0.275E-02
DAV:   2    -0.847170013772E+03   -0.25121E-04   -0.35225E-04  5200   0.345E-02    0.243E-02
DAV:   3    -0.847170006644E+03    0.71279E-05   -0.17600E-05  5850   0.780E-03    0.180E-02
DAV:   4    -0.847170001777E+03    0.48664E-05   -0.15540E-05  4520   0.826E-03    0.757E-03
DAV:   5    -0.847170001613E+03    0.16394E-06   -0.37635E-06  3600   0.353E-03
  37 F= -.85496253E+03 E0= -.85496253E+03  d E =0.197238E-03  mag=     0.0000
       N       E                     dE             d eps       ncg     rms          rms(c)
DAV:   1    -0.847170105431E+03   -0.10365E-03   -0.69239E-04  4380   0.531E-02    0.615E-03
DAV:   2    -0.847170106585E+03   -0.11532E-05   -0.18685E-05  5240   0.792E-03    0.576E-03
DAV:   3    -0.847170106141E+03    0.44313E-06   -0.72529E-07  2500   0.176E-03
  38 F= -.85496264E+03 E0= -.85496264E+03  d E =-.102137E-03  mag=    -0.0000
       N       E                     dE             d eps       ncg     rms          rms(c)
DAV:   1    -0.847170224568E+03   -0.11798E-03   -0.20839E-03  4340   0.920E-02    0.114E-02
DAV:   2    -0.847170227854E+03   -0.32858E-05   -0.49277E-05  5380   0.129E-02    0.101E-02
DAV:   3    -0.847170226591E+03    0.12628E-05   -0.24959E-06  3660   0.314E-03    0.731E-03
DAV:   4    -0.847170225908E+03    0.68320E-06   -0.38627E-06  4140   0.396E-03
  39 F= -.85496275E+03 E0= -.85496275E+03  d E =-.114926E-03  mag=    -0.0000
       N       E                     dE             d eps       ncg     rms          rms(c)
DAV:   1    -0.847170264858E+03   -0.38267E-04   -0.30889E-03  4320   0.112E-01    0.136E-02
DAV:   2    -0.847170270151E+03   -0.52931E-05   -0.77544E-05  5180   0.162E-02    0.120E-02
DAV:   3    -0.847170268353E+03    0.17979E-05   -0.38361E-06  4580   0.377E-03    0.883E-03
DAV:   4    -0.847170267327E+03    0.10262E-05   -0.47923E-06  4060   0.443E-03    0.356E-03
DAV:   5    -0.847170267281E+03    0.46297E-07   -0.91489E-07  2700   0.182E-03
  40 F= -.85496278E+03 E0= -.85496278E+03  d E =-.337862E-04  mag=    -0.0000
       N       E                     dE             d eps       ncg     rms          rms(c)
DAV:   1    -0.847170269376E+03   -0.20484E-05   -0.22942E-06  3380   0.299E-03    0.832E-04
DAV:   2    -0.847170269383E+03   -0.73924E-08   -0.13660E-07  2310   0.734E-04
  41 F= -.85496279E+03 E0= -.85496279E+03  d E =-.162687E-05  mag=     0.0000
       N       E                     dE             d eps       ncg     rms          rms(c)
DAV:   1    -0.847170273294E+03   -0.39181E-05   -0.69966E-06  4180   0.498E-03    0.861E-04
DAV:   2    -0.847170273303E+03   -0.90731E-08   -0.16417E-07  2380   0.755E-04
  42 F= -.85496279E+03 E0= -.85496279E+03  d E =-.298587E-05  mag=     0.0000
       N       E                     dE             d eps       ncg     rms          rms(c)
DAV:   1    -0.847170278769E+03   -0.54753E-05   -0.14775E-05  4220   0.719E-03    0.127E-03
DAV:   2    -0.847170278782E+03   -0.13242E-07   -0.31349E-07  2300   0.103E-03
  43 F= -.85496279E+03 E0= -.85496279E+03  d E =-.408822E-05  mag=     0.0000
       N       E                     dE             d eps       ncg     rms          rms(c)
DAV:   1    -0.847170285351E+03   -0.65820E-05   -0.23985E-05  4320   0.900E-03    0.169E-03
DAV:   2    -0.847170285365E+03   -0.13664E-07   -0.46597E-07  2390   0.123E-03
  44 F= -.85496280E+03 E0= -.85496280E+03  d E =-.468977E-05  mag=     0.0000
       N       E                     dE             d eps       ncg     rms          rms(c)
DAV:   1    -0.847170293042E+03   -0.76904E-05   -0.33437E-05  4340   0.103E-02    0.203E-03
DAV:   2    -0.847170293055E+03   -0.12988E-07   -0.62017E-07  2690   0.137E-03
  45 F= -.85496280E+03 E0= -.85496280E+03  d E =-.533286E-05  mag=     0.0000
       N       E                     dE             d eps       ncg     rms          rms(c)
DAV:   1    -0.847170301437E+03   -0.83954E-05   -0.42584E-05  4340   0.113E-02    0.235E-03
DAV:   2    -0.847170301449E+03   -0.11984E-07   -0.77860E-07  3120   0.147E-03
  46 F= -.85496281E+03 E0= -.85496281E+03  d E =-.558708E-05  mag=     0.0000
       N       E                     dE             d eps       ncg     rms          rms(c)
DAV:   1    -0.847170311647E+03   -0.10210E-04   -0.63040E-05  4340   0.130E-02    0.280E-03
DAV:   2    -0.847170311664E+03   -0.16815E-07   -0.11112E-06  3160   0.165E-03
  47 F= -.85496281E+03 E0= -.85496281E+03  d E =-.659612E-05  mag=     0.0000
       N       E                     dE             d eps       ncg     rms          rms(c)
DAV:   1    -0.847170324415E+03   -0.12768E-04   -0.91437E-05  4320   0.146E-02    0.338E-03
DAV:   2    -0.847170324431E+03   -0.16058E-07   -0.15525E-06  3200   0.180E-03
  48 F= -.85496282E+03 E0= -.85496282E+03  d E =-.816674E-05  mag=     0.0000
       N       E                     dE             d eps       ncg     rms          rms(c)
DAV:   1    -0.847170340808E+03   -0.16393E-04   -0.13522E-04  4330   0.167E-02    0.409E-03
DAV:   2    -0.847170340816E+03   -0.83674E-08   -0.22287E-06  3340   0.198E-03
  49 F= -.85496283E+03 E0= -.85496283E+03  d E =-.106148E-04  mag=     0.0000
       N       E                     dE             d eps       ncg     rms          rms(c)
DAV:   1    -0.847170362004E+03   -0.21196E-04   -0.20710E-04  4320   0.201E-02    0.503E-03
DAV:   2    -0.847170362017E+03   -0.12915E-07   -0.33629E-06  3400   0.235E-03
  50 F= -.85496285E+03 E0= -.85496285E+03  d E =-.140418E-04  mag=     0.0000
       N       E                     dE             d eps       ncg     rms          rms(c)
DAV:   1    -0.847170388649E+03   -0.26645E-04   -0.32596E-04  4320   0.256E-02    0.626E-03
DAV:   2    -0.847170388679E+03   -0.29460E-07   -0.53485E-06  3450   0.301E-03
  51 F= -.85496287E+03 E0= -.85496287E+03  d E =-.178493E-04  mag=     0.0000
       N       E                     dE             d eps       ncg     rms          rms(c)
DAV:   1    -0.847170421464E+03   -0.32814E-04   -0.50483E-04  4340   0.323E-02    0.786E-03
DAV:   2    -0.847170421486E+03   -0.22206E-07   -0.84169E-06  3890   0.382E-03
  52 F= -.85496289E+03 E0= -.85496289E+03  d E =-.217339E-04  mag=     0.0000
       N       E                     dE             d eps       ncg     rms          rms(c)
DAV:   1    -0.847170461102E+03   -0.39638E-04   -0.75544E-04  4340   0.394E-02    0.976E-03
DAV:   2    -0.847170461054E+03    0.47577E-07   -0.12443E-05  4200   0.461E-03    0.763E-03
DAV:   3    -0.847170461635E+03   -0.58044E-06   -0.47610E-07  3220   0.135E-03
  53 F= -.85496291E+03 E0= -.85496291E+03  d E =-.262958E-04  mag=     0.0000
       N       E                     dE             d eps       ncg     rms          rms(c)
DAV:   1    -0.847170509795E+03   -0.48740E-04   -0.11043E-03  4340   0.466E-02    0.815E-03
DAV:   2    -0.847170510726E+03   -0.93111E-06   -0.18135E-05  4240   0.532E-03    0.592E-03
DAV:   3    -0.847170510768E+03   -0.41946E-07   -0.25876E-07  3500   0.959E-04
  54 F= -.85496295E+03 E0= -.85496295E+03  d E =-.319424E-04  mag=     0.0000
       N       E                     dE             d eps       ncg     rms          rms(c)
DAV:   1    -0.847170570088E+03   -0.59362E-04   -0.16452E-03  4340   0.563E-02    0.975E-03
DAV:   2    -0.847170571522E+03   -0.14338E-05   -0.27231E-05  4360   0.645E-03    0.710E-03
DAV:   3    -0.847170571515E+03    0.63374E-08   -0.37978E-07  3620   0.114E-03
  55 F= -.85496299E+03 E0= -.85496299E+03  d E =-.396073E-04  mag=     0.0000
       N       E                     dE             d eps       ncg     rms          rms(c)
DAV:   1    -0.847170644322E+03   -0.72800E-04   -0.24976E-03  4340   0.696E-02    0.121E-02
DAV:   2    -0.847170646434E+03   -0.21116E-05   -0.41366E-05  4400   0.799E-03    0.878E-03
DAV:   3    -0.847170646404E+03    0.29082E-07   -0.58993E-07  3720   0.142E-03
  56 F= -.85496303E+03 E0= -.85496303E+03  d E =-.493244E-04  mag=     0.0000
