<?xml version="1.0" encoding="ISO-8859-1"?>
<modeling>
 <generator>
  <i name="program" type="string">vasp </i>
  <i name="version" type="string">6.4.2  </i>
  <i name="subversion" type="string">20Jul23 (build Aug 26 2025 15:10:52) complex                          parallel </i>
  <i name="platform" type="string">LinuxIFC </i>
  <i name="date" type="string">2025 12 19 </i>
  <i name="time" type="string">05:36:37 </i>
 </generator>
 <incar>
  <i type="int" name="ISTART">     0</i>
  <i type="string" name="ALGO">Normal</i>
  <i type="logical" name="ADDGRID"> T  </i>
  <i type="int" name="ISPIN">     2</i>
  <i type="int" name="IMIX">     4</i>
  <i name="AMIX">      0.20000000</i>
  <i name="BMIX">      0.00010000</i>
  <i name="AMIX_MAG">      0.80000000</i>
  <i name="BMIX_MAG">      0.00010000</i>
  <i type="int" name="ICHARG">     2</i>
  <i type="int" name="NELM">   200</i>
  <i type="int" name="IBRION">     3</i>
  <i name="EDIFF">      0.00000100</i>
  <i name="EDIFFG">     -0.03000000</i>
  <i type="int" name="NSW">  1000</i>
  <i type="int" name="ISIF">     2</i>
  <i type="int" name="ISYM">     0</i>
  <i name="ENCUT">    520.00000000</i>
  <i name="POTIM">      0.00000000</i>
  <v name="MAGMOM">      0.60000000      0.60000000      0.60000000      0.60000000      0.60000000      0.60000000      0.60000000      0.60000000      0.60000000      0.60000000      0.60000000      0.60000000      0.60000000      0.60000000      0.60000000      0.60000000      0.60000000      0.60000000      0.60000000      0.60000000
      0.60000000      0.60000000      0.60000000      0.60000000      0.60000000      0.60000000      0.60000000      0.60000000      0.60000000      0.60000000      0.60000000      0.60000000      0.60000000      0.60000000      0.60000000      0.60000000      0.60000000      0.60000000      0.60000000      0.60000000
      0.60000000      0.60000000      0.60000000      0.60000000      0.60000000      0.60000000      0.60000000      0.60000000      0.60000000      0.60000000      0.60000000      0.60000000      0.60000000      0.60000000      0.60000000      0.60000000      0.60000000      0.60000000      0.60000000      0.60000000
      0.60000000      0.60000000      0.60000000      0.60000000      0.60000000      0.60000000      0.60000000      0.60000000      0.60000000      0.60000000      0.60000000      0.60000000      0.60000000      0.60000000      0.60000000      0.60000000      0.60000000      0.60000000      0.60000000      0.60000000
      0.60000000      0.60000000      0.60000000      0.60000000      0.60000000      0.60000000      0.60000000      0.60000000      0.60000000      0.60000000      0.60000000      0.60000000      0.60000000      0.60000000      0.60000000      0.60000000      0.60000000      0.60000000</v>
  <i type="string" name="LREAL">Auto</i>
  <i type="int" name="ISMEAR">     0</i>
  <i name="SIGMA">      0.05000000</i>
  <i type="logical" name="LWAVE"> F  </i>
  <i type="logical" name="LCHARG"> F  </i>
  <i type="logical" name="LASPH"> T  </i>
  <i type="int" name="IVDW">    12</i>
  <i name="SPRING">     -5.00000000</i>
 </incar>
 <primitive_cell>
  <structure name="primitive_cell" >
   <crystal>
    <varray name="basis" >
     <v>      17.27103806       0.00000000       0.00000000 </v>
     <v>      -8.63551903      14.95715771       0.00000000 </v>
     <v>       0.00000000       0.00000000      15.00000000 </v>
    </varray>
    <i name="volume">   3874.88459904 </i>
    <varray name="rec_basis" >
     <v>       0.05790040       0.03342881       0.00000000 </v>
     <v>       0.00000000       0.06685762       0.00000000 </v>
     <v>       0.00000000       0.00000000       0.06666667 </v>
    </varray>
   </crystal>
   <varray name="positions" >
    <v>       0.00084203       0.99977045       0.50088503 </v>
    <v>       0.00055595       0.14243743       0.49863958 </v>
    <v>       0.00083810       0.28552715       0.49750278 </v>
    <v>       0.00120743       0.42849251       0.49820415 </v>
    <v>       0.00158130       0.57143094       0.50043671 </v>
    <v>       0.00223006       0.71457329       0.50256788 </v>
    <v>       0.00185275       0.85759797       0.50273234 </v>
    <v>       0.14417508       0.00042631       0.50098765 </v>
    <v>       0.14376899       0.14310815       0.50035991 </v>
    <v>       0.14347876       0.28569253       0.49987311 </v>
    <v>       0.14410676       0.42917166       0.49911228 </v>
    <v>       0.14451478       0.57152437       0.49899436 </v>
    <v>       0.14457668       0.71434114       0.50014635 </v>
    <v>       0.14430006       0.85745131       0.50105146 </v>
    <v>       0.28676540       0.00004112       0.49892852 </v>
    <v>       0.28676919       0.14283937       0.50012490 </v>
    <v>       0.28708939       0.28735472       0.50223728 </v>
    <v>       0.28612029       0.42893734       0.50300713 </v>
    <v>       0.28907593       0.57233401       0.50025716 </v>
    <v>       0.28736218       0.71509192       0.49850189 </v>
    <v>       0.28656548       0.85760234       0.49835436 </v>
    <v>       0.42964842       0.99979651       0.49646102 </v>
    <v>       0.42955698       0.14238624       0.49771060 </v>
    <v>       0.42810988       0.28220173       0.49955593 </v>
    <v>       0.42874151       0.85668884       0.49654394 </v>
    <v>       0.57194536       0.99935277       0.49526026 </v>
    <v>       0.57243404       0.14216400       0.49604782 </v>
    <v>       0.57347866       0.28570046       0.49819444 </v>
    <v>       0.57098807       0.85528815       0.49711976 </v>
    <v>       0.71418327       0.99861869       0.49652404 </v>
    <v>       0.71519650       0.14221294       0.49560164 </v>
    <v>       0.71551228       0.28527238       0.49740926 </v>
    <v>       0.71519305       0.42748856       0.50105079 </v>
    <v>       0.71901218       0.57309319       0.50628078 </v>
    <v>       0.71860599       0.71468793       0.50686006 </v>
    <v>       0.71314691       0.85565751       0.50068394 </v>
    <v>       0.85747379       0.99923008       0.49905777 </v>
    <v>       0.85756375       0.14212885       0.49645726 </v>
    <v>       0.85808505       0.28521510       0.49676835 </v>
    <v>       0.85864800       0.42829159       0.49943993 </v>
    <v>       0.85914346       0.57170329       0.50283932 </v>
    <v>       0.86030857       0.71495335       0.50462448 </v>
    <v>       0.85823676       0.85664920       0.50269639 </v>
    <v>       0.04849420       0.09514418       0.49991930 </v>
    <v>       0.04800814       0.23761991       0.49843142 </v>
    <v>       0.04852685       0.38093931       0.49802338 </v>
    <v>       0.04921247       0.52382525       0.49909740 </v>
    <v>       0.04937879       0.66677919       0.50117886 </v>
    <v>       0.04921780       0.80975410       0.50244596 </v>
    <v>       0.04891518       0.95254158       0.50168520 </v>
    <v>       0.19153034       0.09533103       0.50062894 </v>
    <v>       0.19124808       0.23835744       0.50067579 </v>
    <v>       0.19057307       0.38085728       0.50042225 </v>
    <v>       0.19264200       0.52465112       0.49920903 </v>
    <v>       0.19206646       0.66689908       0.49925544 </v>
    <v>       0.19173170       0.80978132       0.49995481 </v>
    <v>       0.19179574       0.95260648       0.50046238 </v>
    <v>       0.33446326       0.09537392       0.49879702 </v>
    <v>       0.33517846       0.23811719       0.50080504 </v>
    <v>       0.33158250       0.38029269       0.50462366 </v>
    <v>       0.33303235       0.52353678       0.50313797 </v>
    <v>       0.33828629       0.67058300       0.49869914 </v>
    <v>       0.33403169       0.80988358       0.49760542 </v>
    <v>       0.33426256       0.95253145       0.49780661 </v>
    <v>       0.47725609       0.09476203       0.49649671 </v>
    <v>       0.47668554       0.23745307       0.49822820 </v>
    <v>       0.47336894       0.80611365       0.49689213 </v>
    <v>       0.47695065       0.95204951       0.49582887 </v>
    <v>       0.61976341       0.09449102       0.49544996 </v>
    <v>       0.62038378       0.23750427       0.49704987 </v>
    <v>       0.62230181       0.37896343       0.50010855 </v>
    <v>       0.61972687       0.81074375       0.49962916 </v>
    <v>       0.61878057       0.95094972       0.49601650 </v>
    <v>       0.76237417       0.09436700       0.49583002 </v>
    <v>       0.76302573       0.23742171       0.49642223 </v>
    <v>       0.76339454       0.38046848       0.49926642 </v>
    <v>       0.76337078       0.52472544       0.50363324 </v>
    <v>       0.76506551       0.66709806       0.50640366 </v>
    <v>       0.76220717       0.80738212       0.50362501 </v>
    <v>       0.76188858       0.95120471       0.49856696 </v>
    <v>       0.90509971       0.09430202       0.49781510 </v>
    <v>       0.90544453       0.23750332       0.49656139 </v>
    <v>       0.90589149       0.38074477       0.49800158 </v>
    <v>       0.90638857       0.52388471       0.50093076 </v>
    <v>       0.90704977       0.66684439       0.50365296 </v>
    <v>       0.90658291       0.80979170       0.50362278 </v>
    <v>       0.90550534       0.95177758       0.50084965 </v>
    <v>       0.46428422       0.35472615       0.49995471 </v>
    <v>       0.40418094       0.41938924       0.50672702 </v>
    <v>       0.40581717       0.55923421       0.50510514 </v>
    <v>       0.64599233       0.67545158       0.50932036 </v>
    <v>       0.64643863       0.53987442       0.50629663 </v>
    <v>       0.58645657       0.41562743       0.50120433 </v>
    <v>       0.58078357       0.73811527       0.50151083 </v>
    <v>       0.50856353       0.48981615       0.36828031 </v>
    <v>       0.53090407       0.58553306       0.39166218 </v>
    <v>       0.42832743       0.71562397       0.49764472 </v>
    <v>       0.52691281       0.53198411       0.41747030 </v>
   </varray>
  </structure>
  <varray name="primitive_index" >
   <v type="int" >        1 </v>
   <v type="int" >        2 </v>
   <v type="int" >        3 </v>
   <v type="int" >        4 </v>
   <v type="int" >        5 </v>
   <v type="int" >        6 </v>
   <v type="int" >        7 </v>
   <v type="int" >        8 </v>
   <v type="int" >        9 </v>
   <v type="int" >       10 </v>
   <v type="int" >       11 </v>
   <v type="int" >       12 </v>
   <v type="int" >       13 </v>
   <v type="int" >       14 </v>
   <v type="int" >       15 </v>
   <v type="int" >       16 </v>
   <v type="int" >       17 </v>
   <v type="int" >       18 </v>
   <v type="int" >       19 </v>
   <v type="int" >       20 </v>
   <v type="int" >       21 </v>
   <v type="int" >       22 </v>
   <v type="int" >       23 </v>
   <v type="int" >       24 </v>
   <v type="int" >       25 </v>
   <v type="int" >       26 </v>
   <v type="int" >       27 </v>
   <v type="int" >       28 </v>
   <v type="int" >       29 </v>
   <v type="int" >       30 </v>
   <v type="int" >       31 </v>
   <v type="int" >       32 </v>
   <v type="int" >       33 </v>
   <v type="int" >       34 </v>
   <v type="int" >       35 </v>
   <v type="int" >       36 </v>
   <v type="int" >       37 </v>
   <v type="int" >       38 </v>
   <v type="int" >       39 </v>
   <v type="int" >       40 </v>
   <v type="int" >       41 </v>
   <v type="int" >       42 </v>
   <v type="int" >       43 </v>
   <v type="int" >       44 </v>
   <v type="int" >       45 </v>
   <v type="int" >       46 </v>
   <v type="int" >       47 </v>
   <v type="int" >       48 </v>
   <v type="int" >       49 </v>
   <v type="int" >       50 </v>
   <v type="int" >       51 </v>
   <v type="int" >       52 </v>
   <v type="int" >       53 </v>
   <v type="int" >       54 </v>
   <v type="int" >       55 </v>
   <v type="int" >       56 </v>
   <v type="int" >       57 </v>
   <v type="int" >       58 </v>
   <v type="int" >       59 </v>
   <v type="int" >       60 </v>
   <v type="int" >       61 </v>
   <v type="int" >       62 </v>
   <v type="int" >       63 </v>
   <v type="int" >       64 </v>
   <v type="int" >       65 </v>
   <v type="int" >       66 </v>
   <v type="int" >       67 </v>
   <v type="int" >       68 </v>
   <v type="int" >       69 </v>
   <v type="int" >       70 </v>
   <v type="int" >       71 </v>
   <v type="int" >       72 </v>
   <v type="int" >       73 </v>
   <v type="int" >       74 </v>
   <v type="int" >       75 </v>
   <v type="int" >       76 </v>
   <v type="int" >       77 </v>
   <v type="int" >       78 </v>
   <v type="int" >       79 </v>
   <v type="int" >       80 </v>
   <v type="int" >       81 </v>
   <v type="int" >       82 </v>
   <v type="int" >       83 </v>
   <v type="int" >       84 </v>
   <v type="int" >       85 </v>
   <v type="int" >       86 </v>
   <v type="int" >       87 </v>
   <v type="int" >       88 </v>
   <v type="int" >       89 </v>
   <v type="int" >       90 </v>
   <v type="int" >       91 </v>
   <v type="int" >       92 </v>
   <v type="int" >       93 </v>
   <v type="int" >       94 </v>
   <v type="int" >       95 </v>
   <v type="int" >       96 </v>
   <v type="int" >       97 </v>
   <v type="int" >       98 </v>
  </varray>
 </primitive_cell>
 <kpoints>
  <generation param="Gamma">
   <v type="int" name="divisions">       2        2        1 </v>
   <v name="usershift">      0.00000000       0.00000000       0.00000000 </v>
   <v name="genvec1">      0.50000000       0.00000000       0.00000000 </v>
   <v name="genvec2">      0.00000000       0.50000000       0.00000000 </v>
   <v name="genvec3">      0.00000000       0.00000000       1.00000000 </v>
   <v name="shift">      0.00000000       0.00000000       0.00000000 </v>
  </generation>
  <varray name="kpointlist" >
   <v>       0.00000000       0.00000000       0.00000000 </v>
   <v>       0.50000000       0.00000000       0.00000000 </v>
   <v>       0.00000000       0.50000000       0.00000000 </v>
   <v>       0.50000000       0.50000000       0.00000000 </v>
  </varray>
  <varray name="weights" >
   <v>       0.25000000 </v>
   <v>       0.25000000 </v>
   <v>       0.25000000 </v>
   <v>       0.25000000 </v>
  </varray>
 </kpoints>
 <parameters>
  <separator name="general" >
   <i type="string" name="SYSTEM">unknown system</i>
   <i type="logical" name="LCOMPAT"> F  </i>
  </separator>
  <separator name="electronic" >
   <i type="string" name="PREC">normal</i>
   <i name="ENMAX">    520.00000000</i>
   <i name="ENAUG">    644.87300000</i>
   <i name="EDIFF">      0.00000100</i>
   <i type="int" name="IALGO">    38</i>
   <i type="int" name="IWAVPR">    11</i>
   <i type="int" name="NBANDS">   270</i>
   <i type="int" name="NBANDSLOW">    -1</i>
   <i type="int" name="NBANDSHIGH">    -1</i>
   <i name="NELECT">    368.00000000</i>
   <i type="int" name="TURBO">     0</i>
   <i type="int" name="IRESTART">     0</i>
   <i type="int" name="NREBOOT">     0</i>
   <i type="int" name="NMIN">     0</i>
   <i name="EREF">      0.00000000</i>
   <separator name="electronic smearing" >
    <i type="int" name="ISMEAR">     0</i>
    <i name="SIGMA">      0.05000000</i>
    <i name="KSPACING">      0.50000000</i>
    <i type="logical" name="KGAMMA"> T  </i>
    <i type="logical" name="KBLOWUP"> T  </i>
   </separator>
   <separator name="electronic projectors" >
    <i type="logical" name="LREAL"> T  </i>
    <v name="ROPT">     -0.00050000     -0.00050000     -0.00050000     -0.00050000</v>
    <i type="int" name="LMAXPAW">  -100</i>
    <i type="int" name="LMAXMIX">     2</i>
    <i type="logical" name="NLSPLINE"> F  </i>
   </separator>
   <separator name="electronic startup" >
    <i type="int" name="ISTART">     0</i>
    <i type="int" name="ICHARG">     2</i>
    <i type="int" name="INIWAV">     1</i>
   </separator>
   <separator name="electronic spin" >
    <i type="int" name="ISPIN">     2</i>
    <i type="logical" name="LNONCOLLINEAR"> F  </i>
    <v name="MAGMOM">      0.60000000      0.60000000      0.60000000      0.60000000      0.60000000      0.60000000      0.60000000      0.60000000      0.60000000      0.60000000      0.60000000      0.60000000      0.60000000      0.60000000      0.60000000      0.60000000      0.60000000      0.60000000      0.60000000      0.60000000
      0.60000000      0.60000000      0.60000000      0.60000000      0.60000000      0.60000000      0.60000000      0.60000000      0.60000000      0.60000000      0.60000000      0.60000000      0.60000000      0.60000000      0.60000000      0.60000000      0.60000000      0.60000000      0.60000000      0.60000000
      0.60000000      0.60000000      0.60000000      0.60000000      0.60000000      0.60000000      0.60000000      0.60000000      0.60000000      0.60000000      0.60000000      0.60000000      0.60000000      0.60000000      0.60000000      0.60000000      0.60000000      0.60000000      0.60000000      0.60000000
      0.60000000      0.60000000      0.60000000      0.60000000      0.60000000      0.60000000      0.60000000      0.60000000      0.60000000      0.60000000      0.60000000      0.60000000      0.60000000      0.60000000      0.60000000      0.60000000      0.60000000      0.60000000      0.60000000      0.60000000
      0.60000000      0.60000000      0.60000000      0.60000000      0.60000000      0.60000000      0.60000000      0.60000000      0.60000000      0.60000000      0.60000000      0.60000000      0.60000000      0.60000000      0.60000000      0.60000000      0.60000000      0.60000000</v>
    <i name="NUPDOWN">     -1.00000000</i>
    <i type="logical" name="LSORBIT"> F  </i>
    <v name="SAXIS">      0.00000000      0.00000000      1.00000000</v>
    <i type="logical" name="LSPIRAL"> F  </i>
    <v name="QSPIRAL">      0.00000000      0.00000000      0.00000000</v>
    <i type="logical" name="LZEROZ"> F  </i>
   </separator>
   <separator name="electronic exchange-correlation" >
    <i type="logical" name="LASPH"> T  </i>
    <i type="logical" name="LMETAGGA"> F  </i>
   </separator>
   <separator name="electronic convergence" >
    <i type="int" name="NELM">   200</i>
    <i type="int" name="NELMDL">    -5</i>
    <i type="int" name="NELMIN">     2</i>
    <i name="ENINI">    520.00000000</i>
    <separator name="electronic convergence detail" >
     <i type="logical" name="LDIAG"> T  </i>
     <i type="logical" name="LSUBROT"> F  </i>
     <i name="WEIMIN">      0.00100000</i>
     <i name="EBREAK">      0.00000000</i>
     <i name="DEPER">      0.30000000</i>
     <i type="int" name="NRMM">     4</i>
     <i name="TIME">      0.40000000</i>
    </separator>
   </separator>
   <separator name="electronic mixer" >
    <i name="AMIX">      0.20000000</i>
    <i name="BMIX">      0.00010000</i>
    <i name="AMIN">      0.10000000</i>
    <i name="AMIX_MAG">      0.80000000</i>
    <i name="BMIX_MAG">      0.00010000</i>
    <separator name="electronic mixer details" >
     <i type="int" name="IMIX">     4</i>
     <i type="logical" name="MIXFIRST"> F  </i>
     <i type="int" name="MAXMIX">   -45</i>
     <i name="WC">    100.00000000</i>
     <i type="int" name="INIMIX">     1</i>
     <i type="int" name="MIXPRE">     1</i>
     <i type="int" name="MREMOVE">     5</i>
    </separator>
   </separator>
   <separator name="electronic dipolcorrection" >
    <i type="logical" name="LDIPOL"> F  </i>
    <i type="logical" name="LMONO"> F  </i>
    <i type="int" name="IDIPOL">     0</i>
    <i name="EPSILON">      1.00000000</i>
    <v name="DIPOL">   -100.00000000   -100.00000000   -100.00000000</v>
    <i name="EFIELD">      0.00000000</i>
   </separator>
  </separator>
  <separator name="grids" >
   <i type="int" name="NGX">    96</i>
   <i type="int" name="NGY">    96</i>
   <i type="int" name="NGZ">    84</i>
   <i type="int" name="NGXF">   192</i>
   <i type="int" name="NGYF">   192</i>
   <i type="int" name="NGZF">   168</i>
   <i type="logical" name="ADDGRID"> T  </i>
  </separator>
  <separator name="ionic" >
   <i type="int" name="NSW">  1000</i>
   <i type="int" name="IBRION">     3</i>
   <i type="int" name="MDALGO">     0</i>
   <i type="int" name="ISIF">     2</i>
   <i name="PSTRESS">      0.00000000</i>
   <i name="EDIFFG">     -0.03000000</i>
   <i type="int" name="NFREE">     0</i>
   <i name="POTIM">      0.00000000</i>
   <i name="SMASS">     -3.00000000</i>
   <i name="SCALEE">      1.00000000</i>
  </separator>
  <separator name="ionic md" >
   <i name="TEBEG">      0.00010000</i>
   <i name="TEEND">      0.00010000</i>
   <i type="int" name="NBLOCK">     1</i>
   <i type="int" name="KBLOCK">  1000</i>
   <i type="int" name="NPACO">   256</i>
   <i name="APACO">     10.00000000</i>
  </separator>
  <separator name="symmetry" >
   <i type="int" name="ISYM">     0</i>
   <i name="SYMPREC">      0.00001000</i>
  </separator>
  <separator name="dos" >
   <i type="int" name="LORBIT">     0</i>
   <v name="RWIGS">     -1.00000000     -1.00000000     -1.00000000     -1.00000000</v>
   <i type="int" name="NEDOS">   301</i>
   <i name="EMIN">     10.00000000</i>
   <i name="EMAX">    -10.00000000</i>
   <i name="EFERMI">      0.00000000</i>
  </separator>
  <separator name="writing" >
   <i type="int" name="NWRITE">     2</i>
   <i type="logical" name="LWAVE"> F  </i>
   <i type="logical" name="LDOWNSAMPLE"> F  </i>
   <i type="logical" name="LCHARG"> F  </i>
   <i type="logical" name="LPARD"> F  </i>
   <i type="logical" name="LVTOT"> F  </i>
   <i type="logical" name="LVHAR"> F  </i>
   <i type="logical" name="LELF"> F  </i>
   <i type="logical" name="LOPTICS"> F  </i>
   <v name="STM">      0.00000000      0.00000000      0.00000000      0.00000000      0.00000000      0.00000000      0.00000000</v>
  </separator>
  <separator name="performance" >
   <i type="int" name="NPAR">    10</i>
   <i type="int" name="NSIM">     4</i>
   <i type="int" name="NBLK">    -1</i>
   <i type="logical" name="LPLANE"> T  </i>
   <i type="logical" name="LSCALAPACK"> T  </i>
   <i type="logical" name="LSCAAWARE"> F  </i>
   <i type="logical" name="LSCALU"> F  </i>
   <i type="logical" name="LASYNC"> F  </i>
   <i type="logical" name="LORBITALREAL"> F  </i>
  </separator>
  <separator name="miscellaneous" >
   <i type="int" name="IDIOT">     3</i>
   <i type="int" name="PHON_NSTRUCT">    -1</i>
   <i type="logical" name="LMUSIC"> F  </i>
   <v name="POMASS">     12.01100000      1.00000000     14.00100000     16.00000000</v>
   <v name="DARWINR">      0.00000000      0.00000000      0.00000000      0.00000000</v>
   <v name="DARWINV">      1.00000000      1.00000000      1.00000000      1.00000000</v>
   <i type="logical" name="LCORR"> T  </i>
  </separator>
  <i type="logical" name="GGA_COMPAT"> T  </i>
  <i type="logical" name="LBERRY"> F  </i>
  <i type="int" name="ICORELEVEL">     0</i>
  <i type="logical" name="LDAU"> F  </i>
  <i type="int" name="I_CONSTRAINED_M">     0</i>
  <separator name="electronic exchange-correlation" >
   <i type="string" name="GGA">--</i>
   <i type="int" name="VOSKOWN">     0</i>
   <i type="logical" name="LHFCALC"> F  </i>
   <i type="string" name="PRECFOCK"></i>
   <i type="logical" name="LSYMGRAD"> F  </i>
   <i type="logical" name="LHFONE"> F  </i>
   <i type="logical" name="LRHFCALC"> F  </i>
   <i type="logical" name="LTHOMAS"> F  </i>
   <i type="logical" name="LMODELHF"> F  </i>
   <i type="logical" name="LFOCKACE"> F  </i>
   <i name="ENCUT4O">     -1.00000000</i>
   <i type="int" name="EXXOEP">     0</i>
   <i type="int" name="FOURORBIT">     0</i>
   <i name="AEXX">      0.00000000</i>
   <i name="HFALPHA">      0.00000000</i>
   <i name="MCALPHA">      0.00000000</i>
   <i name="ALDAX">      1.00000000</i>
   <i name="AGGAX">      1.00000000</i>
   <i name="ALDAC">      1.00000000</i>
   <i name="AGGAC">      1.00000000</i>
   <i type="int" name="NKREDX">     1</i>
   <i type="int" name="NKREDY">     1</i>
   <i type="int" name="NKREDZ">     1</i>
   <i type="logical" name="SHIFTRED"> F  </i>
   <i type="logical" name="ODDONLY"> F  </i>
   <i type="logical" name="EVENONLY"> F  </i>
   <i type="int" name="LMAXFOCK">     0</i>
   <i type="int" name="NMAXFOCKAE">     0</i>
   <i type="logical" name="LFOCKAEDFT"> F  </i>
   <i name="HFSCREEN">      0.00000000</i>
   <i name="HFSCREENC">      0.00000000</i>
   <i type="int" name="NBANDSGWLOW">     0</i>
  </separator>
  <separator name="vdW DFT" >
   <i type="logical" name="LUSE_VDW"> F  </i>
   <i type="int" name="IVDW_NL">     1</i>
   <i type="logical" name="LSPIN_VDW"> F  </i>
   <i name="Zab_VDW">     -0.84910000</i>
   <i name="PARAM1">      0.12340000</i>
   <i name="PARAM2">      1.00000000</i>
   <i name="PARAM3">      0.00000000</i>
  </separator>
  <separator name="model GW" >
   <i type="int" name="MODEL_GW">     0</i>
   <i name="MODEL_EPS0">     23.72378326</i>
   <i name="MODEL_ALPHA">      1.00000000</i>
  </separator>
  <separator name="linear response parameters" >
   <i type="logical" name="LEPSILON"> F  </i>
   <i type="logical" name="LRPA"> F  </i>
   <i type="logical" name="LNABLA"> F  </i>
   <i type="logical" name="LVEL"> F  </i>
   <i name="CSHIFT">      0.10000000</i>
   <i name="OMEGAMAX">     -1.00000000</i>
   <i name="DEG_THRESHOLD">      0.00200000</i>
   <i name="RTIME">     -0.10000000</i>
   <i name="WPLASMAI">      0.00000000</i>
   <v name="DFIELD">      0.00000000      0.00000000      0.00000000</v>
   <v name="WPLASMA">      0.00000000      0.00000000      0.00000000      0.00000000      0.00000000      0.00000000      0.00000000      0.00000000      0.00000000</v>
  </separator>
  <separator name="orbital magnetization" >
   <i type="logical" name="NUCIND"> F  </i>
   <v name="MAGPOS">      0.00000000      0.00000000      0.00000000</v>
   <i type="logical" name="LNICSALL"> T  </i>
   <i type="logical" name="ORBITALMAG"> F  </i>
   <i type="logical" name="LMAGBLOCH"> F  </i>
   <i type="logical" name="LCHIMAG"> F  </i>
   <i type="logical" name="LGAUGE"> T  </i>
   <i type="int" name="MAGATOM">     0</i>
   <v name="MAGDIPOL">      0.00000000      0.00000000      0.00000000</v>
   <v name="AVECCONST">      0.00000000      0.00000000      0.00000000</v>
  </separator>
  <separator name="response functions" >
   <i type="logical" name="LALL_IN_ONE"> F  </i>
   <i type="int" name="IALL_IN_ONE">    -1</i>
   <i type="int" name="NBANDS_WAVE">    -1</i>
   <i type="logical" name="LFINITE_TEMPERATURE"> F  </i>
   <i type="logical" name="LADDER"> F  </i>
   <i type="logical" name="LRPAFORCE"> F  </i>
   <i type="logical" name="LFXC"> F  </i>
   <i type="logical" name="LHARTREE"> T  </i>
   <i type="int" name="IBSE">     0</i>
   <v type="int" name="KPOINT">    -1     0     0     0</v>
   <i type="logical" name="LTCTC"> F  </i>
   <i type="logical" name="LTCTE"> F  </i>
   <i type="logical" name="LTETE"> F  </i>
   <i type="logical" name="LTRIPLET"> F  </i>
   <i type="logical" name="LFXCEPS"> F  </i>
   <i type="logical" name="LFXHEG"> F  </i>
   <i type="int" name="NATURALO">     2</i>
   <i type="logical" name="LHOLEGF"> F  </i>
   <i type="logical" name="L2ORDER"> F  </i>
   <i type="logical" name="LDMP1"> F  </i>
   <i type="logical" name="LMP2LT"> F  </i>
   <i type="logical" name="LSMP2LT"> F  </i>
   <i type="logical" name="LGWLF"> F  </i>
   <i name="ENCUTGW">     -1.60000002</i>
   <i name="ENCUTGWSOFT">     -1.60000002</i>
   <i name="ENCUTLF">     -1.00000000</i>
   <i type="logical" name="LESF_SPLINES"> F  </i>
   <i type="int" name="LMAXMP2">    -1</i>
   <i name="SCISSOR">      0.00000000</i>
   <i type="int" name="NOMEGA">     0</i>
   <i type="int" name="NOMEGAR">     0</i>
   <i type="int" name="NBANDSGW">    -1</i>
   <i type="int" name="NBANDSO">    -1</i>
   <i type="int" name="NBANDSV">    -1</i>
   <i type="int" name="NELMGW">     1</i>
   <i type="int" name="NELMHF">     1</i>
   <i type="int" name="DIM">     3</i>
   <i type="int" name="IESPILON">     4</i>
   <i type="int" name="ANTIRES">     0</i>
   <i name="OMEGAMAX">    -30.00000000</i>
   <i name="OMEGAMIN">    -30.00000000</i>
   <i name="OMEGATL">   -200.00000000</i>
   <i type="int" name="OMEGAGRID">     0</i>
   <i name="CSHIFT">     -0.10000000</i>
   <i type="logical" name="LSELFENERGY"> F  </i>
   <i type="logical" name="LSPECTRAL"> F  </i>
   <i type="logical" name="LSPECTRALGW"> F  </i>
   <i type="logical" name="LSINGLES"> F  </i>
   <i type="logical" name="LFERMIGW"> F  </i>
   <i type="logical" name="ODDONLYGW"> F  </i>
   <i type="logical" name="EVENONLYGW"> F  </i>
   <i type="int" name="NKREDLFX">     1</i>
   <i type="int" name="NKREDLFY">     1</i>
   <i type="int" name="NKREDLFZ">     1</i>
   <i type="int" name="MAXMEM">  2800</i>
   <i type="int" name="TELESCOPE">     0</i>
   <i type="int" name="NTAUPAR">    -1</i>
   <i type="int" name="NOMEGAPAR">    -1</i>
   <i name="DAMP_NEWTON">      0.80000001</i>
   <i name="LAMBDA">      1.00000000</i>
  </separator>
  <separator name="External order field" >
   <i name="OFIELD_KAPPA">      0.00000000</i>
   <v name="OFIELD_K">      0.00000000      0.00000000      0.00000000</v>
   <i name="OFIELD_Q6_NEAR">      0.00000000</i>
   <i name="OFIELD_Q6_FAR">      0.00000000</i>
   <i name="OFIELD_A">      0.00000000</i>
  </separator>
  <separator name="optional k-points parameters" >
   <i type="int" name="KPOINTS_OPT_MODE">     1</i>
   <i type="logical" name="LKPOINTS_OPT"> F  </i>
  </separator>
 </parameters>
 <atominfo>
  <atoms>      98 </atoms>
  <types>       4 </types>
  <array name="atoms" >
   <dimension dim="1">ion</dimension>
   <field type="string">element</field>
   <field type="int">atomtype</field>
   <set>
    <rc><c>C </c><c>   1</c></rc>
    <rc><c>C </c><c>   1</c></rc>
    <rc><c>C </c><c>   1</c></rc>
    <rc><c>C </c><c>   1</c></rc>
    <rc><c>C </c><c>   1</c></rc>
    <rc><c>C </c><c>   1</c></rc>
    <rc><c>C </c><c>   1</c></rc>
    <rc><c>C </c><c>   1</c></rc>
    <rc><c>C </c><c>   1</c></rc>
    <rc><c>C </c><c>   1</c></rc>
    <rc><c>C </c><c>   1</c></rc>
    <rc><c>C </c><c>   1</c></rc>
    <rc><c>C </c><c>   1</c></rc>
    <rc><c>C </c><c>   1</c></rc>
    <rc><c>C </c><c>   1</c></rc>
    <rc><c>C </c><c>   1</c></rc>
    <rc><c>C </c><c>   1</c></rc>
    <rc><c>C </c><c>   1</c></rc>
    <rc><c>C </c><c>   1</c></rc>
    <rc><c>C </c><c>   1</c></rc>
    <rc><c>C </c><c>   1</c></rc>
    <rc><c>C </c><c>   1</c></rc>
    <rc><c>C </c><c>   1</c></rc>
    <rc><c>C </c><c>   1</c></rc>
    <rc><c>C </c><c>   1</c></rc>
    <rc><c>C </c><c>   1</c></rc>
    <rc><c>C </c><c>   1</c></rc>
    <rc><c>C </c><c>   1</c></rc>
    <rc><c>C </c><c>   1</c></rc>
    <rc><c>C </c><c>   1</c></rc>
    <rc><c>C </c><c>   1</c></rc>
    <rc><c>C </c><c>   1</c></rc>
    <rc><c>C </c><c>   1</c></rc>
    <rc><c>C </c><c>   1</c></rc>
    <rc><c>C </c><c>   1</c></rc>
    <rc><c>C </c><c>   1</c></rc>
    <rc><c>C </c><c>   1</c></rc>
    <rc><c>C </c><c>   1</c></rc>
    <rc><c>C </c><c>   1</c></rc>
    <rc><c>C </c><c>   1</c></rc>
    <rc><c>C </c><c>   1</c></rc>
    <rc><c>C </c><c>   1</c></rc>
    <rc><c>C </c><c>   1</c></rc>
    <rc><c>C </c><c>   1</c></rc>
    <rc><c>C </c><c>   1</c></rc>
    <rc><c>C </c><c>   1</c></rc>
    <rc><c>C </c><c>   1</c></rc>
    <rc><c>C </c><c>   1</c></rc>
    <rc><c>C </c><c>   1</c></rc>
    <rc><c>C </c><c>   1</c></rc>
    <rc><c>C </c><c>   1</c></rc>
    <rc><c>C </c><c>   1</c></rc>
    <rc><c>C </c><c>   1</c></rc>
    <rc><c>C </c><c>   1</c></rc>
    <rc><c>C </c><c>   1</c></rc>
    <rc><c>C </c><c>   1</c></rc>
    <rc><c>C </c><c>   1</c></rc>
    <rc><c>C </c><c>   1</c></rc>
    <rc><c>C </c><c>   1</c></rc>
    <rc><c>C </c><c>   1</c></rc>
    <rc><c>C </c><c>   1</c></rc>
    <rc><c>C </c><c>   1</c></rc>
    <rc><c>C </c><c>   1</c></rc>
    <rc><c>C </c><c>   1</c></rc>
    <rc><c>C </c><c>   1</c></rc>
    <rc><c>C </c><c>   1</c></rc>
    <rc><c>C </c><c>   1</c></rc>
    <rc><c>C </c><c>   1</c></rc>
    <rc><c>C </c><c>   1</c></rc>
    <rc><c>C </c><c>   1</c></rc>
    <rc><c>C </c><c>   1</c></rc>
    <rc><c>C </c><c>   1</c></rc>
    <rc><c>C </c><c>   1</c></rc>
    <rc><c>C </c><c>   1</c></rc>
    <rc><c>C </c><c>   1</c></rc>
    <rc><c>C </c><c>   1</c></rc>
    <rc><c>C </c><c>   1</c></rc>
    <rc><c>C </c><c>   1</c></rc>
    <rc><c>C </c><c>   1</c></rc>
    <rc><c>C </c><c>   1</c></rc>
    <rc><c>C </c><c>   1</c></rc>
    <rc><c>C </c><c>   1</c></rc>
    <rc><c>C </c><c>   1</c></rc>
    <rc><c>C </c><c>   1</c></rc>
    <rc><c>C </c><c>   1</c></rc>
    <rc><c>C </c><c>   1</c></rc>
    <rc><c>C </c><c>   1</c></rc>
    <rc><c>H </c><c>   2</c></rc>
    <rc><c>H </c><c>   2</c></rc>
    <rc><c>H </c><c>   2</c></rc>
    <rc><c>H </c><c>   2</c></rc>
    <rc><c>H </c><c>   2</c></rc>
    <rc><c>H </c><c>   2</c></rc>
    <rc><c>H </c><c>   2</c></rc>
    <rc><c>H </c><c>   2</c></rc>
    <rc><c>H </c><c>   2</c></rc>
    <rc><c>N </c><c>   3</c></rc>
    <rc><c>O </c><c>   4</c></rc>
   </set>
  </array>
  <array name="atomtypes" >
   <dimension dim="1">type</dimension>
   <field type="int">atomspertype</field>
   <field type="string">element</field>
   <field>mass</field>
   <field>valence</field>
   <field type="string">pseudopotential</field>
   <set>
    <rc><c>  87</c><c>C </c><c>     12.01100000</c><c>      4.00000000</c><c>  PAW_PBE C 08Apr2002                   </c></rc>
    <rc><c>   9</c><c>H </c><c>      1.00000000</c><c>      1.00000000</c><c>  PAW_PBE H 15Jun2001                   </c></rc>
    <rc><c>   1</c><c>N </c><c>     14.00100000</c><c>      5.00000000</c><c>  PAW_PBE N 08Apr2002                   </c></rc>
    <rc><c>   1</c><c>O </c><c>     16.00000000</c><c>      6.00000000</c><c>  PAW_PBE O 08Apr2002                   </c></rc>
   </set>
  </array>
 </atominfo>
 <structure name="initialpos" >
  <crystal>
   <varray name="basis" >
    <v>      17.27103806       0.00000000       0.00000000 </v>
    <v>      -8.63551903      14.95715771       0.00000000 </v>
    <v>       0.00000000       0.00000000      15.00000000 </v>
   </varray>
   <i name="volume">   3874.88459904 </i>
   <varray name="rec_basis" >
    <v>       0.05790040       0.03342881       0.00000000 </v>
    <v>       0.00000000       0.06685762       0.00000000 </v>
    <v>       0.00000000       0.00000000       0.06666667 </v>
   </varray>
  </crystal>
  <varray name="positions" >
   <v>       0.00084203       0.99977045       0.50088503 </v>
   <v>       0.00055595       0.14243743       0.49863958 </v>
   <v>       0.00083810       0.28552715       0.49750278 </v>
   <v>       0.00120743       0.42849251       0.49820415 </v>
   <v>       0.00158130       0.57143094       0.50043671 </v>
   <v>       0.00223006       0.71457329       0.50256788 </v>
   <v>       0.00185275       0.85759797       0.50273234 </v>
   <v>       0.14417508       0.00042631       0.50098765 </v>
   <v>       0.14376899       0.14310815       0.50035991 </v>
   <v>       0.14347876       0.28569253       0.49987311 </v>
   <v>       0.14410676       0.42917166       0.49911228 </v>
   <v>       0.14451478       0.57152437       0.49899436 </v>
   <v>       0.14457668       0.71434114       0.50014635 </v>
   <v>       0.14430006       0.85745131       0.50105146 </v>
   <v>       0.28676540       0.00004112       0.49892852 </v>
   <v>       0.28676919       0.14283937       0.50012490 </v>
   <v>       0.28708939       0.28735472       0.50223728 </v>
   <v>       0.28612029       0.42893734       0.50300713 </v>
   <v>       0.28907593       0.57233401       0.50025716 </v>
   <v>       0.28736218       0.71509192       0.49850189 </v>
   <v>       0.28656548       0.85760234       0.49835436 </v>
   <v>       0.42964842       0.99979651       0.49646102 </v>
   <v>       0.42955698       0.14238624       0.49771060 </v>
   <v>       0.42810988       0.28220173       0.49955593 </v>
   <v>       0.42874151       0.85668884       0.49654394 </v>
   <v>       0.57194536       0.99935277       0.49526026 </v>
   <v>       0.57243404       0.14216400       0.49604782 </v>
   <v>       0.57347866       0.28570046       0.49819444 </v>
   <v>       0.57098807       0.85528815       0.49711976 </v>
   <v>       0.71418327       0.99861869       0.49652404 </v>
   <v>       0.71519650       0.14221294       0.49560164 </v>
   <v>       0.71551228       0.28527238       0.49740926 </v>
   <v>       0.71519305       0.42748856       0.50105079 </v>
   <v>       0.71901218       0.57309319       0.50628078 </v>
   <v>       0.71860599       0.71468793       0.50686006 </v>
   <v>       0.71314691       0.85565751       0.50068394 </v>
   <v>       0.85747379       0.99923008       0.49905777 </v>
   <v>       0.85756375       0.14212885       0.49645726 </v>
   <v>       0.85808505       0.28521510       0.49676835 </v>
   <v>       0.85864800       0.42829159       0.49943993 </v>
   <v>       0.85914346       0.57170329       0.50283932 </v>
   <v>       0.86030857       0.71495335       0.50462448 </v>
   <v>       0.85823676       0.85664920       0.50269639 </v>
   <v>       0.04849420       0.09514418       0.49991930 </v>
   <v>       0.04800814       0.23761991       0.49843142 </v>
   <v>       0.04852685       0.38093931       0.49802338 </v>
   <v>       0.04921247       0.52382525       0.49909740 </v>
   <v>       0.04937879       0.66677919       0.50117886 </v>
   <v>       0.04921780       0.80975410       0.50244596 </v>
   <v>       0.04891518       0.95254158       0.50168520 </v>
   <v>       0.19153034       0.09533103       0.50062894 </v>
   <v>       0.19124808       0.23835744       0.50067579 </v>
   <v>       0.19057307       0.38085728       0.50042225 </v>
   <v>       0.19264200       0.52465112       0.49920903 </v>
   <v>       0.19206646       0.66689908       0.49925544 </v>
   <v>       0.19173170       0.80978132       0.49995481 </v>
   <v>       0.19179574       0.95260648       0.50046238 </v>
   <v>       0.33446326       0.09537392       0.49879702 </v>
   <v>       0.33517846       0.23811719       0.50080504 </v>
   <v>       0.33158250       0.38029269       0.50462366 </v>
   <v>       0.33303235       0.52353678       0.50313797 </v>
   <v>       0.33828629       0.67058300       0.49869914 </v>
   <v>       0.33403169       0.80988358       0.49760542 </v>
   <v>       0.33426256       0.95253145       0.49780661 </v>
   <v>       0.47725609       0.09476203       0.49649671 </v>
   <v>       0.47668554       0.23745307       0.49822820 </v>
   <v>       0.47336894       0.80611365       0.49689213 </v>
   <v>       0.47695065       0.95204951       0.49582887 </v>
   <v>       0.61976341       0.09449102       0.49544996 </v>
   <v>       0.62038378       0.23750427       0.49704987 </v>
   <v>       0.62230181       0.37896343       0.50010855 </v>
   <v>       0.61972687       0.81074375       0.49962916 </v>
   <v>       0.61878057       0.95094972       0.49601650 </v>
   <v>       0.76237417       0.09436700       0.49583002 </v>
   <v>       0.76302573       0.23742171       0.49642223 </v>
   <v>       0.76339454       0.38046848       0.49926642 </v>
   <v>       0.76337078       0.52472544       0.50363324 </v>
   <v>       0.76506551       0.66709806       0.50640366 </v>
   <v>       0.76220717       0.80738212       0.50362501 </v>
   <v>       0.76188858       0.95120471       0.49856696 </v>
   <v>       0.90509971       0.09430202       0.49781510 </v>
   <v>       0.90544453       0.23750332       0.49656139 </v>
   <v>       0.90589149       0.38074477       0.49800158 </v>
   <v>       0.90638857       0.52388471       0.50093076 </v>
   <v>       0.90704977       0.66684439       0.50365296 </v>
   <v>       0.90658291       0.80979170       0.50362278 </v>
   <v>       0.90550534       0.95177758       0.50084965 </v>
   <v>       0.46428422       0.35472615       0.49995471 </v>
   <v>       0.40418094       0.41938924       0.50672702 </v>
   <v>       0.40581717       0.55923421       0.50510514 </v>
   <v>       0.64599233       0.67545158       0.50932036 </v>
   <v>       0.64643863       0.53987442       0.50629663 </v>
   <v>       0.58645657       0.41562743       0.50120433 </v>
   <v>       0.58078357       0.73811527       0.50151083 </v>
   <v>       0.50856353       0.48981615       0.36828031 </v>
   <v>       0.53090407       0.58553306       0.39166218 </v>
   <v>       0.42832743       0.71562397       0.49764472 </v>
   <v>       0.52691281       0.53198411       0.41747030 </v>
  </varray>
  <varray name="selective"  type="logical" >
   <v type="logical" >  T  T  T </v>
   <v type="logical" >  T  T  T </v>
   <v type="logical" >  T  T  T </v>
   <v type="logical" >  T  T  T </v>
   <v type="logical" >  T  T  T </v>
   <v type="logical" >  T  T  T </v>
   <v type="logical" >  T  T  T </v>
   <v type="logical" >  T  T  T </v>
   <v type="logical" >  T  T  T </v>
   <v type="logical" >  T  T  T </v>
   <v type="logical" >  T  T  T </v>
   <v type="logical" >  T  T  T </v>
   <v type="logical" >  T  T  T </v>
   <v type="logical" >  T  T  T </v>
   <v type="logical" >  T  T  T </v>
   <v type="logical" >  T  T  T </v>
   <v type="logical" >  T  T  T </v>
   <v type="logical" >  T  T  T </v>
   <v type="logical" >  T  T  T </v>
   <v type="logical" >  T  T  T </v>
   <v type="logical" >  T  T  T </v>
   <v type="logical" >  T  T  T </v>
   <v type="logical" >  T  T  T </v>
   <v type="logical" >  T  T  T </v>
   <v type="logical" >  T  T  T </v>
   <v type="logical" >  T  T  T </v>
   <v type="logical" >  T  T  T </v>
   <v type="logical" >  T  T  T </v>
   <v type="logical" >  T  T  T </v>
   <v type="logical" >  T  T  T </v>
   <v type="logical" >  T  T  T </v>
   <v type="logical" >  T  T  T </v>
   <v type="logical" >  T  T  T </v>
   <v type="logical" >  T  T  T </v>
   <v type="logical" >  T  T  T </v>
   <v type="logical" >  T  T  T </v>
   <v type="logical" >  T  T  T </v>
   <v type="logical" >  T  T  T </v>
   <v type="logical" >  T  T  T </v>
   <v type="logical" >  T  T  T </v>
   <v type="logical" >  T  T  T </v>
   <v type="logical" >  T  T  T </v>
   <v type="logical" >  T  T  T </v>
   <v type="logical" >  T  T  T </v>
   <v type="logical" >  T  T  T </v>
   <v type="logical" >  T  T  T </v>
   <v type="logical" >  T  T  T </v>
   <v type="logical" >  T  T  T </v>
   <v type="logical" >  T  T  T </v>
   <v type="logical" >  T  T  T </v>
   <v type="logical" >  T  T  T </v>
   <v type="logical" >  T  T  T </v>
   <v type="logical" >  T  T  T </v>
   <v type="logical" >  T  T  T </v>
   <v type="logical" >  T  T  T </v>
   <v type="logical" >  T  T  T </v>
   <v type="logical" >  T  T  T </v>
   <v type="logical" >  T  T  T </v>
   <v type="logical" >  T  T  T </v>
   <v type="logical" >  T  T  T </v>
   <v type="logical" >  T  T  T </v>
   <v type="logical" >  T  T  T </v>
   <v type="logical" >  T  T  T </v>
   <v type="logical" >  T  T  T </v>
   <v type="logical" >  T  T  T </v>
   <v type="logical" >  T  T  T </v>
   <v type="logical" >  T  T  T </v>
   <v type="logical" >  T  T  T </v>
   <v type="logical" >  T  T  T </v>
   <v type="logical" >  T  T  T </v>
   <v type="logical" >  T  T  T </v>
   <v type="logical" >  T  T  T </v>
   <v type="logical" >  T  T  T </v>
   <v type="logical" >  T  T  T </v>
   <v type="logical" >  T  T  T </v>
   <v type="logical" >  T  T  T </v>
   <v type="logical" >  T  T  T </v>
   <v type="logical" >  T  T  T </v>
   <v type="logical" >  T  T  T </v>
   <v type="logical" >  T  T  T </v>
   <v type="logical" >  T  T  T </v>
   <v type="logical" >  T  T  T </v>
   <v type="logical" >  T  T  T </v>
   <v type="logical" >  T  T  T </v>
   <v type="logical" >  T  T  T </v>
   <v type="logical" >  T  T  T </v>
   <v type="logical" >  T  T  T </v>
   <v type="logical" >  T  T  T </v>
   <v type="logical" >  T  T  T </v>
   <v type="logical" >  T  T  T </v>
   <v type="logical" >  T  T  T </v>
   <v type="logical" >  T  T  T </v>
   <v type="logical" >  T  T  T </v>
   <v type="logical" >  T  T  T </v>
   <v type="logical" >  T  T  T </v>
   <v type="logical" >  T  T  T </v>
   <v type="logical" >  T  T  T </v>
   <v type="logical" >  T  T  T </v>
  </varray>
  <nose>
   <v>      -3.00000000       0.00000000       0.00010000       0.00010000 </v>
  </nose>
 </structure>
 <calculation>
  <scstep>
   <time name="dav">   34.96   35.16</time>
   <time name="total">   37.50   37.78</time>
   <energy>
    <i name="alphaZ">    176.01131809 </i>
    <i name="ewald">  36441.49959230 </i>
    <i name="hartreedc"> -46534.62414226 </i>
    <i name="XCdc">   1220.29001724 </i>
    <i name="pawpsdc">  10007.03170968 </i>
    <i name="pawaedc"> -10059.36457306 </i>
    <i name="eentropy">     -0.04486087 </i>
    <i name="bandstr">  -1615.56652944 </i>
    <i name="atom">  13611.23051297 </i>
    <i name="e_fr_energy">   3246.46304465 </i>
    <i name="e_wo_entrp">   3246.50790552 </i>
    <i name="e_0_energy">   3246.48547509 </i>
   </energy>
  </scstep>
  <scstep>
   <time name="dav">   45.42   45.71</time>
   <time name="total">   45.42   45.73</time>
   <energy>
    <i name="e_fr_energy">   -262.53361850 </i>
    <i name="e_wo_entrp">   -262.53356168 </i>
    <i name="e_0_energy">   -262.53359009 </i>
   </energy>
  </scstep>
  <scstep>
   <time name="dav">   39.13   39.39</time>
   <time name="total">   39.13   39.40</time>
   <energy>
    <i name="e_fr_energy">   -870.57187561 </i>
    <i name="e_wo_entrp">   -870.57186901 </i>
    <i name="e_0_energy">   -870.57187231 </i>
   </energy>
  </scstep>
  <scstep>
   <time name="dav">   39.79   40.04</time>
   <time name="total">   39.79   40.06</time>
   <energy>
    <i name="e_fr_energy">   -892.42022481 </i>
    <i name="e_wo_entrp">   -892.42021379 </i>
    <i name="e_0_energy">   -892.42021930 </i>
   </energy>
  </scstep>
  <scstep>
   <time name="dav">   43.67   43.96</time>
   <time name="total">   46.50   46.82</time>
   <energy>
    <i name="e_fr_energy">   -893.03355787 </i>
    <i name="e_wo_entrp">   -893.03354616 </i>
    <i name="e_0_energy">   -893.03355202 </i>
   </energy>
  </scstep>
  <scstep>
   <time name="dav">   38.29   38.50</time>
   <time name="total">   43.71   44.00</time>
   <energy>
    <i name="e_fr_energy">   -875.12001134 </i>
    <i name="e_wo_entrp">   -875.11736040 </i>
    <i name="e_0_energy">   -875.11868587 </i>
   </energy>
  </scstep>
  <scstep>
   <time name="dav">   37.62   37.83</time>
   <time name="total">   42.97   43.25</time>
   <energy>
    <i name="e_fr_energy">   -852.28579033 </i>
    <i name="e_wo_entrp">   -852.28577192 </i>
    <i name="e_0_energy">   -852.28578112 </i>
   </energy>
  </scstep>
  <scstep>
   <time name="dav">   38.59   38.81</time>
   <time name="total">   43.97   44.27</time>
   <energy>
    <i name="e_fr_energy">   -847.39176521 </i>
    <i name="e_wo_entrp">   -847.39176499 </i>
    <i name="e_0_energy">   -847.39176510 </i>
   </energy>
  </scstep>
  <scstep>
   <time name="dav">   36.25   36.45</time>
   <time name="total">   41.67   41.94</time>
   <energy>
    <i name="e_fr_energy">   -847.25516718 </i>
    <i name="e_wo_entrp">   -847.25516701 </i>
    <i name="e_0_energy">   -847.25516710 </i>
   </energy>
  </scstep>
  <scstep>
   <time name="dav">   37.10   37.31</time>
   <time name="total">   42.50   42.80</time>
   <energy>
    <i name="e_fr_energy">   -847.17371655 </i>
    <i name="e_wo_entrp">   -847.17371642 </i>
    <i name="e_0_energy">   -847.17371648 </i>
   </energy>
  </scstep>
  <scstep>
   <time name="dav">   36.25   36.45</time>
   <time name="total">   41.67   41.94</time>
   <energy>
    <i name="e_fr_energy">   -847.16099392 </i>
    <i name="e_wo_entrp">   -847.16099381 </i>
    <i name="e_0_energy">   -847.16099387 </i>
   </energy>
  </scstep>
  <scstep>
   <time name="dav">   38.29   38.52</time>
   <time name="total">   43.73   44.04</time>
   <energy>
    <i name="e_fr_energy">   -847.15973573 </i>
    <i name="e_wo_entrp">   -847.15973562 </i>
    <i name="e_0_energy">   -847.15973568 </i>
   </energy>
  </scstep>
  <scstep>
   <time name="dav">   38.94   39.15</time>
   <time name="total">   44.37   44.65</time>
   <energy>
    <i name="e_fr_energy">   -847.15948799 </i>
    <i name="e_wo_entrp">   -847.15948787 </i>
    <i name="e_0_energy">   -847.15948793 </i>
   </energy>
  </scstep>
  <scstep>
   <time name="dav">   38.27   38.48</time>
   <time name="total">   43.63   43.89</time>
   <energy>
    <i name="e_fr_energy">   -847.15959749 </i>
    <i name="e_wo_entrp">   -847.15959737 </i>
    <i name="e_0_energy">   -847.15959743 </i>
   </energy>
  </scstep>
  <scstep>
   <time name="dav">   35.64   35.83</time>
   <time name="total">   41.07   41.35</time>
   <energy>
    <i name="e_fr_energy">   -847.15963730 </i>
    <i name="e_wo_entrp">   -847.15963718 </i>
    <i name="e_0_energy">   -847.15963724 </i>
   </energy>
  </scstep>
  <scstep>
   <time name="dav">   36.08   36.28</time>
   <time name="total">   41.53   41.79</time>
   <energy>
    <i name="e_fr_energy">   -847.15964401 </i>
    <i name="e_wo_entrp">   -847.15964389 </i>
    <i name="e_0_energy">   -847.15964395 </i>
   </energy>
  </scstep>
  <scstep>
   <time name="dav">   39.43   39.64</time>
   <time name="total">   42.04   42.31</time>
   <energy>
    <i name="alphaZ">    176.01131809 </i>
    <i name="ewald">  36441.49959230 </i>
    <i name="hartreedc"> -48081.48997374 </i>
    <i name="XCdc">   1270.92840933 </i>
    <i name="pawpsdc">  37353.31973248 </i>
    <i name="pawaedc"> -37416.53841324 </i>
    <i name="eentropy">     -0.00000012 </i>
    <i name="bandstr">  -4202.12082201 </i>
    <i name="atom">  13611.23051297 </i>
    <i name="e_fr_energy">   -847.15964394 </i>
    <i name="e_wo_entrp">   -847.15964382 </i>
    <i name="e_0_energy">   -847.15964388 </i>
   </energy>
  </scstep>
  <structure>
   <crystal>
    <varray name="basis" >
     <v>      17.27103806       0.00000000       0.00000000 </v>
     <v>      -8.63551903      14.95715771       0.00000000 </v>
     <v>       0.00000000       0.00000000      15.00000000 </v>
    </varray>
    <i name="volume">   3874.88459904 </i>
    <varray name="rec_basis" >
     <v>       0.05790040       0.03342881       0.00000000 </v>
     <v>       0.00000000       0.06685762       0.00000000 </v>
     <v>       0.00000000       0.00000000       0.06666667 </v>
    </varray>
   </crystal>
   <varray name="positions" >
    <v>       0.00084203       0.99977045       0.50088503 </v>
    <v>       0.00055595       0.14243743       0.49863958 </v>
    <v>       0.00083810       0.28552715       0.49750278 </v>
    <v>       0.00120743       0.42849251       0.49820415 </v>
    <v>       0.00158130       0.57143094       0.50043671 </v>
    <v>       0.00223006       0.71457329       0.50256788 </v>
    <v>       0.00185275       0.85759797       0.50273234 </v>
    <v>       0.14417508       0.00042631       0.50098765 </v>
    <v>       0.14376899       0.14310815       0.50035991 </v>
    <v>       0.14347876       0.28569253       0.49987311 </v>
    <v>       0.14410676       0.42917166       0.49911228 </v>
    <v>       0.14451478       0.57152437       0.49899436 </v>
    <v>       0.14457668       0.71434114       0.50014635 </v>
    <v>       0.14430006       0.85745131       0.50105146 </v>
    <v>       0.28676540       0.00004112       0.49892852 </v>
    <v>       0.28676919       0.14283937       0.50012490 </v>
    <v>       0.28708939       0.28735472       0.50223728 </v>
    <v>       0.28612029       0.42893734       0.50300713 </v>
    <v>       0.28907593       0.57233401       0.50025716 </v>
    <v>       0.28736218       0.71509192       0.49850189 </v>
    <v>       0.28656548       0.85760234       0.49835436 </v>
    <v>       0.42964842       0.99979651       0.49646102 </v>
    <v>       0.42955698       0.14238624       0.49771060 </v>
    <v>       0.42810988       0.28220173       0.49955593 </v>
    <v>       0.42874151       0.85668884       0.49654394 </v>
    <v>       0.57194536       0.99935277       0.49526026 </v>
    <v>       0.57243404       0.14216400       0.49604782 </v>
    <v>       0.57347866       0.28570046       0.49819444 </v>
    <v>       0.57098807       0.85528815       0.49711976 </v>
    <v>       0.71418327       0.99861869       0.49652404 </v>
    <v>       0.71519650       0.14221294       0.49560164 </v>
    <v>       0.71551228       0.28527238       0.49740926 </v>
    <v>       0.71519305       0.42748856       0.50105079 </v>
    <v>       0.71901218       0.57309319       0.50628078 </v>
    <v>       0.71860599       0.71468793       0.50686006 </v>
    <v>       0.71314691       0.85565751       0.50068394 </v>
    <v>       0.85747379       0.99923008       0.49905777 </v>
    <v>       0.85756375       0.14212885       0.49645726 </v>
    <v>       0.85808505       0.28521510       0.49676835 </v>
    <v>       0.85864800       0.42829159       0.49943993 </v>
    <v>       0.85914346       0.57170329       0.50283932 </v>
    <v>       0.86030857       0.71495335       0.50462448 </v>
    <v>       0.85823676       0.85664920       0.50269639 </v>
    <v>       0.04849420       0.09514418       0.49991930 </v>
    <v>       0.04800814       0.23761991       0.49843142 </v>
    <v>       0.04852685       0.38093931       0.49802338 </v>
    <v>       0.04921247       0.52382525       0.49909740 </v>
    <v>       0.04937879       0.66677919       0.50117886 </v>
    <v>       0.04921780       0.80975410       0.50244596 </v>
    <v>       0.04891518       0.95254158       0.50168520 </v>
    <v>       0.19153034       0.09533103       0.50062894 </v>
    <v>       0.19124808       0.23835744       0.50067579 </v>
    <v>       0.19057307       0.38085728       0.50042225 </v>
    <v>       0.19264200       0.52465112       0.49920903 </v>
    <v>       0.19206646       0.66689908       0.49925544 </v>
    <v>       0.19173170       0.80978132       0.49995481 </v>
    <v>       0.19179574       0.95260648       0.50046238 </v>
    <v>       0.33446326       0.09537392       0.49879702 </v>
    <v>       0.33517846       0.23811719       0.50080504 </v>
    <v>       0.33158250       0.38029269       0.50462366 </v>
    <v>       0.33303235       0.52353678       0.50313797 </v>
    <v>       0.33828629       0.67058300       0.49869914 </v>
    <v>       0.33403169       0.80988358       0.49760542 </v>
    <v>       0.33426256       0.95253145       0.49780661 </v>
    <v>       0.47725609       0.09476203       0.49649671 </v>
    <v>       0.47668554       0.23745307       0.49822820 </v>
    <v>       0.47336894       0.80611365       0.49689213 </v>
    <v>       0.47695065       0.95204951       0.49582887 </v>
    <v>       0.61976341       0.09449102       0.49544996 </v>
    <v>       0.62038378       0.23750427       0.49704987 </v>
    <v>       0.62230181       0.37896343       0.50010855 </v>
    <v>       0.61972687       0.81074375       0.49962916 </v>
    <v>       0.61878057       0.95094972       0.49601650 </v>
    <v>       0.76237417       0.09436700       0.49583002 </v>
    <v>       0.76302573       0.23742171       0.49642223 </v>
    <v>       0.76339454       0.38046848       0.49926642 </v>
    <v>       0.76337078       0.52472544       0.50363324 </v>
    <v>       0.76506551       0.66709806       0.50640366 </v>
    <v>       0.76220717       0.80738212       0.50362501 </v>
    <v>       0.76188858       0.95120471       0.49856696 </v>
    <v>       0.90509971       0.09430202       0.49781510 </v>
    <v>       0.90544453       0.23750332       0.49656139 </v>
    <v>       0.90589149       0.38074477       0.49800158 </v>
    <v>       0.90638857       0.52388471       0.50093076 </v>
    <v>       0.90704977       0.66684439       0.50365296 </v>
    <v>       0.90658291       0.80979170       0.50362278 </v>
    <v>       0.90550534       0.95177758       0.50084965 </v>
    <v>       0.46428422       0.35472615       0.49995471 </v>
    <v>       0.40418094       0.41938924       0.50672702 </v>
    <v>       0.40581717       0.55923421       0.50510514 </v>
    <v>       0.64599233       0.67545158       0.50932036 </v>
    <v>       0.64643863       0.53987442       0.50629663 </v>
    <v>       0.58645657       0.41562743       0.50120433 </v>
    <v>       0.58078357       0.73811527       0.50151083 </v>
    <v>       0.50856353       0.48981615       0.36828031 </v>
    <v>       0.53090407       0.58553306       0.39166218 </v>
    <v>       0.42832743       0.71562397       0.49764472 </v>
    <v>       0.52691281       0.53198411       0.41747030 </v>
   </varray>
  </structure>
  <varray name="forces" >
   <v>      -0.00275563       0.00805634       0.00121924 </v>
   <v>      -0.01746049       0.01329104       0.00093073 </v>
   <v>      -0.00550742       0.00178684      -0.00178164 </v>
   <v>      -0.00038375      -0.00118667       0.00029599 </v>
   <v>       0.00036937      -0.00025756       0.00003773 </v>
   <v>       0.00359942       0.00055517      -0.00024841 </v>
   <v>       0.01023499      -0.00599976       0.00120128 </v>
   <v>       0.00448541      -0.00122709      -0.00019891 </v>
   <v>      -0.00456315       0.00781880       0.00150727 </v>
   <v>      -0.00692426       0.00090336       0.00183602 </v>
   <v>      -0.00241306      -0.00053766       0.00127069 </v>
   <v>      -0.00290942      -0.00041166       0.00000897 </v>
   <v>       0.00013374       0.00069296      -0.00083357 </v>
   <v>       0.00364038      -0.00178152      -0.00119242 </v>
   <v>       0.00228391      -0.00066787      -0.00044604 </v>
   <v>       0.00740851      -0.00157004       0.00081178 </v>
   <v>      -0.00018691       0.00204412       0.00247666 </v>
   <v>      -0.00177962       0.00041292       0.00000727 </v>
   <v>      -0.00105765      -0.00006714       0.00114692 </v>
   <v>      -0.00085459       0.00008708       0.00065541 </v>
   <v>      -0.00054259      -0.00337766      -0.00119126 </v>
   <v>      -0.00010096      -0.00378522       0.00013494 </v>
   <v>       0.00122682       0.00013575       0.00236588 </v>
   <v>       0.00188934       0.00013659       0.00540363 </v>
   <v>      -0.00062312      -0.00097437       0.00048055 </v>
   <v>       0.00483272       0.00294325       0.00126201 </v>
   <v>       0.00140044      -0.00147369       0.00056060 </v>
   <v>       0.00329611      -0.00039650       0.00207033 </v>
   <v>       0.00328264       0.00094910       0.00158359 </v>
   <v>       0.00074382       0.00373300       0.00069674 </v>
   <v>       0.00364038       0.00132873      -0.00040533 </v>
   <v>       0.00699622       0.00489901      -0.00099076 </v>
   <v>       0.01055931       0.00114090      -0.00052300 </v>
   <v>       0.00425710      -0.00122086      -0.00159282 </v>
   <v>       0.00107079      -0.00058069       0.00273068 </v>
   <v>      -0.00244247       0.00202483       0.00259486 </v>
   <v>      -0.01320144       0.01605353       0.00110782 </v>
   <v>      -0.00040800       0.00474860      -0.00011295 </v>
   <v>       0.00138032       0.00137607      -0.00008985 </v>
   <v>       0.00190421      -0.00032602      -0.00003375 </v>
   <v>       0.00288819      -0.00133081       0.00025814 </v>
   <v>       0.00388503      -0.00242365       0.00180341 </v>
   <v>      -0.00006875       0.00108897       0.00268230 </v>
   <v>       0.01494007      -0.01503762       0.00245000 </v>
   <v>       0.00983471      -0.00185719       0.00133085 </v>
   <v>       0.00238273       0.00148764       0.00085273 </v>
   <v>       0.00066066       0.00110638       0.00021148 </v>
   <v>      -0.00119865      -0.00005141      -0.00040342 </v>
   <v>      -0.00834555       0.00127186       0.00031802 </v>
   <v>      -0.00288625       0.00261668       0.00070216 </v>
   <v>      -0.00148023      -0.00224187       0.00044211 </v>
   <v>       0.00507335      -0.00490635       0.00218103 </v>
   <v>       0.00352375       0.00014833       0.00154268 </v>
   <v>       0.00159740       0.00075905       0.00100019 </v>
   <v>       0.00123198      -0.00013722       0.00001061 </v>
   <v>       0.00011096       0.00106105      -0.00137810 </v>
   <v>      -0.00288948       0.00346435      -0.00085861 </v>
   <v>      -0.00440625      -0.00264604       0.00073357 </v>
   <v>      -0.00153871       0.00071821       0.00369936 </v>
   <v>       0.00212911      -0.00105894       0.00010884 </v>
   <v>       0.00150050      -0.00010172       0.00049264 </v>
   <v>       0.00113836       0.00007922       0.00180657 </v>
   <v>       0.00175054       0.00062797      -0.00025704 </v>
   <v>      -0.00028595       0.00536850      -0.00104163 </v>
   <v>       0.00182323       0.00441260       0.00132704 </v>
   <v>      -0.00033018       0.00134628       0.00374735 </v>
   <v>      -0.00136533      -0.00076157       0.00207791 </v>
   <v>      -0.00192603       0.00053299      -0.00039941 </v>
   <v>      -0.00345170      -0.00132769      -0.00041710 </v>
   <v>      -0.00655552      -0.00072488       0.00002423 </v>
   <v>      -0.00667571      -0.00145874       0.00170886 </v>
   <v>       0.00081631       0.00071436       0.00335523 </v>
   <v>      -0.00218075      -0.00168526       0.00102804 </v>
   <v>      -0.00194901      -0.00236117      -0.00025829 </v>
   <v>      -0.00309518      -0.00170268      -0.00024711 </v>
   <v>      -0.00526328      -0.00072511       0.00006192 </v>
   <v>      -0.00503805       0.00148087      -0.00032541 </v>
   <v>      -0.00178081       0.00106007       0.00162221 </v>
   <v>       0.00272498      -0.00022110       0.00325862 </v>
   <v>       0.00466201      -0.00449564       0.00165322 </v>
   <v>       0.00856585      -0.01332184       0.00130433 </v>
   <v>       0.00085290      -0.00286695      -0.00098711 </v>
   <v>      -0.00019300       0.00055663       0.00003513 </v>
   <v>      -0.00106926       0.00144629       0.00027439 </v>
   <v>      -0.00384189       0.00148982       0.00057027 </v>
   <v>      -0.00436861       0.00235169       0.00125569 </v>
   <v>       0.00917568      -0.00972670       0.00217811 </v>
   <v>       0.00040761       0.00065397       0.00597840 </v>
   <v>       0.00034972       0.00028028      -0.00240629 </v>
   <v>      -0.00033969       0.00003519       0.00243710 </v>
   <v>       0.00007250      -0.00025425       0.00178263 </v>
   <v>      -0.00105993      -0.00050696      -0.00529848 </v>
   <v>       0.00191198      -0.00066372       0.00245364 </v>
   <v>       0.00027340       0.00036136       0.00542272 </v>
   <v>      -0.01214274      -0.00329492      -0.04509447 </v>
   <v>      -0.01622465      -0.00047099      -0.00460945 </v>
   <v>       0.00022707      -0.00045375       0.00247336 </v>
   <v>       0.00291920      -0.00697986      -0.02943208 </v>
  </varray>
  <varray name="stress" >
   <v>       3.09675035      -1.05282778       0.01228208 </v>
   <v>      -1.05282889      -0.68952033       0.00166510 </v>
   <v>       0.01228230       0.00166486      -0.24392397 </v>
  </varray>
  <energy>
   <i name="e_fr_energy">   -854.95540939 </i>
   <i name="e_wo_entrp">   -854.95540927 </i>
   <i name="e_0_energy">   -854.95540933 </i>
  </energy>
  <time name="totalsc">  964.12  970.03</time>
 </calculation>
 <calculation>
  <scstep>
   <time name="dav">   34.32   34.51</time>
   <time name="total">   39.64   39.86</time>
   <energy>
    <i name="alphaZ">    176.01131809 </i>
    <i name="ewald">  36441.42219561 </i>
    <i name="hartreedc"> -48081.39718077 </i>
    <i name="XCdc">   1270.92811195 </i>
    <i name="pawpsdc">  37353.03747460 </i>
    <i name="pawaedc"> -37416.25606484 </i>
    <i name="eentropy">     -0.00000012 </i>
    <i name="bandstr">  -4202.13606878 </i>
    <i name="atom">  13611.23051297 </i>
    <i name="e_fr_energy">   -847.15970129 </i>
    <i name="e_wo_entrp">   -847.15970118 </i>
    <i name="e_0_energy">   -847.15970123 </i>
   </energy>
  </scstep>
  <scstep>
   <time name="dav">   36.33   36.53</time>
   <time name="total">   41.71   41.98</time>
   <energy>
    <i name="e_fr_energy">   -847.15970332 </i>
    <i name="e_wo_entrp">   -847.15970320 </i>
    <i name="e_0_energy">   -847.15970326 </i>
   </energy>
  </scstep>
  <scstep>
   <time name="dav">   28.87   29.03</time>
   <time name="total">   31.48   31.69</time>
   <energy>
    <i name="alphaZ">    176.01131809 </i>
    <i name="ewald">  36441.42219561 </i>
    <i name="hartreedc"> -48081.38761366 </i>
    <i name="XCdc">   1270.92810388 </i>
    <i name="pawpsdc">  37352.85966111 </i>
    <i name="pawaedc"> -37416.07825003 </i>
    <i name="eentropy">     -0.00000012 </i>
    <i name="bandstr">  -4202.14563043 </i>
    <i name="atom">  13611.23051297 </i>
    <i name="e_fr_energy">   -847.15970258 </i>
    <i name="e_wo_entrp">   -847.15970247 </i>
    <i name="e_0_energy">   -847.15970252 </i>
   </energy>
  </scstep>
  <structure>
   <crystal>
    <varray name="basis" >
     <v>      17.27103806       0.00000000       0.00000000 </v>
     <v>      -8.63551903      14.95715771       0.00000000 </v>
     <v>       0.00000000       0.00000000      15.00000000 </v>
    </varray>
    <i name="volume">   3874.88459904 </i>
    <varray name="rec_basis" >
     <v>       0.05790040       0.03342881       0.00000000 </v>
     <v>       0.00000000       0.06685762       0.00000000 </v>
     <v>       0.00000000       0.00000000       0.06666667 </v>
    </varray>
   </crystal>
   <varray name="positions" >
    <v>       0.00084301       0.99977585       0.50088588 </v>
    <v>       0.00055017       0.14244633       0.49864030 </v>
    <v>       0.00083539       0.28552836       0.49750164 </v>
    <v>       0.00120670       0.42849173       0.49820426 </v>
    <v>       0.00158132       0.57143079       0.50043655 </v>
    <v>       0.00223222       0.71457368       0.50256755 </v>
    <v>       0.00185656       0.85759397       0.50273304 </v>
    <v>       0.14417716       0.00042551       0.50098748 </v>
    <v>       0.14376885       0.14311338       0.50036107 </v>
    <v>       0.14347493       0.28569314       0.49987457 </v>
    <v>       0.14410507       0.42917131       0.49911331 </v>
    <v>       0.14451284       0.57152411       0.49899437 </v>
    <v>       0.14457688       0.71434162       0.50014566 </v>
    <v>       0.14430147       0.85745014       0.50105049 </v>
    <v>       0.28676640       0.00004069       0.49892823 </v>
    <v>       0.28677284       0.14283834       0.50012565 </v>
    <v>       0.28708983       0.28735608       0.50223945 </v>
    <v>       0.28611927       0.42893762       0.50300793 </v>
    <v>       0.28907515       0.57233399       0.50025847 </v>
    <v>       0.28736161       0.71509200       0.49850255 </v>
    <v>       0.28656394       0.85760010       0.49835359 </v>
    <v>       0.42964699       0.99979400       0.49646125 </v>
    <v>       0.42955763       0.14238636       0.49771233 </v>
    <v>       0.42811091       0.28220186       0.49955975 </v>
    <v>       0.42874073       0.85668820       0.49654458 </v>
    <v>       0.57194903       0.99935475       0.49526136 </v>
    <v>       0.57243425       0.14216303       0.49604832 </v>
    <v>       0.57348033       0.28570022       0.49819599 </v>
    <v>       0.57099018       0.85528879       0.49712126 </v>
    <v>       0.71418484       0.99862119       0.49652477 </v>
    <v>       0.71519894       0.14221384       0.49560146 </v>
    <v>       0.71551786       0.28527567       0.49740866 </v>
    <v>       0.71519945       0.42748934       0.50105079 </v>
    <v>       0.71901421       0.57309239       0.50628098 </v>
    <v>       0.71860635       0.71468758       0.50686297 </v>
    <v>       0.71314607       0.85565887       0.50068616 </v>
    <v>       0.85747140       0.99924083       0.49905871 </v>
    <v>       0.85756499       0.14213204       0.49645729 </v>
    <v>       0.85808620       0.28521603       0.49676827 </v>
    <v>       0.85864888       0.42829138       0.49943988 </v>
    <v>       0.85914460       0.57170241       0.50283960 </v>
    <v>       0.86030992       0.71495175       0.50462598 </v>
    <v>       0.85823699       0.85664995       0.50269842 </v>
    <v>       0.04849771       0.09513414       0.49992101 </v>
    <v>       0.04801310       0.23761868       0.49843243 </v>
    <v>       0.04852861       0.38094032       0.49802397 </v>
    <v>       0.04921311       0.52382600       0.49909741 </v>
    <v>       0.04937797       0.66677918       0.50117838 </v>
    <v>       0.04921328       0.80975497       0.50244598 </v>
    <v>       0.04891427       0.95254335       0.50168561 </v>
    <v>       0.19152863       0.09532954       0.50062936 </v>
    <v>       0.19124926       0.23835416       0.50067753 </v>
    <v>       0.19057504       0.38085739       0.50042364 </v>
    <v>       0.19264305       0.52465164       0.49920989 </v>
    <v>       0.19206702       0.66689901       0.49925547 </v>
    <v>       0.19173201       0.80978204       0.49995377 </v>
    <v>       0.19179512       0.95260882       0.50046172 </v>
    <v>       0.33445971       0.09537218       0.49879763 </v>
    <v>       0.33517769       0.23811769       0.50080785 </v>
    <v>       0.33158323       0.38029196       0.50462465 </v>
    <v>       0.33303299       0.52353672       0.50313932 </v>
    <v>       0.33828685       0.67058307       0.49870081 </v>
    <v>       0.33403281       0.80988402       0.49760544 </v>
    <v>       0.33426409       0.95253506       0.49780596 </v>
    <v>       0.47725851       0.09476500       0.49649773 </v>
    <v>       0.47668568       0.23745400       0.49823087 </v>
    <v>       0.47336779       0.80611315       0.49689396 </v>
    <v>       0.47694961       0.95204988       0.49582884 </v>
    <v>       0.61976086       0.09449014       0.49544982 </v>
    <v>       0.62037963       0.23750381       0.49705001 </v>
    <v>       0.62229735       0.37896248       0.50010995 </v>
    <v>       0.61972748       0.81074423       0.49963189 </v>
    <v>       0.61877863       0.95094860       0.49601752 </v>
    <v>       0.76237214       0.09436543       0.49582999 </v>
    <v>       0.76302325       0.23742059       0.49642209 </v>
    <v>       0.76339114       0.38046801       0.49926658 </v>
    <v>       0.76336828       0.52472644       0.50363360 </v>
    <v>       0.76506477       0.66709880       0.50640566 </v>
    <v>       0.76220859       0.80738200       0.50362778 </v>
    <v>       0.76188967       0.95120171       0.49856839 </v>
    <v>       0.90510010       0.09429312       0.49781610 </v>
    <v>       0.90544395       0.23750141       0.49656076 </v>
    <v>       0.90589145       0.38074516       0.49800152 </v>
    <v>       0.90638833       0.52388569       0.50093085 </v>
    <v>       0.90704794       0.66684541       0.50365339 </v>
    <v>       0.90658107       0.80979329       0.50362373 </v>
    <v>       0.90550729       0.95177109       0.50085124 </v>
    <v>       0.46428454       0.35472662       0.49995873 </v>
    <v>       0.40418107       0.41938926       0.50672665 </v>
    <v>       0.40581673       0.55923439       0.50510864 </v>
    <v>       0.64599225       0.67545148       0.50932304 </v>
    <v>       0.64643787       0.53987404       0.50629530 </v>
    <v>       0.58645734       0.41562701       0.50120619 </v>
    <v>       0.58078378       0.73811551       0.50151490 </v>
    <v>       0.50856263       0.48982229       0.36825459 </v>
    <v>       0.53088880       0.58552902       0.39166463 </v>
    <v>       0.42832729       0.71562367       0.49764694 </v>
    <v>       0.52691213       0.53197999       0.41745490 </v>
   </varray>
  </structure>
  <varray name="forces" >
   <v>       0.00098645      -0.00031843       0.00149214 </v>
   <v>       0.00445560      -0.00290950       0.00105891 </v>
   <v>       0.00171943       0.00058502      -0.00002860 </v>
   <v>       0.00026574       0.00050711       0.00037618 </v>
   <v>       0.00000967       0.00035534       0.00008218 </v>
   <v>      -0.00042521       0.00051966      -0.00012321 </v>
   <v>       0.00097795      -0.00040178       0.00122226 </v>
   <v>      -0.00031258       0.00021274      -0.00012581 </v>
   <v>       0.00132053      -0.00147928       0.00087556 </v>
   <v>       0.00125656      -0.00011502       0.00206696 </v>
   <v>       0.00078628       0.00051940       0.00142336 </v>
   <v>       0.00169973       0.00049721       0.00055753 </v>
   <v>       0.00022755       0.00024016      -0.00080797 </v>
   <v>      -0.00028938       0.00059723      -0.00110678 </v>
   <v>      -0.00019516       0.00036409      -0.00042757 </v>
   <v>       0.00150238      -0.00118627       0.00105104 </v>
   <v>       0.00075539      -0.00013551       0.00256811 </v>
   <v>       0.00081557       0.00015164       0.00022496 </v>
   <v>       0.00025433       0.00044414       0.00129295 </v>
   <v>       0.00065519       0.00000847       0.00071742 </v>
   <v>       0.00037431       0.00017460      -0.00123129 </v>
   <v>       0.00019572       0.00014423       0.00013121 </v>
   <v>      -0.00001220       0.00037466       0.00247136 </v>
   <v>       0.00029425       0.00074635       0.00566296 </v>
   <v>       0.00020696       0.00008696       0.00052720 </v>
   <v>      -0.00128510      -0.00119486      -0.00137071 </v>
   <v>      -0.00025396       0.00019562       0.00060751 </v>
   <v>      -0.00037268       0.00029082       0.00221591 </v>
   <v>       0.00069997      -0.00012812       0.00179508 </v>
   <v>       0.00039695      -0.00047615       0.00083166 </v>
   <v>      -0.00048353      -0.00016701      -0.00040266 </v>
   <v>      -0.00115713      -0.00125587      -0.00003443 </v>
   <v>      -0.00201665       0.00001564       0.00060207 </v>
   <v>      -0.00068012       0.00023365      -0.00142092 </v>
   <v>       0.00035534       0.00018235       0.00289650 </v>
   <v>       0.00118917       0.00002425       0.00292083 </v>
   <v>       0.00099473      -0.00316270       0.00064177 </v>
   <v>       0.00093359      -0.00088315      -0.00005031 </v>
   <v>      -0.00029240       0.00008811      -0.00011757 </v>
   <v>      -0.00017158       0.00031960       0.00005470 </v>
   <v>      -0.00022496       0.00052348       0.00040408 </v>
   <v>      -0.00022135       0.00081349       0.00191043 </v>
   <v>       0.00085375       0.00031551       0.00280127 </v>
   <v>      -0.00214567       0.00358139       0.00021038 </v>
   <v>      -0.00207495       0.00078548       0.00120127 </v>
   <v>      -0.00031942       0.00007503       0.00075371 </v>
   <v>      -0.00044744      -0.00012119       0.00024325 </v>
   <v>       0.00035531       0.00021477      -0.00042026 </v>
   <v>       0.00029155      -0.00081300       0.00024019 </v>
   <v>       0.00067220       0.00036403       0.00079874 </v>
   <v>       0.00083060       0.00070768       0.00049491 </v>
   <v>      -0.00024952       0.00093869       0.00232102 </v>
   <v>      -0.00038869       0.00019697       0.00154327 </v>
   <v>      -0.00062975       0.00017314       0.00104738 </v>
   <v>      -0.00031992       0.00013692       0.00003998 </v>
   <v>       0.00036594      -0.00012461      -0.00138007 </v>
   <v>       0.00100353      -0.00018979      -0.00086442 </v>
   <v>       0.00037927      -0.00170602       0.00078499 </v>
   <v>       0.00073324       0.00071961       0.00379339 </v>
   <v>       0.00045700       0.00066239       0.00021129 </v>
   <v>       0.00021880      -0.00005610       0.00063336 </v>
   <v>      -0.00051504      -0.00050594       0.00046620 </v>
   <v>      -0.00003222       0.00002122      -0.00016946 </v>
   <v>       0.00018057      -0.00119345      -0.00067739 </v>
   <v>      -0.00039678      -0.00064937       0.00070075 </v>
   <v>       0.00050028       0.00030589       0.00392361 </v>
   <v>       0.00157962       0.00098069       0.00240249 </v>
   <v>       0.00014056       0.00036428      -0.00021532 </v>
   <v>       0.00064712       0.00034438      -0.00025670 </v>
   <v>       0.00043414       0.00043820       0.00009257 </v>
   <v>       0.00127762       0.00025926       0.00180765 </v>
   <v>       0.00051125      -0.00084772       0.00216522 </v>
   <v>       0.00061392       0.00080679       0.00114359 </v>
   <v>       0.00065619       0.00084796      -0.00015712 </v>
   <v>       0.00076095       0.00055418      -0.00025295 </v>
   <v>       0.00106590       0.00065179      -0.00002702 </v>
   <v>       0.00099245      -0.00014535      -0.00044256 </v>
   <v>       0.00050178      -0.00032389       0.00171830 </v>
   <v>      -0.00004674       0.00010650       0.00342538 </v>
   <v>      -0.00023866       0.00103206       0.00159243 </v>
   <v>      -0.00144535       0.00325175       0.00000546 </v>
   <v>      -0.00034286       0.00106924       0.00045601 </v>
   <v>       0.00028390       0.00010546       0.00006409 </v>
   <v>       0.00035315       0.00005758       0.00028088 </v>
   <v>       0.00081154      -0.00009289       0.00058945 </v>
   <v>       0.00067398      -0.00037215       0.00152590 </v>
   <v>      -0.00027526      -0.00024068       0.00206062 </v>
   <v>       0.00048575       0.00064048       0.00606429 </v>
   <v>       0.00063733       0.00045927      -0.00239791 </v>
   <v>       0.00012471       0.00029433       0.00246537 </v>
   <v>       0.00025104      -0.00000248       0.00180860 </v>
   <v>       0.00014062       0.00008342      -0.00525741 </v>
   <v>       0.00002253       0.00032645       0.00253287 </v>
   <v>       0.00035772       0.00062998       0.00548251 </v>
   <v>      -0.01213356      -0.00303515      -0.04468860 </v>
   <v>      -0.01640556       0.00018360      -0.00486960 </v>
   <v>       0.00014014       0.00010733       0.00256678 </v>
   <v>       0.00316611      -0.00777627      -0.03181763 </v>
  </varray>
  <varray name="stress" >
   <v>       3.09270172      -1.05369025       0.00993418 </v>
   <v>      -1.05369136      -0.68780962       0.00138590 </v>
   <v>       0.00993439       0.00138564      -0.24057481 </v>
  </varray>
  <energy>
   <i name="e_fr_energy">   -854.95545509 </i>
   <i name="e_wo_entrp">   -854.95545497 </i>
   <i name="e_0_energy">   -854.95545503 </i>
  </energy>
  <time name="totalsc">  204.73  206.02</time>
 </calculation>
 <calculation>
  <scstep>
   <time name="dav">   33.99   34.17</time>
   <time name="total">   39.30   39.52</time>
   <energy>
    <i name="alphaZ">    176.01131809 </i>
    <i name="ewald">  36441.25191265 </i>
    <i name="hartreedc"> -48081.20316949 </i>
    <i name="XCdc">   1270.92743109 </i>
    <i name="pawpsdc">  37352.62999872 </i>
    <i name="pawaedc"> -37415.84861308 </i>
    <i name="eentropy">     -0.00000012 </i>
    <i name="bandstr">  -4202.15916432 </i>
    <i name="atom">  13611.23051297 </i>
    <i name="e_fr_energy">   -847.15977349 </i>
    <i name="e_wo_entrp">   -847.15977337 </i>
    <i name="e_0_energy">   -847.15977343 </i>
   </energy>
  </scstep>
  <scstep>
   <time name="dav">   34.86   35.05</time>
   <time name="total">   40.22   40.48</time>
   <energy>
    <i name="e_fr_energy">   -847.15977623 </i>
    <i name="e_wo_entrp">   -847.15977611 </i>
    <i name="e_0_energy">   -847.15977617 </i>
   </energy>
  </scstep>
  <scstep>
   <time name="dav">   29.75   29.92</time>
   <time name="total">   32.39   32.61</time>
   <energy>
    <i name="alphaZ">    176.01131809 </i>
    <i name="ewald">  36441.25191265 </i>
[...]
       <r>   -13.9498     7.8812    57.7502 </r>
       <r>   -13.8447     5.9998    58.3808 </r>
       <r>   -13.7396     3.9563    58.7966 </r>
       <r>   -13.6345     4.3596    59.2549 </r>
       <r>   -13.5294     7.0346    59.9943 </r>
       <r>   -13.4243     8.8594    60.9254 </r>
       <r>   -13.3192     8.5904    61.8284 </r>
       <r>   -13.2141     9.3402    62.8101 </r>
       <r>   -13.1090     6.2017    63.4619 </r>
       <r>   -13.0038     5.8983    64.0819 </r>
       <r>   -12.8987     3.9492    64.4970 </r>
       <r>   -12.7936     1.1643    64.6194 </r>
       <r>   -12.6885     9.9023    65.6602 </r>
       <r>   -12.5834     5.8547    66.2755 </r>
       <r>   -12.4783    10.1650    67.3439 </r>
       <r>   -12.3732    15.0853    68.9295 </r>
       <r>   -12.2681    12.7646    70.2712 </r>
       <r>   -12.1630     9.1925    71.2374 </r>
       <r>   -12.0579     5.0465    71.7678 </r>
       <r>   -11.9528     9.5006    72.7664 </r>
       <r>   -11.8477     8.5647    73.6666 </r>
       <r>   -11.7426     6.8067    74.3820 </r>
       <r>   -11.6375     9.4539    75.3757 </r>
       <r>   -11.5323     5.7219    75.9771 </r>
       <r>   -11.4272    11.7309    77.2101 </r>
       <r>   -11.3221    10.9138    78.3572 </r>
       <r>   -11.2170    11.5920    79.5756 </r>
       <r>   -11.1119    11.7822    80.8140 </r>
       <r>   -11.0068     9.2810    81.7895 </r>
       <r>   -10.9017     7.5764    82.5859 </r>
       <r>   -10.7966    12.3130    83.8801 </r>
       <r>   -10.6915    12.6315    85.2077 </r>
       <r>   -10.5864     6.1915    85.8585 </r>
       <r>   -10.4813     7.1743    86.6126 </r>
       <r>   -10.3762     3.9056    87.0231 </r>
       <r>   -10.2711     3.0026    87.3387 </r>
       <r>   -10.1659     7.0142    88.0759 </r>
       <r>   -10.0608    19.4495    90.1202 </r>
       <r>    -9.9557    16.6478    91.8700 </r>
       <r>    -9.8506    14.4998    93.3941 </r>
       <r>    -9.7455    19.1997    95.4121 </r>
       <r>    -9.6404    18.3839    97.3444 </r>
       <r>    -9.5353    14.1857    98.8354 </r>
       <r>    -9.4302    12.9518   100.1967 </r>
       <r>    -9.3251    18.7459   102.1671 </r>
       <r>    -9.2200    17.0848   103.9628 </r>
       <r>    -9.1149    15.4577   105.5875 </r>
       <r>    -9.0098    16.6790   107.3406 </r>
       <r>    -8.9047    23.7242   109.8342 </r>
       <r>    -8.7996    32.4370   113.2436 </r>
       <r>    -8.6944    26.1397   115.9910 </r>
       <r>    -8.5893    18.1640   117.9002 </r>
       <r>    -8.4842    19.9710   119.9993 </r>
       <r>    -8.3791    19.4045   122.0389 </r>
       <r>    -8.2740    17.1546   123.8420 </r>
       <r>    -8.1689    22.2227   126.1777 </r>
       <r>    -8.0638    27.9396   129.1144 </r>
       <r>    -7.9587    18.7327   131.0833 </r>
       <r>    -7.8536    14.8308   132.6422 </r>
       <r>    -7.7485    15.2188   134.2418 </r>
       <r>    -7.6434    20.0302   136.3471 </r>
       <r>    -7.5383    13.9130   137.8095 </r>
       <r>    -7.4332     9.6646   138.8253 </r>
       <r>    -7.3280     4.7546   139.3250 </r>
       <r>    -7.2229    19.7754   141.4036 </r>
       <r>    -7.1178    24.5209   143.9809 </r>
       <r>    -7.0127    19.2730   146.0066 </r>
       <r>    -6.9076    16.6596   147.7577 </r>
       <r>    -6.8025    10.1539   148.8249 </r>
       <r>    -6.6974    11.9555   150.0815 </r>
       <r>    -6.5923    12.3749   151.3822 </r>
       <r>    -6.4872     9.1574   152.3447 </r>
       <r>    -6.3821    11.3141   153.5339 </r>
       <r>    -6.2770    13.0030   154.9006 </r>
       <r>    -6.1719    12.8772   156.2541 </r>
       <r>    -6.0668    24.1637   158.7939 </r>
       <r>    -5.9617    16.8687   160.5669 </r>
       <r>    -5.8565    14.1995   162.0594 </r>
       <r>    -5.7514    11.3101   163.2482 </r>
       <r>    -5.6463    15.9052   164.9199 </r>
       <r>    -5.5412    12.9486   166.2809 </r>
       <r>    -5.4361     7.7404   167.0945 </r>
       <r>    -5.3310     4.7929   167.5983 </r>
       <r>    -5.2259     2.3784   167.8483 </r>
       <r>    -5.1208     1.9278   168.0509 </r>
       <r>    -5.0157    10.4044   169.1445 </r>
       <r>    -4.9106    23.1903   171.5820 </r>
       <r>    -4.8055    14.8737   173.1453 </r>
       <r>    -4.7004    17.0592   174.9383 </r>
       <r>    -4.5953     4.7840   175.4412 </r>
       <r>    -4.4902     9.3967   176.4288 </r>
       <r>    -4.3850     7.7641   177.2449 </r>
       <r>    -4.2799     0.6793   177.3163 </r>
       <r>    -4.1748     8.5879   178.2190 </r>
       <r>    -4.0697     7.3128   178.9876 </r>
       <r>    -3.9646     7.7142   179.7984 </r>
       <r>    -3.8595     9.4056   180.7870 </r>
       <r>    -3.7544     5.7209   181.3883 </r>
       <r>    -3.6493     5.1283   181.9273 </r>
       <r>    -3.5442     0.6908   182.0000 </r>
       <r>    -3.4391     0.0061   182.0006 </r>
       <r>    -3.3340     1.3319   182.1406 </r>
       <r>    -3.2289     3.9665   182.5575 </r>
       <r>    -3.1238     5.3223   183.1169 </r>
       <r>    -3.0186     2.4329   183.3726 </r>
       <r>    -2.9135     1.2081   183.4996 </r>
       <r>    -2.8084     0.0037   183.5000 </r>
       <r>    -2.7033     0.0021   183.5002 </r>
       <r>    -2.5982     1.1513   183.6212 </r>
       <r>    -2.4931     3.3610   183.9745 </r>
       <r>    -2.3880     0.2426   184.0000 </r>
       <r>    -2.2829     0.0216   184.0023 </r>
       <r>    -2.1778     2.8974   184.3068 </r>
       <r>    -2.0727     1.8347   184.4996 </r>
       <r>    -1.9676     0.0034   184.5000 </r>
       <r>    -1.8625     0.0736   184.5077 </r>
       <r>    -1.7574     2.0748   184.7258 </r>
       <r>    -1.6523     2.5530   184.9942 </r>
       <r>    -1.5471     5.5297   185.5754 </r>
       <r>    -1.4420     3.9890   185.9946 </r>
       <r>    -1.3369     0.1604   186.0115 </r>
       <r>    -1.2318     3.8354   186.4146 </r>
       <r>    -1.1267     7.4659   187.1994 </r>
       <r>    -1.0216     2.8431   187.4982 </r>
       <r>    -0.9165     1.5575   187.6619 </r>
       <r>    -0.8114    10.7174   188.7884 </r>
       <r>    -0.7063    16.9792   190.5730 </r>
       <r>    -0.6012     5.5234   191.1536 </r>
       <r>    -0.4961     9.8795   192.1920 </r>
       <r>    -0.3910    10.3838   193.2834 </r>
       <r>    -0.2859     6.1380   193.9285 </r>
       <r>    -0.1807     3.2900   194.2743 </r>
       <r>    -0.0756     8.1608   195.1321 </r>
       <r>     0.0295    10.4257   196.2279 </r>
       <r>     0.1346    10.0141   197.2805 </r>
       <r>     0.2397    10.4524   198.3791 </r>
       <r>     0.3448     9.8361   199.4129 </r>
       <r>     0.4499     5.1988   199.9594 </r>
       <r>     0.5550     8.7418   200.8782 </r>
       <r>     0.6601     4.2233   201.3221 </r>
       <r>     0.7652     7.6976   202.1312 </r>
       <r>     0.8703     8.6429   203.0396 </r>
       <r>     0.9754     6.6575   203.7394 </r>
       <r>     1.0805    11.0271   204.8984 </r>
       <r>     1.1856     6.8182   205.6150 </r>
       <r>     1.2908     8.2295   206.4800 </r>
       <r>     1.3959     8.6353   207.3876 </r>
       <r>     1.5010    11.0968   208.5540 </r>
       <r>     1.6061    20.6481   210.7243 </r>
       <r>     1.7112    14.7340   212.2729 </r>
       <r>     1.8163    10.9553   213.4244 </r>
       <r>     1.9214    11.5232   214.6356 </r>
       <r>     2.0265    16.6026   216.3806 </r>
       <r>     2.1316    20.8140   218.5683 </r>
       <r>     2.2367    16.1970   220.2708 </r>
       <r>     2.3418    19.0027   222.2681 </r>
       <r>     2.4469    28.5309   225.2669 </r>
       <r>     2.5520     7.5023   226.0554 </r>
       <r>     2.6571    10.7756   227.1880 </r>
       <r>     2.7623    19.0363   229.1889 </r>
       <r>     2.8674    30.7969   232.4259 </r>
       <r>     2.9725    34.0428   236.0040 </r>
       <r>     3.0776    20.0636   238.1129 </r>
       <r>     3.1827    21.1527   240.3362 </r>
       <r>     3.2878    25.8091   243.0489 </r>
       <r>     3.3929    15.1960   244.6461 </r>
       <r>     3.4980    24.7242   247.2448 </r>
       <r>     3.6031    18.5624   249.1958 </r>
       <r>     3.7082    14.0583   250.6735 </r>
       <r>     3.8133    27.9734   253.6137 </r>
       <r>     3.9184    19.0777   255.6189 </r>
       <r>     4.0235    24.4249   258.1861 </r>
       <r>     4.1287    18.2120   260.1003 </r>
       <r>     4.2338    12.4088   261.4046 </r>
       <r>     4.3389    37.4499   265.3408 </r>
       <r>     4.4440    31.3150   268.6323 </r>
       <r>     4.5491    12.8685   269.9849 </r>
       <r>     4.6542     0.1440   270.0000 </r>
       <r>     4.7593     0.0000   270.0000 </r>
       <r>     4.8644     0.0000   270.0000 </r>
       <r>     4.9695     0.0000   270.0000 </r>
       <r>     5.0746     0.0000   270.0000 </r>
       <r>     5.1797     0.0000   270.0000 </r>
       <r>     5.2848     0.0000   270.0000 </r>
       <r>     5.3899     0.0000   270.0000 </r>
       <r>     5.4950     0.0000   270.0000 </r>
       <r>     5.6002     0.0000   270.0000 </r>
       <r>     5.7053     0.0000   270.0000 </r>
       <r>     5.8104     0.0000   270.0000 </r>
       <r>     5.9155     0.0000   270.0000 </r>
      </set>
     </set>
    </array>
   </total>
  </dos>
 </calculation>
 <structure name="finalpos" >
  <crystal>
   <varray name="basis" >
    <v>      17.27103806       0.00000000       0.00000000 </v>
    <v>      -8.63551903      14.95715771       0.00000000 </v>
    <v>       0.00000000       0.00000000      15.00000000 </v>
   </varray>
   <i name="volume">   3874.88459904 </i>
   <varray name="rec_basis" >
    <v>       0.05790040       0.03342881       0.00000000 </v>
    <v>       0.00000000       0.06685762       0.00000000 </v>
    <v>       0.00000000       0.00000000       0.06666667 </v>
   </varray>
  </crystal>
  <varray name="positions" >
   <v>       0.00087246       0.99980313       0.50115799 </v>
   <v>       0.00058603       0.14247107       0.49890056 </v>
   <v>       0.00087073       0.28556309       0.49765377 </v>
   <v>       0.00124260       0.42852141       0.49830909 </v>
   <v>       0.00159801       0.57144980       0.50050952 </v>
   <v>       0.00224285       0.71459125       0.50262530 </v>
   <v>       0.00186999       0.85761765       0.50289366 </v>
   <v>       0.14420335       0.00043317       0.50108193 </v>
   <v>       0.14381352       0.14312925       0.50074390 </v>
   <v>       0.14351296       0.28570931       0.50025501 </v>
   <v>       0.14414996       0.42919184       0.49936086 </v>
   <v>       0.14454685       0.57154491       0.49910013 </v>
   <v>       0.14459484       0.71435747       0.50006846 </v>
   <v>       0.14431342       0.85746259       0.50093314 </v>
   <v>       0.28679505       0.00004791       0.49891552 </v>
   <v>       0.28680849       0.14283975       0.50047810 </v>
   <v>       0.28714871       0.28737951       0.50280117 </v>
   <v>       0.28616885       0.42893871       0.50337759 </v>
   <v>       0.28912475       0.57235057       0.50047047 </v>
   <v>       0.28738759       0.71509827       0.49853656 </v>
   <v>       0.28657888       0.85760294       0.49820783 </v>
   <v>       0.42967141       0.99981219       0.49646125 </v>
   <v>       0.42959302       0.14241942       0.49801027 </v>
   <v>       0.42815690       0.28223046       0.50045344 </v>
   <v>       0.42876700       0.85670852       0.49660313 </v>
   <v>       0.57198078       0.99937919       0.49531228 </v>
   <v>       0.57246045       0.14218120       0.49612584 </v>
   <v>       0.57351369       0.28571338       0.49862946 </v>
   <v>       0.57102010       0.85533059       0.49755450 </v>
   <v>       0.71421879       0.99865691       0.49684559 </v>
   <v>       0.71523339       0.14224188       0.49561388 </v>
   <v>       0.71554736       0.28529411       0.49747761 </v>
   <v>       0.71521762       0.42749539       0.50122753 </v>
   <v>       0.71899910       0.57310787       0.50627835 </v>
   <v>       0.71862606       0.71471392       0.50733729 </v>
   <v>       0.71316453       0.85570380       0.50141318 </v>
   <v>       0.85750307       0.99927424       0.49948224 </v>
   <v>       0.85760542       0.14215589       0.49661361 </v>
   <v>       0.85812480       0.28524693       0.49678787 </v>
   <v>       0.85867476       0.42831488       0.49949683 </v>
   <v>       0.85914571       0.57172197       0.50302136 </v>
   <v>       0.86032214       0.71498468       0.50497413 </v>
   <v>       0.85824516       0.85668195       0.50317603 </v>
   <v>       0.04853247       0.09515987       0.50019370 </v>
   <v>       0.04804119       0.23764545       0.49869031 </v>
   <v>       0.04856756       0.38096871       0.49819058 </v>
   <v>       0.04924295       0.52385436       0.49919641 </v>
   <v>       0.04939235       0.66679406       0.50118357 </v>
   <v>       0.04922448       0.80977163       0.50245538 </v>
   <v>       0.04894175       0.95256180       0.50183933 </v>
   <v>       0.19156174       0.09533059       0.50089875 </v>
   <v>       0.19130580       0.23838050       0.50118183 </v>
   <v>       0.19062081       0.38087568       0.50076609 </v>
   <v>       0.19268261       0.52466907       0.49940044 </v>
   <v>       0.19209317       0.66691679       0.49925830 </v>
   <v>       0.19174600       0.80979405       0.49979599 </v>
   <v>       0.19182130       0.95261877       0.50040998 </v>
   <v>       0.33449664       0.09538088       0.49901453 </v>
   <v>       0.33522049       0.23811537       0.50143168 </v>
   <v>       0.33166162       0.38032594       0.50500303 </v>
   <v>       0.33306380       0.52353698       0.50348508 </v>
   <v>       0.33832087       0.67059613       0.49888371 </v>
   <v>       0.33405419       0.80989094       0.49755964 </v>
   <v>       0.33428456       0.95253687       0.49773025 </v>
   <v>       0.47728338       0.09478614       0.49661181 </v>
   <v>       0.47672654       0.23748618       0.49884772 </v>
   <v>       0.47340378       0.80615047       0.49715078 </v>
   <v>       0.47698033       0.95207329       0.49584973 </v>
   <v>       0.61979195       0.09451315       0.49545270 </v>
   <v>       0.62040802       0.23752080       0.49723160 </v>
   <v>       0.62232363       0.37897541       0.50051161 </v>
   <v>       0.61975254       0.81079412       0.50043608 </v>
   <v>       0.61882045       0.95098319       0.49624041 </v>
   <v>       0.76241016       0.09440064       0.49597278 </v>
   <v>       0.76306106       0.23744934       0.49642024 </v>
   <v>       0.76341798       0.38048450       0.49936280 </v>
   <v>       0.76336238       0.52473814       0.50375420 </v>
   <v>       0.76507040       0.66711735       0.50673813 </v>
   <v>       0.76222323       0.80741970       0.50427239 </v>
   <v>       0.76191971       0.95124286       0.49908113 </v>
   <v>       0.90513893       0.09432429       0.49809596 </v>
   <v>       0.90548394       0.23753230       0.49663378 </v>
   <v>       0.90592595       0.38077624       0.49804765 </v>
   <v>       0.90639864       0.52390385       0.50103817 </v>
   <v>       0.90705546       0.66686899       0.50385419 </v>
   <v>       0.90659429       0.80983049       0.50396616 </v>
   <v>       0.90553656       0.95180927       0.50127922 </v>
   <v>       0.46431634       0.35475342       0.50103743 </v>
   <v>       0.40428905       0.41940366       0.50658822 </v>
   <v>       0.40584624       0.55929910       0.50579504 </v>
   <v>       0.64600084       0.67547098       0.50964152 </v>
   <v>       0.64640924       0.53986407       0.50591222 </v>
   <v>       0.58645509       0.41561221       0.50163590 </v>
   <v>       0.58083147       0.73817459       0.50256260 </v>
   <v>       0.50840291       0.49166138       0.36137631 </v>
   <v>       0.52605531       0.58416045       0.39184405 </v>
   <v>       0.42836669       0.71565127       0.49793736 </v>
   <v>       0.52673365       0.53119017       0.41278248 </v>
  </varray>
  <varray name="selective"  type="logical" >
   <v type="logical" >  T  T  T </v>
   <v type="logical" >  T  T  T </v>
   <v type="logical" >  T  T  T </v>
   <v type="logical" >  T  T  T </v>
   <v type="logical" >  T  T  T </v>
   <v type="logical" >  T  T  T </v>
   <v type="logical" >  T  T  T </v>
   <v type="logical" >  T  T  T </v>
   <v type="logical" >  T  T  T </v>
   <v type="logical" >  T  T  T </v>
   <v type="logical" >  T  T  T </v>
   <v type="logical" >  T  T  T </v>
   <v type="logical" >  T  T  T </v>
   <v type="logical" >  T  T  T </v>
   <v type="logical" >  T  T  T </v>
   <v type="logical" >  T  T  T </v>
   <v type="logical" >  T  T  T </v>
   <v type="logical" >  T  T  T </v>
   <v type="logical" >  T  T  T </v>
   <v type="logical" >  T  T  T </v>
   <v type="logical" >  T  T  T </v>
   <v type="logical" >  T  T  T </v>
   <v type="logical" >  T  T  T </v>
   <v type="logical" >  T  T  T </v>
   <v type="logical" >  T  T  T </v>
   <v type="logical" >  T  T  T </v>
   <v type="logical" >  T  T  T </v>
   <v type="logical" >  T  T  T </v>
   <v type="logical" >  T  T  T </v>
   <v type="logical" >  T  T  T </v>
   <v type="logical" >  T  T  T </v>
   <v type="logical" >  T  T  T </v>
   <v type="logical" >  T  T  T </v>
   <v type="logical" >  T  T  T </v>
   <v type="logical" >  T  T  T </v>
   <v type="logical" >  T  T  T </v>
   <v type="logical" >  T  T  T </v>
   <v type="logical" >  T  T  T </v>
   <v type="logical" >  T  T  T </v>
   <v type="logical" >  T  T  T </v>
   <v type="logical" >  T  T  T </v>
   <v type="logical" >  T  T  T </v>
   <v type="logical" >  T  T  T </v>
   <v type="logical" >  T  T  T </v>
   <v type="logical" >  T  T  T </v>
   <v type="logical" >  T  T  T </v>
   <v type="logical" >  T  T  T </v>
   <v type="logical" >  T  T  T </v>
   <v type="logical" >  T  T  T </v>
   <v type="logical" >  T  T  T </v>
   <v type="logical" >  T  T  T </v>
   <v type="logical" >  T  T  T </v>
   <v type="logical" >  T  T  T </v>
   <v type="logical" >  T  T  T </v>
   <v type="logical" >  T  T  T </v>
   <v type="logical" >  T  T  T </v>
   <v type="logical" >  T  T  T </v>
   <v type="logical" >  T  T  T </v>
   <v type="logical" >  T  T  T </v>
   <v type="logical" >  T  T  T </v>
   <v type="logical" >  T  T  T </v>
   <v type="logical" >  T  T  T </v>
   <v type="logical" >  T  T  T </v>
   <v type="logical" >  T  T  T </v>
   <v type="logical" >  T  T  T </v>
   <v type="logical" >  T  T  T </v>
   <v type="logical" >  T  T  T </v>
   <v type="logical" >  T  T  T </v>
   <v type="logical" >  T  T  T </v>
   <v type="logical" >  T  T  T </v>
   <v type="logical" >  T  T  T </v>
   <v type="logical" >  T  T  T </v>
   <v type="logical" >  T  T  T </v>
   <v type="logical" >  T  T  T </v>
   <v type="logical" >  T  T  T </v>
   <v type="logical" >  T  T  T </v>
   <v type="logical" >  T  T  T </v>
   <v type="logical" >  T  T  T </v>
   <v type="logical" >  T  T  T </v>
   <v type="logical" >  T  T  T </v>
   <v type="logical" >  T  T  T </v>
   <v type="logical" >  T  T  T </v>
   <v type="logical" >  T  T  T </v>
   <v type="logical" >  T  T  T </v>
   <v type="logical" >  T  T  T </v>
   <v type="logical" >  T  T  T </v>
   <v type="logical" >  T  T  T </v>
   <v type="logical" >  T  T  T </v>
   <v type="logical" >  T  T  T </v>
   <v type="logical" >  T  T  T </v>
   <v type="logical" >  T  T  T </v>
   <v type="logical" >  T  T  T </v>
   <v type="logical" >  T  T  T </v>
   <v type="logical" >  T  T  T </v>
   <v type="logical" >  T  T  T </v>
   <v type="logical" >  T  T  T </v>
   <v type="logical" >  T  T  T </v>
   <v type="logical" >  T  T  T </v>
  </varray>
  <nose>
   <v>      -3.00000000       0.00000000       0.00010000       0.00010000 </v>
  </nose>
 </structure>
</modeling>
