unknown system                          
           1
    17.271038    0.000000    0.000000
    -8.635519   14.957158    0.000000
     0.000000    0.000000   15.000000
   C    H    N    O 
    87     9     1     1
Direct configuration=     1
   0.00084301  0.99977585  0.50088588
   0.00055017  0.14244633  0.49864030
   0.00083539  0.28552836  0.49750164
   0.00120670  0.42849173  0.49820426
   0.00158132  0.57143079  0.50043655
   0.00223222  0.71457368  0.50256755
   0.00185656  0.85759397  0.50273304
   0.14417716  0.00042551  0.50098748
   0.14376885  0.14311338  0.50036107
   0.14347493  0.28569314  0.49987457
   0.14410507  0.42917131  0.49911331
   0.14451284  0.57152411  0.49899437
   0.14457688  0.71434162  0.50014566
   0.14430147  0.85745014  0.50105049
   0.28676640  0.00004069  0.49892823
   0.28677284  0.14283834  0.50012565
   0.28708983  0.28735608  0.50223945
   0.28611927  0.42893762  0.50300793
   0.28907515  0.57233399  0.50025847
   0.28736161  0.71509200  0.49850255
   0.28656394  0.85760010  0.49835359
   0.42964699  0.99979400  0.49646125
   0.42955763  0.14238636  0.49771233
   0.42811091  0.28220186  0.49955975
   0.42874073  0.85668820  0.49654458
   0.57194903  0.99935475  0.49526136
   0.57243425  0.14216303  0.49604832
   0.57348033  0.28570022  0.49819599
   0.57099018  0.85528879  0.49712126
   0.71418484  0.99862119  0.49652477
   0.71519894  0.14221384  0.49560146
   0.71551786  0.28527567  0.49740866
   0.71519945  0.42748934  0.50105079
   0.71901421  0.57309239  0.50628098
   0.71860635  0.71468758  0.50686297
   0.71314607  0.85565887  0.50068616
   0.85747140  0.99924083  0.49905871
   0.85756499  0.14213204  0.49645729
   0.85808620  0.28521603  0.49676827
   0.85864888  0.42829138  0.49943988
   0.85914460  0.57170241  0.50283960
   0.86030992  0.71495175  0.50462598
   0.85823699  0.85664995  0.50269842
   0.04849771  0.09513414  0.49992101
   0.04801310  0.23761868  0.49843243
   0.04852861  0.38094032  0.49802397
   0.04921311  0.52382600  0.49909741
   0.04937797  0.66677918  0.50117838
   0.04921328  0.80975497  0.50244598
   0.04891427  0.95254335  0.50168561
   0.19152863  0.09532954  0.50062936
   0.19124926  0.23835416  0.50067753
   0.19057504  0.38085739  0.50042364
   0.19264305  0.52465164  0.49920989
   0.19206702  0.66689901  0.49925547
   0.19173201  0.80978204  0.49995377
   0.19179512  0.95260882  0.50046172
   0.33445971  0.09537218  0.49879763
   0.33517769  0.23811769  0.50080785
   0.33158323  0.38029196  0.50462465
   0.33303299  0.52353672  0.50313932
   0.33828685  0.67058307  0.49870081
   0.33403281  0.80988402  0.49760544
   0.33426409  0.95253506  0.49780596
   0.47725851  0.09476500  0.49649773
   0.47668568  0.23745400  0.49823087
   0.47336779  0.80611315  0.49689396
   0.47694961  0.95204988  0.49582884
   0.61976086  0.09449014  0.49544982
   0.62037963  0.23750381  0.49705001
   0.62229735  0.37896248  0.50010995
   0.61972748  0.81074423  0.49963189
   0.61877863  0.95094860  0.49601752
   0.76237214  0.09436543  0.49582999
   0.76302325  0.23742059  0.49642209
   0.76339114  0.38046801  0.49926658
   0.76336828  0.52472644  0.50363360
   0.76506477  0.66709880  0.50640566
   0.76220859  0.80738200  0.50362778
   0.76188967  0.95120171  0.49856839
   0.90510010  0.09429312  0.49781610
   0.90544395  0.23750141  0.49656076
   0.90589145  0.38074516  0.49800152
   0.90638833  0.52388569  0.50093085
   0.90704794  0.66684541  0.50365339
   0.90658107  0.80979329  0.50362373
   0.90550729  0.95177109  0.50085124
   0.46428454  0.35472662  0.49995873
   0.40418107  0.41938926  0.50672665
   0.40581673  0.55923439  0.50510864
   0.64599225  0.67545148  0.50932304
   0.64643787  0.53987404  0.50629530
   0.58645734  0.41562701  0.50120619
   0.58078378  0.73811551  0.50151490
   0.50856263  0.48982229  0.36825459
   0.53088880  0.58552902  0.39166463
   0.42832729  0.71562367  0.49764694
   0.52691213  0.53197999  0.41745490
Direct configuration=     2
   0.00084430  0.99978048  0.50088781
   0.00054667  0.14245214  0.49864188
   0.00083418  0.28552990  0.49750066
   0.00120628  0.42849143  0.49820453
   0.00158135  0.57143094  0.50043624
   0.00223397  0.71457445  0.50256694
   0.00186037  0.85759009  0.50273449
   0.14417877  0.00042496  0.50098719
   0.14376889  0.14311698  0.50036295
   0.14347213  0.28569362  0.49987775
   0.14410413  0.42917140  0.49911552
   0.14451227  0.57152429  0.49899479
   0.14457717  0.71434225  0.50014427
   0.14430265  0.85744955  0.50104858
   0.28676719  0.00004061  0.49892766
   0.28677654  0.14283653  0.50012737
   0.28709052  0.28735721  0.50224394
   0.28611881  0.42893799  0.50300974
   0.28907462  0.57233432  0.50026126
   0.28736139  0.71509210  0.49850395
   0.28656274  0.85759825  0.49835198
   0.42964577  0.99979187  0.49646171
   0.42955822  0.14238678  0.49771594
   0.42811217  0.28220258  0.49956775
   0.42874006  0.85668771  0.49654592
   0.57195091  0.99935563  0.49526161
   0.57243422  0.14216233  0.49604937
   0.57348156  0.28570026  0.49819925
   0.57099237  0.85528927  0.49712449
   0.71418620  0.99862309  0.49652637
   0.71520063  0.14221453  0.49560111
   0.71552151  0.28527769  0.49740818
   0.71520376  0.42749006  0.50105166
   0.71901564  0.57309189  0.50628159
   0.71860690  0.71468747  0.50686906
   0.71314599  0.85566014  0.50069096
   0.85746857  0.99924810  0.49906029
   0.85756625  0.14213424  0.49645740
   0.85808694  0.28521694  0.49676810
   0.85864956  0.42829146  0.49943984
   0.85914557  0.57170205  0.50284029
   0.86031119  0.71495096  0.50462913
   0.85823775  0.85665088  0.50270268
   0.04850069  0.09512784  0.49992281
   0.04801636  0.23761819  0.49843438
   0.04852989  0.38094130  0.49802509
   0.04921321  0.52382661  0.49909745
   0.04937742  0.66677934  0.50117739
   0.04920898  0.80975515  0.50244596
   0.04891391  0.95254523  0.50168651
   0.19152777  0.09532876  0.50063025
   0.19125036  0.23835193  0.50068121
   0.19057651  0.38085766  0.50042648
   0.19264350  0.52465226  0.49921169
   0.19206723  0.66689907  0.49925555
   0.19173236  0.80978262  0.49995166
   0.19179503  0.95261079  0.50046037
   0.33445600  0.09536933  0.49879891
   0.33517762  0.23811870  0.50081366
   0.33158428  0.38029179  0.50462676
   0.33303347  0.52353661  0.50314221
   0.33828668  0.67058277  0.49870321
   0.33403368  0.80988446  0.49760556
   0.33426501  0.95253742  0.49780491
   0.47726006  0.09476721  0.49649934
   0.47668612  0.23745511  0.49823646
   0.47336805  0.80611345  0.49689797
   0.47694878  0.95205051  0.49582894
   0.61975899  0.09448963  0.49544967
   0.62037622  0.23750375  0.49705034
   0.62229415  0.37896186  0.50011289
   0.61972793  0.81074401  0.49963657
   0.61877747  0.95094821  0.49601970
   0.76237093  0.09436467  0.49583001
   0.76302160  0.23742001  0.49642178
   0.76338891  0.38046810  0.49926685
   0.76336655  0.52472725  0.50363425
   0.76506424  0.66709927  0.50640985
   0.76220977  0.80738200  0.50363358
   0.76189076  0.95119981  0.49857127
   0.90510061  0.09428760  0.49781716
   0.90544347  0.23750052  0.49656058
   0.90589152  0.38074560  0.49800143
   0.90638825  0.52388664  0.50093103
   0.90704668  0.66684627  0.50365429
   0.90657961  0.80979446  0.50362587
   0.90550865  0.95176508  0.50085439
   0.46428525  0.35472758  0.49996697
   0.40418160  0.41938944  0.50672596
   0.40581624  0.55923496  0.50511586
   0.64599228  0.67545146  0.50932858
   0.64643733  0.53987373  0.50629270
   0.58645802  0.41562689  0.50121004
   0.58078436  0.73811620  0.50152326
   0.50856117  0.48983529  0.36820263
   0.53085760  0.58552116  0.39166963
   0.42832715  0.71562349  0.49765153
   0.52691060  0.53197102  0.41742185
Direct configuration=     3
   0.00084469  0.99977900  0.50089084
   0.00054973  0.14244867  0.49864440
   0.00083592  0.28553028  0.49750129
   0.00120832  0.42849369  0.49820442
   0.00158130  0.57143163  0.50043580
   0.00223299  0.71457494  0.50256617
   0.00185943  0.85759223  0.50273574
   0.14417836  0.00042706  0.50098740
   0.14376917  0.14311429  0.50036464
   0.14347419  0.28569347  0.49988260
   0.14410553  0.42917235  0.49911889
   0.14451349  0.57152496  0.49899565
   0.14457718  0.71434249  0.50014223
   0.14430205  0.85745061  0.50104585
   0.28676649  0.00004058  0.49892678
   0.28677572  0.14283664  0.50013119
   0.28709103  0.28735686  0.50225064
   0.28611996  0.42893811  0.50301269
   0.28907488  0.57233473  0.50026544
   0.28735985  0.71508931  0.49850538
   0.28656339  0.85759902  0.49834958
   0.42964599  0.99979267  0.49646232
   0.42955742  0.14238652  0.49772019
   0.42811278  0.28220412  0.49957972
   0.42874045  0.85668820  0.49654794
   0.57194898  0.99935471  0.49526116
   0.57243371  0.14216293  0.49605089
   0.57348080  0.28570094  0.49820417
   0.57099306  0.85528908  0.49712949
   0.71418588  0.99862211  0.49652883
   0.71519917  0.14221417  0.49560057
   0.71551882  0.28527658  0.49740783
   0.71520077  0.42748997  0.50105336
   0.71901452  0.57309260  0.50628266
   0.71860738  0.71468795  0.50687817
   0.71314748  0.85565978  0.50069827
   0.85746978  0.99924341  0.49906321
   0.85756767  0.14213108  0.49645675
   0.85808613  0.28521704  0.49676781
   0.85864919  0.42829213  0.49943985
   0.85914514  0.57170302  0.50284141
   0.86031086  0.71495251  0.50463382
   0.85823899  0.85665061  0.50270785
   0.04850020  0.09513321  0.49992461
   0.04801437  0.23762030  0.49843706
   0.04852920  0.38094155  0.49802661
   0.04921227  0.52382645  0.49909753
   0.04937794  0.66677989  0.50117588
   0.04921107  0.80975451  0.50244506
   0.04891498  0.95254527  0.50168793
   0.19152971  0.09533011  0.50063157
   0.19125044  0.23835413  0.50068672
   0.19057571  0.38085807  0.50043064
   0.19264263  0.52465262  0.49921438
   0.19206681  0.66689950  0.49925568
   0.19173233  0.80978244  0.49994852
   0.19179594  0.95260995  0.50045837
   0.33445767  0.09536944  0.49880176
   0.33517880  0.23811738  0.50082139
   0.33158507  0.38029305  0.50463001
   0.33303292  0.52353668  0.50314665
   0.33828560  0.67058235  0.49870650
   0.33403330  0.80988427  0.49760582
   0.33426413  0.95253586  0.49780354
   0.47725927  0.09476668  0.49650158
   0.47668663  0.23745543  0.49824484
   0.47336829  0.80611329  0.49690371
   0.47694891  0.95205074  0.49582921
   0.61976014  0.09449027  0.49544954
   0.62037824  0.23750434  0.49705203
   0.62229664  0.37896274  0.50011733
   0.61972830  0.81074359  0.49964328
   0.61877895  0.95094940  0.49602289
   0.76237258  0.09436618  0.49583014
   0.76302294  0.23742092  0.49642130
   0.76339094  0.38046914  0.49926716
   0.76336799  0.52472694  0.50363512
   0.76506469  0.66709871  0.50641608
   0.76220957  0.80738348  0.50364117
   0.76189053  0.95120167  0.49857542
   0.90510056  0.09429218  0.49781818
   0.90544358  0.23750172  0.49656074
   0.90589166  0.38074581  0.49800128
   0.90638851  0.52388665  0.50093128
   0.90704831  0.66684413  0.50365621
   0.90658073  0.80979374  0.50362939
   0.90550811  0.95176772  0.50085882
   0.46428630  0.35472894  0.49997911
   0.40418270  0.41938986  0.50672495
   0.40581597  0.55923599  0.50512645
   0.64599254  0.67545164  0.50933672
   0.64643761  0.53987372  0.50628901
   0.58645794  0.41562756  0.50121573
   0.58078515  0.73811704  0.50153551
   0.50855918  0.48985448  0.36812681
   0.53081183  0.58550984  0.39167701
   0.42832727  0.71562366  0.49765826
   0.52690827  0.53195739  0.41737244
Direct configuration=     4
   0.00084419  0.99977414  0.50089491
   0.00055668  0.14244087  0.49864777
   0.00083858  0.28552968  0.49750369
   0.00120936  0.42849543  0.49820463
   0.00158114  0.57143254  0.50043521
   0.00223087  0.71457450  0.50256524
   0.00185558  0.85759852  0.50273682
   0.14417698  0.00042883  0.50098739
   0.14377018  0.14310900  0.50036642
   0.14347879  0.28569359  0.49988915
   0.14410769  0.42917351  0.49912345
   0.14451501  0.57152578  0.49899699
   0.14457693  0.71434253  0.50013952
   0.14430060  0.85745211  0.50104222
   0.28676517  0.00004009  0.49892561
   0.28677229  0.14283873  0.50013723
   0.28709168  0.28735581  0.50225962
   0.28612184  0.42893815  0.50301704
   0.28907545  0.57233492  0.50027101
   0.28735999  0.71508881  0.49850744
   0.28656518  0.85760128  0.49834639
   0.42964781  0.99979538  0.49646174
   0.42955607  0.14238589  0.49772527
   0.42811315  0.28220639  0.49959458
   0.42874143  0.85668911  0.49655073
   0.57194516  0.99935294  0.49526026
   0.57243349  0.14216448  0.49605289
   0.57347776  0.28570144  0.49821028
   0.57099245  0.85528860  0.49713650
   0.71418487  0.99862032  0.49653224
   0.71519683  0.14221360  0.49559990
   0.71551315  0.28527387  0.49740774
   0.71519436  0.42748969  0.50105590
   0.71901240  0.57309372  0.50628429
   0.71860784  0.71468906  0.50689046
   0.71314942  0.85565876  0.50070813
   0.85747415  0.99923207  0.49906751
   0.85756755  0.14212813  0.49645641
   0.85808494  0.28521662  0.49676743
   0.85864858  0.42829307  0.49943987
   0.85914406  0.57170392  0.50284305
   0.86031004  0.71495417  0.50464018
   0.85823981  0.85664950  0.50271417
   0.04849760  0.09514475  0.49992662
   0.04800989  0.23762291  0.49844059
   0.04852838  0.38094200  0.49802855
   0.04921185  0.52382671  0.49909763
   0.04937915  0.66678082  0.50117382
   0.04921608  0.80975349  0.50244404
   0.04891660  0.95254418  0.50168991
   0.19153293  0.09533261  0.50063339
   0.19125010  0.23835825  0.50069411
   0.19057427  0.38085861  0.50043627
   0.19264164  0.52465295  0.49921805
   0.19206585  0.66689964  0.49925582
   0.19173199  0.80978203  0.49994431
   0.19179672  0.95260789  0.50045576
   0.33446321  0.09537235  0.49880625
   0.33518047  0.23811458  0.50083133
   0.33158581  0.38029480  0.50463459
   0.33303181  0.52353698  0.50315292
   0.33828435  0.67058167  0.49871104
   0.33403197  0.80988292  0.49760625
   0.33426223  0.95253179  0.49780186
   0.47725656  0.09476395  0.49650448
   0.47668689  0.23745526  0.49825614
   0.47336866  0.80611280  0.49691120
   0.47694967  0.95205045  0.49582969
   0.61976250  0.09449126  0.49544941
   0.62038236  0.23750530  0.49705401
   0.62230181  0.37896465  0.50012340
   0.61972929  0.81074344  0.49965253
   0.61878161  0.95095091  0.49602700
   0.76237576  0.09436816  0.49583035
   0.76302521  0.23742240  0.49642060
   0.76339466  0.38047027  0.49926752
   0.76337061  0.52472630  0.50363637
   0.76506591  0.66709825  0.50642447
   0.76220835  0.80738496  0.50364963
   0.76188972  0.95120489  0.49858101
   0.90510130  0.09430109  0.49781932
   0.90544446  0.23750378  0.49656110
   0.90589229  0.38074641  0.49800105
   0.90638894  0.52388628  0.50093161
   0.90705068  0.66684347  0.50365856
   0.90658387  0.80979233  0.50363447
   0.90550721  0.95177622  0.50086463
   0.46428768  0.35473073  0.49999528
   0.40418446  0.41939057  0.50672363
   0.40581585  0.55923745  0.50514046
   0.64599312  0.67545200  0.50934759
   0.64643817  0.53987378  0.50628433
   0.58645765  0.41562865  0.50122326
   0.58078597  0.73811753  0.50155161
   0.50855669  0.48987955  0.36802619
   0.53075102  0.58549463  0.39168704
   0.42832732  0.71562404  0.49766708
   0.52690551  0.53193948  0.41730644
Direct configuration=     5
   0.00084431  0.99977455  0.50089987
   0.00055784  0.14244250  0.49865154
   0.00083763  0.28553059  0.49750512
   0.00120833  0.42849528  0.49820518
   0.00158123  0.57143332  0.50043443
   0.00223104  0.71457382  0.50256413
   0.00185544  0.85760026  0.50273890
   0.14417800  0.00042885  0.50098713
   0.14377136  0.14310862  0.50036873
   0.14347961  0.28569499  0.49989727
   0.14410775  0.42917407  0.49912913
   0.14451307  0.57152598  0.49899842
   0.14457673  0.71434293  0.50013611
   0.14430039  0.85745183  0.50103763
   0.28676544  0.00003953  0.49892420
   0.28677280  0.14283936  0.50014426
   0.28709355  0.28735666  0.50226965
   0.28612242  0.42893858  0.50302302
   0.28907506  0.57233487  0.50027793
   0.28736077  0.71509058  0.49851007
   0.28656545  0.85760135  0.49834249
   0.42964801  0.99979661  0.49646152
   0.42955605  0.14238573  0.49773158
   0.42811426  0.28220792  0.49961247
   0.42874157  0.85668894  0.49655436
   0.57194635  0.99935400  0.49526158
   0.57243467  0.14216507  0.49605417
   0.57347890  0.28570318  0.49821728
   0.57099226  0.85528859  0.49714573
   0.71418561  0.99862151  0.49653660
   0.71519774  0.14221413  0.49559911
   0.71551480  0.28527594  0.49740854
   0.71519548  0.42749047  0.50105831
   0.71901255  0.57309390  0.50628650
   0.71860845  0.71469021  0.50690581
   0.71314988  0.85565953  0.50072025
   0.85747587  0.99923282  0.49907332
   0.85756730  0.14213048  0.49645642
   0.85808550  0.28521692  0.49676696
   0.85864904  0.42829365  0.49943985
   0.85914408  0.57170343  0.50284520
   0.86031085  0.71495308  0.50464826
   0.85823651  0.85664815  0.50272110
   0.04849806  0.09514467  0.49993101
   0.04801120  0.23762339  0.49844520
   0.04852966  0.38094352  0.49803107
   0.04921304  0.52382846  0.49909773
   0.04937949  0.66678158  0.50117121
   0.04921747  0.80975485  0.50244281
   0.04891711  0.95254480  0.50169234
   0.19153361  0.09533322  0.50063581
   0.19125083  0.23835849  0.50070332
   0.19057522  0.38085927  0.50044352
   0.19264224  0.52465364  0.49922275
   0.19206533  0.66689949  0.49925593
   0.19173188  0.80978257  0.49993899
   0.19179586  0.95260818  0.50045259
   0.33446440  0.09537297  0.49881129
   0.33518102  0.23811301  0.50084382
   0.33158709  0.38029516  0.50464071
   0.33303131  0.52353725  0.50316131
   0.33828410  0.67058118  0.49871721
   0.33403153  0.80988168  0.49760685
   0.33426240  0.95253153  0.49779947
   0.47725444  0.09476201  0.49650788
   0.47668635  0.23745571  0.49827023
   0.47336894  0.80611253  0.49692037
   0.47694976  0.95205000  0.49583028
   0.61976213  0.09449121  0.49544922
   0.62038212  0.23750567  0.49705643
   0.62230172  0.37896551  0.50013116
   0.61973100  0.81074453  0.49966353
   0.61878186  0.95095074  0.49603185
   0.76237664  0.09436807  0.49583063
   0.76302447  0.23742261  0.49641962
   0.76339444  0.38047026  0.49926802
   0.76337019  0.52472683  0.50363825
   0.76506664  0.66709938  0.50643509
   0.76220891  0.80738560  0.50365963
   0.76189040  0.95120485  0.49858831
   0.90510387  0.09430196  0.49782099
   0.90544514  0.23750342  0.49656038
   0.90589299  0.38074758  0.49800071
   0.90638900  0.52388686  0.50093206
   0.90705042  0.66684552  0.50366145
   0.90658556  0.80979289  0.50364116
   0.90550847  0.95177813  0.50087201
   0.46428918  0.35473298  0.50001532
   0.40418661  0.41939152  0.50672203
   0.40581540  0.55923915  0.50515770
   0.64599386  0.67545242  0.50936115
   0.64643776  0.53987346  0.50627890
   0.58645814  0.41562937  0.50123254
   0.58078665  0.73811746  0.50157128
   0.50855364  0.48990974  0.36790116
   0.53067549  0.58547532  0.39169977
   0.42832662  0.71562389  0.49767780
   0.52690271  0.53191785  0.41722487
Direct configuration=     6
   0.00084579  0.99978053  0.50090585
   0.00055351  0.14245277  0.49865583
   0.00083494  0.28553293  0.49750580
   0.00120698  0.42849460  0.49820614
   0.00158182  0.57143413  0.50043347
   0.00223356  0.71457463  0.50256291
   0.00185993  0.85759678  0.50274215
   0.14418073  0.00042763  0.50098669
   0.14377217  0.14311351  0.50037230
   0.14347670  0.28569678  0.49990708
   0.14410655  0.42917443  0.49913601
   0.14451179  0.57152635  0.49900044
   0.14457694  0.71434386  0.50013199
   0.14430069  0.85745084  0.50103329
   0.28676710  0.00003958  0.49892265
   0.28677725  0.14283768  0.50015243
   0.28709588  0.28735850  0.50228103
   0.28612194  0.42893929  0.50303109
   0.28907443  0.57233438  0.50028520
   0.28736102  0.71509239  0.49851327
   0.28656388  0.85759886  0.49833792
   0.42964681  0.99979434  0.49646035
   0.42955757  0.14238653  0.49773964
   0.42811598  0.28220846  0.49963377
   0.42874091  0.85668762  0.49655891
   0.57195136  0.99935672  0.49526516
   0.57243389  0.14216287  0.49605363
   0.57348131  0.28570470  0.49822503
   0.57099305  0.85528905  0.49715734
   0.71418801  0.99862451  0.49654202
   0.71520103  0.14221533  0.49559826
   0.71551900  0.28527848  0.49740949
   0.71520307  0.42749203  0.50106073
   0.71901465  0.57309370  0.50628955
   0.71861199  0.71469251  0.50692299
   0.71314934  0.85566224  0.50073445
   0.85747500  0.99924504  0.49907970
   0.85756805  0.14213601  0.49645683
   0.85808739  0.28521800  0.49676631
   0.85865036  0.42829394  0.49943981
   0.85914517  0.57170292  0.50284799
   0.86031307  0.71495125  0.50465822
   0.85823288  0.85664841  0.50272913
   0.04850357  0.09513519  0.49993650
   0.04801558  0.23762159  0.49845098
   0.04853146  0.38094527  0.49803429
   0.04921394  0.52383036  0.49909791
   0.04937857  0.66678168  0.50116807
   0.04921378  0.80975752  0.50244134
   0.04891689  0.95254762  0.50169520
   0.19153203  0.09533145  0.50063888
   0.19125282  0.23835512  0.50071424
   0.19057916  0.38086146  0.50045138
   0.19264336  0.52465448  0.49922855
   0.19206550  0.66689982  0.49925599
   0.19173233  0.80978389  0.49993259
   0.19179448  0.95261055  0.50044892
   0.33446094  0.09537086  0.49881558
   0.33518093  0.23811441  0.50085914
   0.33158922  0.38029466  0.50464856
   0.33303154  0.52353725  0.50317215
   0.33828478  0.67058157  0.49872543
   0.33403254  0.80988202  0.49760766
   0.33426455  0.95253522  0.49779638
   0.47725527  0.09476313  0.49651164
   0.47668587  0.23745699  0.49828689
   0.47336894  0.80611272  0.49693130
   0.47694937  0.95205007  0.49583117
   0.61976016  0.09449083  0.49544906
   0.62037876  0.23750677  0.49705803
   0.62229712  0.37896545  0.50014062
   0.61973217  0.81074614  0.49967717
   0.61877994  0.95094959  0.49603763
   0.76237498  0.09436702  0.49583110
   0.76302211  0.23742213  0.49641849
   0.76339130  0.38047019  0.49926878
   0.76336745  0.52472825  0.50364085
   0.76506647  0.66710142  0.50644809
   0.76221020  0.80738513  0.50367200
   0.76189284  0.95120271  0.49859751
   0.90510650  0.09429540  0.49782351
   0.90544500  0.23750196  0.49655869
   0.90589307  0.38074845  0.49800031
   0.90638873  0.52388823  0.50093265
   0.90704808  0.66684785  0.50366496
   0.90658373  0.80979488  0.50364955
   0.90551072  0.95177142  0.50088096
   0.46429054  0.35473531  0.50003913
   0.40418894  0.41939258  0.50672018
   0.40581449  0.55924108  0.50517810
   0.64599462  0.67545288  0.50937746
   0.64643654  0.53987281  0.50627293
   0.58645917  0.41562983  0.50124355
   0.58078756  0.73811746  0.50159427
   0.50855012  0.48994480  0.36775205
   0.53058532  0.58545193  0.39171503
   0.42832540  0.71562300  0.49769032
   0.52690007  0.53189229  0.41712793
Direct configuration=     7
   0.00084732  0.99978281  0.50091391
   0.00055528  0.14245496  0.49866176
   0.00083740  0.28553495  0.49750782
   0.00120771  0.42849628  0.49820777
   0.00158227  0.57143523  0.50043233
   0.00223441  0.71457765  0.50256162
   0.00185957  0.85759648  0.50274488
   0.14418067  0.00042741  0.50098614
   0.14377368  0.14311682  0.50037862
   0.14347742  0.28569750  0.49991983
   0.14410626  0.42917366  0.49914418
   0.14451353  0.57152761  0.49900346
   0.14457928  0.71434512  0.50012805
   0.14430034  0.85745230  0.50102870
   0.28676744  0.00004021  0.49892074
   0.28678009  0.14283492  0.50016277
   0.28709730  0.28735899  0.50229539
   0.28612370  0.42893974  0.50304269
   0.28907475  0.57233440  0.50029397
   0.28735763  0.71508809  0.49851667
   0.28656328  0.85759826  0.49833220
   0.42964541  0.99979162  0.49646004
   0.42955888  0.14238814  0.49775086
   0.42811696  0.28220975  0.49966140
   0.42874235  0.85668616  0.49656318
   0.57195116  0.99935584  0.49526844
   0.57243087  0.14216087  0.49605152
   0.57348153  0.28570631  0.49823514
   0.57099340  0.85528930  0.49717274
   0.71418932  0.99862423  0.49654927
   0.71520155  0.14221601  0.49559725
   0.71551814  0.28527816  0.49741054
   0.71520326  0.42749263  0.50106476
   0.71901508  0.57309589  0.50629223
   0.71861369  0.71469344  0.50694284
   0.71314997  0.85566423  0.50075234
   0.85747412  0.99924941  0.49908813
   0.85757116  0.14213443  0.49645639
   0.85808711  0.28521763  0.49676682
   0.85865054  0.42829461  0.49943986
   0.85914526  0.57170499  0.50285205
   0.86031453  0.71495349  0.50466984
   0.85823736  0.85665162  0.50274093
   0.04850514  0.09513498  0.49994252
   0.04801717  0.23762425  0.49845848
   0.04853054  0.38094574  0.49803867
   0.04921240  0.52383026  0.49909836
   0.04937797  0.66678199  0.50116415
   0.04921066  0.80975742  0.50243956
   0.04891763  0.95254961  0.50169893
   0.19153275  0.09533049  0.50064305
   0.19125489  0.23835573  0.50072795
   0.19058163  0.38086445  0.50046100
   0.19264286  0.52465501  0.49923616
   0.19206616  0.66690160  0.49925606
   0.19173249  0.80978469  0.49992458
   0.19179552  0.95261090  0.50044454
   0.33445840  0.09536716  0.49881974
   0.33518304  0.23811611  0.50087588
   0.33159188  0.38029622  0.50465929
   0.33303170  0.52353718  0.50318672
   0.33828473  0.67058280  0.49873711
   0.33403368  0.80988411  0.49760885
   0.33426491  0.95253543  0.49779255
   0.47725830  0.09476594  0.49651573
   0.47668669  0.23745789  0.49830773
   0.47336883  0.80611296  0.49694551
   0.47695062  0.95205085  0.49583274
   0.61976155  0.09449231  0.49544898
   0.62037775  0.23750824  0.49705891
   0.62229775  0.37896736  0.50015281
   0.61973143  0.81074739  0.49969604
   0.61878015  0.95094776  0.49604411
   0.76237478  0.09436852  0.49583209
   0.76302316  0.23742298  0.49641724
   0.76339177  0.38047151  0.49927000
   0.76336756  0.52472915  0.50364441
   0.76506710  0.66710212  0.50646486
   0.76220874  0.80738518  0.50368889
   0.76189538  0.95120480  0.49860966
   0.90510644  0.09429583  0.49782732
   0.90544485  0.23750473  0.49655769
   0.90589232  0.38074807  0.49799993
   0.90638884  0.52388910  0.50093354
   0.90705014  0.66684805  0.50366829
   0.90658230  0.80979637  0.50365942
   0.90550916  0.95176633  0.50089206
   0.46429145  0.35473700  0.50006996
   0.40419183  0.41939395  0.50671763
   0.40581362  0.55924381  0.50520413
   0.64599689  0.67545442  0.50939853
   0.64643590  0.53987255  0.50626544
   0.58645949  0.41563132  0.50125795
   0.58078954  0.73811884  0.50162341
   0.50854451  0.48998830  0.36755537
   0.53046774  0.58542123  0.39173369
   0.42832513  0.71562227  0.49770586
   0.52690258  0.53186544  0.41701054
Direct configuration=     8
   0.00084659  0.99977718  0.50092448
   0.00056392  0.14244344  0.49866853
   0.00084048  0.28553310  0.49751249
   0.00120851  0.42849882  0.49821024
   0.00158125  0.57143627  0.50043098
   0.00223270  0.71457977  0.50256008
   0.00185253  0.85760193  0.50274747
   0.14417801  0.00042886  0.50098566
   0.14377662  0.14311419  0.50038906
   0.14348438  0.28569859  0.49993596
   0.14410736  0.42917347  0.49915400
   0.14451544  0.57152868  0.49900775
   0.14458041  0.71434623  0.50012391
   0.14429821  0.85745474  0.50102325
   0.28676548  0.00003872  0.49891800
   0.28677817  0.14283392  0.50017537
   0.28709855  0.28735860  0.50231385
   0.28612828  0.42894003  0.50305658
   0.28907887  0.57233830  0.50030179
   0.28735909  0.71508973  0.49852172
   0.28656510  0.85760133  0.49832507
   0.42964656  0.99979276  0.49646082
   0.42955860  0.14238877  0.49776583
   0.42811883  0.28221259  0.49969481
   0.42874712  0.85669021  0.49656566
   0.57194724  0.99935271  0.49527120
   0.57243314  0.14216522  0.49605058
   0.57347926  0.28570808  0.49824911
   0.57099178  0.85528847  0.49719264
   0.71418796  0.99862146  0.49655866
   0.71519899  0.14221684  0.49559609
   0.71551215  0.28527563  0.49741127
   0.71519527  0.42749287  0.50107084
   0.71901263  0.57309895  0.50629482
   0.71861278  0.71469357  0.50696641
   0.71315140  0.85566398  0.50077480
   0.85747598  0.99923808  0.49909968
   0.85757122  0.14213203  0.49645678
   0.85808450  0.28521695  0.49676819
   0.85864935  0.42829568  0.49944008
   0.85914425  0.57170809  0.50285754
   0.86031405  0.71495818  0.50468388
   0.85823600  0.85665162  0.50275485
   0.04850170  0.09514890  0.49994961
   0.04801536  0.23763021  0.49846807
   0.04852856  0.38094543  0.49804458
   0.04921151  0.52382973  0.49909937
   0.04938044  0.66678473  0.50115955
   0.04921250  0.80975646  0.50243750
   0.04892176  0.95254657  0.50170200
   0.19153712  0.09533264  0.50064875
   0.19125618  0.23836249  0.50074506
   0.19058056  0.38086517  0.50047362
   0.19264065  0.52465267  0.49924393
   0.19206593  0.66690203  0.49925623
   0.19173132  0.80978454  0.49991513
   0.19179801  0.95260856  0.50043956
   0.33446272  0.09536569  0.49882485
   0.33518633  0.23811461  0.50089539
   0.33159436  0.38029917  0.50467345
   0.33303119  0.52353725  0.50320575
   0.33828296  0.67058221  0.49875260
   0.33403284  0.80988296  0.49761017
   0.33426236  0.95253062  0.49778791
   0.47725783  0.09476522  0.49651984
   0.47668783  0.23745869  0.49833147
   0.47336930  0.80611163  0.49696353
   0.47695222  0.95205012  0.49583520
   0.61976453  0.09449327  0.49544871
   0.62037943  0.23750804  0.49705920
   0.62230376  0.37897087  0.50016818
   0.61973050  0.81074804  0.49972261
   0.61878430  0.95094995  0.49605095
   0.76237840  0.09437102  0.49583382
   0.76302625  0.23742458  0.49641606
   0.76339555  0.38047293  0.49927187
   0.76337084  0.52473011  0.50364905
   0.76507023  0.66710214  0.50648537
   0.76221102  0.80738795  0.50371102
   0.76189606  0.95121130  0.49862537
   0.90510671  0.09430595  0.49783289
   0.90544680  0.23750853  0.49655766
   0.90589185  0.38074749  0.49799984
   0.90638916  0.52388955  0.50093490
   0.90705556  0.66684823  0.50367201
   0.90658473  0.80979637  0.50367135
   0.90550774  0.95177680  0.50090559
   0.46429162  0.35473750  0.50010922
   0.40419574  0.41939575  0.50671386
   0.40581345  0.55924762  0.50523634
   0.64600021  0.67545667  0.50942465