  95  95   0   0
  0.4078826E+02  0.1727104E-08  0.1727104E-08  0.1500000E-08  0.5000000E-15
  1.000000000000000E-004
  CAR 
 unknown system                          
      5.86690163    -24.07779050  301     -2.75779355      1.00000000
    -24.078  0.0000E+00  0.0000E+00  0.0000E+00  0.0000E+00
    -23.978  0.0000E+00  0.0000E+00  0.0000E+00  0.0000E+00
    -23.878  0.0000E+00  0.0000E+00  0.0000E+00  0.0000E+00
    -23.778  0.0000E+00  0.0000E+00  0.0000E+00  0.0000E+00
    -23.679  0.0000E+00  0.0000E+00  0.0000E+00  0.0000E+00
    -23.579  0.0000E+00  0.0000E+00  0.0000E+00  0.0000E+00
    -23.479  0.0000E+00  0.0000E+00  0.0000E+00  0.0000E+00
    -23.379  0.0000E+00  0.0000E+00  0.0000E+00  0.0000E+00
    -23.279  0.0000E+00  0.0000E+00  0.0000E+00  0.0000E+00
    -23.179  0.0000E+00  0.0000E+00  0.0000E+00  0.0000E+00
    -23.080  0.0000E+00  0.0000E+00  0.0000E+00  0.0000E+00
    -22.980  0.4157E-15  0.4147E-15  0.4149E-16  0.4140E-16
    -22.880  0.1724E-07  0.1721E-07  0.1721E-08  0.1718E-08
    -22.780  0.3447E-03  0.3445E-03  0.3441E-04  0.3439E-04
    -22.680  0.8092E-02  0.8092E-02  0.8422E-03  0.8421E-03
    -22.581  0.1581E-02  0.1582E-02  0.9999E-03  0.9999E-03
    -22.481  0.5255E-03  0.5251E-03  0.1052E-02  0.1052E-02
    -22.381  0.1208E-01  0.1207E-01  0.2258E-02  0.2258E-02
    -22.281  0.7375E-02  0.7377E-02  0.2994E-02  0.2994E-02
    -22.181  0.2823E-02  0.2824E-02  0.3276E-02  0.3276E-02
    -22.081  0.7126E-02  0.7125E-02  0.3987E-02  0.3987E-02
    -21.982  0.1297E-03  0.1297E-03  0.4000E-02  0.4000E-02
    -21.882  0.2091E-03  0.2089E-03  0.4021E-02  0.4021E-02
    -21.782  0.7439E-02  0.7438E-02  0.4763E-02  0.4763E-02
    -21.682  0.9112E-02  0.9112E-02  0.5673E-02  0.5673E-02
    -21.582  0.7461E-02  0.7462E-02  0.6418E-02  0.6418E-02
    -21.483  0.4090E-02  0.4089E-02  0.6826E-02  0.6826E-02
    -21.383  0.9020E-02  0.9021E-02  0.7726E-02  0.7726E-02
    -21.283  0.2342E-02  0.2341E-02  0.7960E-02  0.7960E-02
    -21.183  0.9693E-02  0.9693E-02  0.8928E-02  0.8927E-02
    -21.083  0.4319E-02  0.4319E-02  0.9359E-02  0.9359E-02
    -20.984  0.6571E-02  0.6572E-02  0.1001E-01  0.1001E-01
    -20.884  0.6657E-02  0.6657E-02  0.1068E-01  0.1068E-01
    -20.784  0.8869E-02  0.8869E-02  0.1156E-01  0.1156E-01
    -20.684  0.3375E-02  0.3375E-02  0.1190E-01  0.1190E-01
    -20.584  0.5112E-02  0.5113E-02  0.1241E-01  0.1241E-01
    -20.484  0.5091E-02  0.5090E-02  0.1292E-01  0.1292E-01
    -20.385  0.9934E-02  0.9934E-02  0.1391E-01  0.1391E-01
    -20.285  0.9822E-02  0.9821E-02  0.1489E-01  0.1489E-01
    -20.185  0.5994E-02  0.5995E-02  0.1549E-01  0.1549E-01
    -20.085  0.3984E-02  0.3983E-02  0.1589E-01  0.1589E-01
    -19.985  0.5969E-02  0.5970E-02  0.1648E-01  0.1648E-01
    -19.886  0.6200E-03  0.6198E-03  0.1655E-01  0.1655E-01
    -19.786  0.8654E-02  0.8653E-02  0.1741E-01  0.1741E-01
    -19.686  0.1365E-01  0.1365E-01  0.1877E-01  0.1877E-01
    -19.586  0.9397E-02  0.9398E-02  0.1971E-01  0.1971E-01
    -19.486  0.4621E-02  0.4620E-02  0.2017E-01  0.2017E-01
    -19.386  0.3428E-02  0.3429E-02  0.2051E-01  0.2051E-01
    -19.287  0.7370E-02  0.7369E-02  0.2125E-01  0.2125E-01
    -19.187  0.1083E-01  0.1084E-01  0.2233E-01  0.2233E-01
    -19.087  0.1704E-02  0.1705E-02  0.2250E-01  0.2250E-01
    -18.987  0.1876E-03  0.1875E-03  0.2252E-01  0.2252E-01
    -18.887  0.7259E-02  0.7257E-02  0.2324E-01  0.2324E-01
    -18.788  0.1409E-01  0.1409E-01  0.2465E-01  0.2465E-01
    -18.688  0.1066E-01  0.1066E-01  0.2571E-01  0.2571E-01
    -18.588  0.7223E-02  0.7223E-02  0.2643E-01  0.2643E-01
    -18.488  0.6756E-02  0.6756E-02  0.2711E-01  0.2711E-01
    -18.388  0.1029E-01  0.1029E-01  0.2814E-01  0.2814E-01
    -18.288  0.3058E-02  0.3058E-02  0.2844E-01  0.2844E-01
    -18.189  0.2970E-02  0.2969E-02  0.2874E-01  0.2874E-01
    -18.089  0.7253E-02  0.7253E-02  0.2946E-01  0.2946E-01
    -17.989  0.7915E-02  0.7915E-02  0.3025E-01  0.3025E-01
    -17.889  0.5573E-02  0.5572E-02  0.3081E-01  0.3081E-01
    -17.789  0.7481E-02  0.7481E-02  0.3155E-01  0.3155E-01
    -17.690  0.5596E-02  0.5595E-02  0.3211E-01  0.3211E-01
    -17.590  0.1917E-01  0.1917E-01  0.3403E-01  0.3403E-01
    -17.490  0.1372E-01  0.1372E-01  0.3540E-01  0.3540E-01
    -17.390  0.3562E-02  0.3563E-02  0.3575E-01  0.3575E-01
    -17.290  0.3957E-02  0.3956E-02  0.3615E-01  0.3615E-01
    -17.191  0.6265E-02  0.6265E-02  0.3677E-01  0.3677E-01
    -17.091  0.6586E-02  0.6586E-02  0.3743E-01  0.3743E-01
    -16.991  0.1024E-01  0.1024E-01  0.3845E-01  0.3845E-01
    -16.891  0.5581E-02  0.5582E-02  0.3901E-01  0.3901E-01
    -16.791  0.7684E-02  0.7684E-02  0.3977E-01  0.3977E-01
    -16.691  0.4343E-02  0.4343E-02  0.4021E-01  0.4021E-01
    -16.592  0.1456E-01  0.1456E-01  0.4166E-01  0.4166E-01
    -16.492  0.1750E-01  0.1751E-01  0.4341E-01  0.4341E-01
    -16.392  0.9150E-03  0.9157E-03  0.4350E-01  0.4350E-01
    -16.292  0.1319E-06  0.1321E-06  0.4350E-01  0.4350E-01
    -16.192  0.7339E-04  0.7333E-04  0.4351E-01  0.4351E-01
    -16.093  0.3146E-02  0.3145E-02  0.4382E-01  0.4382E-01
    -15.993  0.4256E-02  0.4257E-02  0.4425E-01  0.4425E-01
    -15.893  0.2859E-02  0.2859E-02  0.4453E-01  0.4453E-01
    -15.793  0.4593E-02  0.4594E-02  0.4499E-01  0.4499E-01
    -15.693  0.5276E-02  0.5275E-02  0.4552E-01  0.4552E-01
    -15.593  0.6395E-02  0.6396E-02  0.4616E-01  0.4616E-01
    -15.494  0.6069E-02  0.6068E-02  0.4676E-01  0.4676E-01
    -15.394  0.8442E-02  0.8442E-02  0.4760E-01  0.4760E-01
    -15.294  0.7252E-02  0.7252E-02  0.4833E-01  0.4833E-01
    -15.194  0.1513E-01  0.1513E-01  0.4984E-01  0.4984E-01
    -15.094  0.8703E-02  0.8703E-02  0.5071E-01  0.5071E-01
    -14.995  0.5538E-02  0.5539E-02  0.5126E-01  0.5126E-01
    -14.895  0.7058E-02  0.7057E-02  0.5196E-01  0.5196E-01
    -14.795  0.7978E-02  0.7979E-02  0.5276E-01  0.5276E-01
    -14.695  0.8345E-02  0.8345E-02  0.5359E-01  0.5359E-01
    -14.595  0.8350E-02  0.8350E-02  0.5443E-01  0.5443E-01
    -14.495  0.1448E-01  0.1448E-01  0.5587E-01  0.5587E-01
    -14.396  0.6878E-02  0.6877E-02  0.5656E-01  0.5656E-01
    -14.296  0.1127E-01  0.1128E-01  0.5768E-01  0.5768E-01
    -14.196  0.4353E-02  0.4353E-02  0.5812E-01  0.5812E-01
    -14.096  0.5279E-02  0.5279E-02  0.5864E-01  0.5864E-01
    -13.996  0.3385E-02  0.3385E-02  0.5898E-01  0.5898E-01
    -13.897  0.6082E-02  0.6082E-02  0.5959E-01  0.5959E-01
    -13.797  0.4641E-02  0.4641E-02  0.6005E-01  0.6005E-01
    -13.697  0.1184E-01  0.1184E-01  0.6123E-01  0.6123E-01
    -13.597  0.8348E-02  0.8348E-02  0.6207E-01  0.6207E-01
    -13.497  0.1067E-01  0.1067E-01  0.6313E-01  0.6313E-01
    -13.398  0.3597E-02  0.3597E-02  0.6349E-01  0.6349E-01
    -13.298  0.8247E-02  0.8247E-02  0.6431E-01  0.6431E-01
    -13.198  0.1860E-02  0.1861E-02  0.6450E-01  0.6450E-01
    -13.098  0.2109E-02  0.2108E-02  0.6471E-01  0.6471E-01
    -12.998  0.7497E-02  0.7497E-02  0.6546E-01  0.6546E-01
    -12.898  0.5874E-02  0.5874E-02  0.6605E-01  0.6605E-01
    -12.799  0.7664E-02  0.7663E-02  0.6681E-01  0.6681E-01
    -12.699  0.1409E-01  0.1409E-01  0.6822E-01  0.6822E-01
    -12.599  0.1314E-01  0.1314E-01  0.6953E-01  0.6953E-01
    -12.499  0.9696E-02  0.9696E-02  0.7050E-01  0.7050E-01
    -12.399  0.1012E-01  0.1012E-01  0.7151E-01  0.7151E-01
    -12.300  0.4418E-02  0.4419E-02  0.7195E-01  0.7195E-01
    -12.200  0.2090E-02  0.2090E-02  0.7216E-01  0.7216E-01
    -12.100  0.1109E-01  0.1109E-01  0.7326E-01  0.7326E-01
    -12.000  0.2931E-02  0.2932E-02  0.7355E-01  0.7355E-01
    -11.900  0.4476E-02  0.4476E-02  0.7400E-01  0.7400E-01
    -11.800  0.8475E-02  0.8474E-02  0.7485E-01  0.7485E-01
    -11.701  0.1240E-01  0.1240E-01  0.7608E-01  0.7608E-01
    -11.601  0.9517E-02  0.9517E-02  0.7703E-01  0.7703E-01
    -11.501  0.1272E-01  0.1272E-01  0.7830E-01  0.7830E-01
    -11.401  0.1231E-01  0.1230E-01  0.7953E-01  0.7953E-01
    -11.301  0.1262E-01  0.1262E-01  0.8079E-01  0.8079E-01
    -11.202  0.8294E-02  0.8293E-02  0.8162E-01  0.8162E-01
    -11.102  0.1057E-01  0.1057E-01  0.8268E-01  0.8268E-01
    -11.002  0.7152E-02  0.7153E-02  0.8339E-01  0.8339E-01
    -10.902  0.9189E-02  0.9189E-02  0.8431E-01  0.8431E-01
    -10.802  0.7109E-02  0.7109E-02  0.8502E-01  0.8502E-01
    -10.702  0.9379E-02  0.9380E-02  0.8595E-01  0.8595E-01
    -10.603  0.1151E-02  0.1151E-02  0.8607E-01  0.8607E-01
    -10.503  0.4118E-02  0.4118E-02  0.8648E-01  0.8648E-01
    -10.403  0.1222E-01  0.1222E-01  0.8770E-01  0.8770E-01
    -10.303  0.1526E-01  0.1526E-01  0.8922E-01  0.8922E-01
    -10.203  0.1664E-01  0.1664E-01  0.9088E-01  0.9088E-01
    -10.104  0.1781E-01  0.1781E-01  0.9266E-01  0.9266E-01
    -10.004  0.1601E-01  0.1601E-01  0.9426E-01  0.9426E-01
     -9.904  0.1528E-01  0.1527E-01  0.9578E-01  0.9578E-01
     -9.804  0.1686E-01  0.1686E-01  0.9747E-01  0.9747E-01
     -9.704  0.1778E-01  0.1778E-01  0.9924E-01  0.9924E-01
     -9.605  0.2320E-01  0.2320E-01  0.1016E+00  0.1016E+00
     -9.505  0.1780E-01  0.1780E-01  0.1033E+00  0.1033E+00
     -9.405  0.2092E-01  0.2092E-01  0.1054E+00  0.1054E+00
     -9.305  0.1262E-01  0.1262E-01  0.1067E+00  0.1067E+00
     -9.205  0.2339E-01  0.2339E-01  0.1090E+00  0.1090E+00
     -9.105  0.2038E-01  0.2038E-01  0.1110E+00  0.1110E+00
     -9.006  0.2915E-01  0.2915E-01  0.1140E+00  0.1140E+00
     -8.906  0.2178E-01  0.2178E-01  0.1161E+00  0.1161E+00
     -8.806  0.1622E-01  0.1622E-01  0.1178E+00  0.1178E+00
     -8.706  0.2169E-01  0.2169E-01  0.1199E+00  0.1199E+00
     -8.606  0.1391E-01  0.1391E-01  0.1213E+00  0.1213E+00
     -8.507  0.1408E-01  0.1408E-01  0.1227E+00  0.1227E+00
     -8.407  0.2150E-01  0.2150E-01  0.1249E+00  0.1249E+00
     -8.307  0.2530E-01  0.2530E-01  0.1274E+00  0.1274E+00
     -8.207  0.1847E-01  0.1847E-01  0.1292E+00  0.1292E+00
     -8.107  0.1363E-01  0.1363E-01  0.1306E+00  0.1306E+00
     -8.007  0.1643E-01  0.1643E-01  0.1322E+00  0.1322E+00
     -7.908  0.1277E-01  0.1277E-01  0.1335E+00  0.1335E+00
     -7.808  0.1718E-01  0.1718E-01  0.1352E+00  0.1352E+00
     -7.708  0.4910E-02  0.4910E-02  0.1357E+00  0.1357E+00
     -7.608  0.1153E-01  0.1152E-01  0.1369E+00  0.1369E+00
     -7.508  0.2014E-01  0.2015E-01  0.1389E+00  0.1389E+00
     -7.409  0.1546E-01  0.1546E-01  0.1404E+00  0.1404E+00
     -7.309  0.2124E-01  0.2124E-01  0.1425E+00  0.1425E+00
     -7.209  0.1599E-01  0.1599E-01  0.1441E+00  0.1441E+00
     -7.109  0.1918E-01  0.1918E-01  0.1460E+00  0.1460E+00
     -7.009  0.1225E-01  0.1226E-01  0.1473E+00  0.1473E+00
     -6.910  0.8931E-02  0.8931E-02  0.1482E+00  0.1482E+00
     -6.810  0.1046E-01  0.1046E-01  0.1492E+00  0.1492E+00
     -6.710  0.1394E-01  0.1394E-01  0.1506E+00  0.1506E+00
     -6.610  0.9812E-02  0.9813E-02  0.1516E+00  0.1516E+00
     -6.510  0.1033E-01  0.1033E-01  0.1526E+00  0.1526E+00
     -6.410  0.1576E-01  0.1576E-01  0.1542E+00  0.1542E+00
     -6.311  0.2831E-01  0.2832E-01  0.1570E+00  0.1570E+00
     -6.211  0.1181E-01  0.1181E-01  0.1582E+00  0.1582E+00
     -6.111  0.8418E-02  0.8419E-02  0.1590E+00  0.1590E+00
     -6.011  0.1110E-01  0.1110E-01  0.1601E+00  0.1601E+00
     -5.911  0.1901E-01  0.1901E-01  0.1620E+00  0.1620E+00
     -5.812  0.4905E-02  0.4907E-02  0.1625E+00  0.1625E+00
     -5.712  0.5785E-02  0.5785E-02  0.1631E+00  0.1631E+00
     -5.612  0.6005E-02  0.6005E-02  0.1637E+00  0.1637E+00
     -5.512  0.3288E-02  0.3288E-02  0.1640E+00  0.1640E+00
     -5.412  0.6966E-02  0.6966E-02  0.1647E+00  0.1647E+00
     -5.312  0.4229E-02  0.4229E-02  0.1651E+00  0.1651E+00
     -5.213  0.2091E-01  0.2091E-01  0.1672E+00  0.1672E+00
     -5.113  0.1627E-01  0.1627E-01  0.1688E+00  0.1688E+00
     -5.013  0.2313E-01  0.2313E-01  0.1712E+00  0.1712E+00
     -4.913  0.1510E-01  0.1510E-01  0.1727E+00  0.1727E+00
     -4.813  0.5679E-02  0.5681E-02  0.1732E+00  0.1732E+00
     -4.714  0.2369E-03  0.2370E-03  0.1733E+00  0.1733E+00
     -4.614  0.6546E-02  0.6544E-02  0.1739E+00  0.1739E+00
     -4.514  0.1688E-01  0.1688E-01  0.1756E+00  0.1756E+00
     -4.414  0.1141E-01  0.1141E-01  0.1767E+00  0.1767E+00
     -4.314  0.1505E-01  0.1505E-01  0.1782E+00  0.1782E+00
     -4.214  0.1908E-01  0.1908E-01  0.1801E+00  0.1801E+00
     -4.115  0.9723E-02  0.9723E-02  0.1811E+00  0.1811E+00
     -4.015  0.8123E-02  0.8123E-02  0.1819E+00  0.1819E+00
     -3.915  0.1370E-02  0.1370E-02  0.1821E+00  0.1821E+00
     -3.815  0.1903E-02  0.1903E-02  0.1822E+00  0.1822E+00
     -3.715  0.1514E-03  0.1514E-03  0.1823E+00  0.1823E+00
     -3.616  0.2205E-02  0.2205E-02  0.1825E+00  0.1825E+00
     -3.516  0.5370E-02  0.5369E-02  0.1830E+00  0.1830E+00
     -3.416  0.2342E-02  0.2343E-02  0.1832E+00  0.1832E+00
     -3.316  0.1217E-02  0.1217E-02  0.1834E+00  0.1834E+00
     -3.216  0.1281E-02  0.1282E-02  0.1835E+00  0.1835E+00
     -3.117  0.1575E-04  0.1574E-04  0.1835E+00  0.1835E+00
     -3.017  0.2325E-02  0.2325E-02  0.1837E+00  0.1837E+00
     -2.917  0.2659E-02  0.2660E-02  0.1840E+00  0.1840E+00
     -2.817  0.1548E-04  0.1551E-04  0.1840E+00  0.1840E+00
     -2.717  0.1910E-09  0.1908E-09  0.1840E+00  0.1840E+00
     -2.617  0.2138E-04  0.2135E-04  0.1840E+00  0.1840E+00
     -2.518  0.2867E-02  0.2866E-02  0.1843E+00  0.1843E+00
     -2.418  0.2115E-02  0.2116E-02  0.1845E+00  0.1845E+00
     -2.318  0.6409E-05  0.6419E-05  0.1845E+00  0.1845E+00
     -2.218  0.2581E-05  0.2577E-05  0.1845E+00  0.1845E+00
     -2.118  0.1519E-02  0.1518E-02  0.1847E+00  0.1847E+00
     -2.019  0.5022E-02  0.5022E-02  0.1852E+00  0.1852E+00
     -1.919  0.1993E-02  0.1993E-02  0.1854E+00  0.1854E+00
     -1.819  0.5394E-02  0.5394E-02  0.1859E+00  0.1859E+00
     -1.719  0.1096E-02  0.1097E-02  0.1860E+00  0.1860E+00
     -1.619  0.3570E-03  0.3567E-03  0.1860E+00  0.1860E+00
     -1.519  0.6859E-02  0.6859E-02  0.1867E+00  0.1867E+00
     -1.420  0.4588E-02  0.4588E-02  0.1872E+00  0.1872E+00
     -1.320  0.3193E-02  0.3194E-02  0.1875E+00  0.1875E+00
     -1.220  0.1012E-02  0.1012E-02  0.1876E+00  0.1876E+00
     -1.120  0.7638E-02  0.7636E-02  0.1884E+00  0.1884E+00
     -1.020  0.1786E-01  0.1786E-01  0.1901E+00  0.1901E+00
     -0.921  0.8063E-02  0.8065E-02  0.1909E+00  0.1909E+00
     -0.821  0.1040E-01  0.1040E-01  0.1920E+00  0.1920E+00
     -0.721  0.9060E-02  0.9061E-02  0.1929E+00  0.1929E+00
     -0.621  0.6528E-02  0.6529E-02  0.1935E+00  0.1935E+00
     -0.521  0.6674E-02  0.6674E-02  0.1942E+00  0.1942E+00
     -0.421  0.5125E-02  0.5124E-02  0.1947E+00  0.1947E+00
     -0.322  0.7511E-02  0.7512E-02  0.1955E+00  0.1955E+00
     -0.222  0.1071E-01  0.1071E-01  0.1965E+00  0.1965E+00
     -0.122  0.1035E-01  0.1035E-01  0.1976E+00  0.1976E+00
     -0.022  0.1061E-01  0.1061E-01  0.1986E+00  0.1986E+00
      0.078  0.1010E-01  0.1010E-01  0.1996E+00  0.1996E+00
      0.177  0.3373E-02  0.3374E-02  0.2000E+00  0.2000E+00
      0.277  0.4315E-03  0.4315E-03  0.2000E+00  0.2000E+00
      0.377  0.4810E-02  0.4809E-02  0.2005E+00  0.2005E+00
      0.477  0.7083E-02  0.7083E-02  0.2012E+00  0.2012E+00
      0.577  0.1026E-01  0.1026E-01  0.2022E+00  0.2022E+00
      0.676  0.4933E-02  0.4934E-02  0.2027E+00  0.2027E+00
      0.776  0.4128E-02  0.4127E-02  0.2031E+00  0.2031E+00
      0.876  0.6649E-02  0.6649E-02  0.2038E+00  0.2038E+00
      0.976  0.9577E-02  0.9577E-02  0.2048E+00  0.2048E+00
      1.076  0.9520E-02  0.9521E-02  0.2057E+00  0.2057E+00
      1.176  0.4057E-02  0.4056E-02  0.2061E+00  0.2061E+00
      1.275  0.1278E-01  0.1278E-01  0.2074E+00  0.2074E+00
      1.375  0.1932E-01  0.1932E-01  0.2093E+00  0.2093E+00
      1.475  0.1743E-01  0.1743E-01  0.2111E+00  0.2111E+00
      1.575  0.8381E-02  0.8381E-02  0.2119E+00  0.2119E+00
      1.675  0.5645E-02  0.5644E-02  0.2125E+00  0.2125E+00
      1.774  0.7489E-02  0.7489E-02  0.2132E+00  0.2132E+00
      1.874  0.1127E-01  0.1127E-01  0.2143E+00  0.2143E+00
      1.974  0.2172E-01  0.2172E-01  0.2165E+00  0.2165E+00
      2.074  0.2737E-01  0.2737E-01  0.2192E+00  0.2192E+00
      2.174  0.4247E-02  0.4248E-02  0.2196E+00  0.2196E+00
      2.274  0.1566E-01  0.1566E-01  0.2212E+00  0.2212E+00
      2.373  0.2353E-01  0.2353E-01  0.2236E+00  0.2236E+00
      2.473  0.2211E-01  0.2211E-01  0.2258E+00  0.2258E+00
      2.573  0.6851E-02  0.6851E-02  0.2264E+00  0.2264E+00
      2.673  0.1089E-01  0.1089E-01  0.2275E+00  0.2275E+00
      2.773  0.1969E-01  0.1969E-01  0.2295E+00  0.2295E+00
      2.872  0.4297E-01  0.4297E-01  0.2338E+00  0.2338E+00
      2.972  0.4424E-01  0.4424E-01  0.2382E+00  0.2382E+00
      3.072  0.1432E-01  0.1432E-01  0.2396E+00  0.2396E+00
      3.172  0.1006E-01  0.1006E-01  0.2406E+00  0.2406E+00
      3.272  0.1533E-01  0.1533E-01  0.2422E+00  0.2422E+00
      3.372  0.1362E-01  0.1362E-01  0.2435E+00  0.2435E+00
      3.471  0.3298E-01  0.3298E-01  0.2468E+00  0.2468E+00
      3.571  0.1109E-01  0.1109E-01  0.2479E+00  0.2479E+00
      3.671  0.9467E-02  0.9467E-02  0.2489E+00  0.2489E+00
      3.771  0.2312E-01  0.2312E-01  0.2512E+00  0.2512E+00
      3.871  0.3345E-01  0.3346E-01  0.2545E+00  0.2545E+00
      3.970  0.2447E-01  0.2447E-01  0.2570E+00  0.2570E+00
      4.070  0.1430E-01  0.1429E-01  0.2584E+00  0.2584E+00
      4.170  0.1598E-01  0.1570E-01  0.2600E+00  0.2600E+00
      4.270  0.2235E-01  0.2020E-01  0.2622E+00  0.2620E+00
      4.370  0.1963E-01  0.2402E-01  0.2642E+00  0.2644E+00
      4.469  0.5576E-02  0.4788E-02  0.2647E+00  0.2648E+00
      4.569  0.2603E-02  0.1501E-02  0.2650E+00  0.2650E+00
      4.669  0.9104E-04  0.1294E-04  0.2650E+00  0.2650E+00
      4.769  0.4810E-08  0.8942E-10  0.2650E+00  0.2650E+00
      4.869  0.1232E-15  0.2781E-18  0.2650E+00  0.2650E+00
      4.969  0.0000E+00  0.0000E+00  0.2650E+00  0.2650E+00
      5.068  0.0000E+00  0.0000E+00  0.2650E+00  0.2650E+00
      5.168  0.0000E+00  0.0000E+00  0.2650E+00  0.2650E+00
      5.268  0.0000E+00  0.0000E+00  0.2650E+00  0.2650E+00
      5.368  0.0000E+00  0.0000E+00  0.2650E+00  0.2650E+00
      5.468  0.0000E+00  0.0000E+00  0.2650E+00  0.2650E+00
      5.567  0.0000E+00  0.0000E+00  0.2650E+00  0.2650E+00
      5.667  0.0000E+00  0.0000E+00  0.2650E+00  0.2650E+00
      5.767  0.0000E+00  0.0000E+00  0.2650E+00  0.2650E+00
      5.867  0.0000E+00  0.0000E+00  0.2650E+00  0.2650E+00
