 vasp.6.4.2 20Jul23 (build Aug 26 2025 15:10:52) complex                        
  
 executed on             LinuxIFC date 2025.12.02  12:58:02
 running   50 mpi-ranks, on    1 nodes
 each image running on   10 cores
 distrk:  each k-point on    5 cores,    2 groups
 distr:  one band on NCORE=   1 cores,    5 groups


--------------------------------------------------------------------------------------------------------


 INCAR:
   ENCUT = 520
   EDIFF = 1E-6
   NELM = 200
   ALGO = Normal
   ISMEAR = 0
   SIGMA = 0.05
   LASPH = .TRUE.
   ADDGRID = .TRUE.
   LREAL = Auto
   ISYM = 0
   ISPIN = 2
   MAGMOM = 95*0.6
   IMIX = 4
   AMIX = 0.20
   BMIX = 1E-4
   AMIX_MAG = 0.80
   BMIX_MAG = 1E-4
   IBRION = 3
   IOPT = 7
   IMAGES = 5
   SPRING = -5
   LCLIMB = .TRUE.
   ISIF = 2
   EDIFFG = -0.03
   NSW = 1000
   IVDW = 12
   ISTART = 0
   ICHARG = 2
   LWAVE = .FALSE.
   LCHARG = .FALSE.
   KPAR = 2

 POTCAR:    PAW_PBE C 08Apr2002                   
 POTCAR:    PAW_PBE H 15Jun2001                   
 POTCAR:    PAW_PBE N 08Apr2002                   
 POTCAR:    PAW_PBE O 08Apr2002                   
 -----------------------------------------------------------------------------
|                                                                             |
|           W    W    AA    RRRRR   N    N  II  N    N   GGGG   !!!           |
|           W    W   A  A   R    R  NN   N  II  NN   N  G    G  !!!           |
|           W    W  A    A  R    R  N N  N  II  N N  N  G       !!!           |
|           W WW W  AAAAAA  RRRRR   N  N N  II  N  N N  G  GGG   !            |
|           WW  WW  A    A  R   R   N   NN  II  N   NN  G    G                |
|           W    W  A    A  R    R  N    N  II  N    N   GGGG   !!!           |
|                                                                             |
|     For optimal performance we recommend to set                             |
|       NCORE = 2 up to number-of-cores-per-socket                            |
|     NCORE specifies how many cores store one orbital (NPAR=cpu/NCORE).      |
|     This setting can greatly improve the performance of VASP for DFT.       |
|     The default, NCORE=1 might be grossly inefficient on modern             |
|     multi-core architectures or massively parallel machines. Do your        |
|     own testing! More info at https://www.vasp.at/wiki/index.php/NCORE      |
|     Unfortunately you need to use the default for GW and RPA                |
|     calculations (for HF NCORE is supported but not extensively tested      |
|     yet).                                                                   |
|                                                                             |
 -----------------------------------------------------------------------------

 POTCAR:    PAW_PBE C 08Apr2002                   
   SHA256 =  253f7b50bb8d59471dbedb8285d89021f4a42ed1a2c5d38a03a736e69125dd95 C/POTCAR              
   COPYR  = (c) Copyright 08Apr2002 Georg Kresse                                                    
   COPYR  = This file is part of the software VASP. Any use, copying, and all other rights are regul
   COPYR  = If you do not have a valid VASP license, you may not use, copy or distribute this file. 
   VRHFIN =C: s2p2                                                                                  
   LEXCH  = PE                                                                                      
   EATOM  =   147.1560 eV,   10.8157 Ry                                                             
                                                                                                    
   TITEL  = PAW_PBE C 08Apr2002                                                                     
   LULTRA =        F    use ultrasoft PP ?                                                          
   IUNSCR =        1    unscreen: 0-lin 1-nonlin 2-no                                               
   RPACOR =    1.200    partial core radius                                                         
   POMASS =   12.011; ZVAL   =    4.000    mass and valenz                                          
   RCORE  =    1.500    outmost cutoff radius                                                       
   RWIGS  =    1.630; RWIGS  =    0.863    wigner-seitz radius (au A)                               
   ENMAX  =  400.000; ENMIN  =  300.000 eV                                                          
   ICORE  =        2    local potential                                                             
   LCOR   =        T    correct aug charges                                                         
   LPAW   =        T    paw PP                                                                      
   EAUG   =  644.873                                                                                
   DEXC   =    0.000                                                                                
   RMAX   =    1.529    core radius for proj-oper                                                   
   RAUG   =    1.300    factor for augmentation sphere                                              
   RDEP   =    1.501    radius for radial grids                                                     
   RDEPT  =    1.300    core radius for aug-charge                                                  
                                                                                                    
   Atomic configuration                                                                             
    4 entries                                                                                       
     n  l   j            E        occ.                                                              
     1  0  0.50      -273.3789   2.0000                                                             
     2  0  0.50       -13.7508   2.0000                                                             
     2  1  0.50        -5.2854   2.0000                                                             
     3  2  1.50        -5.4423   0.0000                                                             
   Description                                                                                      
     l       E           TYP  RCUT    TYP  RCUT                                                     
     0    -13.7508458     23  1.200                                                                 
     0     -8.2022199     23  1.200                                                                 
     1     -5.2854383     23  1.500                                                                 
     1     34.0145650     23  1.500                                                                 
     2     -5.4423304      7  1.500                                                                 
  local pseudopotential read in
  partial core-charges read in
  partial kinetic energy density read in
  atomic valenz-charges read in
  non local Contribution for L=           0  read in
    real space projection operators read in
  non local Contribution for L=           0  read in
    real space projection operators read in
  non local Contribution for L=           1  read in
    real space projection operators read in
  non local Contribution for L=           1  read in
    real space projection operators read in
    PAW grid and wavefunctions read in
 
   number of l-projection  operators is LMAX  =           4
   number of lm-projection operators is LMMAX =           8
 
 POTCAR:    PAW_PBE H 15Jun2001                   
   SHA256 =  030f79b5d3ab3cf0e668861823c8fb652ff669f3e15e46930bd03bfd63a607b6 H/POTCAR              
   COPYR  = (c) Copyright 15Jun2001 Georg Kresse                                                    
   COPYR  = This file is part of the software VASP. Any use, copying, and all other rights are regul
   COPYR  = If you do not have a valid VASP license, you may not use, copy or distribute this file. 
   VRHFIN =H: ultrasoft test                                                                        
   LEXCH  = PE                                                                                      
   EATOM  =    12.4884 eV,    0.9179 Ry                                                             
                                                                                                    
   TITEL  = PAW_PBE H 15Jun2001                                                                     
   LULTRA =        F    use ultrasoft PP ?                                                          
   IUNSCR =        0    unscreen: 0-lin 1-nonlin 2-no                                               
   RPACOR =    0.000    partial core radius                                                         
   POMASS =    1.000; ZVAL   =    1.000    mass and valenz                                          
   RCORE  =    1.100    outmost cutoff radius                                                       
   RWIGS  =    0.700; RWIGS  =    0.370    wigner-seitz radius (au A)                               
   ENMAX  =  250.000; ENMIN  =  200.000 eV                                                          
   RCLOC  =    0.701    cutoff for local pot                                                        
   LCOR   =        T    correct aug charges                                                         
   LPAW   =        T    paw PP                                                                      
   EAUG   =  400.000                                                                                
   RMAX   =    1.123    core radius for proj-oper                                                   
   RAUG   =    1.200    factor for augmentation sphere                                              
   RDEP   =    1.112    radius for radial grids                                                     
   RDEPT  =    0.926    core radius for aug-charge                                                  
                                                                                                    
   Atomic configuration                                                                             
    2 entries                                                                                       
     n  l   j            E        occ.                                                              
     1  0  0.50        -6.4927   1.0000                                                             
     2  1  0.50        -3.4015   0.0000                                                             
   Description                                                                                      
     l       E           TYP  RCUT    TYP  RCUT                                                     
     0     -6.4927494     23  1.100                                                                 
     0      6.8029130     23  1.100                                                                 
     1     -4.0817478     23  1.100                                                                 
  local pseudopotential read in
  atomic valenz-charges read in
  non local Contribution for L=           0  read in
    real space projection operators read in
  non local Contribution for L=           0  read in
    real space projection operators read in
  non local Contribution for L=           1  read in
    real space projection operators read in
    PAW grid and wavefunctions read in
 
   number of l-projection  operators is LMAX  =           3
   number of lm-projection operators is LMMAX =           5
 
 POTCAR:    PAW_PBE N 08Apr2002                   
   SHA256 =  e053789ff3a61a86a1b75d8a110fcc91f86041011e7b0817c7c99e4e8a6349d7 N/POTCAR              
   COPYR  = (c) Copyright 08Apr2002 Georg Kresse                                                    
   COPYR  = This file is part of the software VASP. Any use, copying, and all other rights are regul
   COPYR  = If you do not have a valid VASP license, you may not use, copy or distribute this file. 
   VRHFIN =N: s2p3                                                                                  
   LEXCH  = PE                                                                                      
   EATOM  =   264.5486 eV,   19.4438 Ry                                                             
                                                                                                    
   TITEL  = PAW_PBE N 08Apr2002                                                                     
   LULTRA =        F    use ultrasoft PP ?                                                          
   IUNSCR =        1    unscreen: 0-lin 1-nonlin 2-no                                               
   RPACOR =    1.200    partial core radius                                                         
   POMASS =   14.001; ZVAL   =    5.000    mass and valenz                                          
   RCORE  =    1.500    outmost cutoff radius                                                       
   RWIGS  =    1.400; RWIGS  =    0.741    wigner-seitz radius (au A)                               
   ENMAX  =  400.000; ENMIN  =  300.000 eV                                                          
   ICORE  =        2    local potential                                                             
   LCOR   =        T    correct aug charges                                                         
   LPAW   =        T    paw PP                                                                      
   EAUG   =  627.112                                                                                
   DEXC   =    0.000                                                                                
   RMAX   =    1.529    core radius for proj-oper                                                   
   RAUG   =    1.300    factor for augmentation sphere                                              
   RDEP   =    1.514    radius for radial grids                                                     
   RDEPT  =    1.338    core radius for aug-charge                                                  
                                                                                                    
   Atomic configuration                                                                             
    4 entries                                                                                       
     n  l   j            E        occ.                                                              
     1  0  0.50      -384.7179   2.0000                                                             
     2  0  0.50       -18.5828   2.0000                                                             
     2  1  0.50        -7.0898   3.0000                                                             
     3  2  1.50        -6.8029   0.0000                                                             
   Description                                                                                      
     l       E           TYP  RCUT    TYP  RCUT                                                     
     0    -18.5828119     23  1.200                                                                 
     0    -13.5018863     23  1.200                                                                 
     1     -7.0897853     23  1.500                                                                 
     1      9.5240782     23  1.500                                                                 
     2     -6.8029130      7  1.500                                                                 
  local pseudopotential read in
  partial core-charges read in
  partial kinetic energy density read in
  atomic valenz-charges read in
  non local Contribution for L=           0  read in
    real space projection operators read in
  non local Contribution for L=           0  read in
    real space projection operators read in
  non local Contribution for L=           1  read in
    real space projection operators read in
  non local Contribution for L=           1  read in
    real space projection operators read in
    PAW grid and wavefunctions read in
 
   number of l-projection  operators is LMAX  =           4
   number of lm-projection operators is LMMAX =           8
 
 POTCAR:    PAW_PBE O 08Apr2002                   
   SHA256 =  818f92134a0a090dccd8ba1447fa70422a3b330e708bb4f08108d8ae51209ddf O/POTCAR              
   COPYR  = (c) Copyright 08Apr2002 Georg Kresse                                                    
   COPYR  = This file is part of the software VASP. Any use, copying, and all other rights are regul
   COPYR  = If you do not have a valid VASP license, you may not use, copy or distribute this file. 
   VRHFIN =O: s2p4                                                                                  
   LEXCH  = PE                                                                                      
   EATOM  =   432.3788 eV,   31.7789 Ry                                                             
                                                                                                    
   TITEL  = PAW_PBE O 08Apr2002                                                                     
   LULTRA =        F    use ultrasoft PP ?                                                          
   IUNSCR =        1    unscreen: 0-lin 1-nonlin 2-no                                               
   RPACOR =    1.200    partial core radius                                                         
   POMASS =   16.000; ZVAL   =    6.000    mass and valenz                                          
   RCORE  =    1.520    outmost cutoff radius                                                       
   RWIGS  =    1.550; RWIGS  =    0.820    wigner-seitz radius (au A)                               
   ENMAX  =  400.000; ENMIN  =  300.000 eV                                                          
   ICORE  =        2    local potential                                                             
   LCOR   =        T    correct aug charges                                                         
   LPAW   =        T    paw PP                                                                      
   EAUG   =  605.392                                                                                
   DEXC   =    0.000                                                                                
   RMAX   =    1.553    core radius for proj-oper                                                   
   RAUG   =    1.300    factor for augmentation sphere                                              
   RDEP   =    1.550    radius for radial grids                                                     
   RDEPT  =    1.329    core radius for aug-charge                                                  
                                                                                                    
   Atomic configuration                                                                             
    4 entries                                                                                       
     n  l   j            E        occ.                                                              
     1  0  0.50      -514.6923   2.0000                                                             
     2  0  0.50       -23.9615   2.0000                                                             
     2  1  0.50        -9.0305   4.0000                                                             
     3  2  1.50        -9.5241   0.0000                                                             
   Description                                                                                      
     l       E           TYP  RCUT    TYP  RCUT                                                     
     0    -23.9615318     23  1.200                                                                 
     0     -9.5240782     23  1.200                                                                 
     1     -9.0304911     23  1.520                                                                 
     1      8.1634956     23  1.520                                                                 
     2     -9.5240782      7  1.500                                                                 
  local pseudopotential read in
  partial core-charges read in
  partial kinetic energy density read in
  kinetic energy density of atom read in
  atomic valenz-charges read in
  non local Contribution for L=           0  read in
    real space projection operators read in
  non local Contribution for L=           0  read in
    real space projection operators read in
  non local Contribution for L=           1  read in
    real space projection operators read in
  non local Contribution for L=           1  read in
    real space projection operators read in
    PAW grid and wavefunctions read in
 
   number of l-projection  operators is LMAX  =           4
   number of lm-projection operators is LMMAX =           8
 
 Optimization of the real space projectors (new method)

 maximal supplied QI-value         = 25.13
 optimisation between [QCUT,QGAM] = [ 11.56, 23.12] = [ 37.43,149.72] Ry 
 Optimized for a Real-space Cutoff    1.04 Angstroem

   l    n(q)    QCUT    max X(q) W(low)/X(q) W(high)/X(q)  e(spline) 
   0      7    11.561   115.676    0.20E-03    0.60E-03    0.21E-06
   0      7    11.561    87.132    0.20E-03    0.59E-03    0.21E-06
   1      7    11.561     4.429    0.23E-03    0.35E-03    0.15E-06
   1      7    11.561     2.733    0.18E-03    0.25E-03    0.12E-06
 Optimization of the real space projectors (new method)

 maximal supplied QI-value         = 34.20
 optimisation between [QCUT,QGAM] = [ 11.63, 23.26] = [ 37.87,151.49] Ry 
 Optimized for a Real-space Cutoff    1.14 Angstroem

   l    n(q)    QCUT    max X(q) W(low)/X(q) W(high)/X(q)  e(spline) 
   0      8    11.629    19.460    0.27E-03    0.65E-03    0.17E-06
   0      8    11.629    12.209    0.25E-03    0.62E-03    0.16E-06
   1      7    11.629     4.655    0.29E-03    0.85E-04    0.19E-06
 Optimization of the real space projectors (new method)

 maximal supplied QI-value         = 25.13
 optimisation between [QCUT,QGAM] = [ 11.56, 23.12] = [ 37.43,149.72] Ry 
 Optimized for a Real-space Cutoff    1.25 Angstroem

   l    n(q)    QCUT    max X(q) W(low)/X(q) W(high)/X(q)  e(spline) 
   0      9    11.561    79.467    0.52E-04    0.16E-03    0.37E-06
   0      9    11.561    66.151    0.51E-04    0.16E-03    0.37E-06
   1      8    11.561    18.886    0.46E-03    0.28E-03    0.80E-06
   1      8    11.561    13.488    0.47E-03    0.29E-03    0.82E-06
 Optimization of the real space projectors (new method)

 maximal supplied QI-value         = 24.76
 optimisation between [QCUT,QGAM] = [ 11.64, 23.27] = [ 37.91,151.63] Ry 
 Optimized for a Real-space Cutoff    1.04 Angstroem

   l    n(q)    QCUT    max X(q) W(low)/X(q) W(high)/X(q)  e(spline) 
   0      7    11.635    20.381    0.14E-03    0.49E-03    0.18E-06
   0      7    11.635    15.268    0.16E-03    0.52E-03    0.19E-06
   1      7    11.635     5.964    0.30E-03    0.44E-03    0.22E-06
   1      7    11.635     5.382    0.27E-03    0.34E-03    0.19E-06
  PAW_PBE C 08Apr2002                   :
 energy of atom  1       EATOM= -147.1560
 kinetic energy error for atom=    0.0071 (will be added to EATOM!!)
  PAW_PBE H 15Jun2001                   :
 energy of atom  2       EATOM=  -12.4884
 kinetic energy error for atom=    0.0014 (will be added to EATOM!!)
  PAW_PBE N 08Apr2002                   :
 energy of atom  3       EATOM= -264.5486
 kinetic energy error for atom=    0.0125 (will be added to EATOM!!)
  PAW_PBE O 08Apr2002                   :
 energy of atom  4       EATOM= -432.3788
 kinetic energy error for atom=    0.0208 (will be added to EATOM!!)
 
 
 POSCAR: C    H    N    O
  positions in direct lattice
  velocities in cartesian coordinates
 exchange correlation table for  LEXCH =        8
   RHO(1)=    0.500       N(1)  =     2000
   RHO(2)=  100.500       N(2)  =     4000

 VTST: version 4.1, (05/19/21)

 CHAIN: initializing optimizer
 
 OPT: Using FIRE optimizer
 OPT: FIRE, Init
 OPT: FIRE, MAXMOVE       0.20000
 OPT: FIRE, TIMESTEP      0.10000
 OPT: FIRE, FTIMEMAX      1.00000
 OPT: FIRE, FTIMEINC      1.10000
 OPT: FIRE, FTIMEDEC      0.50000
 OPT: FIRE, FALPHADEC     0.99000
 OPT: FIRE, FALPHA        0.10000
 OPT: FIRE, FNMIN         5
 
 CHAIN: Read ICHAIN            0
 CHAIN: Running the NEB
 NEB:          SPRING     -5.000000
 NEB:          LCLIMB      T
 NEB:     LTANGENTOLD      F
 NEB:           LDNEB      F
 NEB:        LDNEBORG      F
 NEB:        LNEBCELL      F
 NEB:          EFIRST      0.000000
 NEB:           ELAST      0.000000
 
 POSCAR: C    H    N    O
  positions in direct lattice
  No initial velocities read in
 
 POSCAR: C    H    N    O
  positions in direct lattice
  No initial velocities read in
 
 POSCAR: C    H    N    O
  positions in direct lattice
  No initial velocities read in
 
 POSCAR: C    H    N    O
  positions in direct lattice
  No initial velocities read in
 


--------------------------------------------------------------------------------------------------------


 ion  position               nearest neighbor table
   1  0.001  0.001  0.499-  51 1.43  45 1.43  84 1.43
   2  0.001  0.143  0.500-  46 1.42  78 1.42  45 1.43
   3  0.001  0.286  0.500-  46 1.42  79 1.42  47 1.42
   4  0.001  0.429  0.500-  47 1.42  80 1.43  48 1.43
   5  0.001  0.572  0.500-  49 1.43  48 1.43  81 1.43
   6  0.002  0.715  0.500-  49 1.43  50 1.43  82 1.43
   7  0.002  0.858  0.500-  51 1.43  50 1.43  83 1.43
   8  0.145  0.002  0.500-  52 1.43  58 1.43  51 1.43
   9  0.145  0.145  0.501-  52 1.43  53 1.43  45 1.43
  10  0.143  0.286  0.501-  54 1.42  53 1.42  46 1.42
  11  0.143  0.428  0.501-  54 1.42  55 1.42  47 1.42
  12  0.145  0.572  0.501-  56 1.43  55 1.43  48 1.43
  13  0.145  0.715  0.500-  56 1.43  57 1.43  49 1.43
  14  0.145  0.858  0.500-  58 1.43  57 1.43  50 1.43
  15  0.288  0.002  0.500-  58 1.42  63 1.43  59 1.44
  16  0.288  0.147  0.501-  52 1.43  59 1.43  60 1.44
  17  0.288  0.293  0.503-  91 1.35  53 1.44  60 1.48
  18  0.286  0.428  0.504-  91 1.37  92 1.37  54 1.43
  19  0.288  0.566  0.503-  92 1.35  55 1.44  61 1.48
  20  0.288  0.713  0.502-  56 1.43  62 1.43  61 1.44
  21  0.288  0.858  0.500-  57 1.43  63 1.43  62 1.44
  22  0.431  0.001  0.500-  63 1.43  67 1.43  64 1.43
  23  0.431  0.146  0.501-  59 1.43  64 1.43  65 1.44
  24  0.431  0.287  0.501-  85 1.09  60 1.40  65 1.40
  25  0.431  0.715  0.501-  88 1.09  61 1.40  66 1.40
  26  0.431  0.857  0.501-  62 1.43  67 1.43  66 1.44
  27  0.573  0.001  0.500-  67 1.42  68 1.42  70 1.43
  28  0.573  0.144  0.500-  64 1.42  68 1.42  69 1.43
  29  0.577  0.290  0.500-  93 1.35  69 1.43  65 1.46
  30  0.577  0.858  0.500-  94 1.35  70 1.43  66 1.46
  31  0.716  0.001  0.500-  70 1.42  77 1.42  71 1.42
  32  0.716  0.144  0.499-  72 1.42  71 1.42  68 1.43
  33  0.716  0.286  0.499-  69 1.42  73 1.42  72 1.42
  34  0.712  0.426  0.500-  93 1.35  73 1.43  74 1.47
  35  0.716  0.572  0.503-  87 1.09  74 1.39  75 1.42
  36  0.716  0.715  0.503-  86 1.09  76 1.39  75 1.42
  37  0.712  0.858  0.500-  94 1.35  77 1.43  76 1.47
  38  0.858  0.000  0.499-  78 1.42  84 1.43  77 1.43
  39  0.858  0.143  0.499-  71 1.42  79 1.42  78 1.43
  40  0.858  0.286  0.499-  72 1.42  79 1.42  80 1.43
  41  0.858  0.429  0.499-  80 1.42  81 1.43  73 1.43
  42  0.857  0.572  0.500-  81 1.43  82 1.43  74 1.44
  43  0.859  0.715  0.500-  82 1.42  83 1.42  75 1.43
  44  0.858  0.857  0.500-  84 1.43  83 1.43  76 1.44
  45  0.049  0.096  0.500-   2 1.43   1 1.43   9 1.43
  46  0.048  0.238  0.500-   2 1.42   3 1.42  10 1.42
  47  0.048  0.381  0.500-   4 1.42   3 1.42  11 1.42
  48  0.049  0.524  0.500-   4 1.43   5 1.43  12 1.43
  49  0.050  0.667  0.500-   6 1.43   5 1.43  13 1.43
  50  0.050  0.810  0.500-   6 1.43   7 1.43  14 1.43
  51  0.050  0.954  0.500-   7 1.43   1 1.43   8 1.43
  52  0.193  0.097  0.501-   9 1.43   8 1.43  16 1.43
  53  0.192  0.240  0.501-  10 1.42   9 1.43  17 1.44
  54  0.190  0.381  0.502-  10 1.42  11 1.42  18 1.43
  55  0.192  0.523  0.502-  11 1.42  12 1.43  19 1.44
  56  0.193  0.667  0.501-  12 1.43  13 1.43  20 1.43
  57  0.193  0.810  0.500-  21 1.43  14 1.43  13 1.43
  58  0.193  0.954  0.500-  15 1.42  14 1.43   8 1.43
  59  0.336  0.098  0.501-  23 1.43  16 1.43  15 1.44
  60  0.337  0.243  0.502-  24 1.40  16 1.44  17 1.48
  61  0.337  0.665  0.502-  25 1.40  20 1.44  19 1.48
  62  0.336  0.809  0.501-  26 1.43  20 1.43  21 1.44
  63  0.335  0.953  0.500-  22 1.43  15 1.43  21 1.43
  64  0.478  0.097  0.500-  28 1.42  22 1.43  23 1.43
  65  0.479  0.242  0.501-  24 1.40  23 1.44  29 1.46
  66  0.479  0.808  0.501-  25 1.40  26 1.44  30 1.46
  67  0.478  0.953  0.500-  27 1.42  22 1.43  26 1.43
  68  0.620  0.096  0.500-  27 1.42  28 1.42  32 1.43
  69  0.621  0.239  0.500-  33 1.42  29 1.43  28 1.43
  70  0.621  0.953  0.500-  31 1.42  30 1.43  27 1.43
  71  0.763  0.096  0.499-  39 1.42  32 1.42  31 1.42
  72  0.763  0.239  0.499-  40 1.42  32 1.42  33 1.42
  73  0.763  0.381  0.500-  33 1.42  41 1.43  34 1.43
  74  0.761  0.524  0.501-  35 1.39  42 1.44  34 1.47
  75  0.763  0.667  0.502-  36 1.42  35 1.42  43 1.43
  76  0.761  0.808  0.501-  36 1.39  44 1.44  37 1.47
  77  0.763  0.953  0.500-  31 1.42  38 1.43  37 1.43
  78  0.906  0.095  0.499-  38 1.42   2 1.42  39 1.43
  79  0.906  0.238  0.499-   3 1.42  39 1.42  40 1.42
  80  0.906  0.382  0.499-  41 1.42   4 1.43  40 1.43
  81  0.906  0.525  0.500-  42 1.43  41 1.43   5 1.43
  82  0.906  0.667  0.500-  43 1.42  42 1.43   6 1.43
  83  0.906  0.810  0.500-  43 1.42  44 1.43   7 1.43
  84  0.906  0.953  0.499-  38 1.43  44 1.43   1 1.43
  85  0.468  0.360  0.500-  24 1.09
  86  0.643  0.678  0.505-  36 1.09
  87  0.643  0.537  0.505-  35 1.09
  88  0.468  0.680  0.501-  25 1.09
  89  0.461  0.559  0.554-  95 0.98
  90  0.461  0.473  0.553-  95 0.98
  91  0.332  0.383  0.505-  17 1.35  18 1.37
  92  0.332  0.520  0.505-  19 1.35  18 1.37
  93  0.622  0.381  0.500-  34 1.35  29 1.35
  94  0.622  0.813  0.500-  37 1.35  30 1.35
  95  0.501  0.536  0.570-  89 0.98  90 0.98
 

IMPORTANT INFORMATION: All symmetrisations will be switched off!
NOSYMM: (Re-)initialisation of all symmetry stuff for point group C_1.


----------------------------------------------------------------------------------------

                                     Primitive cell                                     

  volume of cell :    3874.8846

  direct lattice vectors                    reciprocal lattice vectors
    17.271038055  0.000000000  0.000000000     0.057900399  0.033428811  0.000000000
    -8.635519028 14.957157706  0.000000000     0.000000000  0.066857622  0.000000000
     0.000000000  0.000000000 15.000000000     0.000000000  0.000000000  0.066666667

  length of vectors
    17.271038055 17.271038055 15.000000000     0.066857622  0.066857622  0.066666667

  position of ions in fractional coordinates (direct lattice)
     0.001496699  0.000679881  0.499497320
     0.001001628  0.143166836  0.499553725
     0.000655582  0.286010709  0.499574102
     0.000989800  0.429171471  0.499702860
     0.001479684  0.572133497  0.499780402
     0.001844278  0.714986643  0.499730410
     0.001868843  0.858222892  0.499658073
     0.145269084  0.001823782  0.500207000
     0.144832805  0.144525252  0.500555585
     0.142982525  0.285972943  0.500898923
     0.142986894  0.428345361  0.501018106
     0.144852365  0.571603859  0.500891521
     0.145270151  0.714739053  0.500387188
     0.145182544  0.858249887  0.500025397
     0.288153548  0.001876315  0.500467911
     0.288431896  0.146553807  0.501399078
     0.287745613  0.292734670  0.502948203
     0.285580206  0.428436259  0.503920020
     0.287793147  0.566355376  0.503126946
     0.288498037  0.713272530  0.501501352
     0.288173404  0.857652172  0.500404891
     0.430696926  0.001025774  0.500365304
     0.431339572  0.145695234  0.500719479
     0.430536248  0.287314613  0.501244667
     0.430593299  0.714569565  0.501386737
     0.431403350  0.857029193  0.500714476
     0.573016424  0.000598828  0.499964542
     0.572992319  0.143769922  0.499923702
     0.576652692  0.290278569  0.500164715
     0.576724801  0.857754012  0.500292212
     0.715919780  0.001030849  0.499536947
     0.715738284  0.143540645  0.499324868
     0.715910952  0.286227710  0.499444646
     0.711923973  0.425700944  0.500205727
     0.716239965  0.572435036  0.502674856
     0.716271613  0.715160541  0.502725205
     0.711995810  0.857604652  0.500332769
     0.858288518  0.000313154  0.499388986
     0.858297001  0.143379476  0.499114832
     0.858287698  0.286239176  0.499034709
     0.858259348  0.429305462  0.499425926
     0.857485833  0.571551228  0.499868255
     0.858853536  0.715102923  0.500340906
     0.857529603  0.857311696  0.499893418
     0.049302580  0.096141769  0.499771179
     0.047855305  0.238174339  0.499905206
     0.047877500  0.381053821  0.500001956
     0.049299146  0.524487988  0.500082387
     0.049637776  0.667467511  0.499923434
     0.049522610  0.810419685  0.499789115
     0.049659524  0.953510128  0.499702313
     0.192876418  0.097260117  0.500808487
     0.191816990  0.240041361  0.501296817
     0.189925140  0.380623532  0.501626249
     0.191848732  0.523095243  0.501534040
     0.192911676  0.666937455  0.501055864
     0.192880308  0.810352374  0.500266556
     0.192887350  0.953839267  0.500246229
     0.335962255  0.098295174  0.500874784
     0.336969599  0.243111743  0.502132987
     0.337018815  0.665225484  0.502275455
     0.336002668  0.809070103  0.500858646
     0.335303323  0.953341015  0.500375776
     0.478005436  0.096556570  0.500330143
     0.478810316  0.241688225  0.500677613
     0.478865278  0.808478256  0.500775198
     0.478039690  0.952846805  0.500336637
     0.620312635  0.095834736  0.499702609
     0.621135620  0.239348978  0.499802649
     0.621179025  0.953163928  0.499899513
     0.763429569  0.096258657  0.499254897
     0.763427711  0.238501360  0.499160803
     0.762780345  0.381070895  0.499593947
     0.760936427  0.523997847  0.500759621
     0.762966371  0.667146098  0.502027493
     0.760987272  0.808310595  0.500877317
     0.762830158  0.953084052  0.499666548
     0.905745927  0.095346303  0.499256186
     0.905618724  0.238461574  0.499066364
     0.905714953  0.381715404  0.499292083
     0.905925878  0.524670503  0.499548034
     0.905944799  0.667065204  0.499872800
     0.905974294  0.810250910  0.499880158
     0.905964732  0.952649637  0.499426440
     0.468358383  0.360073192  0.500351553
     0.643364432  0.677770516  0.505288920
     0.643332603  0.536931625  0.505262463
     0.468399943  0.679616346  0.500508377
     0.461357871  0.559204764  0.553703346
     0.461200750  0.473435286  0.553497233
     0.331904942  0.383057393  0.505191653
     0.331922391  0.520158390  0.505266237
     0.621947036  0.380623760  0.500282312
     0.622015735  0.812704802  0.500444541
     0.501260335  0.536234161  0.569775954

  ion indices of the primitive-cell ions
   primitive index   ion index
                 1           1
                 2           2
                 3           3
                 4           4
                 5           5
                 6           6
                 7           7
                 8           8
                 9           9
                10          10
                11          11
                12          12
                13          13
                14          14
                15          15
                16          16
                17          17
                18          18
                19          19
                20          20
                21          21
                22          22
                23          23
                24          24
                25          25
                26          26
                27          27
                28          28
                29          29
                30          30
                31          31
                32          32
                33          33
                34          34
                35          35
                36          36
                37          37
                38          38
                39          39
                40          40
                41          41
                42          42
                43          43
                44          44
                45          45
                46          46
                47          47
                48          48
                49          49
                50          50
                51          51
                52          52
                53          53
                54          54
                55          55
                56          56
                57          57
                58          58
                59          59
                60          60
                61          61
                62          62
                63          63
                64          64
                65          65
                66          66
                67          67
                68          68
                69          69
                70          70
                71          71
                72          72
                73          73
                74          74
                75          75
                76          76
                77          77
                78          78
                79          79
                80          80
                81          81
                82          82
                83          83
                84          84
                85          85
                86          86
                87          87
                88          88
                89          89
                90          90
                91          91
                92          92
                93          93
                94          94
                95          95

----------------------------------------------------------------------------------------

 
 
 KPOINTS: Automatic mesh                          

Automatic generation of k-mesh.
 Grid dimensions read from file:
 generate k-points for:    2    2    1

 Generating k-lattice:

  Cartesian coordinates                     Fractional coordinates (reciprocal lattice)
     0.028950200  0.016714406  0.000000000     0.500000000  0.000000000  0.000000000
     0.000000000  0.033428811  0.000000000     0.000000000  0.500000000  0.000000000
     0.000000000  0.000000000  0.066666667     0.000000000  0.000000000  1.000000000

  Length of vectors
     0.033428811  0.033428811  0.066666667

  Shift w.r.t. Gamma in fractional coordinates (k-lattice)
     0.000000000  0.000000000  0.000000000

 
 Subroutine IBZKPT returns following result:
 ===========================================
 
 Found      4 irreducible k-points:
 
 Following reciprocal coordinates:
            Coordinates               Weight
  0.000000  0.000000  0.000000      1.000000
  0.500000  0.000000  0.000000      1.000000
  0.000000  0.500000  0.000000      1.000000
  0.500000  0.500000  0.000000      1.000000
 
 Following cartesian coordinates:
            Coordinates               Weight
  0.000000  0.000000  0.000000      1.000000
  0.028950  0.016714  0.000000      1.000000
  0.000000  0.033429  0.000000      1.000000
  0.028950  0.050143  0.000000      1.000000
 


--------------------------------------------------------------------------------------------------------




 Dimension of arrays:
   k-points           NKPTS =      4   k-points in BZ     NKDIM =      4   number of bands    NBANDS=    265
   number of dos      NEDOS =    301   number of ions     NIONS =     95
   non local maximal  LDIM  =      4   non local SUM 2l+1 LMDIM =      8
   total plane-waves  NPLWV = 774144
   max r-space proj   IRMAX =   1673   max aug-charges    IRDMAX=  20933
   dimension x,y,z NGX =    96 NGY =   96 NGZ =   84
   dimension x,y,z NGXF=   192 NGYF=  192 NGZF=  168
   support grid    NGXF=   384 NGYF=  384 NGZF=  336
   ions per type =              84   6   4   1
   NGX,Y,Z   is equivalent  to a cutoff of   9.24,  9.24,  9.31 a.u.
   NGXF,Y,Z  is equivalent  to a cutoff of  18.48, 18.48, 18.62 a.u.

 SYSTEM =  unknown system                          
 POSCAR =  C    H    N    O                        

 Startparameter for this run:
   NWRITE =      2    write-flag & timer
   PREC   = normal    normal or accurate (medium, high low for compatibility)
   ISTART =      0    job   : 0-new  1-cont  2-samecut
   ICHARG =      2    charge: 1-file 2-atom 10-const
   ISPIN  =      2    spin polarized calculation?
   LNONCOLLINEAR =      F non collinear calculations
   LSORBIT =      F    spin-orbit coupling
   INIWAV =      1    electr: 0-lowe 1-rand  2-diag
   LASPH  =      T    aspherical Exc in radial PAW
 Electronic Relaxation 1
   ENCUT  =  520.0 eV  38.22 Ry    6.18 a.u.  32.11 32.11 27.89*2*pi/ulx,y,z
   ENINI  =  520.0     initial cutoff
   ENAUG  =  644.9 eV  augmentation charge cutoff
   NELM   =    200;   NELMIN=  2; NELMDL= -5     # of ELM steps 
   EDIFF  = 0.1E-05   stopping-criterion for ELM
   LREAL  =      T    real-space projection
   NLSPLINE    = F    spline interpolate recip. space projectors
   LCOMPAT=      F    compatible to vasp.4.4
   GGA_COMPAT  = T    GGA compatible to vasp.4.4-vasp.4.6
   LMAXPAW     = -100 max onsite density
   LMAXMIX     =    2 max onsite mixed and CHGCAR
   VOSKOWN=      0    Vosko Wilk Nusair interpolation
   ROPT   =   -0.00050  -0.00050  -0.00050  -0.00050
 Ionic relaxation
   EDIFFG = -.3E-01   stopping-criterion for IOM
   NSW    =   1000    number of steps for IOM
   NBLOCK =      1;   KBLOCK =   1000    inner block; outer block 
   IBRION =      3    ionic relax: 0-MD 1-quasi-New 2-CG
   NFREE  =      0    steps in history (QN), initial steepest desc. (CG)
   ISIF   =      2    stress and relaxation
   IWAVPR =     11    prediction:  0-non 1-charg 2-wave 3-comb
   ISYM   =      0    0-nonsym 1-usesym 2-fastsym
   LCORR  =      T    Harris-Foulkes like correction to forces

   POTIM  = 0.5000    time-step for ionic-motion
   TEIN   =    0.0    initial temperature
   TEBEG  =    0.0;   TEEND  =   0.0 temperature during run
   SMASS  =  -3.00    Nose mass-parameter (am)
   estimated Nose-frequenzy (Omega)   =  0.10E-29 period in steps = 0.13E+47 mass=  -0.682E-26a.u.
   SCALEE = 1.0000    scale energy and forces
   NPACO  =    256;   APACO  = 10.0  distance and # of slots for P.C.
   PSTRESS=    0.0 pullay stress

  Mass of Ions in am
   POMASS =  12.01  1.00 14.00 16.00
  Ionic Valenz
   ZVAL   =   4.00  1.00  5.00  6.00
  Atomic Wigner-Seitz radii
   RWIGS  =  -1.00 -1.00 -1.00 -1.00
  virtual crystal weights 
   VCA    =   1.00  1.00  1.00  1.00
   NELECT =     368.0000    total number of electrons
   NUPDOWN=      -1.0000    fix difference up-down

 DOS related values:
   EMIN   =  10.00;   EMAX   =-10.00  energy-range for DOS
   EFERMI =   0.00;   METHOD = LEGACY      
   ISMEAR =     0;   SIGMA  =   0.05  broadening in eV -4-tet -1-fermi 0-gaus

 Electronic relaxation 2 (details)
   IALGO  =     38    algorithm
   LDIAG  =      T    sub-space diagonalisation (order eigenvalues)
   LSUBROT=      F    optimize rotation matrix (better conditioning)
   TURBO    =      0    0=normal 1=particle mesh
   IRESTART =      0    0=no restart 2=restart with 2 vectors
   NREBOOT  =      0    no. of reboots
   NMIN     =      0    reboot dimension
   EREF     =   0.00    reference energy to select bands
   IMIX   =      4    mixing-type and parameters
     AMIX     =   0.20;   BMIX     =  0.00
     AMIX_MAG =   0.80;   BMIX_MAG =  0.00
     AMIN     =   0.10
     WC   =   100.;   INIMIX=   1;  MIXPRE=   1;  MAXMIX= -45

 Intra band minimization:
   WEIMIN = 0.0010     energy-eigenvalue tresh-hold
   EBREAK =  0.94E-09  absolut break condition
   DEPER  =   0.30     relativ break condition  

   TIME   =   0.40     timestep for ELM

  volume/ion in A,a.u.               =      40.79       275.25
  Fermi-wavevector in a.u.,A,eV,Ry     =   0.746915  1.411465  7.590446  0.557882
  Thomas-Fermi vector in A             =   1.842848
 
 Write flags
   LWAVE        =      F    write WAVECAR
   LDOWNSAMPLE  =      F    k-point downsampling of WAVECAR
   LCHARG       =      F    write CHGCAR
   LVTOT        =      F    write LOCPOT, total local potential
   LVHAR        =      F    write LOCPOT, Hartree potential only
   LELF         =      F    write electronic localiz. function (ELF)
   LORBIT       =      0    0 simple, 1 ext, 2 COOP (PROOUT), +10 PAW based schemes


 Dipole corrections
   LMONO  =      F    monopole corrections only (constant potential shift)
   LDIPOL =      F    correct potential (dipole corrections)
   IDIPOL =      0    1-x, 2-y, 3-z, 4-all directions 
   EPSILON=  1.0000000 bulk dielectric constant

 Exchange correlation treatment:
   GGA     =    --    GGA type
   LEXCH   =     8    internal setting for exchange type
   LIBXC   =     F    Libxc                    
   VOSKOWN =     0    Vosko Wilk Nusair interpolation
   LHFCALC =     F    Hartree Fock is set to
   LHFONE  =     F    Hartree Fock one center treatment
   AEXX    =    0.0000 exact exchange contribution

 Linear response parameters
   LEPSILON=     F    determine dielectric tensor
   LRPA    =     F    only Hartree local field effects (RPA)
   LNABLA  =     F    use nabla operator in PAW spheres
   LVEL    =     F    velocity operator in full k-point grid
   CSHIFT  =0.1000    complex shift for real part using Kramers Kronig
   OMEGAMAX=  -1.0    maximum frequency
   DEG_THRESHOLD= 0.2000000E-02 threshold for treating states as degnerate
   RTIME   =   -0.100 relaxation time in fs
  (WPLASMAI=    0.000 imaginary part of plasma frequency in eV, 0.658/RTIME)
   DFIELD  = 0.0000000 0.0000000 0.0000000 field for delta impulse in time
 
  Optional k-point grid parameters
   LKPOINTS_OPT  =     F    use optional k-point grid
   KPOINTS_OPT_MODE=     1    mode for optional k-point grid
 
 Orbital magnetization related:
   ORBITALMAG=     F  switch on orbital magnetization
   LCHIMAG   =     F  perturbation theory with respect to B field
   DQ        =  0.001000  dq finite difference perturbation B field
   LLRAUG    =     F  two centre corrections for induced B field
   LBONE     =     F  B-component reconstruction in AE one-centre
   LVGVCALC  =     T  calculate vGv susceptibility
   LVGVAPPL  =     F  apply vGv susceptibility instead of pGv for G=0

 Random number generation:
   RANDOM_GENERATOR = DEFAULT
   PCG_SEED         = not used


--------------------------------------------------------------------------------------------------------


 quickmin algorithm: (dynamic with friction)
   using selective dynamics as specified on POSCAR
 charge density and potential will be updated during run
 spin polarized calculation
 Variant of blocked Davidson
 Davidson routine will perform the subspace rotation
 perform sub-space diagonalisation
    after iterative eigenvector-optimisation
 modified Broyden-mixing scheme, WC =      100.0
 initial mixing is a Kerker type mixing with AMIX =  0.2000 and BMIX =      0.0001
 Hartree-type preconditioning will be used
 using additional bands           81
 real space projection scheme for non local part
 use partial core corrections
 calculate Harris-corrections to forces 
   (improved forces if not selfconsistent)
 use gradient corrections 
 use of overlap-Matrix (Vanderbilt PP)
 Gauss-broadening in eV      SIGMA  =   0.05


--------------------------------------------------------------------------------------------------------


  energy-cutoff  :      520.00
  volume of cell :     3874.88
      direct lattice vectors                 reciprocal lattice vectors
    17.271038055  0.000000000  0.000000000     0.057900399  0.033428811  0.000000000
    -8.635519028 14.957157706  0.000000000     0.000000000  0.066857622  0.000000000
     0.000000000  0.000000000 15.000000000     0.000000000  0.000000000  0.066666667

  length of vectors
    17.271038055 17.271038055 15.000000000     0.066857622  0.066857622  0.066666667


 
 k-points in units of 2pi/SCALE and weight: Automatic mesh                          
   0.00000000  0.00000000  0.00000000       0.250
   0.02895020  0.01671441  0.00000000       0.250
   0.00000000  0.03342881  0.00000000       0.250
   0.02895020  0.05014322  0.00000000       0.250
 
 k-points in reciprocal lattice and weights: Automatic mesh                          
   0.00000000  0.00000000  0.00000000       0.250
   0.50000000  0.00000000  0.00000000       0.250
   0.00000000  0.50000000  0.00000000       0.250
   0.50000000  0.50000000  0.00000000       0.250
 
 position of ions in fractional coordinates (direct lattice) 
   0.00149670  0.00067988  0.49949732
   0.00100163  0.14316684  0.49955373
   0.00065558  0.28601071  0.49957410
   0.00098980  0.42917147  0.49970286
   0.00147968  0.57213350  0.49978040
   0.00184428  0.71498664  0.49973041
   0.00186884  0.85822289  0.49965807
   0.14526908  0.00182378  0.50020700
   0.14483280  0.14452525  0.50055558
   0.14298252  0.28597294  0.50089892
   0.14298689  0.42834536  0.50101811
   0.14485236  0.57160386  0.50089152
   0.14527015  0.71473905  0.50038719
   0.14518254  0.85824989  0.50002540
   0.28815355  0.00187632  0.50046791
   0.28843190  0.14655381  0.50139908
   0.28774561  0.29273467  0.50294820
   0.28558021  0.42843626  0.50392002
   0.28779315  0.56635538  0.50312695
   0.28849804  0.71327253  0.50150135
   0.28817340  0.85765217  0.50040489
   0.43069693  0.00102577  0.50036530
   0.43133957  0.14569523  0.50071948
   0.43053625  0.28731461  0.50124467
   0.43059330  0.71456956  0.50138674
   0.43140335  0.85702919  0.50071448
   0.57301642  0.00059883  0.49996454
   0.57299232  0.14376992  0.49992370
   0.57665269  0.29027857  0.50016471
   0.57672480  0.85775401  0.50029221
   0.71591978  0.00103085  0.49953695
   0.71573828  0.14354065  0.49932487
   0.71591095  0.28622771  0.49944465
   0.71192397  0.42570094  0.50020573
   0.71623997  0.57243504  0.50267486
   0.71627161  0.71516054  0.50272521
   0.71199581  0.85760465  0.50033277
   0.85828852  0.00031315  0.49938899
   0.85829700  0.14337948  0.49911483
   0.85828770  0.28623918  0.49903471
   0.85825935  0.42930546  0.49942593
   0.85748583  0.57155123  0.49986825
   0.85885354  0.71510292  0.50034091
   0.85752960  0.85731170  0.49989342
   0.04930258  0.09614177  0.49977118
   0.04785531  0.23817434  0.49990521
   0.04787750  0.38105382  0.50000196
   0.04929915  0.52448799  0.50008239
   0.04963778  0.66746751  0.49992343
   0.04952261  0.81041969  0.49978911
   0.04965952  0.95351013  0.49970231
   0.19287642  0.09726012  0.50080849
   0.19181699  0.24004136  0.50129682
   0.18992514  0.38062353  0.50162625
   0.19184873  0.52309524  0.50153404
   0.19291168  0.66693746  0.50105586
   0.19288031  0.81035237  0.50026656
   0.19288735  0.95383927  0.50024623
   0.33596226  0.09829517  0.50087478
   0.33696960  0.24311174  0.50213299
   0.33701882  0.66522548  0.50227545
   0.33600267  0.80907010  0.50085865
   0.33530332  0.95334101  0.50037578
   0.47800544  0.09655657  0.50033014
   0.47881032  0.24168823  0.50067761
   0.47886528  0.80847826  0.50077520
   0.47803969  0.95284681  0.50033664
   0.62031263  0.09583474  0.49970261
   0.62113562  0.23934898  0.49980265
   0.62117902  0.95316393  0.49989951
   0.76342957  0.09625866  0.49925490
   0.76342771  0.23850136  0.49916080
   0.76278035  0.38107089  0.49959395
   0.76093643  0.52399785  0.50075962
   0.76296637  0.66714610  0.50202749
   0.76098727  0.80831060  0.50087732
   0.76283016  0.95308405  0.49966655
   0.90574593  0.09534630  0.49925619
   0.90561872  0.23846157  0.49906636
   0.90571495  0.38171540  0.49929208
   0.90592588  0.52467050  0.49954803
   0.90594480  0.66706520  0.49987280
   0.90597429  0.81025091  0.49988016
   0.90596473  0.95264964  0.49942644
   0.46835838  0.36007319  0.50035155
   0.64336443  0.67777052  0.50528892
   0.64333260  0.53693162  0.50526246
   0.46839994  0.67961635  0.50050838
   0.46135787  0.55920476  0.55370335
   0.46120075  0.47343529  0.55349723
   0.33190494  0.38305739  0.50519165
   0.33192239  0.52015839  0.50526624
   0.62194704  0.38062376  0.50028231
   0.62201573  0.81270480  0.50044454
   0.50126033  0.53623416  0.56977595
 
 position of ions in cartesian coordinates  (Angst):
   0.01997842  0.01016908  7.49245980
  -1.21902077  2.14136894  7.49330588
  -2.45852833  4.27790728  7.49361153
  -3.68902353  6.41918538  7.49554290
  -4.91511402  8.55749095  7.49670603
  -6.14242817 10.69416797  7.49595615
  -7.37892326 12.83657515  7.49487109
   2.49319857  0.02727859  7.50310500
   1.25336232  2.16168699  7.50833377
  -0.00006816  4.27734240  7.51348385
  -1.22945243  6.40682912  7.51527160
  -2.43434530  8.54956906  7.51337282
  -3.66317640 10.69046474  7.50580782
  -4.90398000 12.83697892  7.50038096
   4.96050793  0.02806434  7.50701867
   3.71595006  2.19202841  7.52098617
   2.44174962  4.37847862  7.54422304
   1.23249714  6.40818870  7.55880030
   0.07971376  8.47106668  7.54690419
  -1.17681793 10.66852972  7.52252028
  -2.42921783 12.82803880  7.50607337
   7.42972490  0.01534266  7.50547956
   6.19152819  2.17918659  7.51079219
   4.95469712  4.29740997  7.51867000
   1.26611417 10.68792968  7.52080106
   0.04989176 12.81872080  7.51071714
   9.89141727  0.00895677  7.49946814
   8.65464426  2.15038939  7.49885554
   7.45268449  4.34174233  7.50247072
   2.55348490 12.82956203  7.50438317
  12.35577585  0.01541857  7.49305420
  11.12199516  2.14696007  7.48987302
   9.89280046  4.28115300  7.49166969
   8.61951743  6.36727615  7.50308591
   7.42693405  8.56200111  7.54012285
   6.19497182 10.69676900  7.54087808
   4.89104544 12.82732803  7.50499153
  14.82082941  0.00468389  7.49083479
  13.58552397  2.14454944  7.48672248
  12.35169565  4.28132449  7.48552063
  11.11575437  6.42118951  7.49138889
   9.87402895  8.54878185  7.49802382
   8.65800721 10.69590719  7.50511359
   7.40709495 12.82294624  7.49840128
   0.02127267  1.43800759  7.49656769
  -1.23024823  3.56241115  7.49857809
  -2.46370341  5.69948210  7.50002933
  -3.67777858  7.84484955  7.50123581
  -4.90663248  9.98341683  7.49885150
  -6.14308773 12.12157504  7.49683672
  -7.37638333 14.26180135  7.49553469
   2.49128437  1.45473490  7.51212731
   1.23999680  3.59033649  7.51945226
  -0.00667743  5.69304619  7.52439373
  -1.20377218  7.82401805  7.52301060
  -2.42756618  9.97548870  7.51583796
  -3.66657020 12.12056825  7.50399834
  -4.90553238 14.26672435  7.50369343
   4.95358705  1.47021641  7.51312177
   3.72041869  3.63626068  7.53199480
   0.07609746  9.94988248  7.53413182
  -1.18362541 12.10138913  7.51287970
  -2.44155801 14.25927190  7.50563664
   7.42183397  1.44421185  7.50495214
   6.18244793  3.61496890  7.51016419
   1.28887107 12.09253678  7.51162796
   0.02791497 14.25187993  7.50504955
   9.88586044  1.43341526  7.49553914
   8.66075427  3.57998042  7.49703974
   2.49734133 14.25662320  7.49849269
  12.35397767  1.43975592  7.48882346
  11.12560602  3.56730245  7.48741204
   9.88326341  5.69973747  7.49390920
   8.61716862  7.83751843  7.51139431
   7.41606841  9.97860940  7.53041240
   6.16285861 12.09002905  7.51315975
   4.94449322 14.25542848  7.49499822
  14.81980756  1.42610970  7.48884279
  13.58173598  3.56670737  7.48599547
  12.34632678  5.70937750  7.48938124
  11.11547819  7.84757946  7.49322051
   9.88615283  9.97739945  7.49809200
   8.65017935 12.11905064  7.49820237
   7.42032730 14.24893086  7.49139660
   4.97961656  5.38567152  7.50527330
   5.25867140 10.13752050  7.57933380
   6.47433860  8.03097099  7.57893695
   2.22091335 10.16512887  7.50762565
   3.13910597  8.36411384  8.30555018
   3.87705628  7.08124623  8.30245850
   2.42444348  5.72944984  7.57787479
   1.24080657  7.78009107  7.57899355
   7.45478721  5.69304961  7.50423469
   3.72472964 12.15575389  7.50666811
   4.02662601  8.02053891  8.54663931
 


--------------------------------------------------------------------------------------------------------


 k-point   1 :   0.0000 0.0000 0.0000  plane waves:  104449
 k-point   2 :   0.5000 0.0000 0.0000  plane waves:  104264
 k-point   3 :   0.0000 0.5000 0.0000  plane waves:  104264
 k-point   4 :   0.5000 0.5000 0.0000  plane waves:  104264

 maximum and minimum number of plane-waves per node :    104449   104264

 maximum number of plane-waves:    104449
 maximum index in each direction: 
   IXMAX=   32   IYMAX=   32   IZMAX=   27
   IXMIN=  -32   IYMIN=  -32   IZMIN=  -27


 serial   3D FFT for wavefunctions
 parallel 3D FFT for charge:
    minimum data exchange during FFTs selected (reduces bandwidth)


 total amount of memory used by VASP MPI-rank0  1122553. kBytes
=======================================================================

   base      :      30000. kBytes
   nonlr-proj:       8926. kBytes
   fftplans  :     185212. kBytes
   grid      :     184190. kBytes
   one-center:        583. kBytes
   wavefun   :     713642. kBytes
 
     INWAV:  cpu time      0.0000: real time      0.0000
 Broyden mixing: mesh for mixing (old mesh)
   NGX = 65   NGY = 65   NGZ = 55
  (NGX  =192   NGY  =192   NGZ  =168)
  gives a total of 232375 points

 initial charge density was supplied:
 charge density of overlapping atoms calculated
 number of electron     368.0000000 magnetization      57.0000000
 keeping initial charge density in first step


--------------------------------------------------------------------------------------------------------


 Maximum index for non-local projection operator         1576
 Maximum index for augmentation-charges         4029 (set IRDMAX)


--------------------------------------------------------------------------------------------------------


 First call to EWALD:  gamma=   0.113
 Maximum number of real-space cells 3x 3x 3
 Maximum number of reciprocal cells 3x 3x 3

    FEWALD:  cpu time      0.0058: real time      0.0058


--------------------------------------- Ionic step        1  -------------------------------------------




--------------------------------------- Iteration      1(   1)  ---------------------------------------


    POTLOK:  cpu time      2.8465: real time      2.9047
    SETDIJ:  cpu time      3.3247: real time      3.3432
     EDDAV:  cpu time     92.3260: real time     93.0973
       DOS:  cpu time      0.0012: real time      0.0147
    --------------------------------------------
      LOOP:  cpu time     98.4986: real time     99.3601

 eigenvalue-minimisations  :  4590
 total energy-change (2. order) : 0.3275976E+04  (-0.1375857E+05)
 number of electron     368.0000000 magnetization      57.0000000
 augmentation part      368.0000000 magnetization      57.0000000

 Free energy of the ion-electron system (eV)
  ---------------------------------------------------
  alpha Z        PSCENC =       175.60570339
  Ewald energy   TEWEN  =     36501.62445494
  -Hartree energ DENC   =    -46912.69838823
  -exchange      EXHF   =         0.00000000
  -V(xc)+E(xc)   XCENC  =      1231.15073377
  PAW double counting   =     10290.17603344   -10344.35078173
  entropy T*S    EENTRO =        -0.04265630
  eigenvalues    EBANDS =     -1591.42052914
  atomic energy  EATOM  =     13925.93113153
  Solvation  Ediel_sol  =         0.00000000
  ---------------------------------------------------
  free energy    TOTEN  =      3275.97570167 eV

  energy without entropy =     3276.01835797  energy(sigma->0) =     3275.99702982


--------------------------------------------------------------------------------------------------------




--------------------------------------- Iteration      1(   2)  ---------------------------------------


     EDDAV:  cpu time    117.8683: real time    118.8783
       DOS:  cpu time      0.0010: real time      0.0154
    --------------------------------------------
      LOOP:  cpu time    117.8693: real time    118.8937

 eigenvalue-minimisations  :  6410
 total energy-change (2. order) :-0.3511314E+04  (-0.3305960E+04)
 number of electron     368.0000000 magnetization      57.0000000
 augmentation part      368.0000000 magnetization      57.0000000

 Free energy of the ion-electron system (eV)
  ---------------------------------------------------
  alpha Z        PSCENC =       175.60570339
  Ewald energy   TEWEN  =     36501.62445494
  -Hartree energ DENC   =    -46912.69838823
  -exchange      EXHF   =         0.00000000
  -V(xc)+E(xc)   XCENC  =      1231.15073377
  PAW double counting   =     10290.17603344   -10344.35078173
  entropy T*S    EENTRO =        -0.00005123
  eigenvalues    EBANDS =     -5102.77705640
  atomic energy  EATOM  =     13925.93113153
  Solvation  Ediel_sol  =         0.00000000
  ---------------------------------------------------
  free energy    TOTEN  =      -235.33822052 eV

  energy without entropy =     -235.33816929  energy(sigma->0) =     -235.33819491


--------------------------------------------------------------------------------------------------------




--------------------------------------- Iteration      1(   3)  ---------------------------------------


     EDDAV:  cpu time    101.7052: real time    102.5475
       DOS:  cpu time      0.0010: real time      0.0144
    --------------------------------------------
      LOOP:  cpu time    101.7062: real time    102.5620

 eigenvalue-minimisations  :  5330
 total energy-change (2. order) :-0.6179567E+03  (-0.6151351E+03)
 number of electron     368.0000000 magnetization      57.0000000
 augmentation part      368.0000000 magnetization      57.0000000

 Free energy of the ion-electron system (eV)
  ---------------------------------------------------
  alpha Z        PSCENC =       175.60570339
  Ewald energy   TEWEN  =     36501.62445494
  -Hartree energ DENC   =    -46912.69838823
  -exchange      EXHF   =         0.00000000
  -V(xc)+E(xc)   XCENC  =      1231.15073377
  PAW double counting   =     10290.17603344   -10344.35078173
  entropy T*S    EENTRO =        -0.00003430
  eigenvalues    EBANDS =     -5720.73381280
  atomic energy  EATOM  =     13925.93113153
  Solvation  Ediel_sol  =         0.00000000
  ---------------------------------------------------
  free energy    TOTEN  =      -853.29495999 eV

  energy without entropy =     -853.29492569  energy(sigma->0) =     -853.29494284


--------------------------------------------------------------------------------------------------------




--------------------------------------- Iteration      1(   4)  ---------------------------------------


     EDDAV:  cpu time    101.8918: real time    102.7742
       DOS:  cpu time      0.0011: real time      0.0168
    --------------------------------------------
      LOOP:  cpu time    101.8929: real time    102.7910

 eigenvalue-minimisations  :  5370
 total energy-change (2. order) :-0.2200317E+02  (-0.2191976E+02)
 number of electron     368.0000000 magnetization      57.0000000
 augmentation part      368.0000000 magnetization      57.0000000

 Free energy of the ion-electron system (eV)
  ---------------------------------------------------
  alpha Z        PSCENC =       175.60570339
  Ewald energy   TEWEN  =     36501.62445494
  -Hartree energ DENC   =    -46912.69838823
  -exchange      EXHF   =         0.00000000
  -V(xc)+E(xc)   XCENC  =      1231.15073377
  PAW double counting   =     10290.17603344   -10344.35078173
  entropy T*S    EENTRO =        -0.00007263
  eigenvalues    EBANDS =     -5742.73694902
  atomic energy  EATOM  =     13925.93113153
  Solvation  Ediel_sol  =         0.00000000
  ---------------------------------------------------
  free energy    TOTEN  =      -875.29813453 eV

  energy without entropy =     -875.29806190  energy(sigma->0) =     -875.29809822


--------------------------------------------------------------------------------------------------------




--------------------------------------- Iteration      1(   5)  ---------------------------------------


     EDDAV:  cpu time    111.1170: real time    112.1360
       DOS:  cpu time      0.0011: real time      0.0179
    CHARGE:  cpu time      7.1864: real time      7.2513
    MIXING:  cpu time      0.0580: real time      0.0705
    --------------------------------------------
      LOOP:  cpu time    118.3627: real time    119.4758

 eigenvalue-minimisations  :  5990
 total energy-change (2. order) :-0.6508700E+00  (-0.6500179E+00)
 number of electron     367.9999998 magnetization      12.2005237
 augmentation part       10.7768578 magnetization      11.2816850

 Broyden mixing:
  rms(total) = 0.51337E+01    rms(broyden)= 0.51331E+01
  rms(prec ) = 0.55815E+01
  weight for this iteration     100.00

 Free energy of the ion-electron system (eV)
  ---------------------------------------------------
  alpha Z        PSCENC =       175.60570339
  Ewald energy   TEWEN  =     36501.62445494
  -Hartree energ DENC   =    -46912.69838823
  -exchange      EXHF   =         0.00000000
  -V(xc)+E(xc)   XCENC  =      1231.15073377
  PAW double counting   =     10290.17603344   -10344.35078173
  entropy T*S    EENTRO =        -0.00007718
  eigenvalues    EBANDS =     -5743.38781448
  atomic energy  EATOM  =     13925.93113153
  Solvation  Ediel_sol  =         0.00000000
  ---------------------------------------------------
  free energy    TOTEN  =      -875.94900454 eV

  energy without entropy =     -875.94892736  energy(sigma->0) =     -875.94896595


--------------------------------------------------------------------------------------------------------




--------------------------------------- Iteration      1(   6)  ---------------------------------------


    POTLOK:  cpu time      3.0782: real time      3.1246
    SETDIJ:  cpu time      3.6916: real time      3.7158
     EDDAV:  cpu time     99.2612: real time    100.1010
       DOS:  cpu time      0.0010: real time      0.0147
    CHARGE:  cpu time      7.2123: real time      7.2753
    MIXING:  cpu time      0.0754: real time      0.0759
    --------------------------------------------
      LOOP:  cpu time    113.3197: real time    114.3073

 eigenvalue-minimisations  :  5160
 total energy-change (2. order) : 0.1640697E+02  (-0.2117712E+01)
 number of electron     367.9999999 magnetization      -5.7407597
 augmentation part       10.3928785 magnetization      -5.7313321

 Broyden mixing:
  rms(total) = 0.33406E+01    rms(broyden)= 0.33405E+01
  rms(prec ) = 0.36709E+01
  weight for this iteration     100.00

 eigenvalues of (default mixing * dielectric matrix)
  average eigenvalue GAMMA=   1.4251
  1.4251

 Free energy of the ion-electron system (eV)
  ---------------------------------------------------
  alpha Z        PSCENC =       175.60570339
  Ewald energy   TEWEN  =     36501.62445494
  -Hartree energ DENC   =    -47357.59830788
  -exchange      EXHF   =         0.00000000
  -V(xc)+E(xc)   XCENC  =      1241.27226285
  PAW double counting   =     13978.91114930   -14036.88095936
  entropy T*S    EENTRO =        -0.00000296
  eigenvalues    EBANDS =     -5288.40746378
  atomic energy  EATOM  =     13925.93113153
  Solvation  Ediel_sol  =         0.00000000
  ---------------------------------------------------
  free energy    TOTEN  =      -859.54203196 eV

  energy without entropy =     -859.54202900  energy(sigma->0) =     -859.54203048


--------------------------------------------------------------------------------------------------------




--------------------------------------- Iteration      1(   7)  ---------------------------------------


    POTLOK:  cpu time      3.2244: real time      3.2618
    SETDIJ:  cpu time      3.6809: real time      3.7018
     EDDAV:  cpu time     97.1766: real time     97.9339
       DOS:  cpu time      0.0008: real time      0.0148
    CHARGE:  cpu time      7.0224: real time      7.0798
    MIXING:  cpu time      0.0660: real time      0.0663
    --------------------------------------------
      LOOP:  cpu time    111.1711: real time    112.0586

 eigenvalue-minimisations  :  5010
 total energy-change (2. order) : 0.2107936E+02  (-0.3152016E+01)
 number of electron     367.9999999 magnetization       1.2900440
 augmentation part        9.9284516 magnetization       1.2915169

 Broyden mixing:
  rms(total) = 0.20232E+01    rms(broyden)= 0.20231E+01
  rms(prec ) = 0.21430E+01
  weight for this iteration     100.00

 eigenvalues of (default mixing * dielectric matrix)
  average eigenvalue GAMMA=   2.4581
  1.2991  3.6171

 Free energy of the ion-electron system (eV)
  ---------------------------------------------------
  alpha Z        PSCENC =       175.60570339
  Ewald energy   TEWEN  =     36501.62445494
  -Hartree energ DENC   =    -47940.88903819
  -exchange      EXHF   =         0.00000000
  -V(xc)+E(xc)   XCENC  =      1262.23674452
  PAW double counting   =     20731.62906973   -20793.93247144
  entropy T*S    EENTRO =        -0.00000003
  eigenvalues    EBANDS =     -4700.66826984
  atomic energy  EATOM  =     13925.93113153
  Solvation  Ediel_sol  =         0.00000000
  ---------------------------------------------------
  free energy    TOTEN  =      -838.46267539 eV

  energy without entropy =     -838.46267536  energy(sigma->0) =     -838.46267537


--------------------------------------------------------------------------------------------------------




--------------------------------------- Iteration      1(   8)  ---------------------------------------


    POTLOK:  cpu time      3.1958: real time      3.2624
    SETDIJ:  cpu time      3.6872: real time      3.7074
     EDDAV:  cpu time     98.4238: real time     99.1966
       DOS:  cpu time      0.0008: real time      0.0148
    CHARGE:  cpu time      7.3215: real time      7.3744
    MIXING:  cpu time      0.0725: real time      0.0730
    --------------------------------------------
      LOOP:  cpu time    112.7016: real time    113.6286

 eigenvalue-minimisations  :  5060
 total energy-change (2. order) : 0.4727842E+01  (-0.2207265E+01)
 number of electron     367.9999999 magnetization      -0.3213446
 augmentation part        9.5842404 magnetization      -0.3225928

 Broyden mixing:
  rms(total) = 0.81822E+00    rms(broyden)= 0.81811E+00
  rms(prec ) = 0.83855E+00
  weight for this iteration     100.00

 eigenvalues of (default mixing * dielectric matrix)
  average eigenvalue GAMMA=   2.3985
  4.3559  1.3571  1.4826

 Free energy of the ion-electron system (eV)
  ---------------------------------------------------
  alpha Z        PSCENC =       175.60570339
  Ewald energy   TEWEN  =     36501.62445494
  -Hartree energ DENC   =    -48455.30612820
  -exchange      EXHF   =         0.00000000
  -V(xc)+E(xc)   XCENC  =      1281.95883237
  PAW double counting   =     30907.12787488   -30973.01068964
  entropy T*S    EENTRO =        -0.00000000
  eigenvalues    EBANDS =     -4197.66601298
  atomic energy  EATOM  =     13925.93113153
  Solvation  Ediel_sol  =         0.00000000
  ---------------------------------------------------
  free energy    TOTEN  =      -833.73483371 eV

  energy without entropy =     -833.73483371  energy(sigma->0) =     -833.73483371


--------------------------------------------------------------------------------------------------------




--------------------------------------- Iteration      1(   9)  ---------------------------------------


    POTLOK:  cpu time      3.1574: real time      3.1931
    SETDIJ:  cpu time      3.6496: real time      3.6733
     EDDAV:  cpu time     98.0540: real time     98.9589
       DOS:  cpu time      0.0007: real time      0.0139
    CHARGE:  cpu time      7.2418: real time      7.2976
    MIXING:  cpu time      0.0875: real time      0.0881
    --------------------------------------------
      LOOP:  cpu time    112.1911: real time    113.2250

 eigenvalue-minimisations  :  5100
 total energy-change (2. order) :-0.1637756E-01  (-0.9291609E-01)
 number of electron     367.9999999 magnetization      -0.0080190
 augmentation part        9.5704944 magnetization      -0.0081922

 Broyden mixing:
  rms(total) = 0.38981E+00    rms(broyden)= 0.38980E+00
  rms(prec ) = 0.40959E+00
  weight for this iteration     100.00

 eigenvalues of (default mixing * dielectric matrix)
  average eigenvalue GAMMA=   2.4092
  4.7017  1.0937  1.2270  2.6145

 Free energy of the ion-electron system (eV)
  ---------------------------------------------------
  alpha Z        PSCENC =       175.60570339
  Ewald energy   TEWEN  =     36501.62445494
  -Hartree energ DENC   =    -48457.60406475
  -exchange      EXHF   =         0.00000000
  -V(xc)+E(xc)   XCENC  =      1282.72500693
  PAW double counting   =     34672.38082258   -34738.21927767
  entropy T*S    EENTRO =        -0.00000000
  eigenvalues    EBANDS =     -4196.19498823
  atomic energy  EATOM  =     13925.93113153
  Solvation  Ediel_sol  =         0.00000000
  ---------------------------------------------------
  free energy    TOTEN  =      -833.75121127 eV

  energy without entropy =     -833.75121127  energy(sigma->0) =     -833.75121127


--------------------------------------------------------------------------------------------------------




--------------------------------------- Iteration      1(  10)  ---------------------------------------


    POTLOK:  cpu time      3.1363: real time      3.1945
    SETDIJ:  cpu time      3.6936: real time      3.7265
     EDDAV:  cpu time     95.6807: real time     96.4198
       DOS:  cpu time      0.0007: real time      0.0155
    CHARGE:  cpu time      7.1520: real time      7.2405
    MIXING:  cpu time      0.0657: real time      0.0661
    --------------------------------------------
      LOOP:  cpu time    109.7291: real time    110.6629

 eigenvalue-minimisations  :  4900
 total energy-change (2. order) : 0.1360981E+00  (-0.4230527E-01)
 number of electron     367.9999999 magnetization       0.0205447
 augmentation part        9.6050478 magnetization       0.0205033

 Broyden mixing:
  rms(total) = 0.11394E+00    rms(broyden)= 0.11393E+00
  rms(prec ) = 0.12496E+00
  weight for this iteration     100.00

 eigenvalues of (default mixing * dielectric matrix)
  average eigenvalue GAMMA=   2.3311
  4.7555  3.1582  0.9744  1.2623  1.5050

 Free energy of the ion-electron system (eV)
  ---------------------------------------------------
  alpha Z        PSCENC =       175.60570339
  Ewald energy   TEWEN  =     36501.62445494
  -Hartree energ DENC   =    -48391.55784603
  -exchange      EXHF   =         0.00000000
  -V(xc)+E(xc)   XCENC  =      1280.79068639
  PAW double counting   =     36700.40055750   -36765.69195652
  entropy T*S    EENTRO =        -0.00000000
  eigenvalues    EBANDS =     -4260.71784438
  atomic energy  EATOM  =     13925.93113153
  Solvation  Ediel_sol  =         0.00000000
  ---------------------------------------------------
  free energy    TOTEN  =      -833.61511319 eV

  energy without entropy =     -833.61511319  energy(sigma->0) =     -833.61511319


--------------------------------------------------------------------------------------------------------




--------------------------------------- Iteration      1(  11)  ---------------------------------------


    POTLOK:  cpu time      3.2740: real time      3.3084
    SETDIJ:  cpu time      3.6730: real time      3.6932
     EDDAV:  cpu time     94.7793: real time     95.4911
       DOS:  cpu time      0.0008: real time      0.0146
    CHARGE:  cpu time      7.1398: real time      7.1975
    MIXING:  cpu time      0.0786: real time      0.0791
    --------------------------------------------
      LOOP:  cpu time    108.9454: real time    109.7838

 eigenvalue-minimisations  :  4850
 total energy-change (2. order) : 0.2021866E-01  (-0.9723867E-02)
 number of electron     367.9999999 magnetization       0.0048617
 augmentation part        9.6098392 magnetization       0.0045496

 Broyden mixing:
  rms(total) = 0.27329E-01    rms(broyden)= 0.27310E-01
  rms(prec ) = 0.31071E-01
  weight for this iteration     100.00

 eigenvalues of (default mixing * dielectric matrix)
  average eigenvalue GAMMA=   2.1929
  4.7456  3.1971  1.7650  0.9980  1.1895  1.2621

 Free energy of the ion-electron system (eV)
  ---------------------------------------------------
  alpha Z        PSCENC =       175.60570339
  Ewald energy   TEWEN  =     36501.62445494
  -Hartree energ DENC   =    -48368.55214029
  -exchange      EXHF   =         0.00000000
  -V(xc)+E(xc)   XCENC  =      1280.07969636
  PAW double counting   =     37116.74932379   -37181.83182717
  entropy T*S    EENTRO =        -0.00000000
  eigenvalues    EBANDS =     -4283.20123707
  atomic energy  EATOM  =     13925.93113153
  Solvation  Ediel_sol  =         0.00000000
  ---------------------------------------------------
  free energy    TOTEN  =      -833.59489453 eV

  energy without entropy =     -833.59489453  energy(sigma->0) =     -833.59489453


--------------------------------------------------------------------------------------------------------




--------------------------------------- Iteration      1(  12)  ---------------------------------------


    POTLOK:  cpu time      3.0253: real time      3.0570
    SETDIJ:  cpu time      3.7116: real time      3.7390
     EDDAV:  cpu time    100.2063: real time    101.0611
       DOS:  cpu time      0.0008: real time      0.0145
    CHARGE:  cpu time      7.2347: real time      7.2936
    MIXING:  cpu time      0.1220: real time      0.1232
    --------------------------------------------
      LOOP:  cpu time    114.3007: real time    115.2885

 eigenvalue-minimisations  :  5130
 total energy-change (2. order) : 0.3530211E-03  (-0.1062782E-02)
 number of electron     367.9999999 magnetization      -0.0073342
 augmentation part        9.6100673 magnetization      -0.0074618

 Broyden mixing:
  rms(total) = 0.14827E-01    rms(broyden)= 0.14823E-01
  rms(prec ) = 0.16573E-01
  weight for this iteration     100.00

 eigenvalues of (default mixing * dielectric matrix)
  average eigenvalue GAMMA=   2.1176
  4.6898  3.2236  1.9951  1.4922  1.0331  1.1024  1.2871

 Free energy of the ion-electron system (eV)
  ---------------------------------------------------
  alpha Z        PSCENC =       175.60570339
  Ewald energy   TEWEN  =     36501.62445494
  -Hartree energ DENC   =    -48368.51264743
  -exchange      EXHF   =         0.00000000
  -V(xc)+E(xc)   XCENC  =      1280.07812106
  PAW double counting   =     37147.73942734   -37212.80259602
  entropy T*S    EENTRO =        -0.00000000
  eigenvalues    EBANDS =     -4283.25813632
  atomic energy  EATOM  =     13925.93113153
  Solvation  Ediel_sol  =         0.00000000
  ---------------------------------------------------
  free energy    TOTEN  =      -833.59454151 eV

  energy without entropy =     -833.59454151  energy(sigma->0) =     -833.59454151


--------------------------------------------------------------------------------------------------------




--------------------------------------- Iteration      1(  13)  ---------------------------------------


    POTLOK:  cpu time      3.3147: real time      3.3499
    SETDIJ:  cpu time      3.4020: real time      3.4222
     EDDAV:  cpu time    100.8230: real time    101.6564
       DOS:  cpu time      0.0007: real time      0.0145
[...]
   0.719E+00 -.201E+02 0.557E+00   -.788E+00 0.203E+02 -.564E+00   0.692E-01 -.191E+00 0.765E-02   0.413E-03 -.382E-03 0.706E-05
   -.157E+02 -.667E+02 0.115E+01   0.160E+02 0.674E+02 -.111E+01   -.214E+00 -.726E+00 -.443E-01   -.139E-02 0.173E-02 0.849E-04
   -.656E+02 0.197E+02 0.987E+00   0.663E+02 -.199E+02 -.944E+00   -.735E+00 0.175E+00 -.432E-01   0.800E-03 -.207E-02 0.834E-04
   -.171E+02 0.107E+02 0.940E+00   0.172E+02 -.109E+02 -.945E+00   -.141E+00 0.150E+00 0.475E-02   -.119E-03 0.550E-03 0.612E-06
   -.243E+01 -.135E+01 0.124E+01   0.238E+01 0.132E+01 -.123E+01   0.461E-01 0.286E-01 -.149E-03   -.256E-03 -.157E-03 0.607E-06
   0.101E+02 -.116E+02 0.105E+01   -.103E+02 0.115E+02 -.105E+01   0.171E+00 0.675E-01 0.392E-03   -.644E-04 0.509E-03 -.238E-05
   0.193E+02 -.665E+02 0.348E+01   -.196E+02 0.672E+02 -.349E+01   0.272E+00 -.753E+00 0.405E-02   0.192E-02 0.868E-03 0.673E-05
   -.478E+02 0.500E+02 0.335E+01   0.483E+02 -.506E+02 -.336E+01   -.516E+00 0.608E+00 0.148E-02   0.168E-02 0.122E-02 0.149E-05
   -.492E+01 0.146E+02 0.113E+01   0.478E+01 -.148E+02 -.113E+01   0.139E+00 0.128E+00 0.397E-04   0.410E-03 -.327E-03 -.284E-05
   0.516E+01 0.291E+01 0.186E+01   -.534E+01 -.301E+01 -.186E+01   0.175E+00 0.986E-01 0.252E-02   -.233E-03 -.130E-03 -.130E-04
   0.257E+02 -.990E+01 0.264E+01   -.262E+02 0.985E+01 -.263E+01   0.514E+00 0.509E-01 -.956E-02   -.505E-03 0.572E-04 -.954E-05
   0.447E+01 0.273E+02 0.243E+01   -.478E+01 -.277E+02 -.242E+01   0.311E+00 0.424E+00 -.101E-01   -.216E-03 -.460E-03 -.137E-04
   0.244E+01 0.104E+02 0.272E+01   -.246E+01 -.103E+02 -.272E+01   0.214E-01 -.681E-01 0.575E-02   0.396E-03 -.557E-03 -.247E-04
   0.103E+02 -.315E+01 0.316E+01   -.102E+02 0.309E+01 -.317E+01   -.473E-01 0.493E-01 0.525E-02   -.280E-03 0.625E-03 -.276E-04
   0.244E+02 -.197E+02 0.322E+01   -.247E+02 0.201E+02 -.322E+01   0.255E+00 -.434E+00 0.933E-04   -.125E-03 0.509E-03 -.273E-04
   0.741E+02 0.914E+01 0.362E+01   -.751E+02 -.925E+01 -.362E+01   0.936E+00 0.121E+00 -.177E-02   0.554E-03 -.190E-02 -.779E-04
   0.862E+02 0.498E+02 0.177E+01   -.868E+02 -.501E+02 -.168E+01   0.579E+00 0.334E+00 -.832E-01   -.884E-03 -.491E-03 -.764E-04
   0.450E+02 0.597E+02 0.312E+01   -.455E+02 -.605E+02 -.311E+01   0.569E+00 0.755E+00 -.622E-02   -.137E-02 0.142E-02 -.794E-04
   -.471E+01 0.310E+02 0.302E+01   0.494E+01 -.314E+02 -.302E+01   -.240E+00 0.439E+00 -.875E-03   0.395E-03 -.371E-03 -.241E-04
   -.245E+00 0.840E+01 0.316E+01   0.316E+00 -.852E+01 -.317E+01   -.705E-01 0.119E+00 0.305E-02   -.282E-03 -.331E-03 -.281E-04
   0.383E+00 0.144E+00 0.390E+01   -.380E+00 -.133E+00 -.391E+01   -.486E-02 -.101E-01 0.553E-02   0.577E-04 0.344E-04 -.282E-04
   0.716E+01 -.450E+01 0.318E+01   -.723E+01 0.463E+01 -.318E+01   0.667E-01 -.124E+00 0.120E-02   -.423E-03 -.991E-04 -.332E-04
   0.210E+02 -.296E+01 0.347E+01   -.210E+02 0.319E+01 -.348E+01   0.707E-01 -.233E+00 0.874E-02   -.662E-03 -.385E-04 -.288E-04
   0.277E+02 0.108E+02 0.359E+01   -.278E+02 -.108E+02 -.356E+01   0.153E+00 0.426E-01 -.189E-01   0.558E-03 -.197E-03 -.425E-04
   0.232E+02 0.187E+02 0.340E+01   -.233E+02 -.188E+02 -.337E+01   0.113E+00 0.116E+00 -.198E-01   0.104E-03 0.575E-03 -.463E-04
   0.795E+01 0.197E+02 0.382E+01   -.777E+01 -.199E+02 -.382E+01   -.165E+00 0.188E+00 0.805E-02   -.358E-03 -.547E-03 -.274E-04
   -.142E+01 -.664E+02 0.589E+01   0.160E+01 0.724E+02 -.600E+01   -.188E+00 -.597E+01 0.987E-01   -.108E-03 -.802E-04 -.398E-04
   0.504E+02 0.405E+02 0.841E+00   -.555E+02 -.435E+02 -.577E+00   0.516E+01 0.305E+01 -.256E+00   0.182E-03 0.197E-04 -.119E-03
   0.602E+02 0.234E+02 0.828E+00   -.655E+02 -.263E+02 -.562E+00   0.522E+01 0.294E+01 -.258E+00   0.109E-03 0.147E-03 -.121E-03
   -.582E+02 0.320E+02 0.582E+01   0.634E+02 -.348E+02 -.592E+01   -.526E+01 0.282E+01 0.982E-01   -.124E-03 -.572E-04 -.387E-04
   0.461E+02 -.389E+02 -.110E+02   -.533E+02 0.418E+02 0.902E+01   0.725E+01 -.288E+01 0.194E+01   -.104E-02 0.188E-03 -.585E-03
   -.105E+02 0.592E+02 -.106E+02   0.934E+01 -.669E+02 0.866E+01   0.115E+01 0.770E+01 0.197E+01   -.363E-03 -.991E-03 -.588E-03
   -.185E+03 -.118E+03 0.669E+01   0.211E+03 0.135E+03 -.581E+01   -.264E+02 -.166E+02 -.881E+00   -.159E-02 0.116E-02 -.180E-04
   -.195E+03 -.101E+03 0.661E+01   0.222E+03 0.115E+03 -.575E+01   -.276E+02 -.146E+02 -.862E+00   0.199E-03 -.193E-02 -.154E-04
   0.198E+03 -.121E+03 0.745E+01   -.226E+03 0.137E+03 -.733E+01   0.285E+02 -.163E+02 -.124E+00   0.147E-02 -.746E-03 -.229E-04
   -.570E+01 0.232E+03 0.695E+01   0.555E+01 -.265E+03 -.681E+01   0.141E+00 0.328E+02 -.143E+00   0.905E-04 0.163E-02 -.273E-04
   -.105E+03 -.606E+02 -.221E+03   0.142E+03 0.816E+02 0.239E+03   -.366E+02 -.210E+02 -.181E+02   -.124E-02 -.687E-03 -.436E-02
 -----------------------------------------------------------------------------------------------
   0.420E+02 0.241E+02 0.168E+02   0.313E-12 0.711E-13 0.000E+00   -.420E+02 -.241E+02 -.169E+02   0.680E-03 0.484E-03 -.709E-02
 
 
 POSITION                                       TOTAL-FORCE (eV/Angst)
 -----------------------------------------------------------------------------------
      0.01998      0.01017      7.49246        -0.004898      0.002177     -0.000135
     -1.21902      2.14137      7.49331        -0.002490      0.000536     -0.001464
     -2.45853      4.27791      7.49361        -0.000690     -0.001087     -0.002421
     -3.68902      6.41919      7.49554        -0.000639     -0.001846     -0.001083
     -4.91511      8.55749      7.49671        -0.002900     -0.002840      0.000308
     -6.14243     10.69417      7.49596        -0.000286     -0.001554      0.000480
     -7.37892     12.83658      7.49487        -0.000003     -0.000706      0.000999
      2.49320      0.02728      7.50310        -0.001833      0.001510      0.000492
      1.25336      2.16169      7.50833        -0.002895      0.002251     -0.000661
     -0.00007      4.27734      7.51348        -0.001327      0.000261     -0.002853
     -1.22945      6.40683      7.51527        -0.000216     -0.001353     -0.002001
     -2.43435      8.54957      7.51337        -0.000071     -0.001104     -0.000305
     -3.66318     10.69046      7.50581        -0.000708     -0.001100      0.000332
     -4.90398     12.83698      7.50038        -0.001240     -0.001343      0.000747
      4.96051      0.02806      7.50702        -0.000941     -0.000197      0.001608
      3.71595      2.19203      7.52099        -0.002077      0.001872      0.000288
      2.44175      4.37848      7.54422        -0.000988      0.000700     -0.000727
      1.23250      6.40819      7.55880        -0.000338     -0.000592     -0.000623
      0.07971      8.47107      7.54690         0.000190     -0.000663     -0.000090
     -1.17682     10.66853      7.52252         0.000045     -0.000938      0.000516
     -2.42922     12.82804      7.50607        -0.000453     -0.001449      0.001001
      7.42972      0.01534      7.50548         0.000061     -0.000156      0.001053
      6.19153      2.17919      7.51079         0.001838      0.002140      0.000962
      4.95470      4.29741      7.51867        -0.000860      0.002062     -0.000758
      1.26611     10.68793      7.52080        -0.000300     -0.000692     -0.000444
      0.04989     12.81872      7.51072         0.000373     -0.000672      0.000554
      9.89142      0.00896      7.49947         0.001872      0.000896      0.001336
      8.65464      2.15039      7.49886         0.001405      0.000632      0.001210
      7.45268      4.34174      7.50247         0.000045      0.001110      0.000920
      2.55348     12.82956      7.50438         0.000696      0.000343      0.000892
     12.35578      0.01542      7.49305         0.002150      0.002156      0.001100
     11.12200      2.14696      7.48987         0.002865      0.000831      0.001260
      9.89280      4.28115      7.49167         0.001369      0.000051      0.000835
      8.61952      6.36728      7.50309        -0.000265     -0.000429      0.001985
      7.42693      8.56200      7.54012         0.000809      0.000390      0.006050
      6.19497     10.69677      7.54088         0.000196      0.000563      0.006633
      4.89105     12.82733      7.50499        -0.000696      0.002073      0.002675
     14.82083      0.00468      7.49083        -0.004698      0.003766     -0.000320
     13.58552      2.14455      7.48672        -0.000004     -0.000140     -0.000323
     12.35170      4.28132      7.48552         0.001166     -0.001063      0.000063
     11.11575      6.42119      7.49139         0.000076     -0.001000      0.000171
      9.87403      8.54878      7.49802        -0.000162     -0.000689      0.002486
      8.65801     10.69591      7.50511         0.000787     -0.000300      0.003598
      7.40709     12.82295      7.49840        -0.001423      0.001060      0.002520
      0.02127      1.43801      7.49657         0.002500     -0.004826      0.000215
     -1.23025      3.56241      7.49858         0.000290     -0.000424     -0.002730
     -2.46370      5.69948      7.50003        -0.000696      0.001058     -0.002237
     -3.67778      7.84485      7.50124        -0.000055      0.000742     -0.000638
     -4.90663      9.98342      7.49885         0.000303      0.000949      0.000239
     -6.14309     12.12158      7.49684        -0.000157      0.002350      0.001537
     -7.37638     14.26180      7.49553         0.001770     -0.001009      0.000285
      2.49128      1.45473      7.51213         0.003684     -0.004418      0.001476
      1.24000      3.59034      7.51945         0.000686     -0.001659     -0.001862
     -0.00668      5.69305      7.52439        -0.000321      0.000329     -0.002169
     -1.20377      7.82402      7.52301        -0.000687      0.000839     -0.000779
     -2.42757      9.97549      7.51584        -0.000688      0.000382      0.000305
     -3.66657     12.12057      7.50400         0.000876      0.000688     -0.000308
     -4.90553     14.26672      7.50369        -0.000032     -0.000219      0.001296
      4.95359      1.47022      7.51312         0.000817     -0.002864      0.000917
      3.72042      3.63626      7.53199        -0.000263     -0.002529     -0.000545
      0.07610      9.94988      7.53413        -0.001524      0.000362      0.000043
     -1.18363     12.10139      7.51288        -0.002566      0.000652      0.000067
     -2.44156     14.25927      7.50564        -0.001456     -0.000178      0.001074
      7.42183      1.44421      7.50495        -0.002254     -0.000999      0.001696
      6.18245      3.61497      7.51016        -0.000436     -0.005735     -0.000130
      1.28887     12.09254      7.51163        -0.001854      0.000635     -0.000560
      0.02791     14.25188      7.50505        -0.002569      0.000140      0.001201
      9.88586      1.43342      7.49554        -0.004617     -0.002660      0.001425
      8.66075      3.57998      7.49704        -0.001892     -0.001898      0.000943
      2.49734     14.25662      7.49849        -0.005682     -0.002491      0.000065
     12.35398      1.43976      7.48882        -0.002680     -0.001251      0.000877
     11.12561      3.56730      7.48741        -0.003914     -0.001619     -0.000000
      9.88326      5.69974      7.49391        -0.001310     -0.000636      0.000695
      8.61717      7.83752      7.51139        -0.001330      0.000762      0.004012
      7.41607      9.97861      7.53041        -0.000254      0.001597      0.006839
      6.16286     12.09003      7.51316         0.001609     -0.002042      0.003466
      4.94449     14.25543      7.49500        -0.000282     -0.002392      0.001453
     14.81981      1.42611      7.48884         0.001151     -0.001902     -0.000655
     13.58174      3.56671      7.48600        -0.000897      0.000041     -0.000972
     12.34633      5.70938      7.48938        -0.000488      0.001645     -0.000932
     11.11548      7.84758      7.49322         0.000401      0.000629      0.000340
      9.88615      9.97740      7.49809        -0.000364      0.000462      0.002455
      8.65018     12.11905      7.49820         0.000721      0.000446      0.001570
      7.42033     14.24893      7.49140         0.006428     -0.004955      0.000090
      4.97962      5.38567      7.50527        -0.000652     -0.001626     -0.002295
      5.25867     10.13752      7.57933         0.000512     -0.001079      0.008924
      6.47434      8.03097      7.57894        -0.000191      0.001094      0.008211
      2.22091     10.16513      7.50763        -0.001289      0.000553     -0.001244
      3.13911      8.36411      8.30555         0.011878      0.008319     -0.008060
      3.87706      7.08125      8.30246         0.014686      0.009744     -0.006605
      2.42444      5.72945      7.57787         0.000206     -0.000401     -0.000239
      1.24081      7.78009      7.57899        -0.000623      0.000863      0.000249
      7.45479      5.69305      7.50423        -0.000304     -0.001170      0.001675
      3.72473     12.15575      7.50667        -0.001868     -0.000227      0.002116
      4.02663      8.02054      8.54664         0.013138      0.010459     -0.051665
 -----------------------------------------------------------------------------------
    total drift:                                0.008477      0.059168     -0.025676


--------------------------------------------------------------------------------------------------------



  FREE ENERGIE OF THE ION-ELECTRON SYSTEM (eV)
  ---------------------------------------------------
  free  energy   TOTEN  =      -841.22149189 eV

  energy  without entropy=     -841.22149189  energy(sigma->0) =     -841.22149189
 


--------------------------------------------------------------------------------------------------------


    POTLOK:  cpu time      5.6280: real time      5.7320


--------------------------------------------------------------------------------------------------------


 NEB: the previous image is higher in energy: F
 NEB: the next image is higher in energy    : F
 NEB: image is at an extrema
 NEB: diff energy (min, max):     0.021980  841.221492

 NEB: Tangent
 ----------------------------------------------
     -0.00179     -0.00169      0.00385
     -0.00160     -0.00168     -0.00073
     -0.00237     -0.00111     -0.00260
     -0.00285     -0.00060     -0.00038
     -0.00239     -0.00048      0.00232
     -0.00103     -0.00058      0.00741
     -0.00153     -0.00066      0.00803
     -0.00122     -0.00101      0.00086
     -0.00139     -0.00205     -0.00884
     -0.00258     -0.00213     -0.01665
     -0.00325     -0.00126     -0.01480
     -0.00291     -0.00039     -0.00754
     -0.00110     -0.00071     -0.00072
     -0.00142     -0.00129      0.00449
     -0.00191     -0.00113      0.00095
     -0.00157     -0.00066     -0.01039
     -0.00227     -0.00338     -0.03294
     -0.00433     -0.00255     -0.04287
     -0.00451     -0.00005     -0.03000
     -0.00146     -0.00040     -0.00947
     -0.00159     -0.00060     -0.00036
     -0.00185     -0.00100      0.00135
     -0.00193     -0.00252     -0.00061
     -0.00024     -0.00267     -0.01415
     -0.00170      0.00084     -0.01198
     -0.00239     -0.00047     -0.00117
     -0.00165     -0.00159      0.00415
     -0.00154     -0.00145      0.00360
     -0.00097     -0.00226      0.00152
     -0.00170     -0.00028      0.00292
     -0.00099     -0.00197      0.00632
     -0.00141     -0.00169      0.00717
     -0.00145     -0.00131      0.00623
     -0.00225     -0.00102      0.00465
     -0.00346     -0.00047     -0.00098
     -0.00165     -0.00329      0.00104
     -0.00117     -0.00215      0.00550
     -0.00136     -0.00164      0.00514
     -0.00145     -0.00114      0.00636
     -0.00225     -0.00096      0.00631
     -0.00277     -0.00085      0.00755
     -0.00211     -0.00082      0.00826
     -0.00004     -0.00058      0.00749
     -0.00153     -0.00191      0.00702
     -0.00159     -0.00164     -0.00146
     -0.00245     -0.00165     -0.00638
     -0.00296     -0.00096     -0.00538
     -0.00271     -0.00043     -0.00174
     -0.00125     -0.00053      0.00278
     -0.00158     -0.00082      0.00695
     -0.00137     -0.00069      0.00434
     -0.00102     -0.00091     -0.00614
     -0.00231     -0.00246     -0.01881
     -0.00358     -0.00193     -0.02360
     -0.00355     -0.00093     -0.01569
     -0.00144     -0.00069     -0.00626
     -0.00128     -0.00087      0.00132
     -0.00136     -0.00135      0.00298
     -0.00214     -0.00134     -0.00263
     -0.00145     -0.00081     -0.02175
     -0.00131     -0.00053     -0.01859
     -0.00185     -0.00069     -0.00339
     -0.00185     -0.00079      0.00101
     -0.00169     -0.00141      0.00226
     -0.00109     -0.00295     -0.00335
     -0.00242      0.00040     -0.00222
     -0.00194     -0.00104      0.00118
     -0.00154     -0.00166      0.00525
     -0.00112     -0.00172      0.00414
     -0.00132     -0.00096      0.00483
     -0.00113     -0.00179      0.00791
     -0.00149     -0.00156      0.00692
     -0.00242     -0.00127      0.00735
     -0.00257     -0.00072      0.00506
      0.00057     -0.00015      0.00312
     -0.00129     -0.00251      0.00594
     -0.00101     -0.00193      0.00546
     -0.00139     -0.00121      0.00409
     -0.00202     -0.00108      0.00485
     -0.00272     -0.00074      0.00542
     -0.00247     -0.00090      0.00614
     -0.00084     -0.00081      0.00926
     -0.00101     -0.00095      0.00812
     -0.00179     -0.00170      0.00568
      0.00878     -0.00329     -0.01558
      0.00386     -0.01418     -0.00530
     -0.01027      0.01023     -0.00769
      0.00217      0.00863     -0.01573
      0.02675      0.01288     -0.51282
      0.02642      0.02593     -0.50766
     -0.00463     -0.00330     -0.05269
     -0.00550     -0.00227     -0.05158
     -0.00143     -0.00260      0.00193
     -0.00225     -0.00073      0.00459
      0.10881      0.07098     -0.66658

 NEB: forces: par spring, perp REAL, dneb     0.007293    0.042359    0.000000
 NEB: distance to prev, next image, angle between     0.785077    0.783618  174.186560
 NEB: projections on to tangent (spring, REAL)    -0.007293    0.011385

 stress matrix after NEB project (eV)
    -15.01372      4.47344      0.02711
      4.47344    -20.07386      0.01293
      0.02711      0.01293     -0.74459
  FORCES: max atom, RMS     0.017189    0.004221
  FORCE total and by dimension    0.041140    0.014193
  Stress total and by dimension   25.864094   20.073862
 OPT: skip step - force has converged


--------------------------------------------------------------------------------------------------------


  
 reached required accuracy - stopping structural energy minimisation
     LOOP+:  cpu time   2270.7797: real time   2289.4023
    4ORBIT:  cpu time      0.0000: real time      0.0000

 total amount of memory used by VASP MPI-rank0  1122553. kBytes
=======================================================================

   base      :      30000. kBytes
   nonlr-proj:       8926. kBytes
   fftplans  :     185212. kBytes
   grid      :     184190. kBytes
   one-center:        583. kBytes
   wavefun   :     713642. kBytes
 
  
  
 General timing and accounting informations for this job:
 ========================================================
  
                  Total CPU time used (sec):     2306.046
                            User time (sec):     2238.482
                          System time (sec):       67.563
                         Elapsed time (sec):     2326.780
  
                   Maximum memory used (kb):     1554716.
                   Average memory used (kb):          N/A
  
                          Minor page faults:       137845
                          Major page faults:           56
                 Voluntary context switches:         2407
