unknown system                          
           1
    17.271038    0.000000    0.000000
    -8.635519   14.957158    0.000000
     0.000000    0.000000   15.000000
   C    H    N    O 
    84     6     4     1
Direct configuration=     1
   0.00149670  0.00067988  0.49949732
   0.00100163  0.14316684  0.49955373
   0.00065558  0.28601071  0.49957410
   0.00098980  0.42917147  0.49970286
   0.00147968  0.57213350  0.49978040
   0.00184428  0.71498664  0.49973041
   0.00186884  0.85822289  0.49965807
   0.14526908  0.00182378  0.50020700
   0.14483280  0.14452525  0.50055558
   0.14298252  0.28597294  0.50089892
   0.14298689  0.42834536  0.50101811
   0.14485236  0.57160386  0.50089152
   0.14527015  0.71473905  0.50038719
   0.14518254  0.85824989  0.50002540
   0.28815355  0.00187632  0.50046791
   0.28843190  0.14655381  0.50139908
   0.28774561  0.29273467  0.50294820
   0.28558021  0.42843626  0.50392002
   0.28779315  0.56635538  0.50312695
   0.28849804  0.71327253  0.50150135
   0.28817340  0.85765217  0.50040489
   0.43069693  0.00102577  0.50036530
   0.43133957  0.14569523  0.50071948
   0.43053625  0.28731461  0.50124467
   0.43059330  0.71456956  0.50138674
   0.43140335  0.85702919  0.50071448
   0.57301642  0.00059883  0.49996454
   0.57299232  0.14376992  0.49992370
   0.57665269  0.29027857  0.50016471
   0.57672480  0.85775401  0.50029221
   0.71591978  0.00103085  0.49953695
   0.71573828  0.14354065  0.49932487
   0.71591095  0.28622771  0.49944465
   0.71192397  0.42570094  0.50020573
   0.71623997  0.57243504  0.50267486
   0.71627161  0.71516054  0.50272521
   0.71199581  0.85760465  0.50033277
   0.85828852  0.00031315  0.49938899
   0.85829700  0.14337948  0.49911483
   0.85828770  0.28623918  0.49903471
   0.85825935  0.42930546  0.49942593
   0.85748583  0.57155123  0.49986825
   0.85885354  0.71510292  0.50034091
   0.85752960  0.85731170  0.49989342
   0.04930258  0.09614177  0.49977118
   0.04785531  0.23817434  0.49990521
   0.04787750  0.38105382  0.50000196
   0.04929915  0.52448799  0.50008239
   0.04963778  0.66746751  0.49992343
   0.04952261  0.81041969  0.49978911
   0.04965952  0.95351013  0.49970231
   0.19287642  0.09726012  0.50080849
   0.19181699  0.24004136  0.50129682
   0.18992514  0.38062353  0.50162625
   0.19184873  0.52309524  0.50153404
   0.19291168  0.66693746  0.50105586
   0.19288031  0.81035237  0.50026656
   0.19288735  0.95383927  0.50024623
   0.33596226  0.09829517  0.50087478
   0.33696960  0.24311174  0.50213299
   0.33701882  0.66522548  0.50227545
   0.33600267  0.80907010  0.50085865
   0.33530332  0.95334101  0.50037578
   0.47800544  0.09655657  0.50033014
   0.47881032  0.24168823  0.50067761
   0.47886528  0.80847826  0.50077520
   0.47803969  0.95284681  0.50033664
   0.62031263  0.09583474  0.49970261
   0.62113562  0.23934898  0.49980265
   0.62117902  0.95316393  0.49989951
   0.76342957  0.09625866  0.49925490
   0.76342771  0.23850136  0.49916080
   0.76278035  0.38107089  0.49959395
   0.76093643  0.52399785  0.50075962
   0.76296637  0.66714610  0.50202749
   0.76098727  0.80831060  0.50087732
   0.76283016  0.95308405  0.49966655
   0.90574593  0.09534630  0.49925619
   0.90561872  0.23846157  0.49906636
   0.90571495  0.38171540  0.49929208
   0.90592588  0.52467050  0.49954803
   0.90594480  0.66706520  0.49987280
   0.90597429  0.81025091  0.49988016
   0.90596473  0.95264964  0.49942644
   0.46835838  0.36007319  0.50035155
   0.64336443  0.67777052  0.50528892
   0.64333260  0.53693162  0.50526246
   0.46839994  0.67961635  0.50050838
   0.46135787  0.55920476  0.55370335
   0.46120075  0.47343529  0.55349723
   0.33190494  0.38305739  0.50519165
   0.33192239  0.52015839  0.50526624
   0.62194704  0.38062376  0.50028231
   0.62201573  0.81270480  0.50044454
   0.50126033  0.53623416  0.56977595
