  91  91   0   0
  0.4258115E+02  0.1727104E-08  0.1727104E-08  0.1500000E-08  0.0000000E+00
  1.000000000000000E-004
  CAR 
 unknown system                          
      4.45903696    -24.13882260  301     -3.01757675      1.00000000
    -24.139  0.0000E+00  0.0000E+00  0.0000E+00  0.0000E+00
    -24.043  0.0000E+00  0.0000E+00  0.0000E+00  0.0000E+00
    -23.948  0.0000E+00  0.0000E+00  0.0000E+00  0.0000E+00
    -23.853  0.0000E+00  0.0000E+00  0.0000E+00  0.0000E+00
    -23.758  0.0000E+00  0.0000E+00  0.0000E+00  0.0000E+00
    -23.662  0.0000E+00  0.0000E+00  0.0000E+00  0.0000E+00
    -23.567  0.0000E+00  0.0000E+00  0.0000E+00  0.0000E+00
    -23.472  0.0000E+00  0.0000E+00  0.0000E+00  0.0000E+00
    -23.376  0.0000E+00  0.0000E+00  0.0000E+00  0.0000E+00
    -23.281  0.0000E+00  0.0000E+00  0.0000E+00  0.0000E+00
    -23.186  0.0000E+00  0.0000E+00  0.0000E+00  0.0000E+00
    -23.090  0.5585E-14  0.5585E-14  0.5324E-15  0.5324E-15
    -22.995  0.5825E-07  0.5825E-07  0.5552E-08  0.5552E-08
    -22.900  0.7498E-03  0.7498E-03  0.7148E-04  0.7148E-04
    -22.804  0.2524E-01  0.2524E-01  0.2478E-02  0.2478E-02
    -22.709  0.3316E-01  0.3316E-01  0.5639E-02  0.5639E-02
    -22.614  0.2891E-01  0.2891E-01  0.8395E-02  0.8395E-02
    -22.518  0.1731E-01  0.1731E-01  0.1004E-01  0.1004E-01
    -22.423  0.1953E-01  0.1953E-01  0.1191E-01  0.1191E-01
    -22.328  0.1555E-01  0.1555E-01  0.1339E-01  0.1339E-01
    -22.232  0.1993E-01  0.1993E-01  0.1529E-01  0.1529E-01
    -22.137  0.1565E-01  0.1565E-01  0.1678E-01  0.1678E-01
    -22.042  0.1645E-01  0.1645E-01  0.1835E-01  0.1835E-01
    -21.946  0.2196E-01  0.2196E-01  0.2044E-01  0.2044E-01
    -21.851  0.2432E-01  0.2432E-01  0.2276E-01  0.2276E-01
    -21.756  0.2557E-01  0.2557E-01  0.2520E-01  0.2520E-01
    -21.660  0.2137E-01  0.2137E-01  0.2724E-01  0.2724E-01
    -21.565  0.2431E-01  0.2431E-01  0.2955E-01  0.2955E-01
    -21.470  0.1972E-01  0.1972E-01  0.3143E-01  0.3143E-01
    -21.374  0.2301E-01  0.2301E-01  0.3363E-01  0.3363E-01
    -21.279  0.1641E-01  0.1641E-01  0.3519E-01  0.3519E-01
    -21.184  0.4833E-01  0.4832E-01  0.3980E-01  0.3980E-01
    -21.088  0.5557E-01  0.5557E-01  0.4509E-01  0.4509E-01
    -20.993  0.1808E-01  0.1808E-01  0.4682E-01  0.4682E-01
    -20.898  0.2089E-01  0.2089E-01  0.4881E-01  0.4881E-01
    -20.802  0.1818E-01  0.1818E-01  0.5054E-01  0.5054E-01
    -20.707  0.1332E-01  0.1332E-01  0.5181E-01  0.5181E-01
    -20.612  0.1678E-01  0.1678E-01  0.5341E-01  0.5341E-01
    -20.516  0.2486E-01  0.2486E-01  0.5578E-01  0.5578E-01
    -20.421  0.1724E-01  0.1724E-01  0.5742E-01  0.5742E-01
    -20.326  0.2203E-01  0.2203E-01  0.5952E-01  0.5952E-01
    -20.230  0.2762E-01  0.2762E-01  0.6216E-01  0.6216E-01
    -20.135  0.1645E-01  0.1645E-01  0.6372E-01  0.6372E-01
    -20.040  0.1337E-01  0.1337E-01  0.6500E-01  0.6500E-01
    -19.944  0.1867E-01  0.1867E-01  0.6678E-01  0.6678E-01
    -19.849  0.2512E-01  0.2512E-01  0.6917E-01  0.6917E-01
    -19.754  0.3523E-01  0.3523E-01  0.7253E-01  0.7253E-01
    -19.658  0.1861E-01  0.1861E-01  0.7431E-01  0.7431E-01
    -19.563  0.1523E-01  0.1523E-01  0.7576E-01  0.7576E-01
    -19.468  0.2481E-01  0.2481E-01  0.7812E-01  0.7812E-01
    -19.373  0.2297E-01  0.2297E-01  0.8031E-01  0.8031E-01
    -19.277  0.1243E-01  0.1243E-01  0.8150E-01  0.8150E-01
    -19.182  0.2809E-02  0.2809E-02  0.8176E-01  0.8176E-01
    -19.087  0.1395E-01  0.1395E-01  0.8309E-01  0.8309E-01
    -18.991  0.1727E-01  0.1727E-01  0.8474E-01  0.8474E-01
    -18.896  0.5176E-01  0.5176E-01  0.8968E-01  0.8968E-01
    -18.801  0.3471E-01  0.3471E-01  0.9298E-01  0.9298E-01
    -18.705  0.3166E-01  0.3166E-01  0.9600E-01  0.9600E-01
    -18.610  0.3135E-01  0.3135E-01  0.9899E-01  0.9899E-01
    -18.515  0.1781E-01  0.1781E-01  0.1007E+00  0.1007E+00
    -18.419  0.2274E-02  0.2274E-02  0.1009E+00  0.1009E+00
    -18.324  0.2125E-01  0.2125E-01  0.1029E+00  0.1029E+00
    -18.229  0.1872E-01  0.1872E-01  0.1047E+00  0.1047E+00
    -18.133  0.3030E-01  0.3030E-01  0.1076E+00  0.1076E+00
    -18.038  0.1606E-01  0.1606E-01  0.1091E+00  0.1091E+00
    -17.943  0.1822E-01  0.1822E-01  0.1109E+00  0.1109E+00
    -17.847  0.3536E-01  0.3536E-01  0.1142E+00  0.1142E+00
    -17.752  0.5130E-01  0.5130E-01  0.1191E+00  0.1191E+00
    -17.657  0.2179E-01  0.2179E-01  0.1212E+00  0.1212E+00
    -17.561  0.7659E-02  0.7659E-02  0.1219E+00  0.1219E+00
    -17.466  0.2537E-01  0.2537E-01  0.1244E+00  0.1244E+00
    -17.371  0.4467E-01  0.4467E-01  0.1286E+00  0.1286E+00
    -17.275  0.2948E-01  0.2948E-01  0.1314E+00  0.1314E+00
    -17.180  0.2153E-01  0.2153E-01  0.1335E+00  0.1335E+00
    -17.085  0.1560E-01  0.1560E-01  0.1350E+00  0.1350E+00
    -16.989  0.1814E-01  0.1814E-01  0.1367E+00  0.1367E+00
    -16.894  0.2514E-01  0.2514E-01  0.1391E+00  0.1391E+00
    -16.799  0.4835E-01  0.4835E-01  0.1437E+00  0.1437E+00
    -16.703  0.2504E-01  0.2504E-01  0.1461E+00  0.1461E+00
    -16.608  0.1410E-01  0.1410E-01  0.1474E+00  0.1474E+00
    -16.513  0.7109E-03  0.7109E-03  0.1475E+00  0.1475E+00
    -16.417  0.2079E-05  0.2079E-05  0.1475E+00  0.1475E+00
    -16.322  0.1838E-02  0.1838E-02  0.1477E+00  0.1477E+00
    -16.227  0.1258E-01  0.1258E-01  0.1489E+00  0.1489E+00
    -16.131  0.2175E-01  0.2175E-01  0.1509E+00  0.1509E+00
    -16.036  0.2160E-01  0.2160E-01  0.1530E+00  0.1530E+00
    -15.941  0.1373E-01  0.1373E-01  0.1543E+00  0.1543E+00
    -15.845  0.1583E-01  0.1583E-01  0.1558E+00  0.1558E+00
    -15.750  0.1483E-01  0.1483E-01  0.1572E+00  0.1572E+00
    -15.655  0.1929E-01  0.1929E-01  0.1591E+00  0.1591E+00
    -15.559  0.3308E-01  0.3308E-01  0.1622E+00  0.1622E+00
    -15.464  0.4501E-01  0.4501E-01  0.1665E+00  0.1665E+00
    -15.369  0.4350E-01  0.4350E-01  0.1707E+00  0.1707E+00
    -15.273  0.7548E-02  0.7548E-02  0.1714E+00  0.1714E+00
    -15.178  0.1959E-01  0.1959E-01  0.1733E+00  0.1733E+00
    -15.083  0.3500E-01  0.3500E-01  0.1766E+00  0.1766E+00
    -14.988  0.2760E-01  0.2760E-01  0.1792E+00  0.1792E+00
    -14.892  0.2613E-01  0.2613E-01  0.1817E+00  0.1817E+00
    -14.797  0.4324E-01  0.4324E-01  0.1858E+00  0.1858E+00
    -14.702  0.3904E-01  0.3904E-01  0.1896E+00  0.1896E+00
    -14.606  0.3012E-01  0.3012E-01  0.1924E+00  0.1924E+00
    -14.511  0.1866E-01  0.1866E-01  0.1942E+00  0.1942E+00
    -14.416  0.1681E-01  0.1681E-01  0.1958E+00  0.1958E+00
    -14.320  0.7156E-02  0.7156E-02  0.1965E+00  0.1965E+00
    -14.225  0.1352E-01  0.1352E-01  0.1978E+00  0.1978E+00
    -14.130  0.1417E-01  0.1417E-01  0.1991E+00  0.1991E+00
    -14.034  0.2947E-01  0.2947E-01  0.2019E+00  0.2019E+00
    -13.939  0.4524E-01  0.4524E-01  0.2063E+00  0.2063E+00
    -13.844  0.3493E-01  0.3493E-01  0.2096E+00  0.2096E+00
    -13.748  0.2140E-01  0.2140E-01  0.2116E+00  0.2116E+00
    -13.653  0.2211E-01  0.2211E-01  0.2137E+00  0.2137E+00
    -13.558  0.1244E-01  0.1244E-01  0.2149E+00  0.2149E+00
    -13.462  0.3285E-02  0.3285E-02  0.2152E+00  0.2152E+00
    -13.367  0.1828E-01  0.1828E-01  0.2170E+00  0.2170E+00
    -13.272  0.1955E-01  0.1955E-01  0.2188E+00  0.2188E+00
    -13.176  0.1807E-01  0.1807E-01  0.2206E+00  0.2206E+00
    -13.081  0.2467E-01  0.2467E-01  0.2229E+00  0.2229E+00
    -12.986  0.2145E-01  0.2145E-01  0.2250E+00  0.2250E+00
    -12.890  0.5694E-01  0.5694E-01  0.2304E+00  0.2304E+00
    -12.795  0.2775E-01  0.2775E-01  0.2330E+00  0.2330E+00
    -12.700  0.3676E-01  0.3676E-01  0.2365E+00  0.2365E+00
    -12.604  0.2621E-01  0.2621E-01  0.2390E+00  0.2390E+00
    -12.509  0.3618E-01  0.3618E-01  0.2425E+00  0.2425E+00
    -12.414  0.1397E-01  0.1397E-01  0.2438E+00  0.2438E+00
    -12.318  0.1318E-01  0.1318E-01  0.2451E+00  0.2451E+00
    -12.223  0.1212E-01  0.1212E-01  0.2462E+00  0.2462E+00
    -12.128  0.1328E-01  0.1328E-01  0.2475E+00  0.2475E+00
    -12.032  0.2867E-01  0.2867E-01  0.2502E+00  0.2502E+00
    -11.937  0.2764E-01  0.2764E-01  0.2529E+00  0.2529E+00
    -11.842  0.3628E-01  0.3628E-01  0.2563E+00  0.2563E+00
    -11.746  0.4430E-01  0.4430E-01  0.2605E+00  0.2605E+00
    -11.651  0.5852E-01  0.5852E-01  0.2661E+00  0.2661E+00
    -11.556  0.2388E-01  0.2388E-01  0.2684E+00  0.2684E+00
    -11.460  0.3351E-01  0.3351E-01  0.2716E+00  0.2716E+00
    -11.365  0.3623E-01  0.3623E-01  0.2750E+00  0.2750E+00
    -11.270  0.3877E-01  0.3877E-01  0.2787E+00  0.2787E+00
    -11.174  0.3203E-01  0.3203E-01  0.2818E+00  0.2818E+00
    -11.079  0.7754E-02  0.7754E-02  0.2825E+00  0.2825E+00
    -10.984  0.1935E-01  0.1935E-01  0.2844E+00  0.2844E+00
    -10.888  0.2495E-01  0.2495E-01  0.2868E+00  0.2868E+00
    -10.793  0.1109E-01  0.1109E-01  0.2878E+00  0.2878E+00
    -10.698  0.3062E-01  0.3062E-01  0.2907E+00  0.2907E+00
    -10.603  0.5353E-01  0.5353E-01  0.2958E+00  0.2958E+00
    -10.507  0.3598E-01  0.3598E-01  0.2993E+00  0.2993E+00
    -10.412  0.4963E-01  0.4963E-01  0.3040E+00  0.3040E+00
    -10.317  0.4720E-01  0.4720E-01  0.3085E+00  0.3085E+00
    -10.221  0.5049E-01  0.5049E-01  0.3133E+00  0.3133E+00
    -10.126  0.5783E-01  0.5783E-01  0.3188E+00  0.3188E+00
    -10.031  0.4509E-01  0.4509E-01  0.3231E+00  0.3231E+00
     -9.935  0.5516E-01  0.5516E-01  0.3284E+00  0.3284E+00
     -9.840  0.8737E-01  0.8737E-01  0.3367E+00  0.3367E+00
     -9.745  0.6069E-01  0.6069E-01  0.3425E+00  0.3425E+00
     -9.649  0.4700E-01  0.4700E-01  0.3470E+00  0.3470E+00
     -9.554  0.6465E-01  0.6465E-01  0.3531E+00  0.3531E+00
     -9.459  0.3779E-01  0.3779E-01  0.3567E+00  0.3567E+00
     -9.363  0.7878E-01  0.7878E-01  0.3642E+00  0.3642E+00
     -9.268  0.9824E-01  0.9824E-01  0.3736E+00  0.3736E+00
     -9.173  0.8636E-01  0.8636E-01  0.3818E+00  0.3818E+00
     -9.077  0.4706E-01  0.4706E-01  0.3863E+00  0.3863E+00
     -8.982  0.7649E-01  0.7649E-01  0.3936E+00  0.3936E+00
     -8.887  0.7143E-01  0.7143E-01  0.4004E+00  0.4004E+00
     -8.791  0.4143E-01  0.4143E-01  0.4044E+00  0.4044E+00
     -8.696  0.6083E-01  0.6083E-01  0.4102E+00  0.4102E+00
     -8.601  0.6721E-01  0.6721E-01  0.4166E+00  0.4166E+00
     -8.505  0.9323E-01  0.9323E-01  0.4255E+00  0.4255E+00
     -8.410  0.5395E-01  0.5395E-01  0.4306E+00  0.4306E+00
     -8.315  0.4929E-01  0.4929E-01  0.4353E+00  0.4353E+00
     -8.219  0.3062E-01  0.3062E-01  0.4382E+00  0.4382E+00
     -8.124  0.4037E-01  0.4037E-01  0.4421E+00  0.4421E+00
     -8.029  0.3813E-01  0.3813E-01  0.4457E+00  0.4457E+00
     -7.933  0.3361E-01  0.3361E-01  0.4489E+00  0.4489E+00
     -7.838  0.1895E-01  0.1895E-01  0.4507E+00  0.4507E+00
     -7.743  0.4448E-01  0.4448E-01  0.4550E+00  0.4550E+00
     -7.647  0.8542E-01  0.8542E-01  0.4631E+00  0.4631E+00
     -7.552  0.7644E-01  0.7644E-01  0.4704E+00  0.4704E+00
     -7.457  0.4850E-01  0.4850E-01  0.4750E+00  0.4750E+00
     -7.361  0.3671E-01  0.3671E-01  0.4785E+00  0.4785E+00
     -7.266  0.2377E-01  0.2377E-01  0.4808E+00  0.4808E+00
     -7.171  0.2649E-01  0.2649E-01  0.4833E+00  0.4833E+00
     -7.075  0.3894E-01  0.3894E-01  0.4870E+00  0.4870E+00
     -6.980  0.5130E-01  0.5130E-01  0.4919E+00  0.4919E+00
     -6.885  0.2385E-01  0.2385E-01  0.4942E+00  0.4942E+00
     -6.789  0.2547E-01  0.2547E-01  0.4966E+00  0.4966E+00
     -6.694  0.5836E-01  0.5836E-01  0.5022E+00  0.5022E+00
     -6.599  0.5048E-01  0.5048E-01  0.5070E+00  0.5070E+00
     -6.503  0.4471E-01  0.4471E-01  0.5112E+00  0.5112E+00
     -6.408  0.3079E-01  0.3079E-01  0.5142E+00  0.5142E+00
     -6.313  0.5071E-01  0.5071E-01  0.5190E+00  0.5190E+00
     -6.217  0.3738E-01  0.3738E-01  0.5226E+00  0.5226E+00
     -6.122  0.2230E-01  0.2230E-01  0.5247E+00  0.5247E+00
     -6.027  0.2038E-01  0.2038E-01  0.5266E+00  0.5266E+00
     -5.932  0.1483E-01  0.1483E-01  0.5281E+00  0.5281E+00
     -5.836  0.1539E-01  0.1539E-01  0.5295E+00  0.5295E+00
     -5.741  0.1931E-01  0.1931E-01  0.5314E+00  0.5314E+00
     -5.646  0.3569E-01  0.3569E-01  0.5348E+00  0.5348E+00
     -5.550  0.2573E-01  0.2573E-01  0.5372E+00  0.5372E+00
     -5.455  0.4816E-01  0.4815E-01  0.5418E+00  0.5418E+00
     -5.360  0.9919E-01  0.9919E-01  0.5513E+00  0.5513E+00
     -5.264  0.4091E-01  0.4091E-01  0.5552E+00  0.5552E+00
     -5.169  0.5330E-01  0.5330E-01  0.5603E+00  0.5603E+00
     -5.074  0.6100E-02  0.6100E-02  0.5608E+00  0.5608E+00
     -4.978  0.3089E-02  0.3089E-02  0.5611E+00  0.5611E+00
     -4.883  0.3181E-01  0.3181E-01  0.5642E+00  0.5642E+00
     -4.788  0.3299E-01  0.3299E-01  0.5673E+00  0.5673E+00
     -4.692  0.3217E-01  0.3217E-01  0.5704E+00  0.5704E+00
     -4.597  0.6052E-01  0.6052E-01  0.5761E+00  0.5761E+00
     -4.502  0.5725E-01  0.5725E-01  0.5816E+00  0.5816E+00
     -4.406  0.6763E-01  0.6763E-01  0.5880E+00  0.5880E+00
     -4.311  0.4944E-01  0.4944E-01  0.5928E+00  0.5928E+00
     -4.216  0.4690E-01  0.4690E-01  0.5972E+00  0.5972E+00
     -4.120  0.3895E-01  0.3895E-01  0.6009E+00  0.6009E+00
     -4.025  0.3660E-01  0.3660E-01  0.6044E+00  0.6044E+00
     -3.930  0.1585E-01  0.1585E-01  0.6059E+00  0.6059E+00
     -3.834  0.1436E-01  0.1436E-01  0.6073E+00  0.6073E+00
     -3.739  0.1998E-02  0.1998E-02  0.6075E+00  0.6075E+00
     -3.644  0.1034E-02  0.1034E-02  0.6076E+00  0.6076E+00
     -3.548  0.7138E-02  0.7138E-02  0.6083E+00  0.6083E+00
     -3.453  0.5698E-03  0.5698E-03  0.6083E+00  0.6083E+00
     -3.358  0.4905E-03  0.4905E-03  0.6084E+00  0.6084E+00
     -3.262  0.1322E-01  0.1322E-01  0.6096E+00  0.6096E+00
     -3.167  0.6370E-02  0.6369E-02  0.6102E+00  0.6102E+00
     -3.072  0.2863E-01  0.2863E-01  0.6130E+00  0.6130E+00
     -2.976  0.5233E-02  0.5234E-02  0.6135E+00  0.6135E+00
     -2.881  0.1435E-01  0.1435E-01  0.6148E+00  0.6148E+00
     -2.786  0.1647E-02  0.1647E-02  0.6150E+00  0.6150E+00
     -2.690  0.5486E-06  0.5486E-06  0.6150E+00  0.6150E+00
     -2.595  0.7900E-04  0.7900E-04  0.6150E+00  0.6150E+00
     -2.500  0.5486E-02  0.5486E-02  0.6155E+00  0.6155E+00
     -2.404  0.8281E-02  0.8281E-02  0.6163E+00  0.6163E+00
     -2.309  0.6379E-02  0.6379E-02  0.6169E+00  0.6169E+00
     -2.214  0.1236E-01  0.1236E-01  0.6181E+00  0.6181E+00
     -2.118  0.1405E-01  0.1405E-01  0.6194E+00  0.6194E+00
     -2.023  0.5802E-02  0.5802E-02  0.6200E+00  0.6200E+00
     -1.928  0.1125E-02  0.1125E-02  0.6201E+00  0.6201E+00
     -1.832  0.1974E-01  0.1974E-01  0.6220E+00  0.6220E+00
     -1.737  0.2883E-01  0.2883E-01  0.6247E+00  0.6247E+00
     -1.642  0.2770E-02  0.2770E-02  0.6250E+00  0.6250E+00
     -1.547  0.2997E-04  0.2997E-04  0.6250E+00  0.6250E+00
     -1.451  0.5587E-02  0.5587E-02  0.6255E+00  0.6255E+00
     -1.356  0.3170E-01  0.3170E-01  0.6286E+00  0.6286E+00
     -1.261  0.5608E-01  0.5608E-01  0.6339E+00  0.6339E+00
     -1.165  0.2853E-01  0.2853E-01  0.6366E+00  0.6366E+00
     -1.070  0.3520E-01  0.3520E-01  0.6400E+00  0.6400E+00
     -0.975  0.2658E-01  0.2658E-01  0.6425E+00  0.6425E+00
     -0.879  0.3021E-01  0.3021E-01  0.6454E+00  0.6454E+00
     -0.784  0.1894E-01  0.1894E-01  0.6472E+00  0.6472E+00
     -0.689  0.1133E-01  0.1133E-01  0.6483E+00  0.6483E+00
     -0.593  0.3770E-01  0.3770E-01  0.6519E+00  0.6519E+00
     -0.498  0.2723E-01  0.2723E-01  0.6545E+00  0.6545E+00
     -0.403  0.3840E-01  0.3840E-01  0.6581E+00  0.6581E+00
     -0.307  0.3443E-01  0.3443E-01  0.6614E+00  0.6614E+00
     -0.212  0.3699E-01  0.3699E-01  0.6649E+00  0.6649E+00
     -0.117  0.1681E-01  0.1681E-01  0.6665E+00  0.6665E+00
     -0.021  0.1425E-02  0.1425E-02  0.6667E+00  0.6667E+00
      0.074  0.9168E-02  0.9168E-02  0.6675E+00  0.6675E+00
      0.169  0.2290E-01  0.2290E-01  0.6697E+00  0.6697E+00
      0.265  0.2338E-01  0.2338E-01  0.6720E+00  0.6720E+00
      0.360  0.3175E-01  0.3175E-01  0.6750E+00  0.6750E+00
      0.455  0.1318E-01  0.1318E-01  0.6762E+00  0.6762E+00
      0.551  0.1671E-01  0.1671E-01  0.6778E+00  0.6778E+00
      0.646  0.1067E-01  0.1067E-01  0.6789E+00  0.6789E+00
      0.741  0.2281E-01  0.2281E-01  0.6810E+00  0.6810E+00
      0.837  0.2461E-01  0.2461E-01  0.6834E+00  0.6834E+00
      0.932  0.4167E-01  0.4167E-01  0.6873E+00  0.6873E+00
      1.027  0.4213E-01  0.4213E-01  0.6914E+00  0.6914E+00
      1.123  0.2853E-01  0.2853E-01  0.6941E+00  0.6941E+00
      1.218  0.5478E-01  0.5478E-01  0.6993E+00  0.6993E+00
      1.313  0.3564E-01  0.3564E-01  0.7027E+00  0.7027E+00
      1.409  0.3476E-01  0.3476E-01  0.7060E+00  0.7060E+00
      1.504  0.2857E-01  0.2857E-01  0.7087E+00  0.7087E+00
      1.599  0.1548E-01  0.1548E-01  0.7102E+00  0.7102E+00
      1.695  0.2496E-01  0.2496E-01  0.7126E+00  0.7126E+00
      1.790  0.4866E-01  0.4866E-01  0.7172E+00  0.7172E+00
      1.885  0.8430E-01  0.8430E-01  0.7253E+00  0.7253E+00
      1.981  0.6169E-01  0.6169E-01  0.7311E+00  0.7311E+00
      2.076  0.1585E-01  0.1585E-01  0.7327E+00  0.7327E+00
      2.171  0.3539E-01  0.3539E-01  0.7360E+00  0.7360E+00
      2.267  0.4919E-01  0.4919E-01  0.7407E+00  0.7407E+00
      2.362  0.7952E-01  0.7952E-01  0.7483E+00  0.7483E+00
      2.457  0.7220E-01  0.7220E-01  0.7552E+00  0.7552E+00
      2.553  0.4099E-01  0.4099E-01  0.7591E+00  0.7591E+00
      2.648  0.3221E-01  0.3221E-01  0.7622E+00  0.7622E+00
      2.743  0.1100E+00  0.1100E+00  0.7726E+00  0.7726E+00
      2.838  0.1689E+00  0.1689E+00  0.7888E+00  0.7888E+00
      2.934  0.6331E-01  0.6391E-01  0.7948E+00  0.7948E+00
      3.029  0.1610E-01  0.1810E-01  0.7963E+00  0.7966E+00
      3.124  0.2154E-01  0.1291E-01  0.7984E+00  0.7978E+00
      3.220  0.1676E-01  0.2243E-01  0.8000E+00  0.7999E+00
      3.315  0.2874E-03  0.6694E-03  0.8000E+00  0.8000E+00
      3.410  0.1327E-07  0.5879E-07  0.8000E+00  0.8000E+00
      3.506  0.6726E-15  0.5876E-14  0.8000E+00  0.8000E+00
      3.601  0.0000E+00  0.0000E+00  0.8000E+00  0.8000E+00
      3.696  0.0000E+00  0.0000E+00  0.8000E+00  0.8000E+00
      3.792  0.0000E+00  0.0000E+00  0.8000E+00  0.8000E+00
      3.887  0.0000E+00  0.0000E+00  0.8000E+00  0.8000E+00
      3.982  0.0000E+00  0.0000E+00  0.8000E+00  0.8000E+00
      4.078  0.0000E+00  0.0000E+00  0.8000E+00  0.8000E+00
      4.173  0.0000E+00  0.0000E+00  0.8000E+00  0.8000E+00
      4.268  0.0000E+00  0.0000E+00  0.8000E+00  0.8000E+00
      4.364  0.0000E+00  0.0000E+00  0.8000E+00  0.8000E+00
      4.459  0.0000E+00  0.0000E+00  0.8000E+00  0.8000E+00
