 vasp.6.4.2 20Jul23 (build Aug 26 2025 15:10:52) complex                        
  
 executed on             LinuxIFC date 2025.11.27  11:30:10
 running  100 mpi-ranks, on    2 nodes
 each image running on   20 cores
 distrk:  each k-point on   20 cores,    1 groups
 distr:  one band on NCORE=   1 cores,   20 groups


--------------------------------------------------------------------------------------------------------


 INCAR:
   ENCUT = 520
   EDIFF = 1E-6
   NELM = 200
   ALGO = Normal
   ISMEAR = 0
   SIGMA = 0.05
   LASPH = .TRUE.
   ADDGRID = .TRUE.
   LREAL = Auto
   ISYM = 0
   ISPIN = 2
   MAGMOM = 91*0
   IMIX = 4
   AMIX = 0.20
   BMIX = 1E-4
   AMIX_MAG = 0.80
   BMIX_MAG = 1E-4
   IBRION = 3
   POTIM = 0
   ICHAIN = 0
   IMAGES = 5
   SPRING = -5
   LCLIMB = .TRUE.
   IOPT = 1
   ISIF = 2
   EDIFFG = -0.03
   NSW = 300
   IVDW = 12
   ISTART = 0
   ICHARG = 2
   LWAVE = .FALSE.
   LCHARG = .FALSE.

 POTCAR:    PAW_PBE C 08Apr2002                   
 POTCAR:    PAW_PBE N 08Apr2002                   
 POTCAR:    PAW_PBE H 15Jun2001                   
 POTCAR:    PAW_PBE O 08Apr2002                   
 -----------------------------------------------------------------------------
|                                                                             |
|           W    W    AA    RRRRR   N    N  II  N    N   GGGG   !!!           |
|           W    W   A  A   R    R  NN   N  II  NN   N  G    G  !!!           |
|           W    W  A    A  R    R  N N  N  II  N N  N  G       !!!           |
|           W WW W  AAAAAA  RRRRR   N  N N  II  N  N N  G  GGG   !            |
|           WW  WW  A    A  R   R   N   NN  II  N   NN  G    G                |
|           W    W  A    A  R    R  N    N  II  N    N   GGGG   !!!           |
|                                                                             |
|     For optimal performance we recommend to set                             |
|       NCORE = 2 up to number-of-cores-per-socket                            |
|     NCORE specifies how many cores store one orbital (NPAR=cpu/NCORE).      |
|     This setting can greatly improve the performance of VASP for DFT.       |
|     The default, NCORE=1 might be grossly inefficient on modern             |
|     multi-core architectures or massively parallel machines. Do your        |
|     own testing! More info at https://www.vasp.at/wiki/index.php/NCORE      |
|     Unfortunately you need to use the default for GW and RPA                |
|     calculations (for HF NCORE is supported but not extensively tested      |
|     yet).                                                                   |
|                                                                             |
 -----------------------------------------------------------------------------

 POTCAR:    PAW_PBE C 08Apr2002                   
   SHA256 =  253f7b50bb8d59471dbedb8285d89021f4a42ed1a2c5d38a03a736e69125dd95 C/POTCAR              
   COPYR  = (c) Copyright 08Apr2002 Georg Kresse                                                    
   COPYR  = This file is part of the software VASP. Any use, copying, and all other rights are regul
   COPYR  = If you do not have a valid VASP license, you may not use, copy or distribute this file. 
   VRHFIN =C: s2p2                                                                                  
   LEXCH  = PE                                                                                      
   EATOM  =   147.1560 eV,   10.8157 Ry                                                             
                                                                                                    
   TITEL  = PAW_PBE C 08Apr2002                                                                     
   LULTRA =        F    use ultrasoft PP ?                                                          
   IUNSCR =        1    unscreen: 0-lin 1-nonlin 2-no                                               
   RPACOR =    1.200    partial core radius                                                         
   POMASS =   12.011; ZVAL   =    4.000    mass and valenz                                          
   RCORE  =    1.500    outmost cutoff radius                                                       
   RWIGS  =    1.630; RWIGS  =    0.863    wigner-seitz radius (au A)                               
   ENMAX  =  400.000; ENMIN  =  300.000 eV                                                          
   ICORE  =        2    local potential                                                             
   LCOR   =        T    correct aug charges                                                         
   LPAW   =        T    paw PP                                                                      
   EAUG   =  644.873                                                                                
   DEXC   =    0.000                                                                                
   RMAX   =    1.529    core radius for proj-oper                                                   
   RAUG   =    1.300    factor for augmentation sphere                                              
   RDEP   =    1.501    radius for radial grids                                                     
   RDEPT  =    1.300    core radius for aug-charge                                                  
                                                                                                    
   Atomic configuration                                                                             
    4 entries                                                                                       
     n  l   j            E        occ.                                                              
     1  0  0.50      -273.3789   2.0000                                                             
     2  0  0.50       -13.7508   2.0000                                                             
     2  1  0.50        -5.2854   2.0000                                                             
     3  2  1.50        -5.4423   0.0000                                                             
   Description                                                                                      
     l       E           TYP  RCUT    TYP  RCUT                                                     
     0    -13.7508458     23  1.200                                                                 
     0     -8.2022199     23  1.200                                                                 
     1     -5.2854383     23  1.500                                                                 
     1     34.0145650     23  1.500                                                                 
     2     -5.4423304      7  1.500                                                                 
  local pseudopotential read in
  partial core-charges read in
  partial kinetic energy density read in
  atomic valenz-charges read in
  non local Contribution for L=           0  read in
    real space projection operators read in
  non local Contribution for L=           0  read in
    real space projection operators read in
  non local Contribution for L=           1  read in
    real space projection operators read in
  non local Contribution for L=           1  read in
    real space projection operators read in
    PAW grid and wavefunctions read in
 
   number of l-projection  operators is LMAX  =           4
   number of lm-projection operators is LMMAX =           8
 
 POTCAR:    PAW_PBE N 08Apr2002                   
   SHA256 =  e053789ff3a61a86a1b75d8a110fcc91f86041011e7b0817c7c99e4e8a6349d7 N/POTCAR              
   COPYR  = (c) Copyright 08Apr2002 Georg Kresse                                                    
   COPYR  = This file is part of the software VASP. Any use, copying, and all other rights are regul
   COPYR  = If you do not have a valid VASP license, you may not use, copy or distribute this file. 
   VRHFIN =N: s2p3                                                                                  
   LEXCH  = PE                                                                                      
   EATOM  =   264.5486 eV,   19.4438 Ry                                                             
                                                                                                    
   TITEL  = PAW_PBE N 08Apr2002                                                                     
   LULTRA =        F    use ultrasoft PP ?                                                          
   IUNSCR =        1    unscreen: 0-lin 1-nonlin 2-no                                               
   RPACOR =    1.200    partial core radius                                                         
   POMASS =   14.001; ZVAL   =    5.000    mass and valenz                                          
   RCORE  =    1.500    outmost cutoff radius                                                       
   RWIGS  =    1.400; RWIGS  =    0.741    wigner-seitz radius (au A)                               
   ENMAX  =  400.000; ENMIN  =  300.000 eV                                                          
   ICORE  =        2    local potential                                                             
   LCOR   =        T    correct aug charges                                                         
   LPAW   =        T    paw PP                                                                      
   EAUG   =  627.112                                                                                
   DEXC   =    0.000                                                                                
   RMAX   =    1.529    core radius for proj-oper                                                   
   RAUG   =    1.300    factor for augmentation sphere                                              
   RDEP   =    1.514    radius for radial grids                                                     
   RDEPT  =    1.338    core radius for aug-charge                                                  
                                                                                                    
   Atomic configuration                                                                             
    4 entries                                                                                       
     n  l   j            E        occ.                                                              
     1  0  0.50      -384.7179   2.0000                                                             
     2  0  0.50       -18.5828   2.0000                                                             
     2  1  0.50        -7.0898   3.0000                                                             
     3  2  1.50        -6.8029   0.0000                                                             
   Description                                                                                      
     l       E           TYP  RCUT    TYP  RCUT                                                     
     0    -18.5828119     23  1.200                                                                 
     0    -13.5018863     23  1.200                                                                 
     1     -7.0897853     23  1.500                                                                 
     1      9.5240782     23  1.500                                                                 
     2     -6.8029130      7  1.500                                                                 
  local pseudopotential read in
  partial core-charges read in
  partial kinetic energy density read in
  atomic valenz-charges read in
  non local Contribution for L=           0  read in
    real space projection operators read in
  non local Contribution for L=           0  read in
    real space projection operators read in
  non local Contribution for L=           1  read in
    real space projection operators read in
  non local Contribution for L=           1  read in
    real space projection operators read in
    PAW grid and wavefunctions read in
 
   number of l-projection  operators is LMAX  =           4
   number of lm-projection operators is LMMAX =           8
 
 POTCAR:    PAW_PBE H 15Jun2001                   
   SHA256 =  030f79b5d3ab3cf0e668861823c8fb652ff669f3e15e46930bd03bfd63a607b6 H/POTCAR              
   COPYR  = (c) Copyright 15Jun2001 Georg Kresse                                                    
   COPYR  = This file is part of the software VASP. Any use, copying, and all other rights are regul
   COPYR  = If you do not have a valid VASP license, you may not use, copy or distribute this file. 
   VRHFIN =H: ultrasoft test                                                                        
   LEXCH  = PE                                                                                      
   EATOM  =    12.4884 eV,    0.9179 Ry                                                             
                                                                                                    
   TITEL  = PAW_PBE H 15Jun2001                                                                     
   LULTRA =        F    use ultrasoft PP ?                                                          
   IUNSCR =        0    unscreen: 0-lin 1-nonlin 2-no                                               
   RPACOR =    0.000    partial core radius                                                         
   POMASS =    1.000; ZVAL   =    1.000    mass and valenz                                          
   RCORE  =    1.100    outmost cutoff radius                                                       
   RWIGS  =    0.700; RWIGS  =    0.370    wigner-seitz radius (au A)                               
   ENMAX  =  250.000; ENMIN  =  200.000 eV                                                          
   RCLOC  =    0.701    cutoff for local pot                                                        
   LCOR   =        T    correct aug charges                                                         
   LPAW   =        T    paw PP                                                                      
   EAUG   =  400.000                                                                                
   RMAX   =    1.123    core radius for proj-oper                                                   
   RAUG   =    1.200    factor for augmentation sphere                                              
   RDEP   =    1.112    radius for radial grids                                                     
   RDEPT  =    0.926    core radius for aug-charge                                                  
                                                                                                    
   Atomic configuration                                                                             
    2 entries                                                                                       
     n  l   j            E        occ.                                                              
     1  0  0.50        -6.4927   1.0000                                                             
     2  1  0.50        -3.4015   0.0000                                                             
   Description                                                                                      
     l       E           TYP  RCUT    TYP  RCUT                                                     
     0     -6.4927494     23  1.100                                                                 
     0      6.8029130     23  1.100                                                                 
     1     -4.0817478     23  1.100                                                                 
  local pseudopotential read in
  atomic valenz-charges read in
  non local Contribution for L=           0  read in
    real space projection operators read in
  non local Contribution for L=           0  read in
    real space projection operators read in
  non local Contribution for L=           1  read in
    real space projection operators read in
    PAW grid and wavefunctions read in
 
   number of l-projection  operators is LMAX  =           3
   number of lm-projection operators is LMMAX =           5
 
 POTCAR:    PAW_PBE O 08Apr2002                   
   SHA256 =  818f92134a0a090dccd8ba1447fa70422a3b330e708bb4f08108d8ae51209ddf O/POTCAR              
   COPYR  = (c) Copyright 08Apr2002 Georg Kresse                                                    
   COPYR  = This file is part of the software VASP. Any use, copying, and all other rights are regul
   COPYR  = If you do not have a valid VASP license, you may not use, copy or distribute this file. 
   VRHFIN =O: s2p4                                                                                  
   LEXCH  = PE                                                                                      
   EATOM  =   432.3788 eV,   31.7789 Ry                                                             
                                                                                                    
   TITEL  = PAW_PBE O 08Apr2002                                                                     
   LULTRA =        F    use ultrasoft PP ?                                                          
   IUNSCR =        1    unscreen: 0-lin 1-nonlin 2-no                                               
   RPACOR =    1.200    partial core radius                                                         
   POMASS =   16.000; ZVAL   =    6.000    mass and valenz                                          
   RCORE  =    1.520    outmost cutoff radius                                                       
   RWIGS  =    1.550; RWIGS  =    0.820    wigner-seitz radius (au A)                               
   ENMAX  =  400.000; ENMIN  =  300.000 eV                                                          
   ICORE  =        2    local potential                                                             
   LCOR   =        T    correct aug charges                                                         
   LPAW   =        T    paw PP                                                                      
   EAUG   =  605.392                                                                                
   DEXC   =    0.000                                                                                
   RMAX   =    1.553    core radius for proj-oper                                                   
   RAUG   =    1.300    factor for augmentation sphere                                              
   RDEP   =    1.550    radius for radial grids                                                     
   RDEPT  =    1.329    core radius for aug-charge                                                  
                                                                                                    
   Atomic configuration                                                                             
    4 entries                                                                                       
     n  l   j            E        occ.                                                              
     1  0  0.50      -514.6923   2.0000                                                             
     2  0  0.50       -23.9615   2.0000                                                             
     2  1  0.50        -9.0305   4.0000                                                             
     3  2  1.50        -9.5241   0.0000                                                             
   Description                                                                                      
     l       E           TYP  RCUT    TYP  RCUT                                                     
     0    -23.9615318     23  1.200                                                                 
     0     -9.5240782     23  1.200                                                                 
     1     -9.0304911     23  1.520                                                                 
     1      8.1634956     23  1.520                                                                 
     2     -9.5240782      7  1.500                                                                 
  local pseudopotential read in
  partial core-charges read in
  partial kinetic energy density read in
  kinetic energy density of atom read in
  atomic valenz-charges read in
  non local Contribution for L=           0  read in
    real space projection operators read in
  non local Contribution for L=           0  read in
    real space projection operators read in
  non local Contribution for L=           1  read in
    real space projection operators read in
  non local Contribution for L=           1  read in
    real space projection operators read in
    PAW grid and wavefunctions read in
 
   number of l-projection  operators is LMAX  =           4
   number of lm-projection operators is LMMAX =           8
 
 Optimization of the real space projectors (new method)

 maximal supplied QI-value         = 25.13
 optimisation between [QCUT,QGAM] = [ 11.56, 23.12] = [ 37.43,149.72] Ry 
 Optimized for a Real-space Cutoff    1.04 Angstroem

   l    n(q)    QCUT    max X(q) W(low)/X(q) W(high)/X(q)  e(spline) 
   0      7    11.561   115.676    0.20E-03    0.60E-03    0.21E-06
   0      7    11.561    87.132    0.20E-03    0.59E-03    0.21E-06
   1      7    11.561     4.429    0.23E-03    0.35E-03    0.15E-06
   1      7    11.561     2.733    0.18E-03    0.25E-03    0.12E-06
 Optimization of the real space projectors (new method)

 maximal supplied QI-value         = 25.13
 optimisation between [QCUT,QGAM] = [ 11.56, 23.12] = [ 37.43,149.72] Ry 
 Optimized for a Real-space Cutoff    1.25 Angstroem

   l    n(q)    QCUT    max X(q) W(low)/X(q) W(high)/X(q)  e(spline) 
   0      9    11.561    79.467    0.52E-04    0.16E-03    0.37E-06
   0      9    11.561    66.151    0.51E-04    0.16E-03    0.37E-06
   1      8    11.561    18.886    0.46E-03    0.28E-03    0.80E-06
   1      8    11.561    13.488    0.47E-03    0.29E-03    0.82E-06
 Optimization of the real space projectors (new method)

 maximal supplied QI-value         = 34.20
 optimisation between [QCUT,QGAM] = [ 11.63, 23.26] = [ 37.87,151.49] Ry 
 Optimized for a Real-space Cutoff    1.14 Angstroem

   l    n(q)    QCUT    max X(q) W(low)/X(q) W(high)/X(q)  e(spline) 
   0      8    11.629    19.460    0.27E-03    0.65E-03    0.17E-06
   0      8    11.629    12.209    0.25E-03    0.62E-03    0.16E-06
   1      7    11.629     4.655    0.29E-03    0.85E-04    0.19E-06
 Optimization of the real space projectors (new method)

 maximal supplied QI-value         = 24.76
 optimisation between [QCUT,QGAM] = [ 11.64, 23.27] = [ 37.91,151.63] Ry 
 Optimized for a Real-space Cutoff    1.04 Angstroem

   l    n(q)    QCUT    max X(q) W(low)/X(q) W(high)/X(q)  e(spline) 
   0      7    11.635    20.381    0.14E-03    0.49E-03    0.18E-06
   0      7    11.635    15.268    0.16E-03    0.52E-03    0.19E-06
   1      7    11.635     5.964    0.30E-03    0.44E-03    0.22E-06
   1      7    11.635     5.382    0.27E-03    0.34E-03    0.19E-06
  PAW_PBE C 08Apr2002                   :
 energy of atom  1       EATOM= -147.1560
 kinetic energy error for atom=    0.0071 (will be added to EATOM!!)
  PAW_PBE N 08Apr2002                   :
 energy of atom  2       EATOM= -264.5486
 kinetic energy error for atom=    0.0125 (will be added to EATOM!!)
  PAW_PBE H 15Jun2001                   :
 energy of atom  3       EATOM=  -12.4884
 kinetic energy error for atom=    0.0014 (will be added to EATOM!!)
  PAW_PBE O 08Apr2002                   :
 energy of atom  4       EATOM= -432.3788
 kinetic energy error for atom=    0.0208 (will be added to EATOM!!)
 
 
 POSCAR: C    N    H    O
  positions in direct lattice
  velocities in cartesian coordinates
 exchange correlation table for  LEXCH =        8
   RHO(1)=    0.500       N(1)  =     2000
   RHO(2)=  100.500       N(2)  =     4000

 VTST: version 4.1, (05/19/21)

 CHAIN: initializing optimizer
 
 OPT: Using LBFGS optimizer
 OPT: LBFGS, Init
 OPT: LBFGS, MEMORY             20
 OPT: LBFGS, IMAGES              5
 OPT: LBFGS, MAXMOVE      0.200000
 OPT: LBFGS, LGLOBAL      T
 OPT: LBFGS, INVCURV      0.010000
 OPT: LBFGS, LLINEOPT      F
 OPT: LBFGS, FDSTEP       0.005000
 OPT: LBFGS, LAUTOSCALE      T
 OPT: LBFGS, DAMPING      2.000000
 
 CHAIN: Read ICHAIN            0
 CHAIN: Running the NEB
 NEB:          SPRING     -5.000000
 NEB:          LCLIMB      T
 NEB:     LTANGENTOLD      F
 NEB:           LDNEB      F
 NEB:        LDNEBORG      F
 NEB:        LNEBCELL      F
 NEB:          EFIRST      0.000000
 NEB:           ELAST      0.000000
 
 POSCAR: C    N    H    O
  positions in direct lattice
  No initial velocities read in
 
 POSCAR: C    N    H    O
  positions in direct lattice
  No initial velocities read in
 
 POSCAR: C    N    H    O
  positions in direct lattice
  No initial velocities read in
 
 POSCAR: C    N    H    O
  positions in direct lattice
  No initial velocities read in
 


--------------------------------------------------------------------------------------------------------


 ion  position               nearest neighbor table
   1  0.001  0.000  0.498-  47 1.43  41 1.43  80 1.43
   2  1.000  0.142  0.499-  42 1.42  41 1.43  74 1.43
   3  1.000  0.285  0.499-  43 1.43  42 1.43  75 1.43
   4  1.000  0.429  0.499-  43 1.42  44 1.43  76 1.43
   5  0.001  0.572  0.499-  45 1.43  44 1.43  77 1.43
   6  0.002  0.715  0.499-  45 1.42  46 1.43  78 1.43
   7  0.002  0.858  0.499-  47 1.42  46 1.43  79 1.43
   8  0.145  0.002  0.499-  48 1.43  47 1.43  54 1.43
   9  0.144  0.144  0.499-  48 1.43  49 1.43  41 1.43
  10  0.143  0.286  0.499-  50 1.42  49 1.42  42 1.43
  11  0.143  0.428  0.499-  50 1.42  51 1.42  43 1.43
  12  0.144  0.571  0.499-  52 1.43  51 1.43  44 1.43
  13  0.145  0.714  0.499-  52 1.43  45 1.43  53 1.43
  14  0.145  0.858  0.499-  46 1.43  54 1.43  53 1.43
  15  0.287  0.001  0.498-  54 1.42  59 1.43  55 1.44
  16  0.288  0.146  0.498-  55 1.43  48 1.43  56 1.45
  17  0.289  0.293  0.496-  85 1.34  49 1.45  56 1.51
  18  0.285  0.428  0.496-  85 1.37  86 1.38  50 1.43
  19  0.289  0.567  0.497-  86 1.34  51 1.45  57 1.51
  20  0.288  0.713  0.498-  58 1.43  52 1.43  57 1.45
  21  0.287  0.857  0.499-  53 1.42  59 1.43  58 1.44
  22  0.430  0.001  0.497-  59 1.43  63 1.43  60 1.43
  23  0.430  0.146  0.497-  55 1.42  60 1.44  61 1.44
  24  0.430  0.856  0.497-  58 1.42  63 1.44  62 1.44
  25  0.572  0.999  0.496-  63 1.42  64 1.43  66 1.44
  26  0.572  0.144  0.496-  60 1.42  64 1.43  65 1.44
  27  0.574  0.292  0.495-  87 1.35  65 1.44  61 1.48
  28  0.574  0.854  0.495-  88 1.35  66 1.44  62 1.49
  29  0.714  0.998  0.496-  66 1.42  73 1.43  67 1.44
  30  0.714  0.143  0.496-  64 1.43  67 1.43  68 1.43
  31  0.714  0.287  0.496-  65 1.42  69 1.43  68 1.44
  32  0.710  0.428  0.495-  87 1.34  69 1.45  70 1.51
  33  0.710  0.853  0.494-  88 1.34  73 1.45  72 1.51
  34  0.857  0.999  0.497-  74 1.43  80 1.43  73 1.43
  35  0.857  0.142  0.497-  67 1.42  75 1.43  74 1.43
  36  0.857  0.286  0.498-  68 1.42  75 1.43  76 1.43
  37  0.857  0.429  0.497-  76 1.43  77 1.43  69 1.43
  38  0.857  0.573  0.497-  78 1.42  77 1.43  70 1.46
  39  0.859  0.715  0.496-  78 1.42  79 1.42  71 1.44
  40  0.857  0.856  0.496-  79 1.42  80 1.43  72 1.45
  41  0.048  0.096  0.499-   2 1.43   1 1.43   9 1.43
  42  0.047  0.238  0.499-   2 1.42   3 1.43  10 1.43
  43  0.047  0.381  0.499-   4 1.42   3 1.43  11 1.43
  44  0.049  0.524  0.499-   4 1.43   5 1.43  12 1.43
  45  0.049  0.667  0.499-   6 1.42   5 1.43  13 1.43
  46  0.049  0.810  0.499-   7 1.43   6 1.43  14 1.43
  47  0.049  0.953  0.499-   7 1.42   1 1.43   8 1.43
  48  0.192  0.097  0.499-   9 1.43   8 1.43  16 1.43
  49  0.192  0.240  0.498-  10 1.42   9 1.43  17 1.45
  50  0.190  0.380  0.498-  11 1.42  10 1.42  18 1.43
  51  0.192  0.523  0.498-  11 1.42  12 1.43  19 1.45
  52  0.192  0.667  0.499-  12 1.43  13 1.43  20 1.43
  53  0.192  0.810  0.499-  21 1.42  14 1.43  13 1.43
  54  0.192  0.954  0.499-  15 1.42  14 1.43   8 1.43
  55  0.335  0.098  0.498-  23 1.42  16 1.43  15 1.44
  56  0.339  0.243  0.496-  81 1.34  16 1.45  17 1.51
  57  0.339  0.668  0.497-  82 1.34  20 1.45  19 1.51
  58  0.335  0.809  0.498-  24 1.42  20 1.43  21 1.44
  59  0.335  0.953  0.498-  22 1.43  15 1.43  21 1.43
  60  0.477  0.097  0.497-  26 1.42  22 1.43  23 1.44
  61  0.475  0.242  0.496-  81 1.35  23 1.44  27 1.48
  62  0.475  0.804  0.496-  82 1.35  24 1.44  28 1.49
  63  0.477  0.952  0.497-  25 1.42  22 1.43  24 1.44
  64  0.619  0.095  0.496-  30 1.43  25 1.43  26 1.43
  65  0.619  0.240  0.496-  31 1.42  26 1.44  27 1.44
  66  0.619  0.950  0.496-  29 1.42  25 1.44  28 1.44
  67  0.762  0.095  0.497-  35 1.42  30 1.43  29 1.44
  68  0.762  0.238  0.497-  36 1.42  30 1.43  31 1.44
  69  0.761  0.383  0.496-  31 1.43  37 1.43  32 1.45
  70  0.760  0.529  0.494-  83 1.34  38 1.46  32 1.51
  71  0.763  0.667  0.493-  84 1.37  83 1.38  39 1.44
  72  0.760  0.802  0.494-  84 1.34  40 1.45  33 1.51
  73  0.761  0.950  0.496-  29 1.43  34 1.43  33 1.45
  74  0.904  0.094  0.498-  34 1.43   2 1.43  35 1.43
  75  0.904  0.238  0.498-   3 1.43  35 1.43  36 1.43
  76  0.904  0.381  0.498-  37 1.43  36 1.43   4 1.43
  77  0.905  0.525  0.498-  37 1.43  38 1.43   5 1.43
  78  0.906  0.667  0.497-  39 1.42  38 1.42   6 1.43
  79  0.906  0.810  0.497-  39 1.42  40 1.42   7 1.43
  80  0.905  0.951  0.497-  34 1.43  40 1.43   1 1.43
  81  0.429  0.287  0.496-  56 1.34  61 1.35
  82  0.429  0.714  0.496-  57 1.34  62 1.35
  83  0.717  0.575  0.491-  70 1.34  71 1.38
  84  0.717  0.713  0.491-  72 1.34  71 1.37
  85  0.332  0.383  0.494-  17 1.34  18 1.37
  86  0.332  0.520  0.496-  19 1.34  18 1.38
  87  0.620  0.382  0.494-  32 1.34  27 1.35
  88  0.620  0.809  0.494-  33 1.34  28 1.35
  89  0.481  0.545  0.537-  91 0.97
  90  0.519  0.482  0.534-  91 0.97
  91  0.520  0.529  0.570-  90 0.97  89 0.97
 

IMPORTANT INFORMATION: All symmetrisations will be switched off!
NOSYMM: (Re-)initialisation of all symmetry stuff for point group C_1.


----------------------------------------------------------------------------------------

                                     Primitive cell                                     

  volume of cell :    3874.8846

  direct lattice vectors                    reciprocal lattice vectors
    17.271038055  0.000000000  0.000000000     0.057900399  0.033428811  0.000000000
    -8.635519028 14.957157706  0.000000000     0.000000000  0.066857622  0.000000000
     0.000000000  0.000000000 15.000000000     0.000000000  0.000000000  0.066666667

  length of vectors
    17.271038055 17.271038055 15.000000000     0.066857622  0.066857622  0.066666667

  position of ions in fractional coordinates (direct lattice)
     0.000555868  0.000089614  0.498308021
     0.999772042  0.142410892  0.498557174
     0.999541541  0.285456343  0.498729026
     0.999801470  0.428700108  0.498597081
     0.000625543  0.571802454  0.498576495
     0.002015645  0.715100319  0.498637690
     0.002019765  0.858258481  0.498544297
     0.144917065  0.001869655  0.498985034
     0.144271657  0.144459487  0.498784845
     0.142674491  0.285639661  0.498698268
     0.142704857  0.428388348  0.498668128
     0.144418018  0.571158094  0.498753735
     0.144922749  0.714379262  0.499226413
     0.144910039  0.858128260  0.499298017
     0.287485872  0.001404151  0.498366710
     0.288139264  0.146208407  0.497671753
     0.289052434  0.293473304  0.496411370
     0.285418089  0.428257825  0.496356002
     0.289345063  0.566955745  0.497276991
     0.288134481  0.713316774  0.498181658
     0.287477052  0.857480757  0.498569538
     0.430044823  0.000737731  0.497054506
     0.430105194  0.145573765  0.496693678
     0.430092207  0.855961643  0.496833658
     0.571919520  0.999457126  0.495965374
     0.571935140  0.143905826  0.496105456
     0.574175823  0.291584477  0.495260139
     0.574226964  0.854053847  0.495072901
     0.714023065  0.998347388  0.495881024
     0.714341446  0.142864471  0.496457207
     0.714006543  0.287079074  0.496186801
     0.709641411  0.428061003  0.494563464
     0.709617156  0.852975277  0.494282295
     0.856602743  0.998603965  0.496818625
     0.856647870  0.142212682  0.497450029
     0.856647794  0.285807912  0.497598965
     0.856611102  0.429350217  0.497088392
     0.857030372  0.572515741  0.496606911
     0.859316466  0.715302232  0.496263092
     0.856995706  0.855801302  0.496225417
     0.048464584  0.095709722  0.498703908
     0.046992955  0.237570218  0.498896915
     0.047002532  0.380771661  0.498872667
     0.048567856  0.524102462  0.498769225
     0.049252055  0.667205545  0.498998733
     0.049495300  0.810418794  0.499043023
     0.049258399  0.953387569  0.498793158
     0.192469636  0.097265646  0.498598983
     0.192062200  0.240002784  0.498382388
     0.189581941  0.380462415  0.498261420
     0.192257684  0.523398672  0.498318373
     0.192476408  0.666540433  0.498839146
     0.192404853  0.810079881  0.499210894
     0.192402937  0.953669789  0.498993748
     0.335051903  0.097638251  0.497602729
     0.339394215  0.242946833  0.496356365
     0.339448412  0.667874200  0.497263059
     0.335036096  0.808816377  0.497958574
     0.334705558  0.953075762  0.498052536
     0.477126682  0.096514733  0.496596921
     0.474913328  0.241978945  0.495817306
     0.474921993  0.804371551  0.495995432
     0.477104140  0.952040518  0.496544527
     0.619013973  0.095200026  0.496143392
     0.618974993  0.239983092  0.495834239
     0.618973564  0.950436256  0.495587276
     0.761580157  0.094543743  0.496557981
     0.761570292  0.238425111  0.496757101
     0.760897153  0.382559930  0.495970799
     0.759962898  0.529060305  0.494025096
     0.763415038  0.667390279  0.492961213
     0.759937840  0.802189271  0.493810324
     0.760904837  0.949729977  0.495605090
     0.904118863  0.093989999  0.497687047
     0.904123503  0.237743727  0.498032261
     0.904129173  0.381480317  0.497878538
     0.904802162  0.524748243  0.497578530
     0.906323461  0.667483867  0.497277643
     0.906317350  0.810142605  0.497127303
     0.904750920  0.951352925  0.497237272
     0.429275231  0.286851171  0.495521153
     0.429261850  0.713901192  0.496197772
     0.716790952  0.575454647  0.491062329
     0.716794185  0.712624993  0.491213267
     0.332113130  0.383146724  0.494378055
     0.332459907  0.520232825  0.496093825
     0.619797595  0.382078504  0.494427498
     0.619830613  0.809226722  0.494051596
     0.481232947  0.545119124  0.536920709
     0.519479554  0.481624146  0.533983021
     0.519655911  0.528760449  0.569775939

  ion indices of the primitive-cell ions
   primitive index   ion index
                 1           1
                 2           2
                 3           3
                 4           4
                 5           5
                 6           6
                 7           7
                 8           8
                 9           9
                10          10
                11          11
                12          12
                13          13
                14          14
                15          15
                16          16
                17          17
                18          18
                19          19
                20          20
                21          21
                22          22
                23          23
                24          24
                25          25
                26          26
                27          27
                28          28
                29          29
                30          30
                31          31
                32          32
                33          33
                34          34
                35          35
                36          36
                37          37
                38          38
                39          39
                40          40
                41          41
                42          42
                43          43
                44          44
                45          45
                46          46
                47          47
                48          48
                49          49
                50          50
                51          51
                52          52
                53          53
                54          54
                55          55
                56          56
                57          57
                58          58
                59          59
                60          60
                61          61
                62          62
                63          63
                64          64
                65          65
                66          66
                67          67
                68          68
                69          69
                70          70
                71          71
                72          72
                73          73
                74          74
                75          75
                76          76
                77          77
                78          78
                79          79
                80          80
                81          81
                82          82
                83          83
                84          84
                85          85
                86          86
                87          87
                88          88
                89          89
                90          90
                91          91

----------------------------------------------------------------------------------------

 
 
 KPOINTS: Automatic mesh                          

Automatic generation of k-mesh.
 Grid dimensions read from file:
 generate k-points for:    2    2    1

 Generating k-lattice:

  Cartesian coordinates                     Fractional coordinates (reciprocal lattice)
     0.028950200  0.016714406  0.000000000     0.500000000  0.000000000  0.000000000
     0.000000000  0.033428811  0.000000000     0.000000000  0.500000000  0.000000000
     0.000000000  0.000000000  0.066666667     0.000000000  0.000000000  1.000000000

  Length of vectors
     0.033428811  0.033428811  0.066666667

  Shift w.r.t. Gamma in fractional coordinates (k-lattice)
     0.000000000  0.000000000  0.000000000

 
 Subroutine IBZKPT returns following result:
 ===========================================
 
 Found      4 irreducible k-points:
 
 Following reciprocal coordinates:
            Coordinates               Weight
  0.000000  0.000000  0.000000      1.000000
  0.500000  0.000000  0.000000      1.000000
  0.000000  0.500000  0.000000      1.000000
  0.500000  0.500000  0.000000      1.000000
 
 Following cartesian coordinates:
            Coordinates               Weight
  0.000000  0.000000  0.000000      1.000000
  0.028950  0.016714  0.000000      1.000000
  0.000000  0.033429  0.000000      1.000000
  0.028950  0.050143  0.000000      1.000000
 


--------------------------------------------------------------------------------------------------------




 Dimension of arrays:
   k-points           NKPTS =      4   k-points in BZ     NKDIM =      4   number of bands    NBANDS=    240
   number of dos      NEDOS =    301   number of ions     NIONS =     91
   non local maximal  LDIM  =      4   non local SUM 2l+1 LMDIM =      8
   total plane-waves  NPLWV = 774144
   max r-space proj   IRMAX =   1673   max aug-charges    IRDMAX=  20933
   dimension x,y,z NGX =    96 NGY =   96 NGZ =   84
   dimension x,y,z NGXF=   192 NGYF=  192 NGZF=  168
   support grid    NGXF=   384 NGYF=  384 NGZF=  336
   ions per type =              80   8   2   1
   NGX,Y,Z   is equivalent  to a cutoff of   9.24,  9.24,  9.31 a.u.
   NGXF,Y,Z  is equivalent  to a cutoff of  18.48, 18.48, 18.62 a.u.

 SYSTEM =  unknown system                          
 POSCAR =  C    N    H    O                        

 Startparameter for this run:
   NWRITE =      2    write-flag & timer
   PREC   = normal    normal or accurate (medium, high low for compatibility)
   ISTART =      0    job   : 0-new  1-cont  2-samecut
   ICHARG =      2    charge: 1-file 2-atom 10-const
   ISPIN  =      2    spin polarized calculation?
   LNONCOLLINEAR =      F non collinear calculations
   LSORBIT =      F    spin-orbit coupling
   INIWAV =      1    electr: 0-lowe 1-rand  2-diag
   LASPH  =      T    aspherical Exc in radial PAW
 Electronic Relaxation 1
   ENCUT  =  520.0 eV  38.22 Ry    6.18 a.u.  32.11 32.11 27.89*2*pi/ulx,y,z
   ENINI  =  520.0     initial cutoff
   ENAUG  =  644.9 eV  augmentation charge cutoff
   NELM   =    200;   NELMIN=  2; NELMDL= -5     # of ELM steps 
   EDIFF  = 0.1E-05   stopping-criterion for ELM
   LREAL  =      T    real-space projection
   NLSPLINE    = F    spline interpolate recip. space projectors
   LCOMPAT=      F    compatible to vasp.4.4
   GGA_COMPAT  = T    GGA compatible to vasp.4.4-vasp.4.6
   LMAXPAW     = -100 max onsite density
   LMAXMIX     =    2 max onsite mixed and CHGCAR
   VOSKOWN=      0    Vosko Wilk Nusair interpolation
   ROPT   =   -0.00050  -0.00050  -0.00050  -0.00050
 Ionic relaxation
   EDIFFG = -.3E-01   stopping-criterion for IOM
   NSW    =    300    number of steps for IOM
   NBLOCK =      1;   KBLOCK =    300    inner block; outer block 
   IBRION =      3    ionic relax: 0-MD 1-quasi-New 2-CG
   NFREE  =      0    steps in history (QN), initial steepest desc. (CG)
   ISIF   =      2    stress and relaxation
   IWAVPR =     11    prediction:  0-non 1-charg 2-wave 3-comb
   ISYM   =      0    0-nonsym 1-usesym 2-fastsym
   LCORR  =      T    Harris-Foulkes like correction to forces

   POTIM  = 0.0000    time-step for ionic-motion
   TEIN   =    0.0    initial temperature
   TEBEG  =    0.0;   TEEND  =   0.0 temperature during run
   SMASS  =  -3.00    Nose mass-parameter (am)
   estimated Nose-frequenzy (Omega)   =  0.10E-29 period in steps = 0.00E+00 mass=  -0.682E-26a.u.
   SCALEE = 1.0000    scale energy and forces
   NPACO  =    256;   APACO  = 10.0  distance and # of slots for P.C.
   PSTRESS=    0.0 pullay stress

  Mass of Ions in am
   POMASS =  12.01 14.00  1.00 16.00
  Ionic Valenz
   ZVAL   =   4.00  5.00  1.00  6.00
  Atomic Wigner-Seitz radii
   RWIGS  =  -1.00 -1.00 -1.00 -1.00
  virtual crystal weights 
   VCA    =   1.00  1.00  1.00  1.00
   NELECT =     368.0000    total number of electrons
   NUPDOWN=      -1.0000    fix difference up-down

 DOS related values:
   EMIN   =  10.00;   EMAX   =-10.00  energy-range for DOS
   EFERMI =   0.00;   METHOD = LEGACY      
   ISMEAR =     0;   SIGMA  =   0.05  broadening in eV -4-tet -1-fermi 0-gaus

 Electronic relaxation 2 (details)
   IALGO  =     38    algorithm
   LDIAG  =      T    sub-space diagonalisation (order eigenvalues)
   LSUBROT=      F    optimize rotation matrix (better conditioning)
   TURBO    =      0    0=normal 1=particle mesh
   IRESTART =      0    0=no restart 2=restart with 2 vectors
   NREBOOT  =      0    no. of reboots
   NMIN     =      0    reboot dimension
   EREF     =   0.00    reference energy to select bands
   IMIX   =      4    mixing-type and parameters
     AMIX     =   0.20;   BMIX     =  0.00
     AMIX_MAG =   0.80;   BMIX_MAG =  0.00
     AMIN     =   0.10
     WC   =   100.;   INIMIX=   1;  MIXPRE=   1;  MAXMIX= -45

 Intra band minimization:
   WEIMIN = 0.0010     energy-eigenvalue tresh-hold
   EBREAK =  0.10E-08  absolut break condition
   DEPER  =   0.30     relativ break condition  

   TIME   =   0.40     timestep for ELM

  volume/ion in A,a.u.               =      42.58       287.35
  Fermi-wavevector in a.u.,A,eV,Ry     =   0.746915  1.411465  7.590446  0.557882
  Thomas-Fermi vector in A             =   1.842848
 
 Write flags
   LWAVE        =      F    write WAVECAR
   LDOWNSAMPLE  =      F    k-point downsampling of WAVECAR
   LCHARG       =      F    write CHGCAR
   LVTOT        =      F    write LOCPOT, total local potential
   LVHAR        =      F    write LOCPOT, Hartree potential only
   LELF         =      F    write electronic localiz. function (ELF)
   LORBIT       =      0    0 simple, 1 ext, 2 COOP (PROOUT), +10 PAW based schemes


 Dipole corrections
   LMONO  =      F    monopole corrections only (constant potential shift)
   LDIPOL =      F    correct potential (dipole corrections)
   IDIPOL =      0    1-x, 2-y, 3-z, 4-all directions 
   EPSILON=  1.0000000 bulk dielectric constant

 Exchange correlation treatment:
   GGA     =    --    GGA type
   LEXCH   =     8    internal setting for exchange type
   LIBXC   =     F    Libxc                    
   VOSKOWN =     0    Vosko Wilk Nusair interpolation
   LHFCALC =     F    Hartree Fock is set to
   LHFONE  =     F    Hartree Fock one center treatment
   AEXX    =    0.0000 exact exchange contribution

 Linear response parameters
   LEPSILON=     F    determine dielectric tensor
   LRPA    =     F    only Hartree local field effects (RPA)
   LNABLA  =     F    use nabla operator in PAW spheres
   LVEL    =     F    velocity operator in full k-point grid
   CSHIFT  =0.1000    complex shift for real part using Kramers Kronig
   OMEGAMAX=  -1.0    maximum frequency
   DEG_THRESHOLD= 0.2000000E-02 threshold for treating states as degnerate
   RTIME   =   -0.100 relaxation time in fs
  (WPLASMAI=    0.000 imaginary part of plasma frequency in eV, 0.658/RTIME)
   DFIELD  = 0.0000000 0.0000000 0.0000000 field for delta impulse in time
 
  Optional k-point grid parameters
   LKPOINTS_OPT  =     F    use optional k-point grid
   KPOINTS_OPT_MODE=     1    mode for optional k-point grid
 
 Orbital magnetization related:
   ORBITALMAG=     F  switch on orbital magnetization
   LCHIMAG   =     F  perturbation theory with respect to B field
   DQ        =  0.001000  dq finite difference perturbation B field
   LLRAUG    =     F  two centre corrections for induced B field
   LBONE     =     F  B-component reconstruction in AE one-centre
   LVGVCALC  =     T  calculate vGv susceptibility
   LVGVAPPL  =     F  apply vGv susceptibility instead of pGv for G=0

 Random number generation:
   RANDOM_GENERATOR = DEFAULT
   PCG_SEED         = not used


--------------------------------------------------------------------------------------------------------


 quickmin algorithm: (dynamic with friction)
   using selective dynamics as specified on POSCAR
 charge density and potential will be updated during run
 spin polarized calculation
 Variant of blocked Davidson
 Davidson routine will perform the subspace rotation
 perform sub-space diagonalisation
    after iterative eigenvector-optimisation
 modified Broyden-mixing scheme, WC =      100.0
 initial mixing is a Kerker type mixing with AMIX =  0.2000 and BMIX =      0.0001
 Hartree-type preconditioning will be used
 using additional bands           56
 real space projection scheme for non local part
 use partial core corrections
 calculate Harris-corrections to forces 
   (improved forces if not selfconsistent)
 use gradient corrections 
 use of overlap-Matrix (Vanderbilt PP)
 Gauss-broadening in eV      SIGMA  =   0.05


--------------------------------------------------------------------------------------------------------


  energy-cutoff  :      520.00
  volume of cell :     3874.88
      direct lattice vectors                 reciprocal lattice vectors
    17.271038055  0.000000000  0.000000000     0.057900399  0.033428811  0.000000000
    -8.635519028 14.957157706  0.000000000     0.000000000  0.066857622  0.000000000
     0.000000000  0.000000000 15.000000000     0.000000000  0.000000000  0.066666667

  length of vectors
    17.271038055 17.271038055 15.000000000     0.066857622  0.066857622  0.066666667


 
 k-points in units of 2pi/SCALE and weight: Automatic mesh                          
   0.00000000  0.00000000  0.00000000       0.250
   0.02895020  0.01671441  0.00000000       0.250
   0.00000000  0.03342881  0.00000000       0.250
   0.02895020  0.05014322  0.00000000       0.250
 
 k-points in reciprocal lattice and weights: Automatic mesh                          
   0.00000000  0.00000000  0.00000000       0.250
   0.50000000  0.00000000  0.00000000       0.250
   0.00000000  0.50000000  0.00000000       0.250
   0.50000000  0.50000000  0.00000000       0.250
 
 position of ions in fractional coordinates (direct lattice) 
   0.00055587  0.00008961  0.49830802
   0.99977204  0.14241089  0.49855717
   0.99954154  0.28545634  0.49872903
   0.99980147  0.42870011  0.49859708
   0.00062554  0.57180245  0.49857649
   0.00201564  0.71510032  0.49863769
   0.00201976  0.85825848  0.49854430
   0.14491707  0.00186965  0.49898503
   0.14427166  0.14445949  0.49878484
   0.14267449  0.28563966  0.49869827
   0.14270486  0.42838835  0.49866813
   0.14441802  0.57115809  0.49875374
   0.14492275  0.71437926  0.49922641
   0.14491004  0.85812826  0.49929802
   0.28748587  0.00140415  0.49836671
   0.28813926  0.14620841  0.49767175
   0.28905243  0.29347330  0.49641137
   0.28541809  0.42825783  0.49635600
   0.28934506  0.56695575  0.49727699
   0.28813448  0.71331677  0.49818166
   0.28747705  0.85748076  0.49856954
   0.43004482  0.00073773  0.49705451
   0.43010519  0.14557377  0.49669368
   0.43009221  0.85596164  0.49683366
   0.57191952  0.99945713  0.49596537
   0.57193514  0.14390583  0.49610546
   0.57417582  0.29158448  0.49526014
   0.57422696  0.85405385  0.49507290
   0.71402307  0.99834739  0.49588102
   0.71434145  0.14286447  0.49645721
   0.71400654  0.28707907  0.49618680
   0.70964141  0.42806100  0.49456346
   0.70961716  0.85297528  0.49428229
   0.85660274  0.99860396  0.49681863
   0.85664787  0.14221268  0.49745003
   0.85664779  0.28580791  0.49759897
   0.85661110  0.42935022  0.49708839
   0.85703037  0.57251574  0.49660691
   0.85931647  0.71530223  0.49626309
   0.85699571  0.85580130  0.49622542
   0.04846458  0.09570972  0.49870391
   0.04699295  0.23757022  0.49889691
   0.04700253  0.38077166  0.49887267
   0.04856786  0.52410246  0.49876922
   0.04925206  0.66720555  0.49899873
   0.04949530  0.81041879  0.49904302
   0.04925840  0.95338757  0.49879316
   0.19246964  0.09726565  0.49859898
   0.19206220  0.24000278  0.49838239
   0.18958194  0.38046242  0.49826142
   0.19225768  0.52339867  0.49831837
   0.19247641  0.66654043  0.49883915
   0.19240485  0.81007988  0.49921089
   0.19240294  0.95366979  0.49899375
   0.33505190  0.09763825  0.49760273
   0.33939422  0.24294683  0.49635636
   0.33944841  0.66787420  0.49726306
   0.33503610  0.80881638  0.49795857
   0.33470556  0.95307576  0.49805254
   0.47712668  0.09651473  0.49659692
   0.47491333  0.24197895  0.49581731
   0.47492199  0.80437155  0.49599543
   0.47710414  0.95204052  0.49654453
   0.61901397  0.09520003  0.49614339
   0.61897499  0.23998309  0.49583424
   0.61897356  0.95043626  0.49558728
   0.76158016  0.09454374  0.49655798
   0.76157029  0.23842511  0.49675710
   0.76089715  0.38255993  0.49597080
   0.75996290  0.52906030  0.49402510
   0.76341504  0.66739028  0.49296121
   0.75993784  0.80218927  0.49381032
   0.76090484  0.94972998  0.49560509
   0.90411886  0.09399000  0.49768705
   0.90412350  0.23774373  0.49803226
   0.90412917  0.38148032  0.49787854
   0.90480216  0.52474824  0.49757853
   0.90632346  0.66748387  0.49727764
   0.90631735  0.81014261  0.49712730
   0.90475092  0.95135292  0.49723727
   0.42927523  0.28685117  0.49552115
   0.42926185  0.71390119  0.49619777
   0.71679095  0.57545465  0.49106233
   0.71679418  0.71262499  0.49121327
   0.33211313  0.38314672  0.49437806
   0.33245991  0.52023282  0.49609383
   0.61979760  0.38207850  0.49442750
   0.61983061  0.80922672  0.49405160
   0.48123295  0.54511912  0.53692071
   0.51947955  0.48162415  0.53398302
   0.51965591  0.52876045  0.56977594
 
 position of ions in cartesian coordinates  (Angst):
   0.00882656  0.00134037  7.47462031
  16.03730903  2.13006216  7.47835761
  14.79805630  4.26961554  7.48093539
  13.56556130  6.41213512  7.47895622
  -4.92700719  8.55253948  7.47864742
  -6.14045013 10.69586825  7.47956535
  -7.37662402 12.83710746  7.47816445
   2.48672271  0.02796472  7.48477551
   1.24423863  2.16070333  7.48177267
  -0.00251016  4.27235745  7.48047402
  -1.23469472  6.40747208  7.48002192
  -2.43799750  8.54290169  7.48130603
  -3.66606940 10.68508329  7.48839620
  -4.90763613 12.83515972  7.48947026
   4.95305386  0.02100211  7.47550065
   3.71387872  2.18686220  7.46507630
   2.45794129  4.38952650  7.44617055
   1.23123808  6.40551983  7.44534004
   0.10133247  8.48004650  7.45915487
  -1.18347900 10.66919149  7.47272487
  -2.43976429 12.82547491  7.47854307
   7.42094982  0.01103436  7.45581759
   6.17125815  2.17736977  7.45040518
   0.03646582 12.80275329  7.45250487
   1.24681277 14.94903785  7.43948060
   8.63521207  2.15242213  7.44158184
   7.39862920  4.36127500  7.42890208
   2.54229751 12.77421808  7.42609352
   3.71067167 14.93243932  7.43821536
  11.10370944  2.13684642  7.44685810
   9.85255738  4.29388698  7.44280202
   8.55971488  6.40257594  7.41845196
   4.88994067 12.75808574  7.41423442
   6.17095504 14.93627699  7.45227938
  13.56711763  2.12709751  7.46175044
  12.32709699  4.27487401  7.46398448
  11.08690098  6.42185890  7.45632588
   9.85783360  8.56320823  7.44910366
   8.66428135 10.69888829  7.44394638
   7.41091703 12.80035504  7.44338126
   0.01053055  1.43154540  7.48055862
  -1.23992503  3.55337522  7.48345372
  -2.47637842  5.69526179  7.48309000
  -3.68707950  7.83908318  7.48153837
  -4.91103206  9.97949856  7.48498099
  -6.14355170 12.12156171  7.48564534
  -7.38225281 14.25996822  7.48189737
   2.48421108  1.45481760  7.47898475
   1.24456494  3.58975950  7.47573583
  -0.01121351  5.69063634  7.47392130
  -1.19932941  7.82855648  7.47477560
  -2.43165522  9.96955037  7.48258720
  -3.67242869 12.11649254  7.48816342
  -4.91243516 14.26418943  7.48490622
   4.94353720  1.46039071  7.46404093
   3.76371841  3.63379409  7.44534547
   0.09518608  9.98949973  7.45894588
  -1.19812805 12.09759410  7.46937861
  -2.44959144 14.25530447  7.47078804
   7.40701828  1.44358608  7.44895382
   6.11263238  3.61931725  7.43725959
   1.25622998 12.03111214  7.43993148
   0.01871975 14.23982017  7.44816791
   9.86891225  1.42392180  7.44215088
   8.61796210  3.58946495  7.43751358
   2.48280560 14.21582497  7.43380914
  12.33684558  1.41410568  7.44836972
  11.09418491  3.56616199  7.45135652
   9.83788012  5.72200921  7.43956198
   8.55663781  7.91323841  7.41037644
   7.42170873  9.98226165  7.39441820
   6.19759464 11.99847144  7.40715486
   4.94020511 14.20526104  7.43407635
  14.80341886  1.40582324  7.46530570
  13.56211096  3.55597042  7.47048391
  12.32096882  5.70586126  7.46817807
  11.09539913  7.84874223  7.46367796
   9.88907734  9.98366147  7.45916464
   8.65703955 12.11743071  7.45690955
   7.41056128 14.22953573  7.45855908
   4.93692011  4.29047820  7.43281730
   1.24889041 10.67793271  7.44296658
   7.41037425  8.60716591  7.36593493
   6.22589296 10.65884440  7.36819901
   2.42726768  5.73078597  7.41567083
   1.24944725  7.78120440  7.44140738
   7.40510166  5.71480844  7.41641248
   3.71702535 12.10373170  7.41077394
   3.60400597  8.15343271  8.05381063
   4.81287667  7.20372830  8.00974531
   4.40887609  7.90875343  8.54663909
 


--------------------------------------------------------------------------------------------------------


 k-point   1 :   0.0000 0.0000 0.0000  plane waves:  104449
 k-point   2 :   0.5000 0.0000 0.0000  plane waves:  104264
 k-point   3 :   0.0000 0.5000 0.0000  plane waves:  104264
 k-point   4 :   0.5000 0.5000 0.0000  plane waves:  104264

 maximum and minimum number of plane-waves per node :    104449   104264

 maximum number of plane-waves:    104449
 maximum index in each direction: 
   IXMAX=   32   IYMAX=   32   IZMAX=   27
   IXMIN=  -32   IYMIN=  -32   IZMIN=  -27


 serial   3D FFT for wavefunctions
 parallel 3D FFT for charge:
    minimum data exchange during FFTs selected (reduces bandwidth)


 total amount of memory used by VASP MPI-rank0   344417. kBytes
=======================================================================

   base      :      30000. kBytes
   nonlr-proj:       8825. kBytes
   fftplans  :      49947. kBytes
   grid      :      93499. kBytes
   one-center:        559. kBytes
   wavefun   :     161587. kBytes
 
     INWAV:  cpu time      0.0000: real time      0.0000
 Broyden mixing: mesh for mixing (old mesh)
   NGX = 65   NGY = 65   NGZ = 55
  (NGX  =192   NGY  =192   NGZ  =168)
  gives a total of 232375 points

 initial charge density was supplied:
 charge density of overlapping atoms calculated
 number of electron     368.0000000 magnetization       0.0000000
 keeping initial charge density in first step


--------------------------------------------------------------------------------------------------------


 Maximum index for non-local projection operator         1592
 Maximum index for augmentation-charges         1493 (set IRDMAX)


--------------------------------------------------------------------------------------------------------


 First call to EWALD:  gamma=   0.113
 Maximum number of real-space cells 3x 3x 3
 Maximum number of reciprocal cells 3x 3x 3

    FEWALD:  cpu time      0.0040: real time      0.0040


--------------------------------------- Ionic step        1  -------------------------------------------




--------------------------------------- Iteration      1(   1)  ---------------------------------------


    POTLOK:  cpu time      0.5574: real time      0.5749
    SETDIJ:  cpu time      1.2507: real time      1.2705
     EDDAV:  cpu time     33.7698: real time     34.9141
       DOS:  cpu time      0.0007: real time      0.0192
    --------------------------------------------
      LOOP:  cpu time     35.5787: real time     36.7787

 eigenvalue-minimisations  :  4060
 total energy-change (2. order) : 0.3498658E+04  (-0.1377180E+05)
 number of electron     368.0000000 magnetization       0.0000000
 augmentation part      368.0000000 magnetization       0.0000000

 Free energy of the ion-electron system (eV)
  ---------------------------------------------------
  alpha Z        PSCENC =       175.06488379
  Ewald energy   TEWEN  =     36367.13301843
  -Hartree energ DENC   =    -47191.92211297
  -exchange      EXHF   =         0.00000000
  -V(xc)+E(xc)   XCENC  =      1240.35510648
  PAW double counting   =     10672.04303313   -10728.93979680
  entropy T*S    EENTRO =        -0.03654380
  eigenvalues    EBANDS =     -1380.57115574
  atomic energy  EATOM  =     14345.53195627
  Solvation  Ediel_sol  =         0.00000000
  ---------------------------------------------------
  free energy    TOTEN  =      3498.65838879 eV

  energy without entropy =     3498.69493260  energy(sigma->0) =     3498.67666070


--------------------------------------------------------------------------------------------------------




--------------------------------------- Iteration      1(   2)  ---------------------------------------


     EDDAV:  cpu time     43.1574: real time     44.5453
       DOS:  cpu time      0.0007: real time      0.0484
    --------------------------------------------
      LOOP:  cpu time     43.1582: real time     44.5937

 eigenvalue-minimisations  :  5760
 total energy-change (2. order) :-0.3664515E+04  (-0.3488866E+04)
 number of electron     368.0000000 magnetization       0.0000000
 augmentation part      368.0000000 magnetization       0.0000000

 Free energy of the ion-electron system (eV)
  ---------------------------------------------------
  alpha Z        PSCENC =       175.06488379
  Ewald energy   TEWEN  =     36367.13301843
  -Hartree energ DENC   =    -47191.92211297
  -exchange      EXHF   =         0.00000000
  -V(xc)+E(xc)   XCENC  =      1240.35510648
  PAW double counting   =     10672.04303313   -10728.93979680
  entropy T*S    EENTRO =        -0.00005734
  eigenvalues    EBANDS =     -5045.12227498
  atomic energy  EATOM  =     14345.53195627
  Solvation  Ediel_sol  =         0.00000000
  ---------------------------------------------------
  free energy    TOTEN  =      -165.85624398 eV

  energy without entropy =     -165.85618665  energy(sigma->0) =     -165.85621531


--------------------------------------------------------------------------------------------------------




--------------------------------------- Iteration      1(   3)  ---------------------------------------


     EDDAV:  cpu time     36.8584: real time     38.1004
       DOS:  cpu time      0.0006: real time      0.0071
    --------------------------------------------
      LOOP:  cpu time     36.8589: real time     38.1074

 eigenvalue-minimisations  :  4640
 total energy-change (2. order) :-0.6757367E+03  (-0.6728603E+03)
 number of electron     368.0000000 magnetization       0.0000000
 augmentation part      368.0000000 magnetization       0.0000000

 Free energy of the ion-electron system (eV)
  ---------------------------------------------------
  alpha Z        PSCENC =       175.06488379
  Ewald energy   TEWEN  =     36367.13301843
  -Hartree energ DENC   =    -47191.92211297
  -exchange      EXHF   =         0.00000000
  -V(xc)+E(xc)   XCENC  =      1240.35510648
  PAW double counting   =     10672.04303313   -10728.93979680
  entropy T*S    EENTRO =        -0.00000017
  eigenvalues    EBANDS =     -5720.85899944
  atomic energy  EATOM  =     14345.53195627
  Solvation  Ediel_sol  =         0.00000000
  ---------------------------------------------------
  free energy    TOTEN  =      -841.59291127 eV

  energy without entropy =     -841.59291110  energy(sigma->0) =     -841.59291119


--------------------------------------------------------------------------------------------------------




--------------------------------------- Iteration      1(   4)  ---------------------------------------


     EDDAV:  cpu time     36.6992: real time     37.9951
       DOS:  cpu time      0.0007: real time      0.0283
    --------------------------------------------
      LOOP:  cpu time     36.7000: real time     38.0233

 eigenvalue-minimisations  :  4680
 total energy-change (2. order) :-0.2401394E+02  (-0.2389583E+02)
 number of electron     368.0000000 magnetization       0.0000000
 augmentation part      368.0000000 magnetization       0.0000000

 Free energy of the ion-electron system (eV)
  ---------------------------------------------------
  alpha Z        PSCENC =       175.06488379
  Ewald energy   TEWEN  =     36367.13301843
  -Hartree energ DENC   =    -47191.92211297
  -exchange      EXHF   =         0.00000000
  -V(xc)+E(xc)   XCENC  =      1240.35510648
  PAW double counting   =     10672.04303313   -10728.93979680
  entropy T*S    EENTRO =        -0.00000036
  eigenvalues    EBANDS =     -5744.87294214
  atomic energy  EATOM  =     14345.53195627
  Solvation  Ediel_sol  =         0.00000000
  ---------------------------------------------------
  free energy    TOTEN  =      -865.60685416 eV

  energy without entropy =     -865.60685380  energy(sigma->0) =     -865.60685398


--------------------------------------------------------------------------------------------------------




--------------------------------------- Iteration      1(   5)  ---------------------------------------


     EDDAV:  cpu time     41.5378: real time     43.0403
       DOS:  cpu time      0.0007: real time      0.0394
    CHARGE:  cpu time      2.6091: real time      2.7819
    MIXING:  cpu time      0.0140: real time      0.0147
    --------------------------------------------
      LOOP:  cpu time     44.1616: real time     45.8763

 eigenvalue-minimisations  :  5480
 total energy-change (2. order) :-0.7274953E+00  (-0.7263038E+00)
 number of electron     368.0000000 magnetization      -0.0000000
 augmentation part       11.1332524 magnetization      -0.0014622

 Broyden mixing:
  rms(total) = 0.42758E+01    rms(broyden)= 0.42750E+01
  rms(prec ) = 0.47769E+01
  weight for this iteration     100.00

 Free energy of the ion-electron system (eV)
  ---------------------------------------------------
  alpha Z        PSCENC =       175.06488379
  Ewald energy   TEWEN  =     36367.13301843
  -Hartree energ DENC   =    -47191.92211297
  -exchange      EXHF   =         0.00000000
  -V(xc)+E(xc)   XCENC  =      1240.35510648
  PAW double counting   =     10672.04303313   -10728.93979680
  entropy T*S    EENTRO =        -0.00000038
  eigenvalues    EBANDS =     -5745.60043746
  atomic energy  EATOM  =     14345.53195627
  Solvation  Ediel_sol  =         0.00000000
  ---------------------------------------------------
  free energy    TOTEN  =      -866.33434950 eV

  energy without entropy =     -866.33434913  energy(sigma->0) =     -866.33434931


--------------------------------------------------------------------------------------------------------




--------------------------------------- Iteration      1(   6)  ---------------------------------------


    POTLOK:  cpu time      0.5817: real time      0.6024
    SETDIJ:  cpu time      1.3612: real time      1.3980
     EDDAV:  cpu time     34.4111: real time     36.4447
       DOS:  cpu time      0.0006: real time      0.0288
    CHARGE:  cpu time      2.7229: real time      2.7868
    MIXING:  cpu time      0.0134: real time      0.0137
    --------------------------------------------
      LOOP:  cpu time     39.0909: real time     41.2744

 eigenvalue-minimisations  :  4420
 total energy-change (2. order) : 0.2872229E+02  (-0.2013720E+01)
 number of electron     368.0000000 magnetization       0.0000000
 augmentation part       10.6776164 magnetization      -0.0002438

 Broyden mixing:
  rms(total) = 0.32317E+01    rms(broyden)= 0.32316E+01
  rms(prec ) = 0.35489E+01
  weight for this iteration     100.00

 eigenvalues of (default mixing * dielectric matrix)
  average eigenvalue GAMMA=   3.1314
  3.1314

 Free energy of the ion-electron system (eV)
  ---------------------------------------------------
  alpha Z        PSCENC =       175.06488379
  Ewald energy   TEWEN  =     36367.13301843
  -Hartree energ DENC   =    -47613.26893525
  -exchange      EXHF   =         0.00000000
  -V(xc)+E(xc)   XCENC  =      1255.72815668
  PAW double counting   =     14347.37126662   -14407.72213974
  entropy T*S    EENTRO =        -0.00000007
  eigenvalues    EBANDS =     -5307.45026218
  atomic energy  EATOM  =     14345.53195627
  Solvation  Ediel_sol  =         0.00000000
  ---------------------------------------------------
  free energy    TOTEN  =      -837.61205545 eV

  energy without entropy =     -837.61205537  energy(sigma->0) =     -837.61205541


--------------------------------------------------------------------------------------------------------




--------------------------------------- Iteration      1(   7)  ---------------------------------------


    POTLOK:  cpu time      0.5758: real time      0.5977
    SETDIJ:  cpu time      1.3667: real time      1.3958
     EDDAV:  cpu time     35.8788: real time     37.3058
       DOS:  cpu time      0.0008: real time      0.0110
    CHARGE:  cpu time      2.6380: real time      2.8086
    MIXING:  cpu time      0.0208: real time      0.0215
    --------------------------------------------
      LOOP:  cpu time     40.4810: real time     42.1405

 eigenvalue-minimisations  :  4460
 total energy-change (2. order) : 0.2382903E+02  (-0.7962218E+01)
 number of electron     368.0000000 magnetization       0.0005255
 augmentation part        9.7669428 magnetization      -0.0003303

 Broyden mixing:
  rms(total) = 0.16385E+01    rms(broyden)= 0.16381E+01
  rms(prec ) = 0.17971E+01
  weight for this iteration     100.00

 eigenvalues of (default mixing * dielectric matrix)
  average eigenvalue GAMMA=   2.1190
  1.0803  3.1576

 Free energy of the ion-electron system (eV)
  ---------------------------------------------------
  alpha Z        PSCENC =       175.06488379
  Ewald energy   TEWEN  =     36367.13301843
  -Hartree energ DENC   =    -48532.73885696
  -exchange      EXHF   =         0.00000000
  -V(xc)+E(xc)   XCENC  =      1290.12543407
  PAW double counting   =     26153.83659884   -26221.23395324
  entropy T*S    EENTRO =        -0.02965046
  eigenvalues    EBANDS =     -4391.47245682
  atomic energy  EATOM  =     14345.53195627
  Solvation  Ediel_sol  =         0.00000000
  ---------------------------------------------------
  free energy    TOTEN  =      -813.78302609 eV

  energy without entropy =     -813.75337563  energy(sigma->0) =     -813.76820086


--------------------------------------------------------------------------------------------------------




--------------------------------------- Iteration      1(   8)  ---------------------------------------


    POTLOK:  cpu time      0.5617: real time      0.6056
    SETDIJ:  cpu time      1.3744: real time      1.3975
     EDDAV:  cpu time     35.8606: real time     37.0116
       DOS:  cpu time      0.0007: real time      0.0462
    CHARGE:  cpu time      2.7020: real time      2.7984
    MIXING:  cpu time      0.0148: real time      0.0469
    --------------------------------------------
      LOOP:  cpu time     40.5142: real time     41.9063

 eigenvalue-minimisations  :  4500
 total energy-change (2. order) : 0.3750097E+00  (-0.3306993E+01)
 number of electron     368.0000000 magnetization       0.0004071
 augmentation part        9.9709400 magnetization       0.0002604

 Broyden mixing:
  rms(total) = 0.11218E+01    rms(broyden)= 0.11216E+01
  rms(prec ) = 0.11636E+01
  weight for this iteration     100.00

 eigenvalues of (default mixing * dielectric matrix)
  average eigenvalue GAMMA=   2.1693
  4.2031  1.8162  0.4885

 Free energy of the ion-electron system (eV)
  ---------------------------------------------------
  alpha Z        PSCENC =       175.06488379
  Ewald energy   TEWEN  =     36367.13301843
  -Hartree energ DENC   =    -48552.66377323
  -exchange      EXHF   =         0.00000000
  -V(xc)+E(xc)   XCENC  =      1290.22569492
  PAW double counting   =     27966.52714651   -28033.83792654
  entropy T*S    EENTRO =        -0.00000032
  eigenvalues    EBANDS =     -4371.38901624
  atomic energy  EATOM  =     14345.53195627
  Solvation  Ediel_sol  =         0.00000000
  ---------------------------------------------------
  free energy    TOTEN  =      -813.40801641 eV

  energy without entropy =     -813.40801608  energy(sigma->0) =     -813.40801625


--------------------------------------------------------------------------------------------------------




--------------------------------------- Iteration      1(   9)  ---------------------------------------


    POTLOK:  cpu time      0.5618: real time      0.5964
    SETDIJ:  cpu time      1.3541: real time      1.4159
     EDDAV:  cpu time     35.9256: real time     37.4247
       DOS:  cpu time      0.0007: real time      0.0385
    CHARGE:  cpu time      2.6800: real time      2.8027
    MIXING:  cpu time      0.0186: real time      0.0191
    --------------------------------------------
      LOOP:  cpu time     40.5407: real time     42.2974

 eigenvalue-minimisations  :  4580
 total energy-change (2. order) :-0.5328035E+00  (-0.4046086E+00)
 number of electron     368.0000000 magnetization       0.0001901
 augmentation part        9.9448903 magnetization       0.0001466

 Broyden mixing:
  rms(total) = 0.66132E+00    rms(broyden)= 0.66127E+00
  rms(prec ) = 0.74066E+00
  weight for this iteration     100.00

 eigenvalues of (default mixing * dielectric matrix)
  average eigenvalue GAMMA=   2.1500
  4.4604  2.2340  1.3165  0.5891

 Free energy of the ion-electron system (eV)
  ---------------------------------------------------
  alpha Z        PSCENC =       175.06488379
  Ewald energy   TEWEN  =     36367.13301843
  -Hartree energ DENC   =    -48679.03281911
  -exchange      EXHF   =         0.00000000
  -V(xc)+E(xc)   XCENC  =      1295.27191285
  PAW double counting   =     33504.38918931   -33572.56952772
  entropy T*S    EENTRO =        -0.00000022
  eigenvalues    EBANDS =     -4249.72943352
  atomic energy  EATOM  =     14345.53195627
  Solvation  Ediel_sol  =         0.00000000
  ---------------------------------------------------
  free energy    TOTEN  =      -813.94081992 eV

  energy without entropy =     -813.94081970  energy(sigma->0) =     -813.94081981


--------------------------------------------------------------------------------------------------------




--------------------------------------- Iteration      1(  10)  ---------------------------------------


    POTLOK:  cpu time      0.5512: real time      0.6811
    SETDIJ:  cpu time      1.2585: real time      1.4128
     EDDAV:  cpu time     37.5749: real time     38.9090
       DOS:  cpu time      0.0006: real time      0.0113
    CHARGE:  cpu time      2.7408: real time      2.8273
    MIXING:  cpu time      0.0199: real time      0.0208
    --------------------------------------------
      LOOP:  cpu time     42.1459: real time     43.8622

 eigenvalue-minimisations  :  4840
 total energy-change (2. order) : 0.7003337E+00  (-0.9805933E-01)
 number of electron     368.0000000 magnetization       0.0001000
 augmentation part        9.9107607 magnetization       0.0000620

 Broyden mixing:
  rms(total) = 0.34730E+00    rms(broyden)= 0.34729E+00
  rms(prec ) = 0.40373E+00
  weight for this iteration     100.00

 eigenvalues of (default mixing * dielectric matrix)
  average eigenvalue GAMMA=   2.2073
  4.8545  3.1202  1.2527  1.2527  0.5563

 Free energy of the ion-electron system (eV)
  ---------------------------------------------------
  alpha Z        PSCENC =       175.06488379
  Ewald energy   TEWEN  =     36367.13301843
  -Hartree energ DENC   =    -48634.48308509
  -exchange      EXHF   =         0.00000000
  -V(xc)+E(xc)   XCENC  =      1294.33347215
  PAW double counting   =     35576.78667090   -35644.70838218
  entropy T*S    EENTRO =        -0.00000010
  eigenvalues    EBANDS =     -4292.89902035
  atomic energy  EATOM  =     14345.53195627
  Solvation  Ediel_sol  =         0.00000000
  ---------------------------------------------------
  free energy    TOTEN  =      -813.24048618 eV

  energy without entropy =     -813.24048608  energy(sigma->0) =     -813.24048613


--------------------------------------------------------------------------------------------------------




--------------------------------------- Iteration      1(  11)  ---------------------------------------


    POTLOK:  cpu time      0.5819: real time      0.5975
    SETDIJ:  cpu time      1.3373: real time      1.3610
     EDDAV:  cpu time     34.7671: real time     35.8459
       DOS:  cpu time      0.0007: real time      0.0387
    CHARGE:  cpu time      2.7517: real time      2.8415
    MIXING:  cpu time      0.0234: real time      0.0242
    --------------------------------------------
      LOOP:  cpu time     39.4621: real time     40.7088

 eigenvalue-minimisations  :  4360
 total energy-change (2. order) : 0.3315513E+00  (-0.8607784E-01)
 number of electron     368.0000000 magnetization       0.0000932
 augmentation part        9.9123839 magnetization       0.0000853

 Broyden mixing:
  rms(total) = 0.13446E+00    rms(broyden)= 0.13442E+00
  rms(prec ) = 0.17091E+00
  weight for this iteration     100.00

 eigenvalues of (default mixing * dielectric matrix)
  average eigenvalue GAMMA=   2.1152
  4.6864  2.8110  1.7950  1.7950  0.5635  1.0403

 Free energy of the ion-electron system (eV)
  ---------------------------------------------------
  alpha Z        PSCENC =       175.06488379
  Ewald energy   TEWEN  =     36367.13301843
  -Hartree energ DENC   =    -48579.55972825
  -exchange      EXHF   =         0.00000000
  -V(xc)+E(xc)   XCENC  =      1292.83111432
  PAW double counting   =     37047.12915121   -37114.65703713
  entropy T*S    EENTRO =        -0.00000009
  eigenvalues    EBANDS =     -4346.38229347
  atomic energy  EATOM  =     14345.53195627
  Solvation  Ediel_sol  =         0.00000000
  ---------------------------------------------------
  free energy    TOTEN  =      -812.90893492 eV

  energy without entropy =     -812.90893482  energy(sigma->0) =     -812.90893487


--------------------------------------------------------------------------------------------------------




--------------------------------------- Iteration      1(  12)  ---------------------------------------


    POTLOK:  cpu time      0.5680: real time      0.5938
    SETDIJ:  cpu time      1.3666: real time      1.4027
     EDDAV:  cpu time     35.8459: real time     36.9900
       DOS:  cpu time      0.0007: real time      0.0344
    CHARGE:  cpu time      2.7444: real time      2.8272
    MIXING:  cpu time      0.0277: real time      0.0306
    --------------------------------------------
      LOOP:  cpu time     40.5534: real time     41.8786

 eigenvalue-minimisations  :  4540
 total energy-change (2. order) : 0.4658273E-01  (-0.8837467E-02)
 number of electron     368.0000000 magnetization       0.0000409
 augmentation part        9.9125648 magnetization       0.0000395

 Broyden mixing:
  rms(total) = 0.10659E+00    rms(broyden)= 0.10659E+00
  rms(prec ) = 0.13666E+00
  weight for this iteration     100.00

 eigenvalues of (default mixing * dielectric matrix)
  average eigenvalue GAMMA=   2.2799
  4.5810  3.5449  3.5449  1.5408  0.5614  1.1424  1.0436

 Free energy of the ion-electron system (eV)
  ---------------------------------------------------
  alpha Z        PSCENC =       175.06488379
  Ewald energy   TEWEN  =     36367.13301843
  -Hartree energ DENC   =    -48581.16330455
  -exchange      EXHF   =         0.00000000
  -V(xc)+E(xc)   XCENC  =      1292.92857351
  PAW double counting   =     36918.56396052   -36986.09183475
  entropy T*S    EENTRO =        -0.00000009
  eigenvalues    EBANDS =     -4344.82960531
  atomic energy  EATOM  =     14345.53195627
  Solvation  Ediel_sol  =         0.00000000
  ---------------------------------------------------
  free energy    TOTEN  =      -812.86235218 eV

  energy without entropy =     -812.86235209  energy(sigma->0) =     -812.86235214


--------------------------------------------------------------------------------------------------------




--------------------------------------- Iteration      1(  13)  ---------------------------------------


    POTLOK:  cpu time      0.5764: real time      0.6022
    SETDIJ:  cpu time      1.3775: real time      1.4216
     EDDAV:  cpu time     39.8877: real time     41.3808
       DOS:  cpu time      0.0007: real time      0.0265
    CHARGE:  cpu time      2.7668: real time      2.8347
    MIXING:  cpu time      0.0230: real time      0.0232
    --------------------------------------------
      LOOP:  cpu time     44.6320: real time     46.2890

 eigenvalue-minimisations  :  5080
 total energy-change (2. order) : 0.7289958E-01  (-0.9111641E-02)
 number of electron     368.0000000 magnetization       0.0000225
 augmentation part        9.9061371 magnetization       0.0000300

 Broyden mixing:
  rms(total) = 0.55205E-01    rms(broyden)= 0.55198E-01
  rms(prec ) = 0.70224E-01
  weight for this iteration     100.00

 eigenvalues of (default mixing * dielectric matrix)
  average eigenvalue GAMMA=   2.2144
  4.5840  4.2686  3.4290  0.5619  1.5905  0.9703  1.1553  1.1553

[...]
   -.301E+02 -.183E+02 -.122E+00   0.306E+02 0.189E+02 0.118E+00   -.451E+00 -.583E+00 0.183E-02   0.255E-04 0.744E-04 -.941E-04
   -.189E+02 0.301E+01 -.233E+01   0.189E+02 -.301E+01 0.233E+01   -.660E-01 0.585E-02 -.271E-02   -.250E-03 -.231E-03 -.295E-04
   -.391E+01 0.334E+01 -.384E+01   0.392E+01 -.335E+01 0.384E+01   -.374E-02 0.979E-02 -.497E-02   -.879E-04 -.141E-04 -.427E-05
   0.830E+00 -.420E+01 -.309E+01   -.832E+00 0.421E+01 0.309E+01   0.113E-01 -.852E-02 -.193E-02   -.843E-04 -.722E-04 -.982E-05
   0.672E+00 -.134E+02 0.115E+00   -.719E+00 0.135E+02 -.118E+00   0.518E-01 -.126E+00 -.181E-02   0.104E-06 -.421E-04 -.679E-04
   0.230E+02 -.596E+02 0.671E+01   -.255E+02 0.589E+02 -.675E+01   0.246E+01 0.726E+00 0.259E-01   -.103E-03 -.227E-04 -.168E-03
   -.445E+02 0.505E+02 0.267E+01   0.426E+02 -.521E+02 -.263E+01   0.183E+01 0.165E+01 -.376E-01   -.218E-03 -.360E-04 -.121E-03
   -.130E+02 0.839E+01 -.103E+01   0.131E+02 -.849E+01 0.103E+01   -.107E+00 0.100E+00 -.363E-02   -.944E-04 0.166E-04 -.300E-04
   -.417E+01 -.150E+01 -.123E+01   0.419E+01 0.151E+01 0.123E+01   -.256E-01 -.530E-02 -.183E-02   -.616E-04 -.581E-04 -.529E-05
   0.716E+01 -.106E+02 0.163E+01   -.716E+01 0.106E+02 -.163E+01   -.129E-01 -.377E-02 0.499E-03   0.269E-03 -.852E-04 -.404E-04
   -.147E+02 -.557E+02 0.578E+01   0.170E+02 0.550E+02 -.577E+01   -.236E+01 0.714E+00 -.209E-01   0.915E-04 -.162E-03 -.158E-03
   -.590E+02 0.186E+02 0.470E+01   0.596E+02 -.162E+02 -.472E+01   -.618E+00 -.240E+01 0.105E-01   -.540E-04 0.257E-03 -.874E-04
   -.676E+01 0.132E+02 0.195E+01   0.678E+01 -.132E+02 -.195E+01   -.236E-01 0.104E-01 0.844E-03   0.393E-04 0.286E-03 -.137E-04
   0.425E+01 0.333E+01 0.210E+01   -.439E+01 -.341E+01 -.210E+01   0.124E+00 0.844E-01 -.581E-02   -.839E-04 -.400E-04 -.809E-05
   0.241E+02 -.980E+01 0.313E+01   -.248E+02 0.989E+01 -.312E+01   0.703E+00 -.950E-01 -.107E-01   -.123E-03 0.249E-04 -.869E-04
   0.297E+01 0.282E+02 0.347E+01   -.323E+01 -.289E+02 -.345E+01   0.261E+00 0.709E+00 -.179E-01   -.176E-04 -.149E-03 -.292E-04
   0.345E+01 0.124E+02 0.139E+01   -.347E+01 -.124E+02 -.139E+01   0.285E-01 0.161E-01 -.772E-02   0.492E-05 0.147E-03 0.146E-05
   0.116E+02 -.247E+01 0.848E+00   -.116E+02 0.244E+01 -.842E+00   0.173E-01 0.250E-01 -.121E-01   0.176E-03 -.553E-04 -.167E-04
   0.252E+02 -.173E+02 0.311E+01   -.257E+02 0.179E+02 -.311E+01   0.493E+00 -.605E+00 -.539E-02   -.182E-04 0.325E-04 -.981E-04
   0.458E+02 0.418E+02 0.938E+01   -.442E+02 -.432E+02 -.927E+01   -.157E+01 0.141E+01 -.112E+00   0.503E-03 -.143E-03 -.193E-03
   0.687E+02 0.371E+02 0.138E+02   -.665E+02 -.358E+02 -.136E+02   -.220E+01 -.133E+01 -.181E+00   0.492E-03 0.557E-03 -.261E-03
   0.635E+02 0.207E+02 0.885E+01   -.640E+02 -.186E+02 -.876E+01   0.501E+00 -.206E+01 -.941E-01   0.223E-03 0.250E-03 -.142E-03
   -.156E+01 0.326E+02 0.366E+01   0.182E+01 -.334E+02 -.367E+01   -.260E+00 0.776E+00 0.845E-03   0.169E-04 -.816E-06 -.343E-04
   0.108E+01 0.752E+01 -.904E+00   -.105E+01 -.769E+01 0.914E+00   -.262E-01 0.173E+00 -.169E-01   0.242E-03 0.171E-03 -.829E-06
   0.632E+00 0.596E+00 -.160E+01   -.621E+00 -.594E+00 0.161E+01   -.234E-04 0.801E-03 -.176E-01   0.778E-04 0.532E-04 -.942E-06
   0.611E+01 -.294E+01 -.122E+01   -.624E+01 0.306E+01 0.123E+01   0.136E+00 -.111E+00 -.173E-01   0.175E-03 0.593E-04 -.149E-04
   0.173E+02 0.956E+00 -.989E+00   -.175E+02 -.916E+00 0.101E+01   0.114E+00 -.361E-01 -.224E-01   0.367E-03 -.189E-03 -.772E-04
   0.171E+02 0.886E+01 -.840E+00   -.172E+02 -.900E+01 0.823E+00   0.918E-01 0.151E+00 0.123E-01   0.158E-03 0.918E-04 -.122E-03
   0.174E+02 0.101E+02 -.680E+00   -.176E+02 -.101E+02 0.667E+00   0.193E+00 -.427E-02 0.931E-02   0.342E-04 0.692E-04 -.856E-04
   0.107E+02 0.155E+02 -.345E+00   -.107E+02 -.156E+02 0.361E+00   0.316E-01 0.132E+00 -.185E-01   -.888E-05 0.343E-03 -.226E-04
   0.134E+01 -.223E+03 0.151E+02   -.929E+00 0.258E+03 -.155E+02   -.409E+00 -.345E+02 0.411E+00   -.166E-03 -.591E-03 -.302E-03
   -.202E+03 0.117E+03 0.945E+01   0.232E+03 -.134E+03 -.979E+01   -.304E+02 0.170E+02 0.335E+00   -.539E-03 0.424E-03 -.212E-03
   0.219E+03 0.898E+02 0.374E+02   -.250E+03 -.105E+03 -.391E+02   0.313E+02 0.156E+02 0.165E+01   0.124E-02 0.649E-03 -.471E-03
   0.198E+03 0.143E+03 0.330E+02   -.227E+03 -.163E+03 -.344E+02   0.295E+02 0.194E+02 0.136E+01   0.112E-02 0.807E-03 -.414E-03
   -.184E+03 -.136E+03 0.333E+02   0.213E+03 0.155E+03 -.347E+02   -.288E+02 -.189E+02 0.137E+01   -.766E-03 -.757E-03 -.256E-03
   -.214E+03 -.101E+03 0.209E+02   0.244E+03 0.116E+03 -.215E+02   -.301E+02 -.151E+02 0.538E+00   -.787E-03 -.358E-03 -.358E-03
   0.193E+03 -.116E+03 0.156E+02   -.223E+03 0.133E+03 -.159E+02   0.301E+02 -.169E+02 0.297E+00   0.626E-03 -.456E-03 -.375E-03
   -.313E+01 0.235E+03 0.138E+02   0.272E+01 -.270E+03 -.142E+02   0.414E+00 0.351E+02 0.350E+00   -.149E-03 0.746E-03 -.194E-03
   0.521E+02 -.306E+02 0.202E+02   -.590E+02 0.329E+02 -.242E+02   0.689E+01 -.225E+01 0.403E+01   -.107E-02 0.211E-03 -.793E-03
   -.325E+02 0.474E+02 0.258E+02   0.362E+02 -.535E+02 -.303E+02   -.364E+01 0.604E+01 0.444E+01   0.402E-03 -.953E-03 -.849E-03
   -.218E+02 -.510E+02 -.253E+03   0.377E+02 0.695E+02 0.293E+03   -.160E+02 -.186E+02 -.396E+02   -.105E-02 -.908E-03 -.198E-02
 -----------------------------------------------------------------------------------------------
   0.105E+02 0.125E+02 0.260E+02   -.135E-12 -.256E-12 0.000E+00   -.104E+02 -.125E+02 -.262E+02   -.521E-03 -.782E-03 -.112E-01
 
 
 POSITION                                       TOTAL-FORCE (eV/Angst)
 -----------------------------------------------------------------------------------
      0.00883      0.00134      7.47462        -0.001257     -0.002444     -0.000253
     16.03731      2.13006      7.47836        -0.004215     -0.003424     -0.001081
     14.79806      4.26962      7.48094        -0.009195     -0.002900     -0.003562
     13.56556      6.41214      7.47896        -0.006897     -0.000261     -0.001833
     -4.92701      8.55254      7.47865        -0.003929     -0.003123     -0.000986
     -6.14045     10.69587      7.47957        -0.007837     -0.004057     -0.002483
     -7.37662     12.83711      7.47816        -0.002072     -0.003046     -0.000993
      2.48672      0.02796      7.48478        -0.002420     -0.000829     -0.001510
      1.24424      2.16070      7.48177         0.002250     -0.003013     -0.002261
     -0.00251      4.27236      7.48047        -0.000660     -0.004009     -0.002738
     -1.23469      6.40747      7.48002        -0.005259      0.001704     -0.001166
     -2.43800      8.54290      7.48131        -0.005222     -0.001542     -0.000145
     -3.66607     10.68508      7.48840        -0.003588     -0.009849     -0.000772
     -4.90764     12.83516      7.48947        -0.006477     -0.001627     -0.001749
      4.95305      0.02100      7.47550        -0.005064      0.000235     -0.002120
      3.71388      2.18686      7.46508        -0.000978      0.000487     -0.002170
      2.45794      4.38953      7.44617         0.002807     -0.006469     -0.003005
      1.23124      6.40552      7.44534         0.001073      0.000702     -0.001378
      0.10133      8.48005      7.45915        -0.001179      0.001508      0.000045
     -1.18348     10.66919      7.47272         0.000253     -0.002265     -0.000482
     -2.43976     12.82547      7.47854        -0.000328     -0.000633     -0.001850
      7.42095      0.01103      7.45582         0.004545     -0.000609     -0.001348
      6.17126      2.17737      7.45041        -0.002051     -0.000235     -0.000838
      0.03647     12.80275      7.45250         0.005426      0.001899     -0.001326
      1.24681     14.94904      7.43948         0.007638      0.001269     -0.003112
      8.63521      2.15242      7.44158         0.015731     -0.002103     -0.001398
      7.39863      4.36128      7.42890         0.004085      0.003978     -0.000385
      2.54230     12.77422      7.42609         0.001487      0.002357     -0.001849
      3.71067     14.93244      7.43822        -0.001124      0.005740     -0.003403
     11.10371      2.13685      7.44686         0.004055      0.002674     -0.002955
      9.85256      4.29389      7.44280         0.011005      0.003316     -0.003651
      8.55971      6.40258      7.41845         0.005099      0.002122     -0.000800
      4.88994     12.75809      7.41423        -0.001472      0.000563     -0.001125
      6.17096     14.93628      7.45228        -0.003002      0.000949     -0.002741
     13.56712      2.12710      7.46175        -0.006819      0.000099     -0.005816
     12.32710      4.27487      7.46398        -0.004132     -0.001081     -0.004992
     11.08690      6.42186      7.45633         0.000205     -0.000766     -0.000915
      9.85783      8.56321      7.44910         0.000394     -0.000394      0.000016
      8.66428     10.69889      7.44395         0.001513     -0.002325     -0.001284
      7.41092     12.80036      7.44338         0.000848     -0.001935      0.000125
      0.01053      1.43155      7.48056         0.000949      0.002336     -0.001904
     -1.23993      3.55338      7.48345         0.005113      0.003596     -0.003030
     -2.47638      5.69526      7.48309         0.008252      0.000906     -0.001877
     -3.68708      7.83908      7.48154         0.006154      0.002073     -0.000647
     -4.91103      9.97950      7.48498         0.008426      0.005870     -0.001422
     -6.14355     12.12156      7.48565         0.006336      0.004828     -0.001867
     -7.38225     14.25997      7.48190         0.000738      0.003539     -0.000453
      2.48421      1.45482      7.47898        -0.003850      0.003796     -0.001323
      1.24456      3.58976      7.47574        -0.002320      0.003164     -0.003131
     -0.01121      5.69064      7.47392         0.002389      0.001400     -0.001965
     -1.19933      7.82856      7.47478         0.005539     -0.003443      0.000328
     -2.43166      9.96955      7.48259         0.002715      0.005392     -0.000543
     -3.67243     12.11649      7.48816         0.005085      0.005097     -0.001545
     -4.91244     14.26419      7.48491         0.008373      0.001952     -0.002674
      4.94354      1.46039      7.46404         0.004632     -0.000337     -0.002221
      3.76372      3.63379      7.44535         0.002000      0.002086     -0.003447
      0.09519      9.98950      7.45895        -0.001787      0.000932     -0.000421
     -1.19813     12.09759      7.46938        -0.002518      0.000899     -0.001343
     -2.44959     14.25530      7.47079         0.000847     -0.000948     -0.002120
      7.40702      1.44359      7.44895        -0.005203      0.000348      0.000024
      6.11263      3.61932      7.43726         0.002652     -0.001289     -0.000984
      1.25623     12.03111      7.43993        -0.003249     -0.002392     -0.000709
      0.01872     14.23982      7.44817        -0.006957     -0.000974     -0.001796
      9.86891      1.42392      7.44215        -0.014935      0.005799     -0.001794
      8.61796      3.58946      7.43751        -0.015104     -0.003632     -0.001375
      2.48281     14.21582      7.43381        -0.002089     -0.003482     -0.003082
     12.33685      1.41411      7.44837         0.005485     -0.008342     -0.004103
     11.09418      3.56616      7.45136        -0.003065      0.001359     -0.003697
      9.83788      5.72201      7.43956        -0.002909     -0.000573     -0.002697
      8.55664      7.91324      7.41038        -0.001106      0.000612     -0.000009
      7.42171      9.98226      7.39442        -0.000285      0.000907      0.000582
      6.19759     11.99847      7.40715         0.000970      0.000637      0.000608
      4.94021     14.20526      7.43408         0.004135     -0.003462     -0.001847
     14.80342      1.40582      7.46531         0.006523     -0.000209     -0.004282
     13.56211      3.55597      7.47048         0.011402      0.003181     -0.006111
     12.32097      5.70586      7.46818         0.004289      0.002831     -0.003244
     11.09540      7.84874      7.46368         0.002852      0.002155      0.000218
      9.88908      9.98366      7.45916         0.003689      0.003744     -0.001673
      8.65704     12.11743      7.45691         0.000986      0.004516     -0.000553
      7.41056     14.22954      7.45856         0.002685      0.001311     -0.000407
      4.93692      4.29048      7.43282        -0.003949      0.000438     -0.002622
      1.24889     10.67793      7.44297         0.002278      0.002162      0.000273
      7.41037      8.60717      7.36593         0.001809      0.000001      0.001946
      6.22589     10.65884      7.36820         0.001009     -0.000797      0.001628
      2.42727      5.73079      7.41567        -0.001690      0.004088     -0.001914
      1.24945      7.78120      7.44141         0.001281     -0.002056      0.000008
      7.40510      5.71481      7.41641        -0.003443     -0.003697     -0.000068
      3.71703     12.10373      7.41077         0.001748     -0.000684     -0.000488
      3.60401      8.15343      8.05381        -0.019693     -0.024329     -0.007386
      4.81288      7.20373      8.00975         0.002300      0.006310     -0.008446
      4.40888      7.90875      8.54664        -0.012721      0.001718      0.155892
 -----------------------------------------------------------------------------------
    total drift:                                0.048842     -0.040532     -0.218515


--------------------------------------------------------------------------------------------------------



  FREE ENERGIE OF THE ION-ELECTRON SYSTEM (eV)
  ---------------------------------------------------
  free  energy   TOTEN  =      -820.13394529 eV

  energy  without entropy=     -820.13276653  energy(sigma->0) =     -820.13335591
 


--------------------------------------------------------------------------------------------------------


    POTLOK:  cpu time      1.8254: real time      1.9119


--------------------------------------------------------------------------------------------------------


 NEB: the previous image is higher in energy: F
 NEB: the next image is higher in energy    : T
 NEB: only next energy greater

 NEB: Tangent
 ----------------------------------------------
     -0.00329      0.00478      0.05376
     -0.00436      0.00409      0.04963
     -0.00461      0.00400      0.04792
     -0.00403      0.00428      0.05240
     -0.00320      0.00443      0.05217
     -0.00218      0.00507      0.05137
     -0.00240      0.00492      0.05216
     -0.00333      0.00411      0.03378
     -0.00387      0.00334      0.03025
     -0.00511      0.00277      0.02499
     -0.00470      0.00359      0.02703
     -0.00436      0.00419      0.03276
     -0.00309      0.00421      0.03170
     -0.00260      0.00464      0.03361
     -0.00283      0.00385      0.03403
     -0.00372      0.00311      0.03317
     -0.00499      0.00141      0.03262
     -0.00583      0.00169      0.02619
     -0.00676      0.00468      0.02582
     -0.00359      0.00365      0.02870
     -0.00266      0.00377      0.03159
     -0.00311      0.00368      0.05222
     -0.00337      0.00417      0.05054
     -0.00254      0.00329      0.05043
     -0.00325      0.00350      0.07673
     -0.00349      0.00349      0.07461
     -0.00261      0.00474      0.07588
     -0.00182      0.00325      0.07592
     -0.00367      0.00364      0.08712
     -0.00383      0.00375      0.08519
     -0.00346      0.00385      0.08426
     -0.00267      0.00490      0.09057
     -0.00242      0.00431      0.08924
     -0.00363      0.00450      0.07748
     -0.00442      0.00396      0.07502
     -0.00418      0.00412      0.07381
     -0.00343      0.00467      0.07649
     -0.00196      0.00535      0.07432
     -0.00226      0.00566      0.07635
     -0.00214      0.00612      0.07830
     -0.00396      0.00435      0.04320
     -0.00488      0.00379      0.03810
     -0.00394      0.00386      0.04074
     -0.00379      0.00411      0.04546
     -0.00269      0.00460      0.04349
     -0.00224      0.00495      0.04444
     -0.00321      0.00449      0.04492
     -0.00387      0.00351      0.02986
     -0.00496      0.00289      0.02445
     -0.00528      0.00240      0.02144
     -0.00476      0.00378      0.02699
     -0.00338      0.00409      0.02887
     -0.00274      0.00436      0.02954
     -0.00287      0.00426      0.03241
     -0.00317      0.00389      0.03826
     -0.00443      0.00225      0.04010
     -0.00420      0.00391      0.03164
     -0.00263      0.00372      0.03479
     -0.00281      0.00352      0.03812
     -0.00365      0.00362      0.05899
     -0.00366      0.00453      0.05937
     -0.00243      0.00265      0.05722
     -0.00316      0.00353      0.06033
     -0.00388      0.00369      0.08034
     -0.00345      0.00378      0.07940
     -0.00310      0.00326      0.08187
     -0.00391      0.00369      0.08574
     -0.00378      0.00382      0.08348
     -0.00333      0.00415      0.08572
     -0.00216      0.00523      0.09301
     -0.00257      0.00551      0.09739
     -0.00250      0.00599      0.09217
     -0.00345      0.00408      0.08797
     -0.00406      0.00418      0.06876
     -0.00429      0.00392      0.06672
     -0.00379      0.00436      0.06824
     -0.00280      0.00470      0.06714
     -0.00227      0.00555      0.06815
     -0.00248      0.00555      0.06956
     -0.00292      0.00540      0.06973
     -0.00471      0.00337      0.05346
     -0.00316      0.00268      0.04584
     -0.00208      0.00522      0.11196
     -0.00163      0.00689      0.10489
     -0.00571      0.00166      0.04071
     -0.00771      0.00180      0.02589
     -0.00239      0.00435      0.08332
     -0.00204      0.00375      0.08275
     -0.28878      0.11794     -0.25790
     -0.34925      0.04873     -0.21899
     -0.16040      0.25063     -0.48981

 NEB: forces: par spring, perp REAL, dneb     0.030284    0.069669    0.000000
 NEB: distance to prev, next image, angle between     1.074464    1.068407  107.753751
 NEB: projections on to tangent (spring, REAL)    -0.030284    0.000704

 stress matrix after NEB project (eV)
    -30.81429      9.88951     -0.01570
      9.88951    -41.67873      0.00098
     -0.01570      0.00098     -0.47137
  FORCES: max atom, RMS     0.029981    0.007803
  FORCE total and by dimension    0.074434    0.027983
  Stress total and by dimension   53.688591   41.678731
 OPT: skip step - force has converged


--------------------------------------------------------------------------------------------------------


  
 reached required accuracy - stopping structural energy minimisation
     LOOP+:  cpu time   1639.6187: real time   1687.2832
    4ORBIT:  cpu time      0.0000: real time      0.0000

 total amount of memory used by VASP MPI-rank0   344417. kBytes
=======================================================================

   base      :      30000. kBytes
   nonlr-proj:       8825. kBytes
   fftplans  :      49947. kBytes
   grid      :      93499. kBytes
   one-center:        559. kBytes
   wavefun   :     161587. kBytes
 
  
  
 General timing and accounting informations for this job:
 ========================================================
  
                  Total CPU time used (sec):     1660.717
                            User time (sec):     1570.239
                          System time (sec):       90.477
                         Elapsed time (sec):     1709.747
  
                   Maximum memory used (kb):      638072.
                   Average memory used (kb):          N/A
  
                          Minor page faults:        55335
                          Major page faults:            0
                 Voluntary context switches:         2081
