<?xml version="1.0" encoding="ISO-8859-1"?>
<modeling>
 <generator>
  <i name="program" type="string">vasp </i>
  <i name="version" type="string">6.4.2  </i>
  <i name="subversion" type="string">20Jul23 (build Aug 26 2025 15:10:52) complex                          parallel </i>
  <i name="platform" type="string">LinuxIFC </i>
  <i name="date" type="string">2025 11 27 </i>
  <i name="time" type="string">11:30:10 </i>
 </generator>
 <incar>
  <i type="int" name="ISTART">     0</i>
  <i type="string" name="ALGO">Normal</i>
  <i type="logical" name="ADDGRID"> T  </i>
  <i type="int" name="ISPIN">     2</i>
  <i type="int" name="IMIX">     4</i>
  <i name="AMIX">      0.20000000</i>
  <i name="BMIX">      0.00010000</i>
  <i name="AMIX_MAG">      0.80000000</i>
  <i name="BMIX_MAG">      0.00010000</i>
  <i type="int" name="ICHARG">     2</i>
  <i type="int" name="NELM">   200</i>
  <i type="int" name="IBRION">     3</i>
  <i name="EDIFF">      0.00000100</i>
  <i name="EDIFFG">     -0.03000000</i>
  <i type="int" name="NSW">   300</i>
  <i type="int" name="ISIF">     2</i>
  <i type="int" name="ISYM">     0</i>
  <i name="ENCUT">    520.00000000</i>
  <i name="POTIM">      0.00000000</i>
  <v name="MAGMOM">      0.00000000      0.00000000      0.00000000      0.00000000      0.00000000      0.00000000      0.00000000      0.00000000      0.00000000      0.00000000      0.00000000      0.00000000      0.00000000      0.00000000      0.00000000      0.00000000      0.00000000      0.00000000      0.00000000      0.00000000
      0.00000000      0.00000000      0.00000000      0.00000000      0.00000000      0.00000000      0.00000000      0.00000000      0.00000000      0.00000000      0.00000000      0.00000000      0.00000000      0.00000000      0.00000000      0.00000000      0.00000000      0.00000000      0.00000000      0.00000000
      0.00000000      0.00000000      0.00000000      0.00000000      0.00000000      0.00000000      0.00000000      0.00000000      0.00000000      0.00000000      0.00000000      0.00000000      0.00000000      0.00000000      0.00000000      0.00000000      0.00000000      0.00000000      0.00000000      0.00000000
      0.00000000      0.00000000      0.00000000      0.00000000      0.00000000      0.00000000      0.00000000      0.00000000      0.00000000      0.00000000      0.00000000      0.00000000      0.00000000      0.00000000      0.00000000      0.00000000      0.00000000      0.00000000      0.00000000      0.00000000
      0.00000000      0.00000000      0.00000000      0.00000000      0.00000000      0.00000000      0.00000000      0.00000000      0.00000000      0.00000000      0.00000000</v>
  <i type="string" name="LREAL">Auto</i>
  <i type="int" name="ISMEAR">     0</i>
  <i name="SIGMA">      0.05000000</i>
  <i type="logical" name="LWAVE"> F  </i>
  <i type="logical" name="LCHARG"> F  </i>
  <i type="logical" name="LASPH"> T  </i>
  <i type="int" name="IVDW">    12</i>
  <i name="SPRING">     -5.00000000</i>
 </incar>
 <primitive_cell>
  <structure name="primitive_cell" >
   <crystal>
    <varray name="basis" >
     <v>      17.27103806       0.00000000       0.00000000 </v>
     <v>      -8.63551903      14.95715771       0.00000000 </v>
     <v>       0.00000000       0.00000000      15.00000000 </v>
    </varray>
    <i name="volume">   3874.88459904 </i>
    <varray name="rec_basis" >
     <v>       0.05790040       0.03342881       0.00000000 </v>
     <v>       0.00000000       0.06685762       0.00000000 </v>
     <v>       0.00000000       0.00000000       0.06666667 </v>
    </varray>
   </crystal>
   <varray name="positions" >
    <v>       0.00055587       0.00008961       0.49830802 </v>
    <v>       0.99977204       0.14241089       0.49855717 </v>
    <v>       0.99954154       0.28545634       0.49872903 </v>
    <v>       0.99980147       0.42870011       0.49859708 </v>
    <v>       0.00062554       0.57180245       0.49857649 </v>
    <v>       0.00201564       0.71510032       0.49863769 </v>
    <v>       0.00201976       0.85825848       0.49854430 </v>
    <v>       0.14491707       0.00186965       0.49898503 </v>
    <v>       0.14427166       0.14445949       0.49878484 </v>
    <v>       0.14267449       0.28563966       0.49869827 </v>
    <v>       0.14270486       0.42838835       0.49866813 </v>
    <v>       0.14441802       0.57115809       0.49875374 </v>
    <v>       0.14492275       0.71437926       0.49922641 </v>
    <v>       0.14491004       0.85812826       0.49929802 </v>
    <v>       0.28748587       0.00140415       0.49836671 </v>
    <v>       0.28813926       0.14620841       0.49767175 </v>
    <v>       0.28905243       0.29347330       0.49641137 </v>
    <v>       0.28541809       0.42825783       0.49635600 </v>
    <v>       0.28934506       0.56695575       0.49727699 </v>
    <v>       0.28813448       0.71331677       0.49818166 </v>
    <v>       0.28747705       0.85748076       0.49856954 </v>
    <v>       0.43004482       0.00073773       0.49705451 </v>
    <v>       0.43010519       0.14557377       0.49669368 </v>
    <v>       0.43009221       0.85596164       0.49683366 </v>
    <v>       0.57191952       0.99945713       0.49596537 </v>
    <v>       0.57193514       0.14390583       0.49610546 </v>
    <v>       0.57417582       0.29158448       0.49526014 </v>
    <v>       0.57422696       0.85405385       0.49507290 </v>
    <v>       0.71402307       0.99834739       0.49588102 </v>
    <v>       0.71434145       0.14286447       0.49645721 </v>
    <v>       0.71400654       0.28707907       0.49618680 </v>
    <v>       0.70964141       0.42806100       0.49456346 </v>
    <v>       0.70961716       0.85297528       0.49428229 </v>
    <v>       0.85660274       0.99860396       0.49681863 </v>
    <v>       0.85664787       0.14221268       0.49745003 </v>
    <v>       0.85664779       0.28580791       0.49759897 </v>
    <v>       0.85661110       0.42935022       0.49708839 </v>
    <v>       0.85703037       0.57251574       0.49660691 </v>
    <v>       0.85931647       0.71530223       0.49626309 </v>
    <v>       0.85699571       0.85580130       0.49622542 </v>
    <v>       0.04846458       0.09570972       0.49870391 </v>
    <v>       0.04699295       0.23757022       0.49889691 </v>
    <v>       0.04700253       0.38077166       0.49887267 </v>
    <v>       0.04856786       0.52410246       0.49876922 </v>
    <v>       0.04925206       0.66720555       0.49899873 </v>
    <v>       0.04949530       0.81041879       0.49904302 </v>
    <v>       0.04925840       0.95338757       0.49879316 </v>
    <v>       0.19246964       0.09726565       0.49859898 </v>
    <v>       0.19206220       0.24000278       0.49838239 </v>
    <v>       0.18958194       0.38046242       0.49826142 </v>
    <v>       0.19225768       0.52339867       0.49831837 </v>
    <v>       0.19247641       0.66654043       0.49883915 </v>
    <v>       0.19240485       0.81007988       0.49921089 </v>
    <v>       0.19240294       0.95366979       0.49899375 </v>
    <v>       0.33505190       0.09763825       0.49760273 </v>
    <v>       0.33939422       0.24294683       0.49635636 </v>
    <v>       0.33944841       0.66787420       0.49726306 </v>
    <v>       0.33503610       0.80881638       0.49795857 </v>
    <v>       0.33470556       0.95307576       0.49805254 </v>
    <v>       0.47712668       0.09651473       0.49659692 </v>
    <v>       0.47491333       0.24197895       0.49581731 </v>
    <v>       0.47492199       0.80437155       0.49599543 </v>
    <v>       0.47710414       0.95204052       0.49654453 </v>
    <v>       0.61901397       0.09520003       0.49614339 </v>
    <v>       0.61897499       0.23998309       0.49583424 </v>
    <v>       0.61897356       0.95043626       0.49558728 </v>
    <v>       0.76158016       0.09454374       0.49655798 </v>
    <v>       0.76157029       0.23842511       0.49675710 </v>
    <v>       0.76089715       0.38255993       0.49597080 </v>
    <v>       0.75996290       0.52906030       0.49402510 </v>
    <v>       0.76341504       0.66739028       0.49296121 </v>
    <v>       0.75993784       0.80218927       0.49381032 </v>
    <v>       0.76090484       0.94972998       0.49560509 </v>
    <v>       0.90411886       0.09399000       0.49768705 </v>
    <v>       0.90412350       0.23774373       0.49803226 </v>
    <v>       0.90412917       0.38148032       0.49787854 </v>
    <v>       0.90480216       0.52474824       0.49757853 </v>
    <v>       0.90632346       0.66748387       0.49727764 </v>
    <v>       0.90631735       0.81014261       0.49712730 </v>
    <v>       0.90475092       0.95135292       0.49723727 </v>
    <v>       0.42927523       0.28685117       0.49552115 </v>
    <v>       0.42926185       0.71390119       0.49619777 </v>
    <v>       0.71679095       0.57545465       0.49106233 </v>
    <v>       0.71679418       0.71262499       0.49121327 </v>
    <v>       0.33211313       0.38314672       0.49437806 </v>
    <v>       0.33245991       0.52023282       0.49609383 </v>
    <v>       0.61979760       0.38207850       0.49442750 </v>
    <v>       0.61983061       0.80922672       0.49405160 </v>
    <v>       0.48123295       0.54511912       0.53692071 </v>
    <v>       0.51947955       0.48162415       0.53398302 </v>
    <v>       0.51965591       0.52876045       0.56977594 </v>
   </varray>
  </structure>
  <varray name="primitive_index" >
   <v type="int" >        1 </v>
   <v type="int" >        2 </v>
   <v type="int" >        3 </v>
   <v type="int" >        4 </v>
   <v type="int" >        5 </v>
   <v type="int" >        6 </v>
   <v type="int" >        7 </v>
   <v type="int" >        8 </v>
   <v type="int" >        9 </v>
   <v type="int" >       10 </v>
   <v type="int" >       11 </v>
   <v type="int" >       12 </v>
   <v type="int" >       13 </v>
   <v type="int" >       14 </v>
   <v type="int" >       15 </v>
   <v type="int" >       16 </v>
   <v type="int" >       17 </v>
   <v type="int" >       18 </v>
   <v type="int" >       19 </v>
   <v type="int" >       20 </v>
   <v type="int" >       21 </v>
   <v type="int" >       22 </v>
   <v type="int" >       23 </v>
   <v type="int" >       24 </v>
   <v type="int" >       25 </v>
   <v type="int" >       26 </v>
   <v type="int" >       27 </v>
   <v type="int" >       28 </v>
   <v type="int" >       29 </v>
   <v type="int" >       30 </v>
   <v type="int" >       31 </v>
   <v type="int" >       32 </v>
   <v type="int" >       33 </v>
   <v type="int" >       34 </v>
   <v type="int" >       35 </v>
   <v type="int" >       36 </v>
   <v type="int" >       37 </v>
   <v type="int" >       38 </v>
   <v type="int" >       39 </v>
   <v type="int" >       40 </v>
   <v type="int" >       41 </v>
   <v type="int" >       42 </v>
   <v type="int" >       43 </v>
   <v type="int" >       44 </v>
   <v type="int" >       45 </v>
   <v type="int" >       46 </v>
   <v type="int" >       47 </v>
   <v type="int" >       48 </v>
   <v type="int" >       49 </v>
   <v type="int" >       50 </v>
   <v type="int" >       51 </v>
   <v type="int" >       52 </v>
   <v type="int" >       53 </v>
   <v type="int" >       54 </v>
   <v type="int" >       55 </v>
   <v type="int" >       56 </v>
   <v type="int" >       57 </v>
   <v type="int" >       58 </v>
   <v type="int" >       59 </v>
   <v type="int" >       60 </v>
   <v type="int" >       61 </v>
   <v type="int" >       62 </v>
   <v type="int" >       63 </v>
   <v type="int" >       64 </v>
   <v type="int" >       65 </v>
   <v type="int" >       66 </v>
   <v type="int" >       67 </v>
   <v type="int" >       68 </v>
   <v type="int" >       69 </v>
   <v type="int" >       70 </v>
   <v type="int" >       71 </v>
   <v type="int" >       72 </v>
   <v type="int" >       73 </v>
   <v type="int" >       74 </v>
   <v type="int" >       75 </v>
   <v type="int" >       76 </v>
   <v type="int" >       77 </v>
   <v type="int" >       78 </v>
   <v type="int" >       79 </v>
   <v type="int" >       80 </v>
   <v type="int" >       81 </v>
   <v type="int" >       82 </v>
   <v type="int" >       83 </v>
   <v type="int" >       84 </v>
   <v type="int" >       85 </v>
   <v type="int" >       86 </v>
   <v type="int" >       87 </v>
   <v type="int" >       88 </v>
   <v type="int" >       89 </v>
   <v type="int" >       90 </v>
   <v type="int" >       91 </v>
  </varray>
 </primitive_cell>
 <kpoints>
  <generation param="Gamma">
   <v type="int" name="divisions">       2        2        1 </v>
   <v name="usershift">      0.00000000       0.00000000       0.00000000 </v>
   <v name="genvec1">      0.50000000       0.00000000       0.00000000 </v>
   <v name="genvec2">      0.00000000       0.50000000       0.00000000 </v>
   <v name="genvec3">      0.00000000       0.00000000       1.00000000 </v>
   <v name="shift">      0.00000000       0.00000000       0.00000000 </v>
  </generation>
  <varray name="kpointlist" >
   <v>       0.00000000       0.00000000       0.00000000 </v>
   <v>       0.50000000       0.00000000       0.00000000 </v>
   <v>       0.00000000       0.50000000       0.00000000 </v>
   <v>       0.50000000       0.50000000       0.00000000 </v>
  </varray>
  <varray name="weights" >
   <v>       0.25000000 </v>
   <v>       0.25000000 </v>
   <v>       0.25000000 </v>
   <v>       0.25000000 </v>
  </varray>
 </kpoints>
 <parameters>
  <separator name="general" >
   <i type="string" name="SYSTEM">unknown system</i>
   <i type="logical" name="LCOMPAT"> F  </i>
  </separator>
  <separator name="electronic" >
   <i type="string" name="PREC">normal</i>
   <i name="ENMAX">    520.00000000</i>
   <i name="ENAUG">    644.87300000</i>
   <i name="EDIFF">      0.00000100</i>
   <i type="int" name="IALGO">    38</i>
   <i type="int" name="IWAVPR">    11</i>
   <i type="int" name="NBANDS">   240</i>
   <i type="int" name="NBANDSLOW">    -1</i>
   <i type="int" name="NBANDSHIGH">    -1</i>
   <i name="NELECT">    368.00000000</i>
   <i type="int" name="TURBO">     0</i>
   <i type="int" name="IRESTART">     0</i>
   <i type="int" name="NREBOOT">     0</i>
   <i type="int" name="NMIN">     0</i>
   <i name="EREF">      0.00000000</i>
   <separator name="electronic smearing" >
    <i type="int" name="ISMEAR">     0</i>
    <i name="SIGMA">      0.05000000</i>
    <i name="KSPACING">      0.50000000</i>
    <i type="logical" name="KGAMMA"> T  </i>
    <i type="logical" name="KBLOWUP"> T  </i>
   </separator>
   <separator name="electronic projectors" >
    <i type="logical" name="LREAL"> T  </i>
    <v name="ROPT">     -0.00050000     -0.00050000     -0.00050000     -0.00050000</v>
    <i type="int" name="LMAXPAW">  -100</i>
    <i type="int" name="LMAXMIX">     2</i>
    <i type="logical" name="NLSPLINE"> F  </i>
   </separator>
   <separator name="electronic startup" >
    <i type="int" name="ISTART">     0</i>
    <i type="int" name="ICHARG">     2</i>
    <i type="int" name="INIWAV">     1</i>
   </separator>
   <separator name="electronic spin" >
    <i type="int" name="ISPIN">     2</i>
    <i type="logical" name="LNONCOLLINEAR"> F  </i>
    <v name="MAGMOM">      0.00000000      0.00000000      0.00000000      0.00000000      0.00000000      0.00000000      0.00000000      0.00000000      0.00000000      0.00000000      0.00000000      0.00000000      0.00000000      0.00000000      0.00000000      0.00000000      0.00000000      0.00000000      0.00000000      0.00000000
      0.00000000      0.00000000      0.00000000      0.00000000      0.00000000      0.00000000      0.00000000      0.00000000      0.00000000      0.00000000      0.00000000      0.00000000      0.00000000      0.00000000      0.00000000      0.00000000      0.00000000      0.00000000      0.00000000      0.00000000
      0.00000000      0.00000000      0.00000000      0.00000000      0.00000000      0.00000000      0.00000000      0.00000000      0.00000000      0.00000000      0.00000000      0.00000000      0.00000000      0.00000000      0.00000000      0.00000000      0.00000000      0.00000000      0.00000000      0.00000000
      0.00000000      0.00000000      0.00000000      0.00000000      0.00000000      0.00000000      0.00000000      0.00000000      0.00000000      0.00000000      0.00000000      0.00000000      0.00000000      0.00000000      0.00000000      0.00000000      0.00000000      0.00000000      0.00000000      0.00000000
      0.00000000      0.00000000      0.00000000      0.00000000      0.00000000      0.00000000      0.00000000      0.00000000      0.00000000      0.00000000      0.00000000</v>
    <i name="NUPDOWN">     -1.00000000</i>
    <i type="logical" name="LSORBIT"> F  </i>
    <v name="SAXIS">      0.00000000      0.00000000      1.00000000</v>
    <i type="logical" name="LSPIRAL"> F  </i>
    <v name="QSPIRAL">      0.00000000      0.00000000      0.00000000</v>
    <i type="logical" name="LZEROZ"> F  </i>
   </separator>
   <separator name="electronic exchange-correlation" >
    <i type="logical" name="LASPH"> T  </i>
    <i type="logical" name="LMETAGGA"> F  </i>
   </separator>
   <separator name="electronic convergence" >
    <i type="int" name="NELM">   200</i>
    <i type="int" name="NELMDL">    -5</i>
    <i type="int" name="NELMIN">     2</i>
    <i name="ENINI">    520.00000000</i>
    <separator name="electronic convergence detail" >
     <i type="logical" name="LDIAG"> T  </i>
     <i type="logical" name="LSUBROT"> F  </i>
     <i name="WEIMIN">      0.00100000</i>
     <i name="EBREAK">      0.00000000</i>
     <i name="DEPER">      0.30000000</i>
     <i type="int" name="NRMM">     4</i>
     <i name="TIME">      0.40000000</i>
    </separator>
   </separator>
   <separator name="electronic mixer" >
    <i name="AMIX">      0.20000000</i>
    <i name="BMIX">      0.00010000</i>
    <i name="AMIN">      0.10000000</i>
    <i name="AMIX_MAG">      0.80000000</i>
    <i name="BMIX_MAG">      0.00010000</i>
    <separator name="electronic mixer details" >
     <i type="int" name="IMIX">     4</i>
     <i type="logical" name="MIXFIRST"> F  </i>
     <i type="int" name="MAXMIX">   -45</i>
     <i name="WC">    100.00000000</i>
     <i type="int" name="INIMIX">     1</i>
     <i type="int" name="MIXPRE">     1</i>
     <i type="int" name="MREMOVE">     5</i>
    </separator>
   </separator>
   <separator name="electronic dipolcorrection" >
    <i type="logical" name="LDIPOL"> F  </i>
    <i type="logical" name="LMONO"> F  </i>
    <i type="int" name="IDIPOL">     0</i>
    <i name="EPSILON">      1.00000000</i>
    <v name="DIPOL">   -100.00000000   -100.00000000   -100.00000000</v>
    <i name="EFIELD">      0.00000000</i>
   </separator>
  </separator>
  <separator name="grids" >
   <i type="int" name="NGX">    96</i>
   <i type="int" name="NGY">    96</i>
   <i type="int" name="NGZ">    84</i>
   <i type="int" name="NGXF">   192</i>
   <i type="int" name="NGYF">   192</i>
   <i type="int" name="NGZF">   168</i>
   <i type="logical" name="ADDGRID"> T  </i>
  </separator>
  <separator name="ionic" >
   <i type="int" name="NSW">   300</i>
   <i type="int" name="IBRION">     3</i>
   <i type="int" name="MDALGO">     0</i>
   <i type="int" name="ISIF">     2</i>
   <i name="PSTRESS">      0.00000000</i>
   <i name="EDIFFG">     -0.03000000</i>
   <i type="int" name="NFREE">     0</i>
   <i name="POTIM">      0.00000000</i>
   <i name="SMASS">     -3.00000000</i>
   <i name="SCALEE">      1.00000000</i>
  </separator>
  <separator name="ionic md" >
   <i name="TEBEG">      0.00010000</i>
   <i name="TEEND">      0.00010000</i>
   <i type="int" name="NBLOCK">     1</i>
   <i type="int" name="KBLOCK">   300</i>
   <i type="int" name="NPACO">   256</i>
   <i name="APACO">     10.00000000</i>
  </separator>
  <separator name="symmetry" >
   <i type="int" name="ISYM">     0</i>
   <i name="SYMPREC">      0.00001000</i>
  </separator>
  <separator name="dos" >
   <i type="int" name="LORBIT">     0</i>
   <v name="RWIGS">     -1.00000000     -1.00000000     -1.00000000     -1.00000000</v>
   <i type="int" name="NEDOS">   301</i>
   <i name="EMIN">     10.00000000</i>
   <i name="EMAX">    -10.00000000</i>
   <i name="EFERMI">      0.00000000</i>
  </separator>
  <separator name="writing" >
   <i type="int" name="NWRITE">     2</i>
   <i type="logical" name="LWAVE"> F  </i>
   <i type="logical" name="LDOWNSAMPLE"> F  </i>
   <i type="logical" name="LCHARG"> F  </i>
   <i type="logical" name="LPARD"> F  </i>
   <i type="logical" name="LVTOT"> F  </i>
   <i type="logical" name="LVHAR"> F  </i>
   <i type="logical" name="LELF"> F  </i>
   <i type="logical" name="LOPTICS"> F  </i>
   <v name="STM">      0.00000000      0.00000000      0.00000000      0.00000000      0.00000000      0.00000000      0.00000000</v>
  </separator>
  <separator name="performance" >
   <i type="int" name="NPAR">    20</i>
   <i type="int" name="NSIM">     4</i>
   <i type="int" name="NBLK">    -1</i>
   <i type="logical" name="LPLANE"> T  </i>
   <i type="logical" name="LSCALAPACK"> T  </i>
   <i type="logical" name="LSCAAWARE"> F  </i>
   <i type="logical" name="LSCALU"> F  </i>
   <i type="logical" name="LASYNC"> F  </i>
   <i type="logical" name="LORBITALREAL"> F  </i>
  </separator>
  <separator name="miscellaneous" >
   <i type="int" name="IDIOT">     3</i>
   <i type="int" name="PHON_NSTRUCT">    -1</i>
   <i type="logical" name="LMUSIC"> F  </i>
   <v name="POMASS">     12.01100000     14.00100000      1.00000000     16.00000000</v>
   <v name="DARWINR">      0.00000000      0.00000000      0.00000000      0.00000000</v>
   <v name="DARWINV">      1.00000000      1.00000000      1.00000000      1.00000000</v>
   <i type="logical" name="LCORR"> T  </i>
  </separator>
  <i type="logical" name="GGA_COMPAT"> T  </i>
  <i type="logical" name="LBERRY"> F  </i>
  <i type="int" name="ICORELEVEL">     0</i>
  <i type="logical" name="LDAU"> F  </i>
  <i type="int" name="I_CONSTRAINED_M">     0</i>
  <separator name="electronic exchange-correlation" >
   <i type="string" name="GGA">--</i>
   <i type="int" name="VOSKOWN">     0</i>
   <i type="logical" name="LHFCALC"> F  </i>
   <i type="string" name="PRECFOCK"></i>
   <i type="logical" name="LSYMGRAD"> F  </i>
   <i type="logical" name="LHFONE"> F  </i>
   <i type="logical" name="LRHFCALC"> F  </i>
   <i type="logical" name="LTHOMAS"> F  </i>
   <i type="logical" name="LMODELHF"> F  </i>
   <i type="logical" name="LFOCKACE"> F  </i>
   <i name="ENCUT4O">     -1.00000000</i>
   <i type="int" name="EXXOEP">     0</i>
   <i type="int" name="FOURORBIT">     0</i>
   <i name="AEXX">      0.00000000</i>
   <i name="HFALPHA">      0.00000000</i>
   <i name="MCALPHA">      0.00000000</i>
   <i name="ALDAX">      1.00000000</i>
   <i name="AGGAX">      1.00000000</i>
   <i name="ALDAC">      1.00000000</i>
   <i name="AGGAC">      1.00000000</i>
   <i type="int" name="NKREDX">     1</i>
   <i type="int" name="NKREDY">     1</i>
   <i type="int" name="NKREDZ">     1</i>
   <i type="logical" name="SHIFTRED"> F  </i>
   <i type="logical" name="ODDONLY"> F  </i>
   <i type="logical" name="EVENONLY"> F  </i>
   <i type="int" name="LMAXFOCK">     0</i>
   <i type="int" name="NMAXFOCKAE">     0</i>
   <i type="logical" name="LFOCKAEDFT"> F  </i>
   <i name="HFSCREEN">      0.00000000</i>
   <i name="HFSCREENC">      0.00000000</i>
   <i type="int" name="NBANDSGWLOW">     0</i>
  </separator>
  <separator name="vdW DFT" >
   <i type="logical" name="LUSE_VDW"> F  </i>
   <i type="int" name="IVDW_NL">     1</i>
   <i type="logical" name="LSPIN_VDW"> F  </i>
   <i name="Zab_VDW">     -0.84910000</i>
   <i name="PARAM1">      0.12340000</i>
   <i name="PARAM2">      1.00000000</i>
   <i name="PARAM3">      0.00000000</i>
  </separator>
  <separator name="model GW" >
   <i type="int" name="MODEL_GW">     0</i>
   <i name="MODEL_EPS0">     25.54868966</i>
   <i name="MODEL_ALPHA">      1.00000000</i>
  </separator>
  <separator name="linear response parameters" >
   <i type="logical" name="LEPSILON"> F  </i>
   <i type="logical" name="LRPA"> F  </i>
   <i type="logical" name="LNABLA"> F  </i>
   <i type="logical" name="LVEL"> F  </i>
   <i name="CSHIFT">      0.10000000</i>
   <i name="OMEGAMAX">     -1.00000000</i>
   <i name="DEG_THRESHOLD">      0.00200000</i>
   <i name="RTIME">     -0.10000000</i>
   <i name="WPLASMAI">      0.00000000</i>
   <v name="DFIELD">      0.00000000      0.00000000      0.00000000</v>
   <v name="WPLASMA">      0.00000000      0.00000000      0.00000000      0.00000000      0.00000000      0.00000000      0.00000000      0.00000000      0.00000000</v>
  </separator>
  <separator name="orbital magnetization" >
   <i type="logical" name="NUCIND"> F  </i>
   <v name="MAGPOS">      0.00000000      0.00000000      0.00000000</v>
   <i type="logical" name="LNICSALL"> T  </i>
   <i type="logical" name="ORBITALMAG"> F  </i>
   <i type="logical" name="LMAGBLOCH"> F  </i>
   <i type="logical" name="LCHIMAG"> F  </i>
   <i type="logical" name="LGAUGE"> T  </i>
   <i type="int" name="MAGATOM">     0</i>
   <v name="MAGDIPOL">      0.00000000      0.00000000      0.00000000</v>
   <v name="AVECCONST">      0.00000000      0.00000000      0.00000000</v>
  </separator>
  <separator name="response functions" >
   <i type="logical" name="LALL_IN_ONE"> F  </i>
   <i type="int" name="IALL_IN_ONE">    -1</i>
   <i type="int" name="NBANDS_WAVE">    -1</i>
   <i type="logical" name="LFINITE_TEMPERATURE"> F  </i>
   <i type="logical" name="LADDER"> F  </i>
   <i type="logical" name="LRPAFORCE"> F  </i>
   <i type="logical" name="LFXC"> F  </i>
   <i type="logical" name="LHARTREE"> T  </i>
   <i type="int" name="IBSE">     0</i>
   <v type="int" name="KPOINT">    -1     0     0     0</v>
   <i type="logical" name="LTCTC"> F  </i>
   <i type="logical" name="LTCTE"> F  </i>
   <i type="logical" name="LTETE"> F  </i>
   <i type="logical" name="LTRIPLET"> F  </i>
   <i type="logical" name="LFXCEPS"> F  </i>
   <i type="logical" name="LFXHEG"> F  </i>
   <i type="int" name="NATURALO">     2</i>
   <i type="logical" name="LHOLEGF"> F  </i>
   <i type="logical" name="L2ORDER"> F  </i>
   <i type="logical" name="LDMP1"> F  </i>
   <i type="logical" name="LMP2LT"> F  </i>
   <i type="logical" name="LSMP2LT"> F  </i>
   <i type="logical" name="LGWLF"> F  </i>
   <i name="ENCUTGW">     -1.60000002</i>
   <i name="ENCUTGWSOFT">     -1.60000002</i>
   <i name="ENCUTLF">     -1.00000000</i>
   <i type="logical" name="LESF_SPLINES"> F  </i>
   <i type="int" name="LMAXMP2">    -1</i>
   <i name="SCISSOR">      0.00000000</i>
   <i type="int" name="NOMEGA">     0</i>
   <i type="int" name="NOMEGAR">     0</i>
   <i type="int" name="NBANDSGW">    -1</i>
   <i type="int" name="NBANDSO">    -1</i>
   <i type="int" name="NBANDSV">    -1</i>
   <i type="int" name="NELMGW">     1</i>
   <i type="int" name="NELMHF">     1</i>
   <i type="int" name="DIM">     3</i>
   <i type="int" name="IESPILON">     4</i>
   <i type="int" name="ANTIRES">     0</i>
   <i name="OMEGAMAX">    -30.00000000</i>
   <i name="OMEGAMIN">    -30.00000000</i>
   <i name="OMEGATL">   -200.00000000</i>
   <i type="int" name="OMEGAGRID">     0</i>
   <i name="CSHIFT">     -0.10000000</i>
   <i type="logical" name="LSELFENERGY"> F  </i>
   <i type="logical" name="LSPECTRAL"> F  </i>
   <i type="logical" name="LSPECTRALGW"> F  </i>
   <i type="logical" name="LSINGLES"> F  </i>
   <i type="logical" name="LFERMIGW"> F  </i>
   <i type="logical" name="ODDONLYGW"> F  </i>
   <i type="logical" name="EVENONLYGW"> F  </i>
   <i type="int" name="NKREDLFX">     1</i>
   <i type="int" name="NKREDLFY">     1</i>
   <i type="int" name="NKREDLFZ">     1</i>
   <i type="int" name="MAXMEM">  2800</i>
   <i type="int" name="TELESCOPE">     0</i>
   <i type="int" name="NTAUPAR">    -1</i>
   <i type="int" name="NOMEGAPAR">    -1</i>
   <i name="DAMP_NEWTON">      0.80000001</i>
   <i name="LAMBDA">      1.00000000</i>
  </separator>
  <separator name="External order field" >
   <i name="OFIELD_KAPPA">      0.00000000</i>
   <v name="OFIELD_K">      0.00000000      0.00000000      0.00000000</v>
   <i name="OFIELD_Q6_NEAR">      0.00000000</i>
   <i name="OFIELD_Q6_FAR">      0.00000000</i>
   <i name="OFIELD_A">      0.00000000</i>
  </separator>
  <separator name="optional k-points parameters" >
   <i type="int" name="KPOINTS_OPT_MODE">     1</i>
   <i type="logical" name="LKPOINTS_OPT"> F  </i>
  </separator>
 </parameters>
 <atominfo>
  <atoms>      91 </atoms>
  <types>       4 </types>
  <array name="atoms" >
   <dimension dim="1">ion</dimension>
   <field type="string">element</field>
   <field type="int">atomtype</field>
   <set>
    <rc><c>C </c><c>   1</c></rc>
    <rc><c>C </c><c>   1</c></rc>
    <rc><c>C </c><c>   1</c></rc>
    <rc><c>C </c><c>   1</c></rc>
    <rc><c>C </c><c>   1</c></rc>
    <rc><c>C </c><c>   1</c></rc>
    <rc><c>C </c><c>   1</c></rc>
    <rc><c>C </c><c>   1</c></rc>
    <rc><c>C </c><c>   1</c></rc>
    <rc><c>C </c><c>   1</c></rc>
    <rc><c>C </c><c>   1</c></rc>
    <rc><c>C </c><c>   1</c></rc>
    <rc><c>C </c><c>   1</c></rc>
    <rc><c>C </c><c>   1</c></rc>
    <rc><c>C </c><c>   1</c></rc>
    <rc><c>C </c><c>   1</c></rc>
    <rc><c>C </c><c>   1</c></rc>
    <rc><c>C </c><c>   1</c></rc>
    <rc><c>C </c><c>   1</c></rc>
    <rc><c>C </c><c>   1</c></rc>
    <rc><c>C </c><c>   1</c></rc>
    <rc><c>C </c><c>   1</c></rc>
    <rc><c>C </c><c>   1</c></rc>
    <rc><c>C </c><c>   1</c></rc>
    <rc><c>C </c><c>   1</c></rc>
    <rc><c>C </c><c>   1</c></rc>
    <rc><c>C </c><c>   1</c></rc>
    <rc><c>C </c><c>   1</c></rc>
    <rc><c>C </c><c>   1</c></rc>
    <rc><c>C </c><c>   1</c></rc>
    <rc><c>C </c><c>   1</c></rc>
    <rc><c>C </c><c>   1</c></rc>
    <rc><c>C </c><c>   1</c></rc>
    <rc><c>C </c><c>   1</c></rc>
    <rc><c>C </c><c>   1</c></rc>
    <rc><c>C </c><c>   1</c></rc>
    <rc><c>C </c><c>   1</c></rc>
    <rc><c>C </c><c>   1</c></rc>
    <rc><c>C </c><c>   1</c></rc>
    <rc><c>C </c><c>   1</c></rc>
    <rc><c>C </c><c>   1</c></rc>
    <rc><c>C </c><c>   1</c></rc>
    <rc><c>C </c><c>   1</c></rc>
    <rc><c>C </c><c>   1</c></rc>
    <rc><c>C </c><c>   1</c></rc>
    <rc><c>C </c><c>   1</c></rc>
    <rc><c>C </c><c>   1</c></rc>
    <rc><c>C </c><c>   1</c></rc>
    <rc><c>C </c><c>   1</c></rc>
    <rc><c>C </c><c>   1</c></rc>
    <rc><c>C </c><c>   1</c></rc>
    <rc><c>C </c><c>   1</c></rc>
    <rc><c>C </c><c>   1</c></rc>
    <rc><c>C </c><c>   1</c></rc>
    <rc><c>C </c><c>   1</c></rc>
    <rc><c>C </c><c>   1</c></rc>
    <rc><c>C </c><c>   1</c></rc>
    <rc><c>C </c><c>   1</c></rc>
    <rc><c>C </c><c>   1</c></rc>
    <rc><c>C </c><c>   1</c></rc>
    <rc><c>C </c><c>   1</c></rc>
    <rc><c>C </c><c>   1</c></rc>
    <rc><c>C </c><c>   1</c></rc>
    <rc><c>C </c><c>   1</c></rc>
    <rc><c>C </c><c>   1</c></rc>
    <rc><c>C </c><c>   1</c></rc>
    <rc><c>C </c><c>   1</c></rc>
    <rc><c>C </c><c>   1</c></rc>
    <rc><c>C </c><c>   1</c></rc>
    <rc><c>C </c><c>   1</c></rc>
    <rc><c>C </c><c>   1</c></rc>
    <rc><c>C </c><c>   1</c></rc>
    <rc><c>C </c><c>   1</c></rc>
    <rc><c>C </c><c>   1</c></rc>
    <rc><c>C </c><c>   1</c></rc>
    <rc><c>C </c><c>   1</c></rc>
    <rc><c>C </c><c>   1</c></rc>
    <rc><c>C </c><c>   1</c></rc>
    <rc><c>C </c><c>   1</c></rc>
    <rc><c>C </c><c>   1</c></rc>
    <rc><c>N </c><c>   2</c></rc>
    <rc><c>N </c><c>   2</c></rc>
    <rc><c>N </c><c>   2</c></rc>
    <rc><c>N </c><c>   2</c></rc>
    <rc><c>N </c><c>   2</c></rc>
    <rc><c>N </c><c>   2</c></rc>
    <rc><c>N </c><c>   2</c></rc>
    <rc><c>N </c><c>   2</c></rc>
    <rc><c>H </c><c>   3</c></rc>
    <rc><c>H </c><c>   3</c></rc>
    <rc><c>O </c><c>   4</c></rc>
   </set>
  </array>
  <array name="atomtypes" >
   <dimension dim="1">type</dimension>
   <field type="int">atomspertype</field>
   <field type="string">element</field>
   <field>mass</field>
   <field>valence</field>
   <field type="string">pseudopotential</field>
   <set>
    <rc><c>  80</c><c>C </c><c>     12.01100000</c><c>      4.00000000</c><c>  PAW_PBE C 08Apr2002                   </c></rc>
    <rc><c>   8</c><c>N </c><c>     14.00100000</c><c>      5.00000000</c><c>  PAW_PBE N 08Apr2002                   </c></rc>
    <rc><c>   2</c><c>H </c><c>      1.00000000</c><c>      1.00000000</c><c>  PAW_PBE H 15Jun2001                   </c></rc>
    <rc><c>   1</c><c>O </c><c>     16.00000000</c><c>      6.00000000</c><c>  PAW_PBE O 08Apr2002                   </c></rc>
   </set>
  </array>
 </atominfo>
 <structure name="initialpos" >
  <crystal>
   <varray name="basis" >
    <v>      17.27103806       0.00000000       0.00000000 </v>
    <v>      -8.63551903      14.95715771       0.00000000 </v>
    <v>       0.00000000       0.00000000      15.00000000 </v>
   </varray>
   <i name="volume">   3874.88459904 </i>
   <varray name="rec_basis" >
    <v>       0.05790040       0.03342881       0.00000000 </v>
    <v>       0.00000000       0.06685762       0.00000000 </v>
    <v>       0.00000000       0.00000000       0.06666667 </v>
   </varray>
  </crystal>
  <varray name="positions" >
   <v>       0.00055587       0.00008961       0.49830802 </v>
   <v>       0.99977204       0.14241089       0.49855717 </v>
   <v>       0.99954154       0.28545634       0.49872903 </v>
   <v>       0.99980147       0.42870011       0.49859708 </v>
   <v>       0.00062554       0.57180245       0.49857649 </v>
   <v>       0.00201564       0.71510032       0.49863769 </v>
   <v>       0.00201976       0.85825848       0.49854430 </v>
   <v>       0.14491707       0.00186965       0.49898503 </v>
   <v>       0.14427166       0.14445949       0.49878484 </v>
   <v>       0.14267449       0.28563966       0.49869827 </v>
   <v>       0.14270486       0.42838835       0.49866813 </v>
   <v>       0.14441802       0.57115809       0.49875374 </v>
   <v>       0.14492275       0.71437926       0.49922641 </v>
   <v>       0.14491004       0.85812826       0.49929802 </v>
   <v>       0.28748587       0.00140415       0.49836671 </v>
   <v>       0.28813926       0.14620841       0.49767175 </v>
   <v>       0.28905243       0.29347330       0.49641137 </v>
   <v>       0.28541809       0.42825783       0.49635600 </v>
   <v>       0.28934506       0.56695575       0.49727699 </v>
   <v>       0.28813448       0.71331677       0.49818166 </v>
   <v>       0.28747705       0.85748076       0.49856954 </v>
   <v>       0.43004482       0.00073773       0.49705451 </v>
   <v>       0.43010519       0.14557377       0.49669368 </v>
   <v>       0.43009221       0.85596164       0.49683366 </v>
   <v>       0.57191952       0.99945713       0.49596537 </v>
   <v>       0.57193514       0.14390583       0.49610546 </v>
   <v>       0.57417582       0.29158448       0.49526014 </v>
   <v>       0.57422696       0.85405385       0.49507290 </v>
   <v>       0.71402307       0.99834739       0.49588102 </v>
   <v>       0.71434145       0.14286447       0.49645721 </v>
   <v>       0.71400654       0.28707907       0.49618680 </v>
   <v>       0.70964141       0.42806100       0.49456346 </v>
   <v>       0.70961716       0.85297528       0.49428229 </v>
   <v>       0.85660274       0.99860396       0.49681863 </v>
   <v>       0.85664787       0.14221268       0.49745003 </v>
   <v>       0.85664779       0.28580791       0.49759897 </v>
   <v>       0.85661110       0.42935022       0.49708839 </v>
   <v>       0.85703037       0.57251574       0.49660691 </v>
   <v>       0.85931647       0.71530223       0.49626309 </v>
   <v>       0.85699571       0.85580130       0.49622542 </v>
   <v>       0.04846458       0.09570972       0.49870391 </v>
   <v>       0.04699295       0.23757022       0.49889691 </v>
   <v>       0.04700253       0.38077166       0.49887267 </v>
   <v>       0.04856786       0.52410246       0.49876922 </v>
   <v>       0.04925206       0.66720555       0.49899873 </v>
   <v>       0.04949530       0.81041879       0.49904302 </v>
   <v>       0.04925840       0.95338757       0.49879316 </v>
   <v>       0.19246964       0.09726565       0.49859898 </v>
   <v>       0.19206220       0.24000278       0.49838239 </v>
   <v>       0.18958194       0.38046242       0.49826142 </v>
   <v>       0.19225768       0.52339867       0.49831837 </v>
   <v>       0.19247641       0.66654043       0.49883915 </v>
   <v>       0.19240485       0.81007988       0.49921089 </v>
   <v>       0.19240294       0.95366979       0.49899375 </v>
   <v>       0.33505190       0.09763825       0.49760273 </v>
   <v>       0.33939422       0.24294683       0.49635636 </v>
   <v>       0.33944841       0.66787420       0.49726306 </v>
   <v>       0.33503610       0.80881638       0.49795857 </v>
   <v>       0.33470556       0.95307576       0.49805254 </v>
   <v>       0.47712668       0.09651473       0.49659692 </v>
   <v>       0.47491333       0.24197895       0.49581731 </v>
   <v>       0.47492199       0.80437155       0.49599543 </v>
   <v>       0.47710414       0.95204052       0.49654453 </v>
   <v>       0.61901397       0.09520003       0.49614339 </v>
   <v>       0.61897499       0.23998309       0.49583424 </v>
   <v>       0.61897356       0.95043626       0.49558728 </v>
   <v>       0.76158016       0.09454374       0.49655798 </v>
   <v>       0.76157029       0.23842511       0.49675710 </v>
   <v>       0.76089715       0.38255993       0.49597080 </v>
   <v>       0.75996290       0.52906030       0.49402510 </v>
   <v>       0.76341504       0.66739028       0.49296121 </v>
   <v>       0.75993784       0.80218927       0.49381032 </v>
   <v>       0.76090484       0.94972998       0.49560509 </v>
   <v>       0.90411886       0.09399000       0.49768705 </v>
   <v>       0.90412350       0.23774373       0.49803226 </v>
   <v>       0.90412917       0.38148032       0.49787854 </v>
   <v>       0.90480216       0.52474824       0.49757853 </v>
   <v>       0.90632346       0.66748387       0.49727764 </v>
   <v>       0.90631735       0.81014261       0.49712730 </v>
   <v>       0.90475092       0.95135292       0.49723727 </v>
   <v>       0.42927523       0.28685117       0.49552115 </v>
   <v>       0.42926185       0.71390119       0.49619777 </v>
   <v>       0.71679095       0.57545465       0.49106233 </v>
   <v>       0.71679418       0.71262499       0.49121327 </v>
   <v>       0.33211313       0.38314672       0.49437806 </v>
   <v>       0.33245991       0.52023282       0.49609383 </v>
   <v>       0.61979760       0.38207850       0.49442750 </v>
   <v>       0.61983061       0.80922672       0.49405160 </v>
   <v>       0.48123295       0.54511912       0.53692071 </v>
   <v>       0.51947955       0.48162415       0.53398302 </v>
   <v>       0.51965591       0.52876045       0.56977594 </v>
  </varray>
  <varray name="selective"  type="logical" >
   <v type="logical" >  T  T  T </v>
   <v type="logical" >  T  T  T </v>
   <v type="logical" >  T  T  T </v>
   <v type="logical" >  T  T  T </v>
   <v type="logical" >  T  T  T </v>
   <v type="logical" >  T  T  T </v>
   <v type="logical" >  T  T  T </v>
   <v type="logical" >  T  T  T </v>
   <v type="logical" >  T  T  T </v>
   <v type="logical" >  T  T  T </v>
   <v type="logical" >  T  T  T </v>
   <v type="logical" >  T  T  T </v>
   <v type="logical" >  T  T  T </v>
   <v type="logical" >  T  T  T </v>
   <v type="logical" >  T  T  T </v>
   <v type="logical" >  T  T  T </v>
   <v type="logical" >  T  T  T </v>
   <v type="logical" >  T  T  T </v>
   <v type="logical" >  T  T  T </v>
   <v type="logical" >  T  T  T </v>
   <v type="logical" >  T  T  T </v>
   <v type="logical" >  T  T  T </v>
   <v type="logical" >  T  T  T </v>
   <v type="logical" >  T  T  T </v>
   <v type="logical" >  T  T  T </v>
   <v type="logical" >  T  T  T </v>
   <v type="logical" >  T  T  T </v>
   <v type="logical" >  T  T  T </v>
   <v type="logical" >  T  T  T </v>
   <v type="logical" >  T  T  T </v>
   <v type="logical" >  T  T  T </v>
   <v type="logical" >  T  T  T </v>
   <v type="logical" >  T  T  T </v>
   <v type="logical" >  T  T  T </v>
   <v type="logical" >  T  T  T </v>
   <v type="logical" >  T  T  T </v>
   <v type="logical" >  T  T  T </v>
   <v type="logical" >  T  T  T </v>
   <v type="logical" >  T  T  T </v>
   <v type="logical" >  T  T  T </v>
   <v type="logical" >  T  T  T </v>
   <v type="logical" >  T  T  T </v>
   <v type="logical" >  T  T  T </v>
   <v type="logical" >  T  T  T </v>
   <v type="logical" >  T  T  T </v>
   <v type="logical" >  T  T  T </v>
   <v type="logical" >  T  T  T </v>
   <v type="logical" >  T  T  T </v>
   <v type="logical" >  T  T  T </v>
   <v type="logical" >  T  T  T </v>
   <v type="logical" >  T  T  T </v>
   <v type="logical" >  T  T  T </v>
   <v type="logical" >  T  T  T </v>
   <v type="logical" >  T  T  T </v>
   <v type="logical" >  T  T  T </v>
   <v type="logical" >  T  T  T </v>
   <v type="logical" >  T  T  T </v>
   <v type="logical" >  T  T  T </v>
   <v type="logical" >  T  T  T </v>
   <v type="logical" >  T  T  T </v>
   <v type="logical" >  T  T  T </v>
   <v type="logical" >  T  T  T </v>
   <v type="logical" >  T  T  T </v>
   <v type="logical" >  T  T  T </v>
   <v type="logical" >  T  T  T </v>
   <v type="logical" >  T  T  T </v>
   <v type="logical" >  T  T  T </v>
   <v type="logical" >  T  T  T </v>
   <v type="logical" >  T  T  T </v>
   <v type="logical" >  T  T  T </v>
   <v type="logical" >  T  T  T </v>
   <v type="logical" >  T  T  T </v>
   <v type="logical" >  T  T  T </v>
   <v type="logical" >  T  T  T </v>
   <v type="logical" >  T  T  T </v>
   <v type="logical" >  T  T  T </v>
   <v type="logical" >  T  T  T </v>
   <v type="logical" >  T  T  T </v>
   <v type="logical" >  T  T  T </v>
   <v type="logical" >  T  T  T </v>
   <v type="logical" >  T  T  T </v>
   <v type="logical" >  T  T  T </v>
   <v type="logical" >  T  T  T </v>
   <v type="logical" >  T  T  T </v>
   <v type="logical" >  T  T  T </v>
   <v type="logical" >  T  T  T </v>
   <v type="logical" >  T  T  T </v>
   <v type="logical" >  T  T  T </v>
   <v type="logical" >  T  T  T </v>
   <v type="logical" >  T  T  T </v>
   <v type="logical" >  T  T  F </v>
  </varray>
  <nose>
   <v>      -3.00000000       0.00000000       0.00010000       0.00010000 </v>
  </nose>
 </structure>
 <calculation>
  <scstep>
   <time name="dav">   33.77   34.91</time>
   <time name="total">   35.58   36.78</time>
   <energy>
    <i name="alphaZ">    175.06488379 </i>
    <i name="ewald">  36367.13301843 </i>
    <i name="hartreedc"> -47191.92211297 </i>
    <i name="XCdc">   1240.35510648 </i>
    <i name="pawpsdc">  10672.04303313 </i>
    <i name="pawaedc"> -10728.93979680 </i>
    <i name="eentropy">     -0.03654380 </i>
    <i name="bandstr">  -1380.57115574 </i>
    <i name="atom">  14345.53195627 </i>
    <i name="e_fr_energy">   3498.65838879 </i>
    <i name="e_wo_entrp">   3498.69493260 </i>
    <i name="e_0_energy">   3498.67666070 </i>
   </energy>
  </scstep>
  <scstep>
   <time name="dav">   43.16   44.55</time>
   <time name="total">   43.16   44.59</time>
   <energy>
    <i name="e_fr_energy">   -165.85624398 </i>
    <i name="e_wo_entrp">   -165.85618665 </i>
    <i name="e_0_energy">   -165.85621531 </i>
   </energy>
  </scstep>
  <scstep>
   <time name="dav">   36.86   38.10</time>
   <time name="total">   36.86   38.11</time>
   <energy>
    <i name="e_fr_energy">   -841.59291127 </i>
    <i name="e_wo_entrp">   -841.59291110 </i>
    <i name="e_0_energy">   -841.59291119 </i>
   </energy>
  </scstep>
  <scstep>
   <time name="dav">   36.70   38.00</time>
   <time name="total">   36.70   38.02</time>
   <energy>
    <i name="e_fr_energy">   -865.60685416 </i>
    <i name="e_wo_entrp">   -865.60685380 </i>
    <i name="e_0_energy">   -865.60685398 </i>
   </energy>
  </scstep>
  <scstep>
   <time name="dav">   41.54   43.04</time>
   <time name="total">   44.16   45.88</time>
   <energy>
    <i name="e_fr_energy">   -866.33434950 </i>
    <i name="e_wo_entrp">   -866.33434913 </i>
    <i name="e_0_energy">   -866.33434931 </i>
   </energy>
  </scstep>
  <scstep>
   <time name="dav">   34.41   36.44</time>
   <time name="total">   39.09   41.27</time>
   <energy>
    <i name="e_fr_energy">   -837.61205545 </i>
    <i name="e_wo_entrp">   -837.61205537 </i>
    <i name="e_0_energy">   -837.61205541 </i>
   </energy>
  </scstep>
  <scstep>
   <time name="dav">   35.88   37.31</time>
   <time name="total">   40.48   42.14</time>
   <energy>
    <i name="e_fr_energy">   -813.78302609 </i>
    <i name="e_wo_entrp">   -813.75337563 </i>
    <i name="e_0_energy">   -813.76820086 </i>
   </energy>
  </scstep>
  <scstep>
   <time name="dav">   35.86   37.01</time>
   <time name="total">   40.51   41.91</time>
   <energy>
    <i name="e_fr_energy">   -813.40801641 </i>
    <i name="e_wo_entrp">   -813.40801608 </i>
    <i name="e_0_energy">   -813.40801625 </i>
   </energy>
  </scstep>
  <scstep>
   <time name="dav">   35.93   37.42</time>
   <time name="total">   40.54   42.30</time>
   <energy>
    <i name="e_fr_energy">   -813.94081992 </i>
    <i name="e_wo_entrp">   -813.94081970 </i>
    <i name="e_0_energy">   -813.94081981 </i>
   </energy>
  </scstep>
  <scstep>
   <time name="dav">   37.57   38.91</time>
   <time name="total">   42.15   43.86</time>
   <energy>
    <i name="e_fr_energy">   -813.24048618 </i>
    <i name="e_wo_entrp">   -813.24048608 </i>
    <i name="e_0_energy">   -813.24048613 </i>
   </energy>
  </scstep>
  <scstep>
   <time name="dav">   34.77   35.85</time>
   <time name="total">   39.46   40.71</time>
   <energy>
    <i name="e_fr_energy">   -812.90893492 </i>
    <i name="e_wo_entrp">   -812.90893482 </i>
    <i name="e_0_energy">   -812.90893487 </i>
   </energy>
  </scstep>
  <scstep>
   <time name="dav">   35.85   36.99</time>
   <time name="total">   40.55   41.88</time>
   <energy>
    <i name="e_fr_energy">   -812.86235218 </i>
    <i name="e_wo_entrp">   -812.86235209 </i>
    <i name="e_0_energy">   -812.86235214 </i>
   </energy>
  </scstep>
  <scstep>
   <time name="dav">   39.89   41.38</time>
   <time name="total">   44.63   46.29</time>
   <energy>
    <i name="e_fr_energy">   -812.78945260 </i>
    <i name="e_wo_entrp">   -812.78945252 </i>
    <i name="e_0_energy">   -812.78945256 </i>
   </energy>
  </scstep>
  <scstep>
   <time name="dav">   36.69   37.88</time>
   <time name="total">   41.34   42.80</time>
   <energy>
    <i name="e_fr_energy">   -812.77398967 </i>
    <i name="e_wo_entrp">   -812.77398870 </i>
    <i name="e_0_energy">   -812.77398919 </i>
   </energy>
  </scstep>
  <scstep>
   <time name="dav">   36.77   38.02</time>
   <time name="total">   41.51   42.92</time>
   <energy>
    <i name="e_fr_energy">   -812.77082687 </i>
    <i name="e_wo_entrp">   -812.76909910 </i>
    <i name="e_0_energy">   -812.76996299 </i>
   </energy>
  </scstep>
  <scstep>
   <time name="dav">   34.14   35.26</time>
   <time name="total">   38.97   40.37</time>
   <energy>
    <i name="e_fr_energy">   -812.77104917 </i>
    <i name="e_wo_entrp">   -812.77063159 </i>
    <i name="e_0_energy">   -812.77084038 </i>
   </energy>
  </scstep>
  <scstep>
   <time name="dav">   34.92   36.03</time>
   <time name="total">   39.67   41.07</time>
   <energy>
    <i name="e_fr_energy">   -812.77128183 </i>
    <i name="e_wo_entrp">   -812.76756362 </i>
    <i name="e_0_energy">   -812.76942273 </i>
   </energy>
  </scstep>
  <scstep>
   <time name="dav">   35.01   36.13</time>
   <time name="total">   39.70   41.04</time>
   <energy>
    <i name="e_fr_energy">   -812.77133875 </i>
    <i name="e_wo_entrp">   -812.77117238 </i>
    <i name="e_0_energy">   -812.77125557 </i>
   </energy>
  </scstep>
  <scstep>
   <time name="dav">   34.15   35.22</time>
   <time name="total">   38.93   40.21</time>
   <energy>
    <i name="e_fr_energy">   -812.77112865 </i>
    <i name="e_wo_entrp">   -812.77080229 </i>
    <i name="e_0_energy">   -812.77096547 </i>
   </energy>
  </scstep>
  <scstep>
   <time name="dav">   35.88   36.95</time>
   <time name="total">   40.73   41.97</time>
   <energy>
    <i name="e_fr_energy">   -812.77092887 </i>
    <i name="e_wo_entrp">   -812.77009949 </i>
    <i name="e_0_energy">   -812.77051418 </i>
   </energy>
  </scstep>
  <scstep>
   <time name="dav">   34.73   36.33</time>
   <time name="total">   39.53   41.48</time>
   <energy>
    <i name="e_fr_energy">   -812.77091370 </i>
    <i name="e_wo_entrp">   -812.76976017 </i>
    <i name="e_0_energy">   -812.77033693 </i>
   </energy>
  </scstep>
  <scstep>
   <time name="dav">   30.33   31.37</time>
   <time name="total">   35.06   36.38</time>
   <energy>
    <i name="e_fr_energy">   -812.77091543 </i>
    <i name="e_wo_entrp">   -812.76977129 </i>
    <i name="e_0_energy">   -812.77034336 </i>
   </energy>
  </scstep>
  <scstep>
   <time name="dav">   28.65   29.63</time>
   <time name="total">   30.53   31.62</time>
   <energy>
    <i name="alphaZ">    175.06488379 </i>
    <i name="ewald">  36367.13301843 </i>
    <i name="hartreedc"> -48568.72229320 </i>
    <i name="XCdc">   1292.79161809 </i>
    <i name="pawpsdc">  37055.72508942 </i>
    <i name="pawaedc"> -37123.18924411 </i>
    <i name="eentropy">     -0.00117876 </i>
    <i name="bandstr">  -4357.10476504 </i>
    <i name="atom">  14345.53195627 </i>
    <i name="e_fr_energy">   -812.77091510 </i>
    <i name="e_wo_entrp">   -812.76973634 </i>
    <i name="e_0_energy">   -812.77032572 </i>
   </energy>
  </scstep>
  <structure>
   <crystal>
    <varray name="basis" >
     <v>      17.27103806       0.00000000       0.00000000 </v>
     <v>      -8.63551903      14.95715771       0.00000000 </v>
     <v>       0.00000000       0.00000000      15.00000000 </v>
    </varray>
    <i name="volume">   3874.88459904 </i>
    <varray name="rec_basis" >
     <v>       0.05790040       0.03342881       0.00000000 </v>
     <v>       0.00000000       0.06685762       0.00000000 </v>
     <v>       0.00000000       0.00000000       0.06666667 </v>
    </varray>
   </crystal>
   <varray name="positions" >
    <v>       0.00055587       0.00008961       0.49830802 </v>
    <v>       0.99977204       0.14241089       0.49855717 </v>
    <v>       0.99954154       0.28545634       0.49872903 </v>
    <v>       0.99980147       0.42870011       0.49859708 </v>
    <v>       0.00062554       0.57180245       0.49857649 </v>
    <v>       0.00201564       0.71510032       0.49863769 </v>
    <v>       0.00201976       0.85825848       0.49854430 </v>
    <v>       0.14491707       0.00186965       0.49898503 </v>
    <v>       0.14427166       0.14445949       0.49878484 </v>
    <v>       0.14267449       0.28563966       0.49869827 </v>
    <v>       0.14270486       0.42838835       0.49866813 </v>
    <v>       0.14441802       0.57115809       0.49875374 </v>
    <v>       0.14492275       0.71437926       0.49922641 </v>
    <v>       0.14491004       0.85812826       0.49929802 </v>
    <v>       0.28748587       0.00140415       0.49836671 </v>
    <v>       0.28813926       0.14620841       0.49767175 </v>
    <v>       0.28905243       0.29347330       0.49641137 </v>
    <v>       0.28541809       0.42825783       0.49635600 </v>
    <v>       0.28934506       0.56695575       0.49727699 </v>
    <v>       0.28813448       0.71331677       0.49818166 </v>
    <v>       0.28747705       0.85748076       0.49856954 </v>
    <v>       0.43004482       0.00073773       0.49705451 </v>
    <v>       0.43010519       0.14557377       0.49669368 </v>
    <v>       0.43009221       0.85596164       0.49683366 </v>
    <v>       0.57191952       0.99945713       0.49596537 </v>
    <v>       0.57193514       0.14390583       0.49610546 </v>
    <v>       0.57417582       0.29158448       0.49526014 </v>
    <v>       0.57422696       0.85405385       0.49507290 </v>
    <v>       0.71402307       0.99834739       0.49588102 </v>
    <v>       0.71434145       0.14286447       0.49645721 </v>
    <v>       0.71400654       0.28707907       0.49618680 </v>
    <v>       0.70964141       0.42806100       0.49456346 </v>
    <v>       0.70961716       0.85297528       0.49428229 </v>
    <v>       0.85660274       0.99860396       0.49681863 </v>
    <v>       0.85664787       0.14221268       0.49745003 </v>
    <v>       0.85664779       0.28580791       0.49759897 </v>
    <v>       0.85661110       0.42935022       0.49708839 </v>
    <v>       0.85703037       0.57251574       0.49660691 </v>
    <v>       0.85931647       0.71530223       0.49626309 </v>
    <v>       0.85699571       0.85580130       0.49622542 </v>
    <v>       0.04846458       0.09570972       0.49870391 </v>
    <v>       0.04699295       0.23757022       0.49889691 </v>
    <v>       0.04700253       0.38077166       0.49887267 </v>
    <v>       0.04856786       0.52410246       0.49876922 </v>
    <v>       0.04925206       0.66720555       0.49899873 </v>
    <v>       0.04949530       0.81041879       0.49904302 </v>
    <v>       0.04925840       0.95338757       0.49879316 </v>
    <v>       0.19246964       0.09726565       0.49859898 </v>
    <v>       0.19206220       0.24000278       0.49838239 </v>
    <v>       0.18958194       0.38046242       0.49826142 </v>
    <v>       0.19225768       0.52339867       0.49831837 </v>
    <v>       0.19247641       0.66654043       0.49883915 </v>
    <v>       0.19240485       0.81007988       0.49921089 </v>
    <v>       0.19240294       0.95366979       0.49899375 </v>
    <v>       0.33505190       0.09763825       0.49760273 </v>
    <v>       0.33939422       0.24294683       0.49635636 </v>
    <v>       0.33944841       0.66787420       0.49726306 </v>
    <v>       0.33503610       0.80881638       0.49795857 </v>
    <v>       0.33470556       0.95307576       0.49805254 </v>
    <v>       0.47712668       0.09651473       0.49659692 </v>
    <v>       0.47491333       0.24197895       0.49581731 </v>
    <v>       0.47492199       0.80437155       0.49599543 </v>
    <v>       0.47710414       0.95204052       0.49654453 </v>
    <v>       0.61901397       0.09520003       0.49614339 </v>
    <v>       0.61897499       0.23998309       0.49583424 </v>
    <v>       0.61897356       0.95043626       0.49558728 </v>
    <v>       0.76158016       0.09454374       0.49655798 </v>
    <v>       0.76157029       0.23842511       0.49675710 </v>
    <v>       0.76089715       0.38255993       0.49597080 </v>
    <v>       0.75996290       0.52906030       0.49402510 </v>
    <v>       0.76341504       0.66739028       0.49296121 </v>
    <v>       0.75993784       0.80218927       0.49381032 </v>
    <v>       0.76090484       0.94972998       0.49560509 </v>
    <v>       0.90411886       0.09399000       0.49768705 </v>
    <v>       0.90412350       0.23774373       0.49803226 </v>
    <v>       0.90412917       0.38148032       0.49787854 </v>
    <v>       0.90480216       0.52474824       0.49757853 </v>
    <v>       0.90632346       0.66748387       0.49727764 </v>
    <v>       0.90631735       0.81014261       0.49712730 </v>
    <v>       0.90475092       0.95135292       0.49723727 </v>
    <v>       0.42927523       0.28685117       0.49552115 </v>
    <v>       0.42926185       0.71390119       0.49619777 </v>
    <v>       0.71679095       0.57545465       0.49106233 </v>
    <v>       0.71679418       0.71262499       0.49121327 </v>
    <v>       0.33211313       0.38314672       0.49437806 </v>
    <v>       0.33245991       0.52023282       0.49609383 </v>
    <v>       0.61979760       0.38207850       0.49442750 </v>
    <v>       0.61983061       0.80922672       0.49405160 </v>
    <v>       0.48123295       0.54511912       0.53692071 </v>
    <v>       0.51947955       0.48162415       0.53398302 </v>
    <v>       0.51965591       0.52876045       0.56977594 </v>
   </varray>
  </structure>
  <varray name="forces" >
   <v>      -0.00125717      -0.00244428      -0.00025313 </v>
   <v>      -0.00421464      -0.00342401      -0.00108137 </v>
   <v>      -0.00919515      -0.00289960      -0.00356216 </v>
   <v>      -0.00689747      -0.00026060      -0.00183328 </v>
   <v>      -0.00392886      -0.00312253      -0.00098621 </v>
   <v>      -0.00783712      -0.00405715      -0.00248268 </v>
   <v>      -0.00207184      -0.00304563      -0.00099283 </v>
   <v>      -0.00241970      -0.00082874      -0.00150959 </v>
   <v>       0.00225000      -0.00301327      -0.00226051 </v>
   <v>      -0.00066005      -0.00400912      -0.00273765 </v>
   <v>      -0.00525862       0.00170361      -0.00116611 </v>
   <v>      -0.00522224      -0.00154175      -0.00014535 </v>
   <v>      -0.00358782      -0.00984893      -0.00077217 </v>
   <v>      -0.00647719      -0.00162731      -0.00174855 </v>
   <v>      -0.00506439       0.00023540      -0.00212003 </v>
   <v>      -0.00097774       0.00048684      -0.00216952 </v>
   <v>       0.00280658      -0.00646915      -0.00300518 </v>
   <v>       0.00107341       0.00070174      -0.00137811 </v>
   <v>      -0.00117907       0.00150838       0.00004469 </v>
   <v>       0.00025287      -0.00226459      -0.00048191 </v>
   <v>      -0.00032808      -0.00063321      -0.00184964 </v>
   <v>       0.00454472      -0.00060853      -0.00134842 </v>
   <v>      -0.00205145      -0.00023490      -0.00083754 </v>
   <v>       0.00542560       0.00189939      -0.00132554 </v>
   <v>       0.00763822       0.00126926      -0.00311188 </v>
   <v>       0.01573148      -0.00210265      -0.00139765 </v>
   <v>       0.00408504       0.00397770      -0.00038509 </v>
   <v>       0.00148712       0.00235660      -0.00184886 </v>
   <v>      -0.00112379       0.00573953      -0.00340276 </v>
   <v>       0.00405484       0.00267379      -0.00295529 </v>
   <v>       0.01100539       0.00331594      -0.00365130 </v>
   <v>       0.00509931       0.00212203      -0.00079990 </v>
   <v>      -0.00147196       0.00056279      -0.00112458 </v>
   <v>      -0.00300233       0.00094856      -0.00274114 </v>
   <v>      -0.00681911       0.00009882      -0.00581591 </v>
   <v>      -0.00413166      -0.00108131      -0.00499243 </v>
   <v>       0.00020475      -0.00076579      -0.00091493 </v>
   <v>       0.00039365      -0.00039367       0.00001599 </v>
   <v>       0.00151265      -0.00232497      -0.00128402 </v>
   <v>       0.00084811      -0.00193524       0.00012504 </v>
   <v>       0.00094936       0.00233578      -0.00190413 </v>
   <v>       0.00511326       0.00359571      -0.00303045 </v>
   <v>       0.00825246       0.00090641      -0.00187748 </v>
   <v>       0.00615386       0.00207288      -0.00064738 </v>
   <v>       0.00842602       0.00587033      -0.00142203 </v>
   <v>       0.00633551       0.00482778      -0.00186743 </v>
   <v>       0.00073771       0.00353881      -0.00045341 </v>
   <v>      -0.00385043       0.00379570      -0.00132268 </v>
   <v>      -0.00231998       0.00316357      -0.00313138 </v>
   <v>       0.00238864       0.00139977      -0.00196476 </v>
   <v>       0.00553870      -0.00344258       0.00032829 </v>
   <v>       0.00271461       0.00539164      -0.00054288 </v>
   <v>       0.00508520       0.00509669      -0.00154540 </v>
   <v>       0.00837267       0.00195217      -0.00267446 </v>
   <v>       0.00463219      -0.00033712      -0.00222050 </v>
   <v>       0.00199990       0.00208622      -0.00344685 </v>
   <v>      -0.00178673       0.00093246      -0.00042141 </v>
   <v>      -0.00251820       0.00089904      -0.00134260 </v>
   <v>       0.00084689      -0.00094767      -0.00211985 </v>
   <v>      -0.00520334       0.00034800       0.00002414 </v>
   <v>       0.00265168      -0.00128939      -0.00098417 </v>
   <v>      -0.00324936      -0.00239182      -0.00070878 </v>
   <v>      -0.00695738      -0.00097437      -0.00179604 </v>
   <v>      -0.01493486       0.00579914      -0.00179423 </v>
   <v>      -0.01510398      -0.00363217      -0.00137496 </v>
   <v>      -0.00208879      -0.00348232      -0.00308167 </v>
   <v>       0.00548482      -0.00834239      -0.00410276 </v>
   <v>      -0.00306498       0.00135865      -0.00369729 </v>
   <v>      -0.00290948      -0.00057313      -0.00269656 </v>
   <v>      -0.00110614       0.00061175      -0.00000859 </v>
   <v>      -0.00028509       0.00090748       0.00058231 </v>
   <v>       0.00096982       0.00063729       0.00060826 </v>
   <v>       0.00413520      -0.00346168      -0.00184730 </v>
   <v>       0.00652311      -0.00020933      -0.00428208 </v>
   <v>       0.01140237       0.00318111      -0.00611140 </v>
   <v>       0.00428931       0.00283103      -0.00324433 </v>
   <v>       0.00285210       0.00215532       0.00021772 </v>
   <v>       0.00368858       0.00374416      -0.00167307 </v>
   <v>       0.00098570       0.00451555      -0.00055314 </v>
   <v>       0.00268462       0.00131060      -0.00040659 </v>
   <v>      -0.00394942       0.00043831      -0.00262221 </v>
   <v>       0.00227833       0.00216229       0.00027347 </v>
   <v>       0.00180900       0.00000112       0.00194622 </v>
   <v>       0.00100864      -0.00079667       0.00162795 </v>
   <v>      -0.00168964       0.00408817      -0.00191373 </v>
   <v>       0.00128110      -0.00205626       0.00000811 </v>
   <v>      -0.00344335      -0.00369670      -0.00006840 </v>
   <v>       0.00174840      -0.00068423      -0.00048763 </v>
   <v>      -0.01969346      -0.02432864      -0.00738572 </v>
   <v>       0.00229953       0.00631030      -0.00844569 </v>
   <v>      -0.01272095       0.00171781       0.15589248 </v>
  </varray>
  <varray name="stress" >
   <v>     -12.74101451       4.08908941      -0.00649210 </v>
   <v>       4.08908999     -17.23321447       0.00040628 </v>
   <v>      -0.00649196       0.00040639      -0.19489933 </v>
  </varray>
  <energy>
   <i name="e_fr_energy">   -820.13394529 </i>
   <i name="e_wo_entrp">   -820.13276653 </i>
   <i name="e_0_energy">   -820.13335591 </i>
  </energy>
  <time name="totalsc"> 1639.62 1687.28</time>
  <eigenvalues>
   <array>
    <dimension dim="1">band</dimension>
    <dimension dim="2">kpoint</dimension>
    <dimension dim="3">spin</dimension>
    <field>eigene</field>
    <field>occ</field>
    <set>
     <set comment="spin 1">
      <set comment="kpoint 1">
       <r>  -22.8389    1.0000 </r>
       <r>  -22.7191    1.0000 </r>
       <r>  -22.5878    1.0000 </r>
       <r>  -22.4453    1.0000 </r>
       <r>  -22.2343    1.0000 </r>
       <r>  -22.0964    1.0000 </r>
       <r>  -21.9576    1.0000 </r>
       <r>  -21.6088    1.0000 </r>
       <r>  -21.5715    1.0000 </r>
       <r>  -21.4810    1.0000 </r>
       <r>  -21.4051    1.0000 </r>
       <r>  -21.2071    1.0000 </r>
       <r>  -21.1403    1.0000 </r>
       <r>  -21.0607    1.0000 </r>
       <r>  -20.8934    1.0000 </r>
       <r>  -20.6817    1.0000 </r>
       <r>  -20.5610    1.0000 </r>
       <r>  -20.4365    1.0000 </r>
       <r>  -20.2565    1.0000 </r>
       <r>  -20.1289    1.0000 </r>
       <r>  -20.0764    1.0000 </r>
       <r>  -19.6308    1.0000 </r>
       <r>  -19.5981    1.0000 </r>
       <r>  -19.0980    1.0000 </r>
       <r>  -18.9774    1.0000 </r>
       <r>  -18.9556    1.0000 </r>
       <r>  -18.9451    1.0000 </r>
       <r>  -18.9392    1.0000 </r>
       <r>  -18.8685    1.0000 </r>
       <r>  -18.7168    1.0000 </r>
       <r>  -18.5542    1.0000 </r>
       <r>  -18.3521    1.0000 </r>
       <r>  -18.2076    1.0000 </r>
       <r>  -18.1832    1.0000 </r>
       <r>  -17.9415    1.0000 </r>
       <r>  -17.7598    1.0000 </r>
       <r>  -17.4058    1.0000 </r>
       <r>  -17.1980    1.0000 </r>
       <r>  -17.0799    1.0000 </r>
       <r>  -17.0489    1.0000 </r>
       <r>  -16.9300    1.0000 </r>
       <r>  -16.8675    1.0000 </r>
       <r>  -16.8018    1.0000 </r>
       <r>  -16.7883    1.0000 </r>
       <r>  -16.7751    1.0000 </r>
       <r>  -16.1919    1.0000 </r>
       <r>  -16.0451    1.0000 </r>
       <r>  -15.8015    1.0000 </r>
       <r>  -15.5559    1.0000 </r>
       <r>  -15.5003    1.0000 </r>
       <r>  -15.4359    1.0000 </r>
       <r>  -15.1571    1.0000 </r>
       <r>  -15.1259    1.0000 </r>
       <r>  -14.9865    1.0000 </r>
       <r>  -14.9664    1.0000 </r>
       <r>  -14.8837    1.0000 </r>
       <r>  -14.8068    1.0000 </r>
       <r>  -14.6820    1.0000 </r>
       <r>  -14.5622    1.0000 </r>
       <r>  -14.2439    1.0000 </r>
       <r>  -13.9910    1.0000 </r>
       <r>  -13.7755    1.0000 </r>
       <r>  -13.6036    1.0000 </r>
       <r>  -13.3274    1.0000 </r>
       <r>  -13.2805    1.0000 </r>
       <r>  -13.1526    1.0000 </r>
       <r>  -13.0765    1.0000 </r>
       <r>  -13.0360    1.0000 </r>
       <r>  -12.9328    1.0000 </r>
       <r>  -12.9222    1.0000 </r>
       <r>  -12.8003    1.0000 </r>
       <r>  -12.7023    1.0000 </r>
       <r>  -12.7017    1.0000 </r>
       <r>  -12.6716    1.0000 </r>
       <r>  -12.5944    1.0000 </r>
       <r>  -12.2210    1.0000 </r>
       <r>  -12.1681    1.0000 </r>
       <r>  -11.8732    1.0000 </r>
       <r>  -11.6819    1.0000 </r>
       <r>  -11.6814    1.0000 </r>
       <r>  -11.6032    1.0000 </r>
       <r>  -11.4802    1.0000 </r>
       <r>  -10.9509    1.0000 </r>
       <r>  -10.9037    1.0000 </r>
       <r>  -10.7730    1.0000 </r>
       <r>  -10.7321    1.0000 </r>
       <r>  -10.6142    1.0000 </r>
       <r>  -10.6074    1.0000 </r>
       <r>  -10.4561    1.0000 </r>
       <r>  -10.4130    1.0000 </r>
       <r>  -10.3956    1.0000 </r>
       <r>  -10.3810    1.0000 </r>
       <r>  -10.3285    1.0000 </r>
       <r>  -10.2850    1.0000 </r>
       <r>  -10.1791    1.0000 </r>
       <r>  -10.1385    1.0000 </r>
       <r>  -10.0917    1.0000 </r>
       <r>  -10.0401    1.0000 </r>
       <r>   -9.9902    1.0000 </r>
       <r>   -9.9572    1.0000 </r>
       <r>   -9.9331    1.0000 </r>
       <r>   -9.9081    1.0000 </r>
       <r>   -9.8691    1.0000 </r>
       <r>   -9.8305    1.0000 </r>
       <r>   -9.8014    1.0000 </r>
       <r>   -9.7877    1.0000 </r>
       <r>   -9.7682    1.0000 </r>
       <r>   -9.6802    1.0000 </r>
       <r>   -9.6606    1.0000 </r>
       <r>   -9.6198    1.0000 </r>
       <r>   -9.2625    1.0000 </r>
       <r>   -9.2089    1.0000 </r>
       <r>   -9.2025    1.0000 </r>
       <r>   -9.1806    1.0000 </r>
       <r>   -9.1615    1.0000 </r>
       <r>   -9.0029    1.0000 </r>
       <r>   -8.9468    1.0000 </r>
       <r>   -8.8524    1.0000 </r>
       <r>   -8.7714    1.0000 </r>
       <r>   -8.7328    1.0000 </r>
       <r>   -8.7228    1.0000 </r>
       <r>   -8.6387    1.0000 </r>
       <r>   -8.6276    1.0000 </r>
       <r>   -8.6191    1.0000 </r>
       <r>   -8.5599    1.0000 </r>
       <r>   -8.5203    1.0000 </r>
       <r>   -8.5127    1.0000 </r>
       <r>   -8.4722    1.0000 </r>
       <r>   -8.3941    1.0000 </r>
       <r>   -8.3874    1.0000 </r>
       <r>   -8.3380    1.0000 </r>
       <r>   -8.2980    1.0000 </r>
       <r>   -8.2769    1.0000 </r>
       <r>   -8.1219    1.0000 </r>
       <r>   -8.0710    1.0000 </r>
       <r>   -7.9629    1.0000 </r>
       <r>   -7.9459    1.0000 </r>
       <r>   -7.9279    1.0000 </r>
       <r>   -7.7569    1.0000 </r>
       <r>   -7.7276    1.0000 </r>
       <r>   -7.5683    1.0000 </r>
       <r>   -7.5036    1.0000 </r>
       <r>   -7.3108    1.0000 </r>
       <r>   -7.1638    1.0000 </r>
       <r>   -7.0955    1.0000 </r>
       <r>   -6.9864    1.0000 </r>
       <r>   -6.9812    1.0000 </r>
       <r>   -6.8361    1.0000 </r>
       <r>   -6.7737    1.0000 </r>
       <r>   -6.7069    1.0000 </r>
       <r>   -6.6075    1.0000 </r>
       <r>   -6.5805    1.0000 </r>
       <r>   -6.5291    1.0000 </r>
       <r>   -6.5189    1.0000 </r>
       <r>   -6.3808    1.0000 </r>
       <r>   -6.3014    1.0000 </r>
       <r>   -6.2870    1.0000 </r>
       <r>   -6.2829    1.0000 </r>
       <r>   -6.2413    1.0000 </r>
       <r>   -5.9693    1.0000 </r>
       <r>   -5.8626    1.0000 </r>
       <r>   -5.8417    1.0000 </r>
       <r>   -5.6752    1.0000 </r>
       <r>   -5.4227    1.0000 </r>
       <r>   -5.4168    1.0000 </r>
       <r>   -5.1757    1.0000 </r>
       <r>   -4.8813    1.0000 </r>
       <r>   -4.8352    1.0000 </r>
       <r>   -4.7380    1.0000 </r>
       <r>   -4.7152    1.0000 </r>
       <r>   -4.6714    1.0000 </r>
       <r>   -4.6214    1.0000 </r>
       <r>   -4.5551    1.0000 </r>
       <r>   -4.5426    1.0000 </r>
       <r>   -4.4739    1.0000 </r>
       <r>   -4.4524    1.0000 </r>
       <r>   -4.4063    1.0000 </r>
       <r>   -4.3625    1.0000 </r>
       <r>   -4.3280    1.0000 </r>
       <r>   -4.2181    1.0000 </r>
       <r>   -4.2136    1.0000 </r>
       <r>   -4.0765    1.0000 </r>
       <r>   -4.0324    1.0000 </r>
       <r>   -3.1183    0.9978 </r>
       <r>   -2.5115    0.0000 </r>
       <r>   -1.8861    0.0000 </r>
       <r>   -1.8191    0.0000 </r>
       <r>   -1.4500    0.0000 </r>
       <r>   -1.3650    0.0000 </r>
       <r>   -1.3410    0.0000 </r>
       <r>   -1.3281    0.0000 </r>
       <r>   -1.2673    0.0000 </r>
       <r>   -1.2578    0.0000 </r>
       <r>   -1.0037    0.0000 </r>
       <r>   -0.8808    0.0000 </r>
       <r>   -0.6829    0.0000 </r>
       <r>   -0.5390    0.0000 </r>
       <r>   -0.3620    0.0000 </r>
       <r>   -0.2474    0.0000 </r>
       <r>    0.1785    0.0000 </r>
       <r>    0.2509    0.0000 </r>
       <r>    0.3663    0.0000 </r>
       <r>    0.6624    0.0000 </r>
       <r>    0.6871    0.0000 </r>
       <r>    0.8944    0.0000 </r>
       <r>    0.9992    0.0000 </r>
       <r>    1.0194    0.0000 </r>
       <r>    1.0902    0.0000 </r>
       <r>    1.1222    0.0000 </r>
       <r>    1.1296    0.0000 </r>
       <r>    1.1771    0.0000 </r>
       <r>    1.2060    0.0000 </r>
       <r>    1.2667    0.0000 </r>
       <r>    1.2728    0.0000 </r>
       <r>    1.4594    0.0000 </r>
       <r>    1.5277    0.0000 </r>
       <r>    1.6245    0.0000 </r>
       <r>    1.9292    0.0000 </r>
       <r>    1.9621    0.0000 </r>
       <r>    2.1617    0.0000 </r>
       <r>    2.2050    0.0000 </r>
       <r>    2.2181    0.0000 </r>
       <r>    2.2250    0.0000 </r>
       <r>    2.3831    0.0000 </r>
       <r>    2.4257    0.0000 </r>
       <r>    2.5101    0.0000 </r>
       <r>    2.6561    0.0000 </r>
       <r>    2.6657    0.0000 </r>
       <r>    2.6925    0.0000 </r>
       <r>    2.6959    0.0000 </r>
       <r>    2.7295    0.0000 </r>
       <r>    2.7639    0.0000 </r>
       <r>    2.7718    0.0000 </r>
       <r>    2.8014    0.0000 </r>
       <r>    2.8135    0.0000 </r>
       <r>    2.8224    0.0000 </r>
       <r>    2.8678    0.0000 </r>
       <r>    2.9258    0.0000 </r>
       <r>    2.9546    0.0000 </r>
       <r>    3.0250    0.0000 </r>
      </set>
      <set comment="kpoint 2">
       <r>  -22.8234    1.0000 </r>
       <r>  -22.7362    1.0000 </r>
       <r>  -22.5959    1.0000 </r>
       <r>  -22.4665    1.0000 </r>
       <r>  -22.1957    1.0000 </r>
       <r>  -22.0829    1.0000 </r>
       <r>  -21.8572    1.0000 </r>
       <r>  -21.7449    1.0000 </r>
       <r>  -21.7048    1.0000 </r>
       <r>  -21.3784    1.0000 </r>
       <r>  -21.2758    1.0000 </r>
       <r>  -21.2086    1.0000 </r>
       <r>  -21.1833    1.0000 </r>
       <r>  -21.1267    1.0000 </r>
       <r>  -20.8748    1.0000 </r>
       <r>  -20.8178    1.0000 </r>
       <r>  -20.5172    1.0000 </r>
       <r>  -20.3257    1.0000 </r>
       <r>  -20.2222    1.0000 </r>
       <r>  -20.0029    1.0000 </r>
       <r>  -19.9169    1.0000 </r>
       <r>  -19.8234    1.0000 </r>
       <r>  -19.5121    1.0000 </r>
       <r>  -19.4790    1.0000 </r>
       <r>  -19.3067    1.0000 </r>
       <r>  -19.1383    1.0000 </r>
       <r>  -19.0510    1.0000 </r>
       <r>  -18.6882    1.0000 </r>
       <r>  -18.6784    1.0000 </r>
       <r>  -18.5755    1.0000 </r>
       <r>  -18.2882    1.0000 </r>
       <r>  -18.2006    1.0000 </r>
       <r>  -18.1863    1.0000 </r>
       <r>  -17.8455    1.0000 </r>
       <r>  -17.8313    1.0000 </r>
       <r>  -17.8119    1.0000 </r>
       <r>  -17.5428    1.0000 </r>
       <r>  -17.4918    1.0000 </r>
       <r>  -17.2985    1.0000 </r>
       <r>  -17.2936    1.0000 </r>
       <r>  -17.1783    1.0000 </r>
       <r>  -17.0722    1.0000 </r>
       <r>  -16.8462    1.0000 </r>
       <r>  -16.8018    1.0000 </r>
       <r>  -16.2935    1.0000 </r>
       <r>  -16.0000    1.0000 </r>
       <r>  -15.7719    1.0000 </r>
       <r>  -15.6480    1.0000 </r>
       <r>  -15.6082    1.0000 </r>
       <r>  -15.5063    1.0000 </r>
       <r>  -15.4555    1.0000 </r>
       <r>  -15.4104    1.0000 </r>
       <r>  -15.1385    1.0000 </r>
       <r>  -14.9891    1.0000 </r>
       <r>  -14.8962    1.0000 </r>
       <r>  -14.8423    1.0000 </r>
       <r>  -14.7019    1.0000 </r>
       <r>  -14.4756    1.0000 </r>
       <r>  -14.3459    1.0000 </r>
       <r>  -14.2364    1.0000 </r>
       <r>  -14.0012    1.0000 </r>
       <r>  -13.9622    1.0000 </r>
       <r>  -13.9589    1.0000 </r>
       <r>  -13.8805    1.0000 </r>
       <r>  -13.6598    1.0000 </r>
       <r>  -13.4396    1.0000 </r>
       <r>  -13.2179    1.0000 </r>
       <r>  -12.9577    1.0000 </r>
       <r>  -12.9325    1.0000 </r>
       <r>  -12.9171    1.0000 </r>
       <r>  -12.5800    1.0000 </r>
       <r>  -12.3991    1.0000 </r>
       <r>  -12.3886    1.0000 </r>
       <r>  -12.2758    1.0000 </r>
       <r>  -12.0656    1.0000 </r>
       <r>  -11.9838    1.0000 </r>
       <r>  -11.9153    1.0000 </r>
       <r>  -11.8216    1.0000 </r>
       <r>  -11.7079    1.0000 </r>
       <r>  -11.6931    1.0000 </r>
       <r>  -11.5536    1.0000 </r>
       <r>  -11.5101    1.0000 </r>
       <r>  -11.3768    1.0000 </r>
       <r>  -11.2255    1.0000 </r>
       <r>  -11.1750    1.0000 </r>
       <r>  -10.9997    1.0000 </r>
       <r>  -10.8865    1.0000 </r>
       <r>  -10.6877    1.0000 </r>
       <r>  -10.6041    1.0000 </r>
       <r>  -10.5686    1.0000 </r>
       <r>  -10.5159    1.0000 </r>
       <r>  -10.4680    1.0000 </r>
       <r>  -10.4477    1.0000 </r>
       <r>  -10.3156    1.0000 </r>
       <r>  -10.2549    1.0000 </r>
       <r>  -10.1351    1.0000 </r>
       <r>  -10.0117    1.0000 </r>
       <r>   -9.9439    1.0000 </r>
       <r>   -9.9179    1.0000 </r>
       <r>   -9.8801    1.0000 </r>
       <r>   -9.8228    1.0000 </r>
       <r>   -9.6401    1.0000 </r>
       <r>   -9.6236    1.0000 </r>
       <r>   -9.5848    1.0000 </r>
       <r>   -9.5570    1.0000 </r>
       <r>   -9.5185    1.0000 </r>
       <r>   -9.4667    1.0000 </r>
       <r>   -9.4613    1.0000 </r>
       <r>   -9.4035    1.0000 </r>
       <r>   -9.3754    1.0000 </r>
       <r>   -9.3523    1.0000 </r>
       <r>   -9.2812    1.0000 </r>
       <r>   -9.2797    1.0000 </r>
       <r>   -9.2259    1.0000 </r>
       <r>   -9.1819    1.0000 </r>
       <r>   -9.1565    1.0000 </r>
       <r>   -9.0466    1.0000 </r>
       <r>   -9.0020    1.0000 </r>
       <r>   -8.9724    1.0000 </r>
       <r>   -8.9494    1.0000 </r>
       <r>   -8.9394    1.0000 </r>
       <r>   -8.7379    1.0000 </r>
       <r>   -8.7164    1.0000 </r>
       <r>   -8.7025    1.0000 </r>
       <r>   -8.6803    1.0000 </r>
       <r>   -8.5959    1.0000 </r>
       <r>   -8.5689    1.0000 </r>
       <r>   -8.5611    1.0000 </r>
       <r>   -8.5477    1.0000 </r>
       <r>   -8.4375    1.0000 </r>
       <r>   -8.2124    1.0000 </r>
       <r>   -8.1693    1.0000 </r>
       <r>   -8.1432    1.0000 </r>
       <r>   -8.0623    1.0000 </r>
       <r>   -7.8503    1.0000 </r>
       <r>   -7.7573    1.0000 </r>
       <r>   -7.7324    1.0000 </r>
       <r>   -7.6722    1.0000 </r>
       <r>   -7.6219    1.0000 </r>
       <r>   -7.5857    1.0000 </r>
       <r>   -7.5360    1.0000 </r>
       <r>   -7.5275    1.0000 </r>
       <r>   -7.4691    1.0000 </r>
       <r>   -7.4611    1.0000 </r>
       <r>   -7.3366    1.0000 </r>
       <r>   -7.1108    1.0000 </r>
       <r>   -7.0926    1.0000 </r>
       <r>   -7.0390    1.0000 </r>
       <r>   -6.9649    1.0000 </r>
       <r>   -6.7031    1.0000 </r>
       <r>   -6.6513    1.0000 </r>
       <r>   -6.6220    1.0000 </r>
       <r>   -6.5965    1.0000 </r>
       <r>   -6.5535    1.0000 </r>
       <r>   -6.4172    1.0000 </r>
       <r>   -6.3103    1.0000 </r>
       <r>   -6.2076    1.0000 </r>
       <r>   -5.9594    1.0000 </r>
       <r>   -5.7904    1.0000 </r>
       <r>   -5.6152    1.0000 </r>
       <r>   -5.5929    1.0000 </r>
       <r>   -5.5497    1.0000 </r>
       <r>   -5.4351    1.0000 </r>
       <r>   -5.4315    1.0000 </r>
       <r>   -5.4232    1.0000 </r>
       <r>   -5.4108    1.0000 </r>
       <r>   -5.3027    1.0000 </r>
       <r>   -5.2780    1.0000 </r>
       <r>   -5.2053    1.0000 </r>
       <r>   -4.8767    1.0000 </r>
       <r>   -4.8126    1.0000 </r>
       <r>   -4.6696    1.0000 </r>
       <r>   -4.6143    1.0000 </r>
       <r>   -4.5996    1.0000 </r>
       <r>   -4.4496    1.0000 </r>
       <r>   -4.4193    1.0000 </r>
       <r>   -4.3774    1.0000 </r>
       <r>   -4.2360    1.0000 </r>
       <r>   -4.2214    1.0000 </r>
       <r>   -4.1927    1.0000 </r>
       <r>   -4.0619    1.0000 </r>
       <r>   -4.0238    1.0000 </r>
       <r>   -3.6018    1.0000 </r>
       <r>   -3.1118    0.9961 </r>
       <r>   -2.4120    0.0000 </r>
       <r>   -2.2904    0.0000 </r>
       <r>   -2.2342    0.0000 </r>
       <r>   -1.4130    0.0000 </r>
       <r>   -1.3635    0.0000 </r>
       <r>   -1.2456    0.0000 </r>
       <r>   -1.1769    0.0000 </r>
       <r>   -1.1289    0.0000 </r>
       <r>   -0.9570    0.0000 </r>
       <r>   -0.9251    0.0000 </r>
       <r>   -0.6451    0.0000 </r>
       <r>   -0.5555    0.0000 </r>
       <r>   -0.4496    0.0000 </r>
       <r>   -0.3365    0.0000 </r>
       <r>   -0.3236    0.0000 </r>
       <r>   -0.1995    0.0000 </r>
       <r>   -0.1540    0.0000 </r>
       <r>    0.2829    0.0000 </r>
       <r>    0.3480    0.0000 </r>
       <r>    0.5556    0.0000 </r>
       <r>    0.6780    0.0000 </r>
       <r>    0.7757    0.0000 </r>
       <r>    0.9054    0.0000 </r>
       <r>    1.0418    0.0000 </r>
       <r>    1.1998    0.0000 </r>
       <r>    1.3410    0.0000 </r>
       <r>    1.3456    0.0000 </r>
       <r>    1.3999    0.0000 </r>
       <r>    1.6626    0.0000 </r>
       <r>    1.7235    0.0000 </r>
       <r>    1.8323    0.0000 </r>
       <r>    1.8394    0.0000 </r>
       <r>    1.8556    0.0000 </r>
       <r>    1.8712    0.0000 </r>
       <r>    1.9491    0.0000 </r>
       <r>    1.9661    0.0000 </r>
       <r>    2.1353    0.0000 </r>
       <r>    2.1546    0.0000 </r>
       <r>    2.2452    0.0000 </r>
       <r>    2.3037    0.0000 </r>
       <r>    2.3445    0.0000 </r>
       <r>    2.3655    0.0000 </r>
       <r>    2.3839    0.0000 </r>
       <r>    2.5272    0.0000 </r>
       <r>    2.5554    0.0000 </r>
       <r>    2.6601    0.0000 </r>
       <r>    2.7022    0.0000 </r>
       <r>    2.7493    0.0000 </r>
       <r>    2.7506    0.0000 </r>
       <r>    2.7757    0.0000 </r>
       <r>    2.7841    0.0000 </r>
[...]
       <r>   -14.8922     7.8386    54.5141 </r>
       <r>   -14.7969    12.9722    55.7507 </r>
       <r>   -14.7015    11.7132    56.8672 </r>
       <r>   -14.6062     9.0352    57.7285 </r>
       <r>   -14.5109     5.5982    58.2622 </r>
       <r>   -14.4156     5.0430    58.7429 </r>
       <r>   -14.3202     2.1469    58.9476 </r>
       <r>   -14.2249     4.0575    59.3344 </r>
       <r>   -14.1296     4.2516    59.7397 </r>
       <r>   -14.0342     8.8404    60.5824 </r>
       <r>   -13.9389    13.5728    61.8762 </r>
       <r>   -13.8436    10.4803    62.8753 </r>
       <r>   -13.7483     6.4202    63.4873 </r>
       <r>   -13.6529     6.6341    64.1197 </r>
       <r>   -13.5576     3.7324    64.4755 </r>
       <r>   -13.4623     0.9856    64.5694 </r>
       <r>   -13.3670     5.4848    65.0923 </r>
       <r>   -13.2716     5.8640    65.6513 </r>
       <r>   -13.1763     5.4203    66.1680 </r>
       <r>   -13.0810     7.4017    66.8735 </r>
       <r>   -12.9857     6.4338    67.4868 </r>
       <r>   -12.8903    17.0815    69.1152 </r>
       <r>   -12.7950     8.3262    69.9089 </r>
       <r>   -12.6997    11.0290    70.9602 </r>
       <r>   -12.6044     7.8616    71.7096 </r>
       <r>   -12.5090    10.8550    72.7444 </r>
       <r>   -12.4137     4.1907    73.1439 </r>
       <r>   -12.3184     3.9528    73.5207 </r>
       <r>   -12.2230     3.6365    73.8673 </r>
       <r>   -12.1277     3.9829    74.2470 </r>
       <r>   -12.0324     8.5999    75.0668 </r>
       <r>   -11.9371     8.2923    75.8573 </r>
       <r>   -11.8417    10.8841    76.8948 </r>
       <r>   -11.7464    13.2913    78.1618 </r>
       <r>   -11.6511    17.5553    79.8353 </r>
       <r>   -11.5558     7.1650    80.5183 </r>
       <r>   -11.4604    10.0540    81.4767 </r>
       <r>   -11.3651    10.8704    82.5130 </r>
       <r>   -11.2698    11.6305    83.6217 </r>
       <r>   -11.1745     9.6085    84.5376 </r>
       <r>   -11.0791     2.3263    84.7594 </r>
       <r>   -10.9838     5.8053    85.3127 </r>
       <r>   -10.8885     7.4838    86.0262 </r>
       <r>   -10.7932     3.3258    86.3432 </r>
       <r>   -10.6978     9.1873    87.2190 </r>
       <r>   -10.6025    16.0585    88.7498 </r>
       <r>   -10.5072    10.7926    89.7786 </r>
       <r>   -10.4119    14.8892    91.1979 </r>
       <r>   -10.3165    14.1592    92.5477 </r>
       <r>   -10.2212    15.1478    93.9916 </r>
       <r>   -10.1259    17.3496    95.6455 </r>
       <r>   -10.0305    13.5263    96.9349 </r>
       <r>    -9.9352    16.5493    98.5125 </r>
       <r>    -9.8399    26.2100   101.0110 </r>
       <r>    -9.7446    18.2057   102.7465 </r>
       <r>    -9.6492    14.0990   104.0905 </r>
       <r>    -9.5539    19.3959   105.9394 </r>
       <r>    -9.4586    11.3371   107.0202 </r>
       <r>    -9.3633    23.6348   109.2732 </r>
       <r>    -9.2679    29.4723   112.0826 </r>
       <r>    -9.1726    25.9075   114.5523 </r>
       <r>    -9.0773    14.1176   115.8981 </r>
       <r>    -8.9820    22.9469   118.0855 </r>
       <r>    -8.8866    21.4286   120.1282 </r>
       <r>    -8.7913    12.4297   121.3131 </r>
       <r>    -8.6960    18.2503   123.0529 </r>
       <r>    -8.6007    20.1636   124.9750 </r>
       <r>    -8.5053    27.9676   127.6410 </r>
       <r>    -8.4100    16.1849   129.1839 </r>
       <r>    -8.3147    14.7855   130.5933 </r>
       <r>    -8.2193     9.1854   131.4689 </r>
       <r>    -8.1240    12.1097   132.6233 </r>
       <r>    -8.0287    11.4389   133.7137 </r>
       <r>    -7.9334    10.0841   134.6750 </r>
       <r>    -7.8380     5.6847   135.2169 </r>
       <r>    -7.7427    13.3426   136.4888 </r>
       <r>    -7.6474    25.6248   138.9315 </r>
       <r>    -7.5521    22.9312   141.1175 </r>
       <r>    -7.4567    14.5504   142.5045 </r>
       <r>    -7.3614    11.0123   143.5543 </r>
       <r>    -7.2661     7.1311   144.2340 </r>
       <r>    -7.1708     7.9469   144.9916 </r>
       <r>    -7.0754    11.6822   146.1052 </r>
       <r>    -6.9801    15.3908   147.5723 </r>
       <r>    -6.8848     7.1564   148.2545 </r>
       <r>    -6.7895     7.6425   148.9831 </r>
       <r>    -6.6941    17.5072   150.6520 </r>
       <r>    -6.5988    15.1447   152.0956 </r>
       <r>    -6.5035    13.4120   153.3742 </r>
       <r>    -6.4081     9.2377   154.2548 </r>
       <r>    -6.3128    15.2123   155.7049 </r>
       <r>    -6.2175    11.2132   156.7738 </r>
       <r>    -6.1222     6.6890   157.4114 </r>
       <r>    -6.0268     6.1134   157.9942 </r>
       <r>    -5.9315     4.4484   158.4182 </r>
       <r>    -5.8362     4.6159   158.8583 </r>
       <r>    -5.7409     5.7932   159.4105 </r>
       <r>    -5.6455    10.7083   160.4313 </r>
       <r>    -5.5502     7.7190   161.1671 </r>
       <r>    -5.4549    14.4464   162.5442 </r>
       <r>    -5.3596    29.7572   165.3809 </r>
       <r>    -5.2642    12.2730   166.5508 </r>
       <r>    -5.1689    15.9904   168.0751 </r>
       <r>    -5.0736     1.8299   168.2496 </r>
       <r>    -4.9783     0.9266   168.3379 </r>
       <r>    -4.8829     9.5422   169.2475 </r>
       <r>    -4.7876     9.8968   170.1909 </r>
       <r>    -4.6923     9.6513   171.1110 </r>
       <r>    -4.5970    18.1569   172.8418 </r>
       <r>    -4.5016    17.1742   174.4789 </r>
       <r>    -4.4063    20.2897   176.4131 </r>
       <r>    -4.3110    14.8329   177.8270 </r>
       <r>    -4.2156    14.0694   179.1682 </r>
       <r>    -4.1203    11.6850   180.2821 </r>
       <r>    -4.0250    10.9813   181.3289 </r>
       <r>    -3.9297     4.7563   181.7823 </r>
       <r>    -3.8343     4.3069   182.1929 </r>
       <r>    -3.7390     0.5994   182.2500 </r>
       <r>    -3.6437     0.3103   182.2796 </r>
       <r>    -3.5484     2.1414   182.4837 </r>
       <r>    -3.4530     0.1709   182.5000 </r>
       <r>    -3.3577     0.1472   182.5140 </r>
       <r>    -3.2624     3.9645   182.8920 </r>
       <r>    -3.1671     1.9108   183.0741 </r>
       <r>    -3.0717     8.5880   183.8928 </r>
       <r>    -2.9764     1.5702   184.0424 </r>
       <r>    -2.8811     4.3057   184.4529 </r>
       <r>    -2.7858     0.4941   184.5000 </r>
       <r>    -2.6904     0.0002   184.5000 </r>
       <r>    -2.5951     0.0237   184.5023 </r>
       <r>    -2.4998     1.6459   184.6592 </r>
       <r>    -2.4044     2.4843   184.8960 </r>
       <r>    -2.3091     1.9137   185.0784 </r>
       <r>    -2.2138     3.7066   185.4317 </r>
       <r>    -2.1185     4.2161   185.8336 </r>
       <r>    -2.0231     1.7407   185.9996 </r>
       <r>    -1.9278     0.3375   186.0317 </r>
       <r>    -1.8325     5.9210   186.5962 </r>
       <r>    -1.7372     8.6499   187.4207 </r>
       <r>    -1.6418     0.8310   187.5000 </r>
       <r>    -1.5465     0.0090   187.5008 </r>
       <r>    -1.4512     1.6761   187.6606 </r>
       <r>    -1.3559     9.5111   188.5672 </r>
       <r>    -1.2605    16.8227   190.1709 </r>
       <r>    -1.1652     8.5603   190.9869 </r>
       <r>    -1.0699    10.5593   191.9935 </r>
       <r>    -0.9746     7.9740   192.7536 </r>
       <r>    -0.8792     9.0620   193.6175 </r>
       <r>    -0.7839     5.6819   194.1591 </r>
       <r>    -0.6886     3.3979   194.4830 </r>
       <r>    -0.5933    11.3105   195.5612 </r>
       <r>    -0.4979     8.1677   196.3398 </r>
       <r>    -0.4026    11.5190   197.4379 </r>
       <r>    -0.3073    10.3294   198.4225 </r>
       <r>    -0.2119    11.0973   199.4804 </r>
       <r>    -0.1166     5.0444   199.9612 </r>
       <r>    -0.0213     0.4275   200.0020 </r>
       <r>     0.0740     2.7503   200.2642 </r>
       <r>     0.1694     6.8698   200.9190 </r>
       <r>     0.2647     7.0130   201.5876 </r>
       <r>     0.3600     9.5249   202.4955 </r>
       <r>     0.4553     3.9530   202.8724 </r>
       <r>     0.5507     5.0132   203.3502 </r>
       <r>     0.6460     3.2003   203.6553 </r>
       <r>     0.7413     6.8441   204.3077 </r>
       <r>     0.8366     7.3825   205.0115 </r>
       <r>     0.9320    12.5019   206.2032 </r>
       <r>     1.0273    12.6396   207.4081 </r>
       <r>     1.1226     8.5602   208.2241 </r>
       <r>     1.2179    16.4326   209.7906 </r>
       <r>     1.3133    10.6920   210.8098 </r>
       <r>     1.4086    10.4289   211.8040 </r>
       <r>     1.5039     8.5703   212.6209 </r>
       <r>     1.5993     4.6438   213.0636 </r>
       <r>     1.6946     7.4868   213.7773 </r>
       <r>     1.7899    14.5965   215.1687 </r>
       <r>     1.8852    25.2903   217.5796 </r>
       <r>     1.9806    18.5061   219.3437 </r>
       <r>     2.0759     4.7552   219.7970 </r>
       <r>     2.1712    10.6167   220.8090 </r>
       <r>     2.2665    14.7557   222.2156 </r>
       <r>     2.3619    23.8553   224.4897 </r>
       <r>     2.4572    21.6612   226.5545 </r>
       <r>     2.5525    12.2973   227.7268 </r>
       <r>     2.6478     9.6631   228.6480 </r>
       <r>     2.7432    33.0023   231.7939 </r>
       <r>     2.8385    50.6820   236.6253 </r>
       <r>     2.9338    19.1727   238.4529 </r>
       <r>     3.0291     5.4287   238.9704 </r>
       <r>     3.1245     3.8719   239.3395 </r>
       <r>     3.2198     6.7278   239.9809 </r>
       <r>     3.3151     0.2008   240.0000 </r>
       <r>     3.4104     0.0000   240.0000 </r>
       <r>     3.5058     0.0000   240.0000 </r>
       <r>     3.6011     0.0000   240.0000 </r>
       <r>     3.6964     0.0000   240.0000 </r>
       <r>     3.7918     0.0000   240.0000 </r>
       <r>     3.8871     0.0000   240.0000 </r>
       <r>     3.9824     0.0000   240.0000 </r>
       <r>     4.0777     0.0000   240.0000 </r>
       <r>     4.1731     0.0000   240.0000 </r>
       <r>     4.2684     0.0000   240.0000 </r>
       <r>     4.3637     0.0000   240.0000 </r>
       <r>     4.4590     0.0000   240.0000 </r>
      </set>
     </set>
    </array>
   </total>
  </dos>
 </calculation>
 <structure name="finalpos" >
  <crystal>
   <varray name="basis" >
    <v>      17.27103806       0.00000000       0.00000000 </v>
    <v>      -8.63551903      14.95715771       0.00000000 </v>
    <v>       0.00000000       0.00000000      15.00000000 </v>
   </varray>
   <i name="volume">   3874.88459904 </i>
   <varray name="rec_basis" >
    <v>       0.05790040       0.03342881       0.00000000 </v>
    <v>       0.00000000       0.06685762       0.00000000 </v>
    <v>       0.00000000       0.00000000       0.06666667 </v>
   </varray>
  </crystal>
  <varray name="positions" >
   <v>       0.00055587       0.00008961       0.49830802 </v>
   <v>       0.99977204       0.14241089       0.49855717 </v>
   <v>       0.99954154       0.28545634       0.49872903 </v>
   <v>       0.99980147       0.42870011       0.49859708 </v>
   <v>       0.00062554       0.57180245       0.49857649 </v>
   <v>       0.00201564       0.71510032       0.49863769 </v>
   <v>       0.00201976       0.85825848       0.49854430 </v>
   <v>       0.14491707       0.00186965       0.49898503 </v>
   <v>       0.14427166       0.14445949       0.49878484 </v>
   <v>       0.14267449       0.28563966       0.49869827 </v>
   <v>       0.14270486       0.42838835       0.49866813 </v>
   <v>       0.14441802       0.57115809       0.49875374 </v>
   <v>       0.14492275       0.71437926       0.49922641 </v>
   <v>       0.14491004       0.85812826       0.49929802 </v>
   <v>       0.28748587       0.00140415       0.49836671 </v>
   <v>       0.28813926       0.14620841       0.49767175 </v>
   <v>       0.28905243       0.29347330       0.49641137 </v>
   <v>       0.28541809       0.42825783       0.49635600 </v>
   <v>       0.28934506       0.56695575       0.49727699 </v>
   <v>       0.28813448       0.71331677       0.49818166 </v>
   <v>       0.28747705       0.85748076       0.49856954 </v>
   <v>       0.43004482       0.00073773       0.49705451 </v>
   <v>       0.43010519       0.14557377       0.49669368 </v>
   <v>       0.43009221       0.85596164       0.49683366 </v>
   <v>       0.57191952       0.99945713       0.49596537 </v>
   <v>       0.57193514       0.14390583       0.49610546 </v>
   <v>       0.57417582       0.29158448       0.49526014 </v>
   <v>       0.57422696       0.85405385       0.49507290 </v>
   <v>       0.71402307       0.99834739       0.49588102 </v>
   <v>       0.71434145       0.14286447       0.49645721 </v>
   <v>       0.71400654       0.28707907       0.49618680 </v>
   <v>       0.70964141       0.42806100       0.49456346 </v>
   <v>       0.70961716       0.85297528       0.49428229 </v>
   <v>       0.85660274       0.99860396       0.49681863 </v>
   <v>       0.85664787       0.14221268       0.49745003 </v>
   <v>       0.85664779       0.28580791       0.49759897 </v>
   <v>       0.85661110       0.42935022       0.49708839 </v>
   <v>       0.85703037       0.57251574       0.49660691 </v>
   <v>       0.85931647       0.71530223       0.49626309 </v>
   <v>       0.85699571       0.85580130       0.49622542 </v>
   <v>       0.04846458       0.09570972       0.49870391 </v>
   <v>       0.04699295       0.23757022       0.49889691 </v>
   <v>       0.04700253       0.38077166       0.49887267 </v>
   <v>       0.04856786       0.52410246       0.49876922 </v>
   <v>       0.04925206       0.66720555       0.49899873 </v>
   <v>       0.04949530       0.81041879       0.49904302 </v>
   <v>       0.04925840       0.95338757       0.49879316 </v>
   <v>       0.19246964       0.09726565       0.49859898 </v>
   <v>       0.19206220       0.24000278       0.49838239 </v>
   <v>       0.18958194       0.38046242       0.49826142 </v>
   <v>       0.19225768       0.52339867       0.49831837 </v>
   <v>       0.19247641       0.66654043       0.49883915 </v>
   <v>       0.19240485       0.81007988       0.49921089 </v>
   <v>       0.19240294       0.95366979       0.49899375 </v>
   <v>       0.33505190       0.09763825       0.49760273 </v>
   <v>       0.33939422       0.24294683       0.49635636 </v>
   <v>       0.33944841       0.66787420       0.49726306 </v>
   <v>       0.33503610       0.80881638       0.49795857 </v>
   <v>       0.33470556       0.95307576       0.49805254 </v>
   <v>       0.47712668       0.09651473       0.49659692 </v>
   <v>       0.47491333       0.24197895       0.49581731 </v>
   <v>       0.47492199       0.80437155       0.49599543 </v>
   <v>       0.47710414       0.95204052       0.49654453 </v>
   <v>       0.61901397       0.09520003       0.49614339 </v>
   <v>       0.61897499       0.23998309       0.49583424 </v>
   <v>       0.61897356       0.95043626       0.49558728 </v>
   <v>       0.76158016       0.09454374       0.49655798 </v>
   <v>       0.76157029       0.23842511       0.49675710 </v>
   <v>       0.76089715       0.38255993       0.49597080 </v>
   <v>       0.75996290       0.52906030       0.49402510 </v>
   <v>       0.76341504       0.66739028       0.49296121 </v>
   <v>       0.75993784       0.80218927       0.49381032 </v>
   <v>       0.76090484       0.94972998       0.49560509 </v>
   <v>       0.90411886       0.09399000       0.49768705 </v>
   <v>       0.90412350       0.23774373       0.49803226 </v>
   <v>       0.90412917       0.38148032       0.49787854 </v>
   <v>       0.90480216       0.52474824       0.49757853 </v>
   <v>       0.90632346       0.66748387       0.49727764 </v>
   <v>       0.90631735       0.81014261       0.49712730 </v>
   <v>       0.90475092       0.95135292       0.49723727 </v>
   <v>       0.42927523       0.28685117       0.49552115 </v>
   <v>       0.42926185       0.71390119       0.49619777 </v>
   <v>       0.71679095       0.57545465       0.49106233 </v>
   <v>       0.71679418       0.71262499       0.49121327 </v>
   <v>       0.33211313       0.38314672       0.49437806 </v>
   <v>       0.33245991       0.52023282       0.49609383 </v>
   <v>       0.61979760       0.38207850       0.49442750 </v>
   <v>       0.61983061       0.80922672       0.49405160 </v>
   <v>       0.48123295       0.54511912       0.53692071 </v>
   <v>       0.51947955       0.48162415       0.53398302 </v>
   <v>       0.51965591       0.52876045       0.56977594 </v>
  </varray>
  <varray name="selective"  type="logical" >
   <v type="logical" >  T  T  T </v>
   <v type="logical" >  T  T  T </v>
   <v type="logical" >  T  T  T </v>
   <v type="logical" >  T  T  T </v>
   <v type="logical" >  T  T  T </v>
   <v type="logical" >  T  T  T </v>
   <v type="logical" >  T  T  T </v>
   <v type="logical" >  T  T  T </v>
   <v type="logical" >  T  T  T </v>
   <v type="logical" >  T  T  T </v>
   <v type="logical" >  T  T  T </v>
   <v type="logical" >  T  T  T </v>
   <v type="logical" >  T  T  T </v>
   <v type="logical" >  T  T  T </v>
   <v type="logical" >  T  T  T </v>
   <v type="logical" >  T  T  T </v>
   <v type="logical" >  T  T  T </v>
   <v type="logical" >  T  T  T </v>
   <v type="logical" >  T  T  T </v>
   <v type="logical" >  T  T  T </v>
   <v type="logical" >  T  T  T </v>
   <v type="logical" >  T  T  T </v>
   <v type="logical" >  T  T  T </v>
   <v type="logical" >  T  T  T </v>
   <v type="logical" >  T  T  T </v>
   <v type="logical" >  T  T  T </v>
   <v type="logical" >  T  T  T </v>
   <v type="logical" >  T  T  T </v>
   <v type="logical" >  T  T  T </v>
   <v type="logical" >  T  T  T </v>
   <v type="logical" >  T  T  T </v>
   <v type="logical" >  T  T  T </v>
   <v type="logical" >  T  T  T </v>
   <v type="logical" >  T  T  T </v>
   <v type="logical" >  T  T  T </v>
   <v type="logical" >  T  T  T </v>
   <v type="logical" >  T  T  T </v>
   <v type="logical" >  T  T  T </v>
   <v type="logical" >  T  T  T </v>
   <v type="logical" >  T  T  T </v>
   <v type="logical" >  T  T  T </v>
   <v type="logical" >  T  T  T </v>
   <v type="logical" >  T  T  T </v>
   <v type="logical" >  T  T  T </v>
   <v type="logical" >  T  T  T </v>
   <v type="logical" >  T  T  T </v>
   <v type="logical" >  T  T  T </v>
   <v type="logical" >  T  T  T </v>
   <v type="logical" >  T  T  T </v>
   <v type="logical" >  T  T  T </v>
   <v type="logical" >  T  T  T </v>
   <v type="logical" >  T  T  T </v>
   <v type="logical" >  T  T  T </v>
   <v type="logical" >  T  T  T </v>
   <v type="logical" >  T  T  T </v>
   <v type="logical" >  T  T  T </v>
   <v type="logical" >  T  T  T </v>
   <v type="logical" >  T  T  T </v>
   <v type="logical" >  T  T  T </v>
   <v type="logical" >  T  T  T </v>
   <v type="logical" >  T  T  T </v>
   <v type="logical" >  T  T  T </v>
   <v type="logical" >  T  T  T </v>
   <v type="logical" >  T  T  T </v>
   <v type="logical" >  T  T  T </v>
   <v type="logical" >  T  T  T </v>
   <v type="logical" >  T  T  T </v>
   <v type="logical" >  T  T  T </v>
   <v type="logical" >  T  T  T </v>
   <v type="logical" >  T  T  T </v>
   <v type="logical" >  T  T  T </v>
   <v type="logical" >  T  T  T </v>
   <v type="logical" >  T  T  T </v>
   <v type="logical" >  T  T  T </v>
   <v type="logical" >  T  T  T </v>
   <v type="logical" >  T  T  T </v>
   <v type="logical" >  T  T  T </v>
   <v type="logical" >  T  T  T </v>
   <v type="logical" >  T  T  T </v>
   <v type="logical" >  T  T  T </v>
   <v type="logical" >  T  T  T </v>
   <v type="logical" >  T  T  T </v>
   <v type="logical" >  T  T  T </v>
   <v type="logical" >  T  T  T </v>
   <v type="logical" >  T  T  T </v>
   <v type="logical" >  T  T  T </v>
   <v type="logical" >  T  T  T </v>
   <v type="logical" >  T  T  T </v>
   <v type="logical" >  T  T  T </v>
   <v type="logical" >  T  T  T </v>
   <v type="logical" >  T  T  F </v>
  </varray>
  <nose>
   <v>      -3.00000000       0.00000000       0.00010000       0.00010000 </v>
  </nose>
 </structure>
</modeling>
