unknown system                          
           1
    17.271038    0.000000    0.000000
    -8.635519   14.957158    0.000000
     0.000000    0.000000   15.000000
   C    N    H    O 
    80     8     2     1
Direct configuration=     1
   0.00055587  0.00008961  0.49830802
   0.99977204  0.14241089  0.49855717
   0.99954154  0.28545634  0.49872903
   0.99980147  0.42870011  0.49859708
   0.00062554  0.57180245  0.49857649
   0.00201564  0.71510032  0.49863769
   0.00201976  0.85825848  0.49854430
   0.14491707  0.00186965  0.49898503
   0.14427166  0.14445949  0.49878484
   0.14267449  0.28563966  0.49869827
   0.14270486  0.42838835  0.49866813
   0.14441802  0.57115809  0.49875374
   0.14492275  0.71437926  0.49922641
   0.14491004  0.85812826  0.49929802
   0.28748587  0.00140415  0.49836671
   0.28813926  0.14620841  0.49767175
   0.28905243  0.29347330  0.49641137
   0.28541809  0.42825783  0.49635600
   0.28934506  0.56695575  0.49727699
   0.28813448  0.71331677  0.49818166
   0.28747705  0.85748076  0.49856954
   0.43004482  0.00073773  0.49705451
   0.43010519  0.14557377  0.49669368
   0.43009221  0.85596164  0.49683366
   0.57191952  0.99945713  0.49596537
   0.57193514  0.14390583  0.49610546
   0.57417582  0.29158448  0.49526014
   0.57422696  0.85405385  0.49507290
   0.71402307  0.99834739  0.49588102
   0.71434145  0.14286447  0.49645721
   0.71400654  0.28707907  0.49618680
   0.70964141  0.42806100  0.49456346
   0.70961716  0.85297528  0.49428229
   0.85660274  0.99860396  0.49681863
   0.85664787  0.14221268  0.49745003
   0.85664779  0.28580791  0.49759897
   0.85661110  0.42935022  0.49708839
   0.85703037  0.57251574  0.49660691
   0.85931647  0.71530223  0.49626309
   0.85699571  0.85580130  0.49622542
   0.04846458  0.09570972  0.49870391
   0.04699295  0.23757022  0.49889691
   0.04700253  0.38077166  0.49887267
   0.04856786  0.52410246  0.49876922
   0.04925206  0.66720555  0.49899873
   0.04949530  0.81041879  0.49904302
   0.04925840  0.95338757  0.49879316
   0.19246964  0.09726565  0.49859898
   0.19206220  0.24000278  0.49838239
   0.18958194  0.38046242  0.49826142
   0.19225768  0.52339867  0.49831837
   0.19247641  0.66654043  0.49883915
   0.19240485  0.81007988  0.49921089
   0.19240294  0.95366979  0.49899375
   0.33505190  0.09763825  0.49760273
   0.33939422  0.24294683  0.49635636
   0.33944841  0.66787420  0.49726306
   0.33503610  0.80881638  0.49795857
   0.33470556  0.95307576  0.49805254
   0.47712668  0.09651473  0.49659692
   0.47491333  0.24197895  0.49581731
   0.47492199  0.80437155  0.49599543
   0.47710414  0.95204052  0.49654453
   0.61901397  0.09520003  0.49614339
   0.61897499  0.23998309  0.49583424
   0.61897356  0.95043626  0.49558728
   0.76158016  0.09454374  0.49655798
   0.76157029  0.23842511  0.49675710
   0.76089715  0.38255993  0.49597080
   0.75996290  0.52906030  0.49402510
   0.76341504  0.66739028  0.49296121
   0.75993784  0.80218927  0.49381032
   0.76090484  0.94972998  0.49560509
   0.90411886  0.09399000  0.49768705
   0.90412350  0.23774373  0.49803226
   0.90412917  0.38148032  0.49787854
   0.90480216  0.52474824  0.49757853
   0.90632346  0.66748387  0.49727764
   0.90631735  0.81014261  0.49712730
   0.90475092  0.95135292  0.49723727
   0.42927523  0.28685117  0.49552115
   0.42926185  0.71390119  0.49619777
   0.71679095  0.57545465  0.49106233
   0.71679418  0.71262499  0.49121327
   0.33211313  0.38314672  0.49437806
   0.33245991  0.52023282  0.49609383
   0.61979760  0.38207850  0.49442750
   0.61983061  0.80922672  0.49405160
   0.48123295  0.54511912  0.53692071
   0.51947955  0.48162415  0.53398302
   0.51965591  0.52876045  0.56977594
