  97  97   0   0
  0.3994726E+02  0.1727104E-08  0.1727104E-08  0.1500000E-08  0.5000000E-16
   1.0000000000000000E-004
  CAR 
 unknown system                          
      5.90462463    -31.32684404  301     -2.53002401      1.00000000
    -31.327  0.0000E+00  0.0000E+00  0.0000E+00  0.0000E+00
    -31.203  0.0000E+00  0.0000E+00  0.0000E+00  0.0000E+00
    -31.079  0.0000E+00  0.0000E+00  0.0000E+00  0.0000E+00
    -30.955  0.0000E+00  0.0000E+00  0.0000E+00  0.0000E+00
    -30.830  0.0000E+00  0.0000E+00  0.0000E+00  0.0000E+00
    -30.706  0.0000E+00  0.0000E+00  0.0000E+00  0.0000E+00
    -30.582  0.0000E+00  0.0000E+00  0.0000E+00  0.0000E+00
    -30.458  0.0000E+00  0.0000E+00  0.0000E+00  0.0000E+00
    -30.334  0.0000E+00  0.0000E+00  0.0000E+00  0.0000E+00
    -30.210  0.0000E+00  0.0000E+00  0.0000E+00  0.0000E+00
    -30.086  0.0000E+00  0.0000E+00  0.0000E+00  0.0000E+00
    -29.962  0.0000E+00  0.0000E+00  0.0000E+00  0.0000E+00
    -29.838  0.1236E-09  0.1236E-09  0.1534E-10  0.1534E-10
    -29.713  0.3417E-03  0.3417E-03  0.4241E-04  0.4241E-04
    -29.589  0.2381E-01  0.2381E-01  0.2997E-02  0.2997E-02
    -29.465  0.1591E-01  0.1591E-01  0.4972E-02  0.4972E-02
    -29.341  0.1797E-01  0.1797E-01  0.7203E-02  0.7203E-02
    -29.217  0.3851E-01  0.3851E-01  0.1198E-01  0.1198E-01
    -29.093  0.6278E-01  0.6278E-01  0.1977E-01  0.1977E-01
    -28.969  0.1831E-02  0.1831E-02  0.2000E-01  0.2000E-01
    -28.845  0.6547E-08  0.6547E-08  0.2000E-01  0.2000E-01
    -28.721  0.0000E+00  0.0000E+00  0.2000E-01  0.2000E-01
    -28.597  0.0000E+00  0.0000E+00  0.2000E-01  0.2000E-01
    -28.472  0.0000E+00  0.0000E+00  0.2000E-01  0.2000E-01
    -28.348  0.0000E+00  0.0000E+00  0.2000E-01  0.2000E-01
    -28.224  0.0000E+00  0.0000E+00  0.2000E-01  0.2000E-01
    -28.100  0.0000E+00  0.0000E+00  0.2000E-01  0.2000E-01
    -27.976  0.0000E+00  0.0000E+00  0.2000E-01  0.2000E-01
    -27.852  0.0000E+00  0.0000E+00  0.2000E-01  0.2000E-01
    -27.728  0.0000E+00  0.0000E+00  0.2000E-01  0.2000E-01
    -27.604  0.0000E+00  0.0000E+00  0.2000E-01  0.2000E-01
    -27.480  0.0000E+00  0.0000E+00  0.2000E-01  0.2000E-01
    -27.355  0.0000E+00  0.0000E+00  0.2000E-01  0.2000E-01
    -27.231  0.0000E+00  0.0000E+00  0.2000E-01  0.2000E-01
    -27.107  0.0000E+00  0.0000E+00  0.2000E-01  0.2000E-01
    -26.983  0.0000E+00  0.0000E+00  0.2000E-01  0.2000E-01
    -26.859  0.0000E+00  0.0000E+00  0.2000E-01  0.2000E-01
    -26.735  0.0000E+00  0.0000E+00  0.2000E-01  0.2000E-01
    -26.611  0.0000E+00  0.0000E+00  0.2000E-01  0.2000E-01
    -26.487  0.0000E+00  0.0000E+00  0.2000E-01  0.2000E-01
    -26.363  0.0000E+00  0.0000E+00  0.2000E-01  0.2000E-01
    -26.239  0.0000E+00  0.0000E+00  0.2000E-01  0.2000E-01
    -26.114  0.0000E+00  0.0000E+00  0.2000E-01  0.2000E-01
    -25.990  0.0000E+00  0.0000E+00  0.2000E-01  0.2000E-01
    -25.866  0.0000E+00  0.0000E+00  0.2000E-01  0.2000E-01
    -25.742  0.0000E+00  0.0000E+00  0.2000E-01  0.2000E-01
    -25.618  0.0000E+00  0.0000E+00  0.2000E-01  0.2000E-01
    -25.494  0.0000E+00  0.0000E+00  0.2000E-01  0.2000E-01
    -25.370  0.0000E+00  0.0000E+00  0.2000E-01  0.2000E-01
    -25.246  0.0000E+00  0.0000E+00  0.2000E-01  0.2000E-01
    -25.122  0.0000E+00  0.0000E+00  0.2000E-01  0.2000E-01
    -24.997  0.0000E+00  0.0000E+00  0.2000E-01  0.2000E-01
    -24.873  0.0000E+00  0.0000E+00  0.2000E-01  0.2000E-01
    -24.749  0.0000E+00  0.0000E+00  0.2000E-01  0.2000E-01
    -24.625  0.0000E+00  0.0000E+00  0.2000E-01  0.2000E-01
    -24.501  0.0000E+00  0.0000E+00  0.2000E-01  0.2000E-01
    -24.377  0.0000E+00  0.0000E+00  0.2000E-01  0.2000E-01
    -24.253  0.0000E+00  0.0000E+00  0.2000E-01  0.2000E-01
    -24.129  0.0000E+00  0.0000E+00  0.2000E-01  0.2000E-01
    -24.005  0.0000E+00  0.0000E+00  0.2000E-01  0.2000E-01
    -23.881  0.0000E+00  0.0000E+00  0.2000E-01  0.2000E-01
    -23.756  0.0000E+00  0.0000E+00  0.2000E-01  0.2000E-01
    -23.632  0.0000E+00  0.0000E+00  0.2000E-01  0.2000E-01
    -23.508  0.0000E+00  0.0000E+00  0.2000E-01  0.2000E-01
    -23.384  0.0000E+00  0.0000E+00  0.2000E-01  0.2000E-01
    -23.260  0.0000E+00  0.0000E+00  0.2000E-01  0.2000E-01
    -23.136  0.0000E+00  0.0000E+00  0.2000E-01  0.2000E-01
    -23.012  0.0000E+00  0.0000E+00  0.2000E-01  0.2000E-01
    -22.888  0.0000E+00  0.0000E+00  0.2000E-01  0.2000E-01
    -22.764  0.0000E+00  0.0000E+00  0.2000E-01  0.2000E-01
    -22.640  0.0000E+00  0.0000E+00  0.2000E-01  0.2000E-01
    -22.515  0.4539E-10  0.4539E-10  0.2000E-01  0.2000E-01
    -22.391  0.2133E-03  0.2133E-03  0.2003E-01  0.2003E-01
    -22.267  0.2817E-01  0.2817E-01  0.2352E-01  0.2352E-01
    -22.143  0.2523E-01  0.2523E-01  0.2665E-01  0.2665E-01
    -22.019  0.1123E-03  0.1123E-03  0.2667E-01  0.2667E-01
    -21.895  0.3717E-03  0.3717E-03  0.2671E-01  0.2671E-01
    -21.771  0.3241E-01  0.3241E-01  0.3074E-01  0.3074E-01
    -21.647  0.3999E-01  0.3999E-01  0.3570E-01  0.3570E-01
    -21.523  0.1541E-01  0.1541E-01  0.3761E-01  0.3761E-01
    -21.398  0.2585E-01  0.2585E-01  0.4082E-01  0.4082E-01
    -21.274  0.1006E-01  0.1006E-01  0.4207E-01  0.4207E-01
    -21.150  0.1965E-01  0.1965E-01  0.4451E-01  0.4451E-01
    -21.026  0.3697E-01  0.3697E-01  0.4909E-01  0.4909E-01
    -20.902  0.2142E-01  0.2142E-01  0.5175E-01  0.5175E-01
    -20.778  0.1737E-01  0.1737E-01  0.5391E-01  0.5391E-01
    -20.654  0.1310E-01  0.1310E-01  0.5553E-01  0.5553E-01
    -20.530  0.2556E-01  0.2556E-01  0.5871E-01  0.5871E-01
    -20.406  0.2700E-01  0.2700E-01  0.6206E-01  0.6206E-01
    -20.282  0.3552E-01  0.3552E-01  0.6646E-01  0.6646E-01
    -20.157  0.1217E-01  0.1217E-01  0.6798E-01  0.6798E-01
    -20.033  0.5130E-02  0.5130E-02  0.6861E-01  0.6861E-01
    -19.909  0.2746E-01  0.2746E-01  0.7202E-01  0.7202E-01
    -19.785  0.2233E-01  0.2233E-01  0.7479E-01  0.7479E-01
    -19.661  0.3216E-01  0.3216E-01  0.7878E-01  0.7878E-01
    -19.537  0.3608E-01  0.3608E-01  0.8326E-01  0.8326E-01
    -19.413  0.2280E-01  0.2280E-01  0.8609E-01  0.8609E-01
    -19.289  0.1649E-01  0.1649E-01  0.8814E-01  0.8814E-01
    -19.165  0.1385E-01  0.1385E-01  0.8986E-01  0.8986E-01
    -19.040  0.1826E-01  0.1826E-01  0.9212E-01  0.9212E-01
    -18.916  0.1578E-01  0.1578E-01  0.9408E-01  0.9408E-01
    -18.792  0.2411E-01  0.2411E-01  0.9707E-01  0.9707E-01
    -18.668  0.5105E-01  0.5105E-01  0.1034E+00  0.1034E+00
    -18.544  0.2210E-01  0.2210E-01  0.1062E+00  0.1062E+00
    -18.420  0.1948E-01  0.1948E-01  0.1086E+00  0.1086E+00
    -18.296  0.3184E-01  0.3184E-01  0.1125E+00  0.1125E+00
    -18.172  0.1713E-01  0.1713E-01  0.1146E+00  0.1146E+00
    -18.048  0.1501E-01  0.1501E-01  0.1165E+00  0.1165E+00
    -17.924  0.1941E-01  0.1941E-01  0.1189E+00  0.1189E+00
    -17.799  0.2018E-01  0.2018E-01  0.1214E+00  0.1214E+00
    -17.675  0.2387E-01  0.2387E-01  0.1244E+00  0.1244E+00
    -17.551  0.5106E-01  0.5106E-01  0.1307E+00  0.1307E+00
    -17.427  0.3413E-01  0.3413E-01  0.1350E+00  0.1350E+00
    -17.303  0.3302E-01  0.3302E-01  0.1391E+00  0.1391E+00
    -17.179  0.1427E-01  0.1427E-01  0.1408E+00  0.1408E+00
    -17.055  0.2167E-01  0.2167E-01  0.1435E+00  0.1435E+00
    -16.931  0.2903E-01  0.2903E-01  0.1471E+00  0.1471E+00
    -16.807  0.2017E-01  0.2017E-01  0.1496E+00  0.1496E+00
    -16.682  0.1735E-01  0.1735E-01  0.1518E+00  0.1518E+00
    -16.558  0.4167E-01  0.4167E-01  0.1569E+00  0.1569E+00
    -16.434  0.4396E-01  0.4396E-01  0.1624E+00  0.1624E+00
    -16.310  0.2049E-01  0.2049E-01  0.1649E+00  0.1649E+00
    -16.186  0.5084E-03  0.5084E-03  0.1650E+00  0.1650E+00
    -16.062  0.1029E-01  0.1029E-01  0.1663E+00  0.1663E+00
    -15.938  0.5414E-02  0.5414E-02  0.1670E+00  0.1670E+00
    -15.814  0.9065E-02  0.9065E-02  0.1681E+00  0.1681E+00
    -15.690  0.2154E-01  0.2154E-01  0.1708E+00  0.1708E+00
    -15.566  0.1652E-01  0.1652E-01  0.1728E+00  0.1728E+00
    -15.441  0.2642E-01  0.2642E-01  0.1761E+00  0.1761E+00
    -15.317  0.2343E-01  0.2343E-01  0.1790E+00  0.1790E+00
    -15.193  0.3979E-01  0.3979E-01  0.1839E+00  0.1839E+00
    -15.069  0.2866E-01  0.2866E-01  0.1875E+00  0.1875E+00
    -14.945  0.2647E-01  0.2647E-01  0.1908E+00  0.1908E+00
    -14.821  0.2151E-01  0.2151E-01  0.1934E+00  0.1934E+00
    -14.697  0.3133E-01  0.3133E-01  0.1973E+00  0.1973E+00
    -14.573  0.3233E-01  0.3233E-01  0.2013E+00  0.2013E+00
    -14.449  0.4791E-01  0.4791E-01  0.2073E+00  0.2073E+00
    -14.324  0.3237E-01  0.3237E-01  0.2113E+00  0.2113E+00
    -14.200  0.1598E-01  0.1598E-01  0.2133E+00  0.2133E+00
    -14.076  0.1801E-01  0.1801E-01  0.2155E+00  0.2155E+00
    -13.952  0.1422E-01  0.1422E-01  0.2173E+00  0.2173E+00
    -13.828  0.1829E-01  0.1829E-01  0.2196E+00  0.2196E+00
    -13.704  0.4141E-01  0.4141E-01  0.2247E+00  0.2247E+00
    -13.580  0.3398E-01  0.3398E-01  0.2289E+00  0.2289E+00
    -13.456  0.2741E-01  0.2741E-01  0.2323E+00  0.2323E+00
    -13.332  0.1834E-01  0.1834E-01  0.2346E+00  0.2346E+00
    -13.208  0.7608E-02  0.7608E-02  0.2355E+00  0.2355E+00
    -13.083  0.1947E-01  0.1947E-01  0.2379E+00  0.2379E+00
    -12.959  0.2222E-01  0.2222E-01  0.2407E+00  0.2407E+00
    -12.835  0.2646E-01  0.2646E-01  0.2440E+00  0.2440E+00
    -12.711  0.7155E-01  0.7155E-01  0.2529E+00  0.2529E+00
    -12.587  0.2408E-01  0.2408E-01  0.2559E+00  0.2559E+00
    -12.463  0.2709E-01  0.2709E-01  0.2592E+00  0.2592E+00
    -12.339  0.3993E-01  0.3993E-01  0.2642E+00  0.2642E+00
    -12.215  0.2137E-01  0.2137E-01  0.2668E+00  0.2668E+00
    -12.091  0.2160E-01  0.2160E-01  0.2695E+00  0.2695E+00
    -11.966  0.2741E-01  0.2741E-01  0.2729E+00  0.2729E+00
    -11.842  0.4319E-01  0.4319E-01  0.2783E+00  0.2783E+00
    -11.718  0.3777E-01  0.3777E-01  0.2830E+00  0.2830E+00
    -11.594  0.4954E-01  0.4954E-01  0.2891E+00  0.2891E+00
    -11.470  0.3406E-01  0.3406E-01  0.2933E+00  0.2933E+00
    -11.346  0.3593E-01  0.3593E-01  0.2978E+00  0.2978E+00
    -11.222  0.4708E-01  0.4708E-01  0.3036E+00  0.3036E+00
    -11.098  0.3329E-01  0.3329E-01  0.3078E+00  0.3078E+00
    -10.974  0.3103E-01  0.3103E-01  0.3116E+00  0.3116E+00
    -10.850  0.2919E-01  0.2919E-01  0.3152E+00  0.3152E+00
    -10.725  0.3288E-01  0.3288E-01  0.3193E+00  0.3193E+00
    -10.601  0.2785E-01  0.2785E-01  0.3228E+00  0.3228E+00
    -10.477  0.4272E-01  0.4272E-01  0.3281E+00  0.3281E+00
    -10.353  0.5204E-01  0.5204E-01  0.3345E+00  0.3345E+00
    -10.229  0.5855E-01  0.5855E-01  0.3418E+00  0.3418E+00
    -10.105  0.6071E-01  0.6071E-01  0.3493E+00  0.3493E+00
     -9.981  0.7849E-01  0.7849E-01  0.3591E+00  0.3591E+00
     -9.857  0.5975E-01  0.5975E-01  0.3665E+00  0.3665E+00
     -9.733  0.5783E-01  0.5783E-01  0.3737E+00  0.3737E+00
     -9.608  0.6901E-01  0.6901E-01  0.3822E+00  0.3822E+00
     -9.484  0.6600E-01  0.6600E-01  0.3904E+00  0.3904E+00
     -9.360  0.9122E-01  0.9122E-01  0.4017E+00  0.4017E+00
     -9.236  0.7371E-01  0.7371E-01  0.4109E+00  0.4109E+00
     -9.112  0.6682E-01  0.6682E-01  0.4192E+00  0.4192E+00
     -8.988  0.7366E-01  0.7366E-01  0.4283E+00  0.4283E+00
     -8.864  0.9122E-01  0.9122E-01  0.4396E+00  0.4396E+00
     -8.740  0.7557E-01  0.7557E-01  0.4490E+00  0.4490E+00
     -8.616  0.5688E-01  0.5688E-01  0.4561E+00  0.4561E+00
     -8.492  0.4167E-01  0.4167E-01  0.4613E+00  0.4613E+00
     -8.367  0.5976E-01  0.5976E-01  0.4687E+00  0.4687E+00
     -8.243  0.6140E-01  0.6140E-01  0.4763E+00  0.4763E+00
     -8.119  0.6376E-01  0.6376E-01  0.4842E+00  0.4842E+00
     -7.995  0.7227E-01  0.7227E-01  0.4932E+00  0.4932E+00
     -7.871  0.5610E-01  0.5610E-01  0.5001E+00  0.5001E+00
     -7.747  0.3318E-01  0.3318E-01  0.5043E+00  0.5043E+00
     -7.623  0.5020E-01  0.5020E-01  0.5105E+00  0.5105E+00
     -7.499  0.4899E-01  0.4899E-01  0.5166E+00  0.5166E+00
     -7.375  0.6325E-01  0.6325E-01  0.5244E+00  0.5244E+00
     -7.250  0.6413E-01  0.6413E-01  0.5324E+00  0.5324E+00
     -7.126  0.6961E-01  0.6961E-01  0.5410E+00  0.5410E+00
     -7.002  0.6989E-01  0.6989E-01  0.5497E+00  0.5497E+00
     -6.878  0.3309E-01  0.3309E-01  0.5538E+00  0.5538E+00
     -6.754  0.4406E-01  0.4406E-01  0.5593E+00  0.5593E+00
     -6.630  0.3697E-01  0.3697E-01  0.5639E+00  0.5639E+00
     -6.506  0.2749E-01  0.2749E-01  0.5673E+00  0.5673E+00
     -6.382  0.3018E-01  0.3018E-01  0.5710E+00  0.5710E+00
     -6.258  0.7719E-01  0.7719E-01  0.5806E+00  0.5806E+00
     -6.134  0.6705E-01  0.6705E-01  0.5889E+00  0.5889E+00
     -6.009  0.1701E-01  0.1701E-01  0.5910E+00  0.5910E+00
     -5.885  0.4081E-01  0.4081E-01  0.5961E+00  0.5961E+00
     -5.761  0.3933E-01  0.3933E-01  0.6010E+00  0.6010E+00
     -5.637  0.3278E-01  0.3278E-01  0.6050E+00  0.6050E+00
     -5.513  0.2819E-01  0.2819E-01  0.6085E+00  0.6085E+00
     -5.389  0.2639E-01  0.2639E-01  0.6118E+00  0.6118E+00
     -5.265  0.8956E-02  0.8956E-02  0.6129E+00  0.6129E+00
     -5.141  0.5303E-01  0.5303E-01  0.6195E+00  0.6195E+00
     -5.017  0.5523E-01  0.5523E-01  0.6264E+00  0.6264E+00
     -4.893  0.5618E-01  0.5618E-01  0.6333E+00  0.6333E+00
     -4.768  0.1306E-01  0.1306E-01  0.6349E+00  0.6349E+00
     -4.644  0.2388E-01  0.2388E-01  0.6379E+00  0.6379E+00
     -4.520  0.2168E-01  0.2168E-01  0.6406E+00  0.6406E+00
     -4.396  0.3876E-01  0.3876E-01  0.6454E+00  0.6454E+00
     -4.272  0.2674E-01  0.2674E-01  0.6487E+00  0.6487E+00
     -4.148  0.2349E-01  0.2349E-01  0.6516E+00  0.6516E+00
     -4.024  0.4927E-01  0.4927E-01  0.6578E+00  0.6578E+00
     -3.900  0.2047E-01  0.2047E-01  0.6603E+00  0.6603E+00
     -3.776  0.3275E-01  0.3275E-01  0.6644E+00  0.6644E+00
     -3.651  0.1844E-01  0.1844E-01  0.6667E+00  0.6667E+00
     -3.527  0.3775E-02  0.3775E-02  0.6671E+00  0.6671E+00
     -3.403  0.4620E-02  0.4620E-02  0.6677E+00  0.6677E+00
     -3.279  0.1848E-01  0.1848E-01  0.6700E+00  0.6700E+00
     -3.155  0.7643E-02  0.7643E-02  0.6709E+00  0.6709E+00
     -3.031  0.5828E-02  0.5828E-02  0.6717E+00  0.6717E+00
     -2.907  0.1064E-03  0.1064E-03  0.6717E+00  0.6717E+00
     -2.783  0.6405E-02  0.6405E-02  0.6725E+00  0.6725E+00
     -2.659  0.6909E-02  0.6909E-02  0.6733E+00  0.6733E+00
     -2.535  0.7175E-04  0.7175E-04  0.6733E+00  0.6733E+00
     -2.410  0.3935E-04  0.3935E-04  0.6733E+00  0.6733E+00
     -2.286  0.9686E-02  0.9686E-02  0.6745E+00  0.6745E+00
     -2.162  0.3704E-02  0.3704E-02  0.6750E+00  0.6750E+00
     -2.038  0.6431E-03  0.6431E-03  0.6751E+00  0.6751E+00
     -1.914  0.6345E-02  0.6345E-02  0.6759E+00  0.6759E+00
     -1.790  0.1348E-01  0.1348E-01  0.6775E+00  0.6775E+00
     -1.666  0.1343E-01  0.1343E-01  0.6792E+00  0.6792E+00
     -1.542  0.6291E-02  0.6291E-02  0.6800E+00  0.6800E+00
     -1.418  0.1261E-02  0.1261E-02  0.6801E+00  0.6801E+00
     -1.293  0.1754E-01  0.1754E-01  0.6823E+00  0.6823E+00
     -1.169  0.1381E-01  0.1381E-01  0.6840E+00  0.6840E+00
     -1.045  0.3278E-01  0.3278E-01  0.6881E+00  0.6881E+00
     -0.921  0.5678E-01  0.5678E-01  0.6952E+00  0.6952E+00
     -0.797  0.1089E-01  0.1089E-01  0.6965E+00  0.6965E+00
     -0.673  0.3368E-01  0.3368E-01  0.7007E+00  0.7007E+00
     -0.549  0.3898E-01  0.3898E-01  0.7055E+00  0.7055E+00
     -0.425  0.1757E-01  0.1757E-01  0.7077E+00  0.7077E+00
     -0.301  0.1838E-01  0.1838E-01  0.7100E+00  0.7100E+00
     -0.177  0.1972E-01  0.1972E-01  0.7124E+00  0.7124E+00
     -0.052  0.3098E-01  0.3098E-01  0.7163E+00  0.7163E+00
      0.072  0.4944E-01  0.4944E-01  0.7224E+00  0.7224E+00
      0.196  0.3312E-01  0.3312E-01  0.7265E+00  0.7265E+00
      0.320  0.3940E-02  0.3940E-02  0.7270E+00  0.7270E+00
      0.444  0.2004E-01  0.2004E-01  0.7295E+00  0.7295E+00
      0.568  0.1630E-01  0.1630E-01  0.7315E+00  0.7315E+00
      0.692  0.2301E-01  0.2301E-01  0.7344E+00  0.7344E+00
      0.816  0.2102E-01  0.2102E-01  0.7370E+00  0.7370E+00
      0.940  0.2183E-01  0.2183E-01  0.7397E+00  0.7397E+00
      1.065  0.3297E-01  0.3297E-01  0.7438E+00  0.7438E+00
      1.189  0.2128E-01  0.2128E-01  0.7464E+00  0.7464E+00
      1.313  0.3309E-01  0.3309E-01  0.7505E+00  0.7505E+00
      1.437  0.7040E-01  0.7040E-01  0.7593E+00  0.7593E+00
      1.561  0.5300E-01  0.5300E-01  0.7658E+00  0.7658E+00
      1.685  0.1991E-01  0.1991E-01  0.7683E+00  0.7683E+00
      1.809  0.3007E-01  0.3007E-01  0.7720E+00  0.7720E+00
      1.933  0.4449E-01  0.4449E-01  0.7776E+00  0.7776E+00
      2.057  0.8218E-01  0.8218E-01  0.7878E+00  0.7878E+00
      2.181  0.3839E-01  0.3839E-01  0.7925E+00  0.7925E+00
      2.306  0.3829E-01  0.3829E-01  0.7973E+00  0.7973E+00
      2.430  0.6963E-01  0.6963E-01  0.8059E+00  0.8059E+00
      2.554  0.7642E-01  0.7642E-01  0.8154E+00  0.8154E+00
      2.678  0.3558E-01  0.3558E-01  0.8198E+00  0.8198E+00
      2.802  0.5987E-01  0.5987E-01  0.8273E+00  0.8273E+00
      2.926  0.1185E+00  0.1185E+00  0.8420E+00  0.8420E+00
      3.050  0.1417E+00  0.1417E+00  0.8596E+00  0.8596E+00
      3.174  0.3580E-01  0.3580E-01  0.8640E+00  0.8640E+00
      3.298  0.5262E-01  0.5262E-01  0.8705E+00  0.8705E+00
      3.423  0.5083E-01  0.5083E-01  0.8768E+00  0.8768E+00
      3.547  0.8408E-01  0.8408E-01  0.8873E+00  0.8873E+00
      3.671  0.5446E-01  0.5446E-01  0.8940E+00  0.8940E+00
      3.795  0.6717E-01  0.6717E-01  0.9024E+00  0.9024E+00
      3.919  0.9853E-01  0.9853E-01  0.9146E+00  0.9146E+00
      4.043  0.8433E-01  0.8433E-01  0.9251E+00  0.9251E+00
      4.167  0.5259E-01  0.5259E-01  0.9316E+00  0.9316E+00
      4.291  0.1399E-01  0.1399E-01  0.9333E+00  0.9333E+00
      4.415  0.9381E-04  0.9384E-04  0.9333E+00  0.9333E+00
      4.539  0.3122E-10  0.3125E-10  0.9333E+00  0.9333E+00
      4.664  0.0000E+00  0.0000E+00  0.9333E+00  0.9333E+00
      4.788  0.0000E+00  0.0000E+00  0.9333E+00  0.9333E+00
      4.912  0.0000E+00  0.0000E+00  0.9333E+00  0.9333E+00
      5.036  0.0000E+00  0.0000E+00  0.9333E+00  0.9333E+00
      5.160  0.0000E+00  0.0000E+00  0.9333E+00  0.9333E+00
      5.284  0.0000E+00  0.0000E+00  0.9333E+00  0.9333E+00
      5.408  0.0000E+00  0.0000E+00  0.9333E+00  0.9333E+00
      5.532  0.0000E+00  0.0000E+00  0.9333E+00  0.9333E+00
      5.656  0.0000E+00  0.0000E+00  0.9333E+00  0.9333E+00
      5.781  0.0000E+00  0.0000E+00  0.9333E+00  0.9333E+00
      5.905  0.0000E+00  0.0000E+00  0.9333E+00  0.9333E+00
