       N       E                     dE             d eps       ncg     rms          rms(c)
DAV:   1     0.377058414945E+04    0.37706E+04   -0.15563E+05  4830   0.111E+03
DAV:   2    -0.173441120134E+03   -0.39440E+04   -0.37277E+04  6680   0.275E+02
DAV:   3    -0.861199654140E+03   -0.68776E+03   -0.68446E+03  5550   0.120E+02
DAV:   4    -0.883640180180E+03   -0.22441E+02   -0.22329E+02  5540   0.270E+01
DAV:   5    -0.884332498612E+03   -0.69232E+00   -0.69131E+00  6390   0.404E+00    0.524E+01
DAV:   6    -0.866732125225E+03    0.17600E+02   -0.21242E+01  5410   0.974E+00    0.339E+01
DAV:   7    -0.846183563516E+03    0.20549E+02   -0.35457E+01  5300   0.101E+01    0.206E+01
DAV:   8    -0.841340986312E+03    0.48426E+01   -0.19586E+01  5240   0.695E+00    0.870E+00
DAV:   9    -0.841524961044E+03   -0.18397E+00   -0.12063E+00  5270   0.226E+00    0.411E+00
DAV:  10    -0.841344019845E+03    0.18094E+00   -0.54501E-01  5160   0.136E+00    0.143E+00
DAV:  11    -0.841315906182E+03    0.28114E-01   -0.15581E-01  5190   0.754E-01    0.398E-01
DAV:  12    -0.841314926017E+03    0.98016E-03   -0.26542E-02  5270   0.342E-01    0.150E-01
DAV:  13    -0.841315194398E+03   -0.26838E-03   -0.36660E-03  5320   0.121E-01    0.105E-01
DAV:  14    -0.841315196191E+03   -0.17928E-05   -0.45904E-04  5260   0.439E-02    0.748E-02
DAV:  15    -0.841315261076E+03   -0.64885E-04   -0.27703E-04  5100   0.376E-02    0.290E-02
DAV:  16    -0.841315269396E+03   -0.83200E-05   -0.68535E-05  5110   0.176E-02    0.189E-02
DAV:  17    -0.841315268441E+03    0.95509E-06   -0.26379E-05  5510   0.130E-02    0.956E-03
DAV:  18    -0.841315267802E+03    0.63924E-06   -0.72275E-06  5080   0.895E-03
   1 F= -.84914899E+03 E0= -.84914899E+03  d E =-.849149E+03  mag=     0.0000
       N       E                     dE             d eps       ncg     rms          rms(c)
DAV:   1    -0.841315385131E+03   -0.11669E-03   -0.59233E-03  4700   0.160E-01    0.153E-02
DAV:   2    -0.841315395997E+03   -0.10866E-04   -0.14213E-04  5200   0.234E-02    0.125E-02
DAV:   3    -0.841315394694E+03    0.13031E-05   -0.47238E-06  5240   0.451E-03    0.965E-03
DAV:   4    -0.841315393849E+03    0.84537E-06   -0.21507E-06  3380   0.357E-03
   2 F= -.84914911E+03 E0= -.84914911E+03  d E =-.118175E-03  mag=    -0.0000
       N       E                     dE             d eps       ncg     rms          rms(c)
DAV:   1    -0.841315546481E+03   -0.15179E-03   -0.14981E-02  4720   0.248E-01    0.223E-02
DAV:   2    -0.841315572952E+03   -0.26472E-04   -0.32468E-04  4640   0.347E-02    0.165E-02
DAV:   3    -0.841315571692E+03    0.12608E-05   -0.48837E-06  5170   0.472E-03    0.129E-02
DAV:   4    -0.841315573535E+03   -0.18430E-05   -0.60699E-06  4360   0.593E-03    0.359E-03
DAV:   5    -0.841315573917E+03   -0.38250E-06   -0.15240E-06  3620   0.233E-03
   3 F= -.84914927E+03 E0= -.84914927E+03  d E =-.164677E-03  mag=     0.0000
       N       E                     dE             d eps       ncg     rms          rms(c)
DAV:   1    -0.841315771806E+03   -0.19827E-03   -0.32989E-02  4740   0.369E-01    0.325E-02
DAV:   2    -0.841315832600E+03   -0.60794E-04   -0.73360E-04  4640   0.524E-02    0.240E-02
DAV:   3    -0.841315829635E+03    0.29647E-05   -0.10836E-05  5650   0.702E-03    0.188E-02
DAV:   4    -0.841315833262E+03   -0.36270E-05   -0.13590E-05  4460   0.886E-03    0.507E-03
DAV:   5    -0.841315834056E+03   -0.79334E-06   -0.34344E-06  4560   0.347E-03
   4 F= -.84914951E+03 E0= -.84914951E+03  d E =-.237845E-03  mag=    -0.0000
       N       E                     dE             d eps       ncg     rms          rms(c)
DAV:   1    -0.841316038250E+03   -0.20499E-03   -0.54232E-02  4720   0.477E-01    0.418E-02
DAV:   2    -0.841316140930E+03   -0.10268E-03   -0.12395E-03  4720   0.682E-02    0.310E-02
DAV:   3    -0.841316135595E+03    0.53356E-05   -0.19135E-05  5820   0.933E-03    0.243E-02
DAV:   4    -0.841316140660E+03   -0.50653E-05   -0.22820E-05  4620   0.117E-02    0.699E-03
DAV:   5    -0.841316142243E+03   -0.15834E-05   -0.64490E-06  5150   0.466E-03    0.420E-03
DAV:   6    -0.841316142165E+03    0.78042E-07   -0.11471E-06  3100   0.311E-03
   5 F= -.84914978E+03 E0= -.84914978E+03  d E =-.270960E-03  mag=    -0.0000
       N       E                     dE             d eps       ncg     rms          rms(c)
DAV:   1    -0.841316237521E+03   -0.95278E-04   -0.42641E-02  4660   0.431E-01    0.392E-02
DAV:   2    -0.841316320447E+03   -0.82926E-04   -0.10385E-03  5260   0.630E-02    0.321E-02
DAV:   3    -0.841316312269E+03    0.81777E-05   -0.25836E-05  5800   0.101E-02    0.254E-02
DAV:   4    -0.841316308269E+03    0.40000E-05   -0.24613E-05  4680   0.115E-02    0.939E-03
DAV:   5    -0.841316309630E+03   -0.13608E-05   -0.78191E-06  4920   0.520E-03    0.485E-03
DAV:   6    -0.841316309649E+03   -0.18874E-07   -0.12216E-06  3020   0.268E-03
   6 F= -.84914994E+03 E0= -.84914994E+03  d E =-.152506E-03  mag=    -0.0000
       N       E                     dE             d eps       ncg     rms          rms(c)
DAV:   1    -0.841316490658E+03   -0.18103E-03   -0.82610E-03  4640   0.191E-01    0.187E-02
DAV:   2    -0.841316506199E+03   -0.15541E-04   -0.20780E-04  5420   0.281E-02    0.162E-02
DAV:   3    -0.841316503701E+03    0.24973E-05   -0.73595E-06  5580   0.527E-03    0.126E-02
DAV:   4    -0.841316501623E+03    0.20785E-05   -0.59255E-06  4400   0.543E-03    0.529E-03
DAV:   5    -0.841316501757E+03   -0.13422E-06   -0.18473E-06  3340   0.259E-03
   7 F= -.84915012E+03 E0= -.84915012E+03  d E =-.180358E-03  mag=    -0.0000
       N       E                     dE             d eps       ncg     rms          rms(c)
DAV:   1    -0.841316658099E+03   -0.15648E-03   -0.15701E-02  4700   0.255E-01    0.223E-02
DAV:   2    -0.841316687294E+03   -0.29196E-04   -0.35034E-04  4660   0.362E-02    0.164E-02
DAV:   3    -0.841316685889E+03    0.14055E-05   -0.49897E-06  5360   0.481E-03    0.129E-02
DAV:   4    -0.841316687523E+03   -0.16345E-05   -0.63760E-06  4300   0.626E-03    0.358E-03
DAV:   5    -0.841316687880E+03   -0.35696E-06   -0.16052E-06  3720   0.241E-03
   8 F= -.84915028E+03 E0= -.84915028E+03  d E =-.166470E-03  mag=     0.0000
       N       E                     dE             d eps       ncg     rms          rms(c)
DAV:   1    -0.841316879660E+03   -0.19214E-03   -0.33476E-02  4680   0.372E-01    0.325E-02
DAV:   2    -0.841316941897E+03   -0.62237E-04   -0.74695E-04  4600   0.527E-02    0.240E-02
DAV:   3    -0.841316938935E+03    0.29621E-05   -0.11106E-05  5550   0.709E-03    0.189E-02
DAV:   4    -0.841316942295E+03   -0.33603E-05   -0.13354E-05  4440   0.904E-03    0.525E-03
DAV:   5    -0.841316943162E+03   -0.86679E-06   -0.35703E-06  4680   0.353E-03
   9 F= -.84915052E+03 E0= -.84915052E+03  d E =-.232972E-03  mag=     0.0000
       N       E                     dE             d eps       ncg     rms          rms(c)
DAV:   1    -0.841317134404E+03   -0.19211E-03   -0.51669E-02  4600   0.465E-01    0.413E-02
DAV:   2    -0.841317231585E+03   -0.97181E-04   -0.11809E-03  4640   0.663E-02    0.311E-02
DAV:   3    -0.841317226035E+03    0.55495E-05   -0.19227E-05  5750   0.929E-03    0.245E-02
DAV:   4    -0.841317230502E+03   -0.44667E-05   -0.24117E-05  4560   0.121E-02    0.712E-03
DAV:   5    -0.841317232029E+03   -0.15271E-05   -0.67634E-06  5160   0.478E-03    0.443E-03
DAV:   6    -0.841317231933E+03    0.96261E-07   -0.11985E-06  3160   0.321E-03
  10 F= -.84915077E+03 E0= -.84915077E+03  d E =-.258225E-03  mag=    -0.0000
       N       E                     dE             d eps       ncg     rms          rms(c)
DAV:   1    -0.841317343434E+03   -0.11140E-03   -0.37352E-02  4600   0.402E-01    0.377E-02
DAV:   2    -0.841317413736E+03   -0.70302E-04   -0.89632E-04  5190   0.584E-02    0.309E-02
DAV:   3    -0.841317405476E+03    0.82603E-05   -0.24421E-05  5780   0.986E-03    0.241E-02
DAV:   4    -0.841317401084E+03    0.43919E-05   -0.24975E-05  4740   0.115E-02    0.894E-03
DAV:   5    -0.841317402159E+03   -0.10756E-05   -0.72911E-06  4740   0.506E-03    0.482E-03
DAV:   6    -0.841317402197E+03   -0.37107E-07   -0.10623E-06  3040   0.250E-03
  11 F= -.84915093E+03 E0= -.84915093E+03  d E =-.157525E-03  mag=     0.0000
       N       E                     dE             d eps       ncg     rms          rms(c)
DAV:   1    -0.841317562512E+03   -0.16035E-03   -0.77732E-03  4600   0.185E-01    0.182E-02
DAV:   2    -0.841317576859E+03   -0.14346E-04   -0.19302E-04  5460   0.270E-02    0.157E-02
DAV:   3    -0.841317574450E+03    0.24085E-05   -0.66454E-06  5500   0.502E-03    0.122E-02
DAV:   4    -0.841317572574E+03    0.18758E-05   -0.67062E-06  4430   0.573E-03    0.484E-03
DAV:   5    -0.841317572733E+03   -0.15902E-06   -0.17491E-06  3260   0.249E-03
  12 F= -.84915109E+03 E0= -.84915109E+03  d E =-.162060E-03  mag=    -0.0000
       N       E                     dE             d eps       ncg     rms          rms(c)
DAV:   1    -0.841317713423E+03   -0.14085E-03   -0.13957E-02  4620   0.240E-01    0.207E-02
DAV:   2    -0.841317739106E+03   -0.25682E-04   -0.30882E-04  4600   0.339E-02    0.154E-02
DAV:   3    -0.841317737739E+03    0.13662E-05   -0.45072E-06  5150   0.458E-03    0.121E-02
DAV:   4    -0.841317739185E+03   -0.14458E-05   -0.56930E-06  4260   0.584E-03    0.346E-03
DAV:   5    -0.841317739550E+03   -0.36455E-06   -0.14226E-06  3480   0.229E-03
  13 F= -.84915125E+03 E0= -.84915125E+03  d E =-.152754E-03  mag=    -0.0000
       N       E                     dE             d eps       ncg     rms          rms(c)
DAV:   1    -0.841317921872E+03   -0.18269E-03   -0.28825E-02  4620   0.344E-01    0.309E-02
DAV:   2    -0.841317974496E+03   -0.52624E-04   -0.64505E-04  4660   0.490E-02    0.230E-02
DAV:   3    -0.841317971803E+03    0.26928E-05   -0.97996E-06  5720   0.674E-03    0.180E-02
DAV:   4    -0.841317975276E+03   -0.34729E-05   -0.11708E-05  4390   0.850E-03    0.513E-03
DAV:   5    -0.841317976162E+03   -0.88631E-06   -0.32366E-06  4500   0.334E-03
  14 F= -.84915146E+03 E0= -.84915146E+03  d E =-.213486E-03  mag=     0.0000
       N       E                     dE             d eps       ncg     rms          rms(c)
DAV:   1    -0.841318166173E+03   -0.19090E-03   -0.42555E-02  4600   0.421E-01    0.380E-02
DAV:   2    -0.841318245184E+03   -0.79011E-04   -0.96803E-04  4860   0.605E-02    0.289E-02
DAV:   3    -0.841318240491E+03    0.46928E-05   -0.16739E-05  5720   0.862E-03    0.228E-02
DAV:   4    -0.841318243472E+03   -0.29807E-05   -0.19033E-05  4480   0.109E-02    0.696E-03
DAV:   5    -0.841318244964E+03   -0.14921E-05   -0.57462E-06  4900   0.442E-03    0.413E-03
DAV:   6    -0.841318244875E+03    0.89123E-07   -0.10377E-06  3120   0.301E-03
  15 F= -.84915169E+03 E0= -.84915169E+03  d E =-.234360E-03  mag=    -0.0000
       N       E                     dE             d eps       ncg     rms          rms(c)
DAV:   1    -0.841318348274E+03   -0.10331E-03   -0.33421E-02  4530   0.381E-01    0.354E-02
DAV:   2    -0.841318414312E+03   -0.66038E-04   -0.82717E-04  5320   0.560E-02    0.290E-02
DAV:   3    -0.841318408029E+03    0.62833E-05   -0.21051E-05  5840   0.913E-03    0.230E-02
DAV:   4    -0.841318405112E+03    0.29162E-05   -0.19251E-05  4740   0.101E-02    0.865E-03
DAV:   5    -0.841318406282E+03   -0.11700E-05   -0.59689E-06  4480   0.461E-03    0.433E-03
DAV:   6    -0.841318406329E+03   -0.46566E-07   -0.98149E-07  3020   0.239E-03
  16 F= -.84915185E+03 E0= -.84915185E+03  d E =-.151191E-03  mag=     0.0000
       N       E                     dE             d eps       ncg     rms          rms(c)
DAV:   1    -0.841318561673E+03   -0.15539E-03   -0.72481E-03  4520   0.179E-01    0.174E-02
DAV:   2    -0.841318575401E+03   -0.13728E-04   -0.18317E-04  5420   0.263E-02    0.150E-02
DAV:   3    -0.841318573372E+03    0.20283E-05   -0.63790E-06  5480   0.489E-03    0.118E-02
DAV:   4    -0.841318571770E+03    0.16023E-05   -0.48790E-06  4460   0.510E-03    0.512E-03
DAV:   5    -0.841318571921E+03   -0.15077E-06   -0.16516E-06  3260   0.253E-03
  17 F= -.84915200E+03 E0= -.84915200E+03  d E =-.151839E-03  mag=     0.0000
       N       E                     dE             d eps       ncg     rms          rms(c)
DAV:   1    -0.841318713009E+03   -0.14124E-03   -0.12741E-02  4600   0.229E-01    0.203E-02
DAV:   2    -0.841318735689E+03   -0.22681E-04   -0.28010E-04  4540   0.323E-02    0.151E-02
DAV:   3    -0.841318734423E+03    0.12667E-05   -0.41861E-06  5140   0.443E-03    0.118E-02
DAV:   4    -0.841318736025E+03   -0.16024E-05   -0.54297E-06  4180   0.572E-03    0.336E-03
DAV:   5    -0.841318736389E+03   -0.36348E-06   -0.13404E-06  3480   0.221E-03
  18 F= -.84915215E+03 E0= -.84915215E+03  d E =-.150296E-03  mag=     0.0000
       N       E                     dE             d eps       ncg     rms          rms(c)
DAV:   1    -0.841318926041E+03   -0.19002E-03   -0.27344E-02  4600   0.335E-01    0.297E-02
DAV:   2    -0.841318974715E+03   -0.48675E-04   -0.59909E-04  4540   0.472E-02    0.222E-02
DAV:   3    -0.841318972109E+03    0.26060E-05   -0.92468E-06  5510   0.652E-03    0.174E-02
DAV:   4    -0.841318975413E+03   -0.33037E-05   -0.11115E-05  4360   0.821E-03    0.488E-03
DAV:   5    -0.841318976267E+03   -0.85391E-06   -0.29852E-06  4480   0.322E-03
  19 F= -.84915236E+03 E0= -.84915236E+03  d E =-.216591E-03  mag=    -0.0000
       N       E                     dE             d eps       ncg     rms          rms(c)
DAV:   1    -0.841319184877E+03   -0.20946E-03   -0.43835E-02  4580   0.426E-01    0.384E-02
DAV:   2    -0.841319264823E+03   -0.79946E-04   -0.98577E-04  4760   0.609E-02    0.291E-02
DAV:   3    -0.841319260075E+03    0.47481E-05   -0.16304E-05  5730   0.864E-03    0.229E-02
DAV:   4    -0.841319264280E+03   -0.42052E-05   -0.19570E-05  4440   0.110E-02    0.673E-03
DAV:   5    -0.841319265821E+03   -0.15413E-05   -0.56846E-06  4930   0.435E-03    0.408E-03
DAV:   6    -0.841319265759E+03    0.62762E-07   -0.10574E-06  3140   0.308E-03
  20 F= -.84915262E+03 E0= -.84915262E+03  d E =-.254127E-03  mag=    -0.0000
       N       E                     dE             d eps       ncg     rms          rms(c)
DAV:   1    -0.841319374720E+03   -0.10890E-03   -0.39233E-02  4560   0.412E-01    0.378E-02
DAV:   2    -0.841319450330E+03   -0.75610E-04   -0.95345E-04  5320   0.603E-02    0.308E-02
DAV:   3    -0.841319443319E+03    0.70106E-05   -0.22940E-05  5840   0.969E-03    0.243E-02
DAV:   4    -0.841319441479E+03    0.18397E-05   -0.21465E-05  4720   0.111E-02    0.893E-03
DAV:   5    -0.841319442970E+03   -0.14908E-05   -0.70051E-06  4700   0.496E-03    0.466E-03
DAV:   6    -0.841319443035E+03   -0.64487E-07   -0.10924E-06  3070   0.264E-03
  21 F= -.84915278E+03 E0= -.84915278E+03  d E =-.157269E-03  mag=     0.0000
       N       E                     dE             d eps       ncg     rms          rms(c)
DAV:   1    -0.841319599959E+03   -0.15699E-03   -0.75064E-03  4520   0.182E-01    0.180E-02
DAV:   2    -0.841319614368E+03   -0.14410E-04   -0.19354E-04  5480   0.270E-02    0.157E-02
DAV:   3    -0.841319612096E+03    0.22723E-05   -0.69697E-06  5580   0.508E-03    0.124E-02
DAV:   4    -0.841319610110E+03    0.19856E-05   -0.55227E-06  4400   0.524E-03    0.523E-03
DAV:   5    -0.841319610234E+03   -0.12341E-06   -0.17596E-06  3320   0.257E-03
  22 F= -.84915293E+03 E0= -.84915293E+03  d E =-.157237E-03  mag=    -0.0000
       N       E                     dE             d eps       ncg     rms          rms(c)
DAV:   1    -0.841319746721E+03   -0.13661E-03   -0.10459E-02  4600   0.206E-01    0.183E-02
DAV:   2    -0.841319764593E+03   -0.17871E-04   -0.22173E-04  4680   0.287E-02    0.141E-02
DAV:   3    -0.841319763374E+03    0.12186E-05   -0.36026E-06  4980   0.413E-03    0.110E-02
DAV:   4    -0.841319764292E+03   -0.91818E-06   -0.56110E-06  4200   0.552E-03
  23 F= -.84915307E+03 E0= -.84915307E+03  d E =-.133718E-03  mag=     0.0000
       N       E                     dE             d eps       ncg     rms          rms(c)
DAV:   1    -0.841319934542E+03   -0.17117E-03   -0.22807E-02  4560   0.304E-01    0.274E-02
DAV:   2    -0.841319973278E+03   -0.38736E-04   -0.48251E-04  4520   0.422E-02    0.210E-02
DAV:   3    -0.841319971091E+03    0.21870E-05   -0.80350E-06  5440   0.599E-03    0.164E-02
DAV:   4    -0.841319973856E+03   -0.27654E-05   -0.96026E-06  4320   0.744E-03    0.462E-03
DAV:   5    -0.841319974552E+03   -0.69531E-06   -0.25831E-06  4030   0.299E-03
  24 F= -.84915326E+03 E0= -.84915326E+03  d E =-.190045E-03  mag=    -0.0000
       N       E                     dE             d eps       ncg     rms          rms(c)
DAV:   1    -0.841320148766E+03   -0.17491E-03   -0.32415E-02  4580   0.365E-01    0.328E-02
DAV:   2    -0.841320204746E+03   -0.55980E-04   -0.70216E-04  4720   0.512E-02    0.263E-02
DAV:   3    -0.841320200053E+03    0.46922E-05   -0.14196E-05  5760   0.785E-03    0.206E-02
DAV:   4    -0.841320200991E+03   -0.93786E-06   -0.18010E-05  4420   0.101E-02    0.623E-03
DAV:   5    -0.841320201954E+03   -0.96308E-06   -0.48918E-06  4570   0.409E-03
  25 F= -.84915345E+03 E0= -.84915345E+03  d E =-.192738E-03  mag=     0.0000
       N       E                     dE             d eps       ncg     rms          rms(c)
DAV:   1    -0.841320293559E+03   -0.92567E-04   -0.20260E-02  4540   0.297E-01    0.291E-02
DAV:   2    -0.841320330416E+03   -0.36857E-04   -0.48873E-04  5420   0.428E-02    0.249E-02
DAV:   3    -0.841320325176E+03    0.52402E-05   -0.15047E-05  5810   0.761E-03    0.195E-02
DAV:   4    -0.841320322099E+03    0.30763E-05   -0.15554E-05  4580   0.895E-03    0.723E-03
DAV:   5    -0.841320322669E+03   -0.56931E-06   -0.43483E-06  3800   0.392E-03
  26 F= -.84915356E+03 E0= -.84915356E+03  d E =-.114840E-03  mag=    -0.0000
       N       E                     dE             d eps       ncg     rms          rms(c)
DAV:   1    -0.841320436331E+03   -0.11423E-03   -0.40633E-03  4540   0.133E-01    0.133E-02
DAV:   2    -0.841320443578E+03   -0.72472E-05   -0.10063E-04  5400   0.193E-02    0.117E-02
DAV:   3    -0.841320442214E+03    0.13642E-05   -0.34164E-06  4400   0.369E-03    0.915E-03
DAV:   4    -0.841320441203E+03    0.10114E-05   -0.45866E-06  4220   0.465E-03    0.350E-03
DAV:   5    -0.841320441279E+03   -0.76237E-07   -0.88289E-07  2760   0.186E-03
  27 F= -.84915367E+03 E0= -.84915367E+03  d E =-.106786E-03  mag=    -0.0000
       N       E                     dE             d eps       ncg     rms          rms(c)
DAV:   1    -0.841320562343E+03   -0.12114E-03   -0.96209E-03  4580   0.199E-01    0.177E-02
DAV:   2    -0.841320578681E+03   -0.16339E-04   -0.20474E-04  4520   0.278E-02    0.137E-02
DAV:   3    -0.841320577537E+03    0.11442E-05   -0.34260E-06  4800   0.402E-03    0.107E-02
DAV:   4    -0.841320578377E+03   -0.84030E-06   -0.52579E-06  4200   0.532E-03
  28 F= -.84915379E+03 E0= -.84915379E+03  d E =-.121921E-03  mag=    -0.0000
       N       E                     dE             d eps       ncg     rms          rms(c)
DAV:   1    -0.841320732465E+03   -0.15493E-03   -0.19805E-02  4560   0.285E-01    0.260E-02
DAV:   2    -0.841320765588E+03   -0.33123E-04   -0.41720E-04  4560   0.397E-02    0.202E-02
DAV:   3    -0.841320763667E+03    0.19210E-05   -0.74260E-06  5560   0.576E-03    0.158E-02
DAV:   4    -0.841320765941E+03   -0.22738E-05   -0.87049E-06  4300   0.705E-03    0.451E-03
DAV:   5    -0.841320766539E+03   -0.59832E-06   -0.23798E-06  3880   0.287E-03
  29 F= -.84915396E+03 E0= -.84915396E+03  d E =-.168584E-03  mag=     0.0000
       N       E                     dE             d eps       ncg     rms          rms(c)
DAV:   1    -0.841320916299E+03   -0.15036E-03   -0.29854E-02  4560   0.355E-01    0.324E-02
DAV:   2    -0.841320970426E+03   -0.54127E-04   -0.67978E-04  4860   0.509E-02    0.253E-02
DAV:   3    -0.841320966393E+03    0.40332E-05   -0.12740E-05  5720   0.763E-03    0.198E-02
DAV:   4    -0.841320968194E+03   -0.18008E-05   -0.15680E-05  4440   0.982E-03    0.615E-03
DAV:   5    -0.841320969292E+03   -0.10980E-05   -0.46842E-06  4580   0.398E-03    0.363E-03
DAV:   6    -0.841320969292E+03   -0.46566E-09   -0.75794E-07  3040   0.249E-03
  30 F= -.84915413E+03 E0= -.84915413E+03  d E =-.169134E-03  mag=    -0.0000
       N       E                     dE             d eps       ncg     rms          rms(c)
DAV:   1    -0.841321054838E+03   -0.85547E-04   -0.16364E-02  4540   0.267E-01    0.263E-02
DAV:   2    -0.841321085723E+03   -0.30885E-04   -0.40071E-04  5380   0.389E-02    0.222E-02
DAV:   3    -0.841321081568E+03    0.41551E-05   -0.11981E-05  5820   0.688E-03    0.175E-02
DAV:   4    -0.841321078582E+03    0.29857E-05   -0.12118E-05  4720   0.791E-03    0.660E-03
DAV:   5    -0.841321078966E+03   -0.38424E-06   -0.35000E-06  3820   0.361E-03
  31 F= -.84915424E+03 E0= -.84915424E+03  d E =-.109960E-03  mag=    -0.0000
       N       E                     dE             d eps       ncg     rms          rms(c)
DAV:   1    -0.841321178786E+03   -0.10020E-03   -0.40696E-03  4560   0.133E-01    0.132E-02
DAV:   2    -0.841321186038E+03   -0.72523E-05   -0.99816E-05  5380   0.194E-02    0.114E-02
DAV:   3    -0.841321184808E+03    0.12303E-05   -0.30409E-06  4340   0.365E-03    0.886E-03
DAV:   4    -0.841321184052E+03    0.75665E-06   -0.44213E-06  4270   0.464E-03
  32 F= -.84915433E+03 E0= -.84915433E+03  d E =-.907340E-04  mag=     0.0000
       N       E                     dE             d eps       ncg     rms          rms(c)
DAV:   1    -0.841321292368E+03   -0.10756E-03   -0.77007E-03  4560   0.176E-01    0.169E-02
DAV:   2    -0.841321304450E+03   -0.12082E-04   -0.15703E-04  4580   0.243E-02    0.133E-02
DAV:   3    -0.841321303526E+03    0.92353E-06   -0.28542E-06  4560   0.372E-03
  33 F= -.84915444E+03 E0= -.84915444E+03  d E =-.106676E-03  mag=    -0.0000
       N       E                     dE             d eps       ncg     rms          rms(c)
DAV:   1    -0.841321453427E+03   -0.14898E-03   -0.17434E-02  4560   0.266E-01    0.257E-02
DAV:   2    -0.841321479859E+03   -0.26431E-04   -0.34787E-04  4540   0.362E-02    0.205E-02
DAV:   3    -0.841321478163E+03    0.16957E-05   -0.67448E-06  5500   0.551E-03    0.158E-02
DAV:   4    -0.841321480469E+03   -0.23061E-05   -0.82822E-06  4300   0.687E-03    0.432E-03
DAV:   5    -0.841321481010E+03   -0.54074E-06   -0.23122E-06  3900   0.280E-03
  34 F= -.84915460E+03 E0= -.84915460E+03  d E =-.158430E-03  mag=    -0.0000
       N       E                     dE             d eps       ncg     rms          rms(c)
DAV:   1    -0.841321620993E+03   -0.14052E-03   -0.26993E-02  4540   0.337E-01    0.312E-02
DAV:   2    -0.841321668131E+03   -0.47138E-04   -0.60226E-04  4820   0.479E-02    0.247E-02
DAV:   3    -0.841321664634E+03    0.34965E-05   -0.12291E-05  5780   0.739E-03    0.194E-02
DAV:   4    -0.841321666333E+03   -0.16994E-05   -0.13450E-05  4460   0.894E-03    0.626E-03
DAV:   5    -0.841321667406E+03   -0.10729E-05   -0.39731E-06  4320   0.369E-03    0.352E-03
DAV:   6    -0.841321667349E+03    0.57575E-07   -0.76149E-07  3000   0.246E-03
  35 F= -.84915477E+03 E0= -.84915477E+03  d E =-.171297E-03  mag=     0.0000
       N       E                     dE             d eps       ncg     rms          rms(c)
DAV:   1    -0.841321761976E+03   -0.94569E-04   -0.21361E-02  4580   0.302E-01    0.289E-02
DAV:   2    -0.841321803359E+03   -0.41384E-04   -0.52836E-04  5420   0.445E-02    0.244E-02
DAV:   3    -0.841321798448E+03    0.49114E-05   -0.13616E-05  5740   0.742E-03    0.194E-02
DAV:   4    -0.841321795462E+03    0.29854E-05   -0.16406E-05  4660   0.918E-03    0.695E-03
DAV:   5    -0.841321796136E+03   -0.67327E-06   -0.45353E-06  4320   0.398E-03
  36 F= -.84915488E+03 E0= -.84915488E+03  d E =-.109608E-03  mag=    -0.0000
       N       E                     dE             d eps       ncg     rms          rms(c)
DAV:   1    -0.841321889683E+03   -0.94221E-04   -0.36357E-03  4540   0.126E-01    0.130E-02
DAV:   2    -0.841321896247E+03   -0.65644E-05   -0.93258E-05  5480   0.187E-02    0.113E-02
DAV:   3    -0.841321894998E+03    0.12494E-05   -0.32679E-06  4400   0.367E-03    0.882E-03
DAV:   4    -0.841321894124E+03    0.87375E-06   -0.42020E-06  4280   0.433E-03
  37 F= -.84915497E+03 E0= -.84915497E+03  d E =-.945529E-04  mag=     0.0000
       N       E                     dE             d eps       ncg     rms          rms(c)
DAV:   1    -0.841321991566E+03   -0.96568E-04   -0.71370E-03  4560   0.170E-01    0.164E-02
DAV:   2    -0.841322002951E+03   -0.11385E-04   -0.14812E-04  4680   0.237E-02    0.130E-02
DAV:   3    -0.841322002052E+03    0.89865E-06   -0.26060E-06  4400   0.362E-03
  38 F= -.84915507E+03 E0= -.84915507E+03  d E =-.983131E-04  mag=     0.0000
       N       E                     dE             d eps       ncg     rms          rms(c)
DAV:   1    -0.841322131763E+03   -0.12881E-03   -0.14608E-02  4560   0.243E-01    0.236E-02
DAV:   2    -0.841322153594E+03   -0.21832E-04   -0.28681E-04  4680   0.328E-02    0.192E-02
DAV:   3    -0.841322151834E+03    0.17597E-05   -0.59453E-06  5480   0.517E-03    0.148E-02
DAV:   4    -0.841322153376E+03   -0.15417E-05   -0.80038E-06  4280   0.647E-03    0.397E-03
DAV:   5    -0.841322153756E+03   -0.37959E-06   -0.20516E-06  3680   0.267E-03
  39 F= -.84915521E+03 E0= -.84915521E+03  d E =-.139268E-03  mag=    -0.0000
       N       E                     dE             d eps       ncg     rms          rms(c)
DAV:   1    -0.841322279952E+03   -0.12658E-03   -0.20288E-02  4540   0.292E-01    0.273E-02
DAV:   2    -0.841322315381E+03   -0.35429E-04   -0.45207E-04  5020   0.416E-02    0.220E-02
DAV:   3    -0.841322312150E+03    0.32303E-05   -0.98426E-06  5760   0.661E-03    0.172E-02
DAV:   4    -0.841322312362E+03   -0.21172E-06   -0.12163E-05  4340   0.832E-03    0.530E-03
DAV:   5    -0.841322313024E+03   -0.66181E-06   -0.33140E-06  3960   0.339E-03
  40 F= -.84915535E+03 E0= -.84915535E+03  d E =-.136976E-03  mag=     0.0000
       N       E                     dE             d eps       ncg     rms          rms(c)
DAV:   1    -0.841322394674E+03   -0.82311E-04   -0.14184E-02  4580   0.246E-01    0.243E-02
DAV:   2    -0.841322421468E+03   -0.26795E-04   -0.35053E-04  5340   0.362E-02    0.205E-02
DAV:   3    -0.841322417800E+03    0.36686E-05   -0.95252E-06  5720   0.625E-03    0.162E-02
DAV:   4    -0.841322415400E+03    0.24000E-05   -0.12060E-05  4520   0.781E-03    0.563E-03
DAV:   5    -0.841322415838E+03   -0.43811E-06   -0.32242E-06  3940   0.337E-03
  41 F= -.84915545E+03 E0= -.84915545E+03  d E =-.100620E-03  mag=     0.0000
       N       E                     dE             d eps       ncg     rms          rms(c)
DAV:   1    -0.841322502066E+03   -0.86667E-04   -0.39675E-03  4540   0.131E-01    0.130E-02
DAV:   2    -0.841322508946E+03   -0.68792E-05   -0.95806E-05  5300   0.191E-02    0.112E-02
DAV:   3    -0.841322507736E+03    0.12100E-05   -0.29658E-06  4360   0.357E-03    0.872E-03
DAV:   4    -0.841322507025E+03    0.71004E-06   -0.47569E-06  4280   0.465E-03
  42 F= -.84915553E+03 E0= -.84915553E+03  d E =-.805513E-04  mag=     0.0000
       N       E                     dE             d eps       ncg     rms          rms(c)
DAV:   1    -0.841322593862E+03   -0.86126E-04   -0.64822E-03  4580   0.162E-01    0.153E-02
DAV:   2    -0.841322604242E+03   -0.10380E-04   -0.13524E-04  4540   0.226E-02    0.124E-02
DAV:   3    -0.841322603291E+03    0.95049E-06   -0.26332E-06  4340   0.352E-03
  43 F= -.84915562E+03 E0= -.84915562E+03  d E =-.883711E-04  mag=    -0.0000
       N       E                     dE             d eps       ncg     rms          rms(c)
DAV:   1    -0.841322724272E+03   -0.12003E-03   -0.12938E-02  4540   0.231E-01    0.224E-02
DAV:   2    -0.841322744486E+03   -0.20214E-04   -0.26590E-04  4660   0.319E-02    0.179E-02
DAV:   3    -0.841322742941E+03    0.15446E-05   -0.55740E-06  5460   0.497E-03    0.137E-02
DAV:   4    -0.841322744437E+03   -0.14961E-05   -0.65718E-06  4220   0.609E-03    0.417E-03
DAV:   5    -0.841322744855E+03   -0.41739E-06   -0.18206E-06  3560   0.252E-03
  44 F= -.84915574E+03 E0= -.84915574E+03  d E =-.125678E-03  mag=    -0.0000
       N       E                     dE             d eps       ncg     rms          rms(c)
DAV:   1    -0.841322837279E+03   -0.92841E-04   -0.17583E-02  4540   0.273E-01    0.250E-02
DAV:   2    -0.841322868336E+03   -0.31058E-04   -0.39872E-04  4800   0.391E-02    0.204E-02
DAV:   3    -0.841322865396E+03    0.29410E-05   -0.92105E-06  5800   0.619E-03    0.160E-02
DAV:   4    -0.841322865355E+03    0.40316E-07   -0.98813E-06  4380   0.736E-03
  45 F= -.84915585E+03 E0= -.84915585E+03  d E =-.113483E-03  mag=    -0.0000
       N       E                     dE             d eps       ncg     rms          rms(c)
DAV:   1    -0.841322957341E+03   -0.91945E-04   -0.94311E-03  4540   0.203E-01    0.204E-02
DAV:   2    -0.841322974616E+03   -0.17275E-04   -0.23481E-04  5440   0.300E-02    0.170E-02
DAV:   3    -0.841322972034E+03    0.25825E-05   -0.80498E-06  5760   0.556E-03    0.129E-02
DAV:   4    -0.841322970866E+03    0.11678E-05   -0.60059E-06  4380   0.553E-03    0.576E-03
DAV:   5    -0.841322971219E+03   -0.35298E-06   -0.18817E-06  3400   0.272E-03
  46 F= -.84915594E+03 E0= -.84915594E+03  d E =-.890338E-04  mag=     0.0000
       N       E                     dE             d eps       ncg     rms          rms(c)
DAV:   1    -0.841323035428E+03   -0.64562E-04   -0.35436E-03  4520   0.124E-01    0.119E-02
DAV:   2    -0.841323041775E+03   -0.63477E-05   -0.85450E-05  5160   0.181E-02    0.101E-02
DAV:   3    -0.841323040853E+03    0.92274E-06   -0.23163E-06  4040   0.316E-03
  47 F= -.84915601E+03 E0= -.84915601E+03  d E =-.673299E-04  mag=     0.0000
       N       E                     dE             d eps       ncg     rms          rms(c)
DAV:   1    -0.841323130754E+03   -0.88979E-04   -0.68455E-03  4540   0.168E-01    0.162E-02
DAV:   2    -0.841323141544E+03   -0.10790E-04   -0.14357E-04  4480   0.234E-02    0.128E-02
DAV:   3    -0.841323140703E+03    0.84192E-06   -0.27015E-06  4320   0.359E-03
  48 F= -.84915610E+03 E0= -.84915610E+03  d E =-.889664E-04  mag=     0.0000
       N       E                     dE             d eps       ncg     rms          rms(c)
DAV:   1    -0.841323257426E+03   -0.11588E-03   -0.14176E-02  4520   0.242E-01    0.227E-02
DAV:   2    -0.841323279522E+03   -0.22096E-04   -0.29001E-04  4560   0.333E-02    0.181E-02
DAV:   3    -0.841323278148E+03    0.13743E-05   -0.56174E-06  5340   0.499E-03    0.140E-02
DAV:   4    -0.841323280213E+03   -0.20656E-05   -0.65819E-06  4260   0.607E-03    0.389E-03
DAV:   5    -0.841323280625E+03   -0.41154E-06   -0.18147E-06  3670   0.250E-03
  49 F= -.84915623E+03 E0= -.84915623E+03  d E =-.125583E-03  mag=    -0.0000
       N       E                     dE             d eps       ncg     rms          rms(c)
DAV:   1    -0.841323387585E+03   -0.10737E-03   -0.20732E-02  4600   0.294E-01    0.267E-02
DAV:   2    -0.841323424020E+03   -0.36434E-04   -0.45965E-04  4760   0.419E-02    0.212E-02
DAV:   3    -0.841323420999E+03    0.30209E-05   -0.95635E-06  5720   0.646E-03    0.166E-02
DAV:   4    -0.841323421364E+03   -0.36518E-06   -0.10946E-05  4340   0.798E-03    0.540E-03
DAV:   5    -0.841323422100E+03   -0.73615E-06   -0.32526E-06  4080   0.330E-03
  50 F= -.84915634E+03 E0= -.84915634E+03  d E =-.118397E-03  mag=     0.0000
       N       E                     dE             d eps       ncg     rms          rms(c)
DAV:   1    -0.841323483435E+03   -0.62071E-04   -0.10164E-02  4540   0.211E-01    0.207E-02
DAV:   2    -0.841323502498E+03   -0.19063E-04   -0.25214E-04  5280   0.308E-02    0.179E-02
DAV:   3    -0.841323499778E+03    0.27196E-05   -0.79848E-06  5720   0.558E-03    0.140E-02
DAV:   4    -0.841323497645E+03    0.21330E-05   -0.76104E-06  4500   0.625E-03    0.534E-03
DAV:   5    -0.841323497862E+03   -0.21701E-06   -0.22257E-06  3460   0.286E-03
  51 F= -.84915642E+03 E0= -.84915642E+03  d E =-.734900E-04  mag=     0.0000
       N       E                     dE             d eps       ncg     rms          rms(c)
DAV:   1    -0.841323564119E+03   -0.66474E-04   -0.23973E-03  4580   0.102E-01    0.993E-03
DAV:   2    -0.841323568487E+03   -0.43685E-05   -0.58628E-05  5280   0.148E-02    0.860E-03
DAV:   3    -0.841323567770E+03    0.71782E-06   -0.15897E-06  3500   0.272E-03
  52 F= -.84915648E+03 E0= -.84915648E+03  d E =-.623809E-04  mag=    -0.0000
       N       E                     dE             d eps       ncg     rms          rms(c)
DAV:   1    -0.841323647017E+03   -0.78529E-04   -0.61102E-03  4600   0.158E-01    0.152E-02
DAV:   2    -0.841323656442E+03   -0.94257E-05   -0.12350E-04  4600   0.218E-02    0.122E-02
DAV:   3    -0.841323655621E+03    0.82162E-06   -0.21733E-06  4200   0.330E-03
  53 F= -.84915656E+03 E0= -.84915656E+03  d E =-.762586E-04  mag=    -0.0000
       N       E                     dE             d eps       ncg     rms          rms(c)
DAV:   1    -0.841323753138E+03   -0.96696E-04   -0.12171E-02  4540   0.226E-01    0.213E-02
DAV:   2    -0.841323773752E+03   -0.20614E-04   -0.26178E-04  5000   0.318E-02    0.169E-02
DAV:   3    -0.841323772427E+03    0.13256E-05   -0.48823E-06  5360   0.471E-03    0.131E-02
DAV:   4    -0.841323773682E+03   -0.12551E-05   -0.60440E-06  4240   0.594E-03    0.371E-03
DAV:   5    -0.841323774038E+03   -0.35635E-06   -0.16652E-06  3570   0.244E-03
  54 F= -.84915666E+03 E0= -.84915666E+03  d E =-.102220E-03  mag=     0.0000
       N       E                     dE             d eps       ncg     rms          rms(c)
DAV:   1    -0.841323852096E+03   -0.78414E-04   -0.13452E-02  4560   0.239E-01    0.224E-02
DAV:   2    -0.841323877042E+03   -0.24946E-04   -0.31750E-04  5360   0.348E-02    0.183E-02
DAV:   3    -0.841323874714E+03    0.23280E-05   -0.71839E-06  5660   0.552E-03    0.145E-02
DAV:   4    -0.841323874039E+03    0.67487E-06   -0.82529E-06  4440   0.665E-03
  55 F= -.84915675E+03 E0= -.84915675E+03  d E =-.883576E-04  mag=     0.0000
       N       E                     dE             d eps       ncg     rms          rms(c)
DAV:   1    -0.841323946068E+03   -0.71354E-04   -0.65743E-03  4560   0.169E-01    0.170E-02
DAV:   2    -0.841323958494E+03   -0.12426E-04   -0.16779E-04  5560   0.252E-02    0.144E-02
DAV:   3    -0.841323956696E+03    0.17988E-05   -0.51337E-06  5400   0.455E-03    0.111E-02
DAV:   4    -0.841323955640E+03    0.10557E-05   -0.48756E-06  4260   0.485E-03    0.459E-03
DAV:   5    -0.841323955853E+03   -0.21308E-06   -0.13128E-06  3240   0.225E-03
  56 F= -.84915682E+03 E0= -.84915682E+03  d E =-.733912E-04  mag=     0.0000
       N       E                     dE             d eps       ncg     rms          rms(c)
DAV:   1    -0.841324021435E+03   -0.65795E-04   -0.39731E-03  4560   0.130E-01    0.121E-02
DAV:   2    -0.841324028378E+03   -0.69424E-05   -0.91018E-05  5300   0.187E-02    0.101E-02
DAV:   3    -0.841324027499E+03    0.87913E-06   -0.21439E-06  3980   0.315E-03
  57 F= -.84915688E+03 E0= -.84915688E+03  d E =-.630990E-04  mag=    -0.0000
       N       E                     dE             d eps       ncg     rms          rms(c)
DAV:   1    -0.841324111747E+03   -0.83370E-04   -0.69789E-03  4560   0.171E-01    0.163E-02
DAV:   2    -0.841324122790E+03   -0.11043E-04   -0.14601E-04  4680   0.236E-02    0.131E-02
DAV:   3    -0.841324121839E+03    0.95142E-06   -0.29162E-06  4620   0.368E-03
  58 F= -.84915697E+03 E0= -.84915697E+03  d E =-.832249E-04  mag=    -0.0000
       N       E                     dE             d eps       ncg     rms          rms(c)
DAV:   1    -0.841324227474E+03   -0.10468E-03   -0.12169E-02  4560   0.226E-01    0.216E-02
DAV:   2    -0.841324246908E+03   -0.19434E-04   -0.25635E-04  4920   0.314E-02    0.174E-02
DAV:   3    -0.841324245399E+03    0.15093E-05   -0.55362E-06  5420   0.488E-03    0.133E-02
DAV:   4    -0.841324246633E+03   -0.12339E-05   -0.62573E-06  4220   0.580E-03    0.432E-03
DAV:   5    -0.841324247083E+03   -0.45069E-06   -0.17128E-06  3520   0.242E-03
  59 F= -.84915707E+03 E0= -.84915707E+03  d E =-.106369E-03  mag=     0.0000
       N       E                     dE             d eps       ncg     rms          rms(c)
DAV:   1    -0.841324324219E+03   -0.77586E-04   -0.12824E-02  4540   0.235E-01    0.217E-02
DAV:   2    -0.841324348016E+03   -0.23797E-04   -0.30262E-04  5360   0.340E-02    0.179E-02
DAV:   3    -0.841324345645E+03    0.23715E-05   -0.74237E-06  5680   0.553E-03    0.140E-02
DAV:   4    -0.841324344771E+03    0.87400E-06   -0.73776E-06  4380   0.628E-03
  60 F= -.84915716E+03 E0= -.84915716E+03  d E =-.874711E-04  mag=    -0.0000
       N       E                     dE             d eps       ncg     rms          rms(c)
DAV:   1    -0.841324426342E+03   -0.80697E-04   -0.55893E-03  4540   0.156E-01    0.155E-02
DAV:   2    -0.841324436125E+03   -0.97835E-05   -0.13737E-04  5440   0.229E-02    0.131E-02
DAV:   3    -0.841324434622E+03    0.15038E-05   -0.49511E-06  5180   0.437E-03    0.998E-03
DAV:   4    -0.841324433823E+03    0.79833E-06   -0.35621E-06  4160   0.412E-03
  61 F= -.84915724E+03 E0= -.84915724E+03  d E =-.795475E-04  mag=    -0.0000
