<?xml version="1.0" encoding="ISO-8859-1"?>
<modeling>
 <generator>
  <i name="program" type="string">vasp </i>
  <i name="version" type="string">6.4.2  </i>
  <i name="subversion" type="string">20Jul23 (build Jan 24 2024 13:44:02) complex                          parallel </i>
  <i name="platform" type="string">LinuxNV </i>
  <i name="date" type="string">2025 11 14 </i>
  <i name="time" type="string">00:02:37 </i>
 </generator>
 <incar>
  <i type="int" name="ISTART">     0</i>
  <i type="string" name="ALGO">Normal</i>
  <i type="logical" name="ADDGRID"> T  </i>
  <i type="int" name="ISPIN">     2</i>
  <i type="int" name="IMIX">     4</i>
  <i name="AMIX">      0.20000000</i>
  <i name="BMIX">      0.00010000</i>
  <i name="AMIX_MAG">      0.80000000</i>
  <i name="BMIX_MAG">      0.00010000</i>
  <i type="int" name="ICHARG">     2</i>
  <i type="int" name="NELM">   200</i>
  <i type="int" name="IBRION">     3</i>
  <i name="EDIFF">      0.00000100</i>
  <i name="EDIFFG">     -0.03000000</i>
  <i type="int" name="NSW">   300</i>
  <i type="int" name="ISIF">     2</i>
  <i type="int" name="ISYM">     0</i>
  <i name="ENCUT">    520.00000000</i>
  <i name="POTIM">      0.05000000</i>
  <v name="MAGMOM">      0.60000000      0.60000000      0.60000000      0.60000000      0.60000000      0.60000000      0.60000000      0.60000000      0.60000000      0.60000000      0.60000000      0.60000000      0.60000000      0.60000000      0.60000000      0.60000000      0.60000000      0.60000000      0.60000000      0.60000000
      0.60000000      0.60000000      0.60000000      0.60000000      0.60000000      0.60000000      0.60000000      0.60000000      0.60000000      0.60000000      0.60000000      0.60000000      0.60000000      0.60000000      0.60000000      0.60000000      0.60000000      0.60000000      0.60000000      0.60000000
      0.60000000      0.60000000      0.60000000      0.60000000      0.60000000      0.60000000      0.60000000      0.60000000      0.60000000      0.60000000      0.60000000      0.60000000      0.60000000      0.60000000      0.60000000      0.60000000      0.60000000      0.60000000      0.60000000      0.60000000
      0.60000000      0.60000000      0.60000000      0.60000000      0.60000000      0.60000000      0.60000000      0.60000000      0.60000000      0.60000000      0.60000000      0.60000000      0.60000000      0.60000000      0.60000000      0.60000000      0.60000000      0.60000000      0.60000000      0.60000000
      0.60000000      0.60000000      0.60000000      0.60000000      0.60000000      0.60000000      0.60000000      0.60000000      0.60000000      0.60000000      0.60000000      0.60000000      0.60000000      0.60000000      0.60000000      0.60000000      0.60000000</v>
  <i type="string" name="LREAL">Auto</i>
  <i type="int" name="ISMEAR">     0</i>
  <i name="SIGMA">      0.05000000</i>
  <i type="logical" name="LWAVE"> F  </i>
  <i type="logical" name="LCHARG"> F  </i>
  <i type="logical" name="LASPH"> T  </i>
  <i type="int" name="IVDW">    12</i>
  <i name="SPRING">     -5.00000000</i>
 </incar>
 <primitive_cell>
  <structure name="primitive_cell" >
   <crystal>
    <varray name="basis" >
     <v>      17.27103806       0.00000000       0.00000000 </v>
     <v>      -8.63551903      14.95715771       0.00000000 </v>
     <v>       0.00000000       0.00000000      15.00000000 </v>
    </varray>
    <i name="volume">   3874.88459904 </i>
    <varray name="rec_basis" >
     <v>       0.05790040       0.03342881      -0.00000000 </v>
     <v>       0.00000000       0.06685762       0.00000000 </v>
     <v>       0.00000000      -0.00000000       0.06666667 </v>
    </varray>
   </crystal>
   <varray name="positions" >
    <v>       0.99902963       0.99932438       0.50323689 </v>
    <v>       0.99849060       0.14186989       0.50553398 </v>
    <v>       0.99876075       0.28504364       0.50555281 </v>
    <v>       0.99946321       0.42821136       0.50538959 </v>
    <v>       0.00001948       0.57134152       0.50093981 </v>
    <v>       0.00079711       0.71465982       0.49850783 </v>
    <v>       0.00067484       0.85762848       0.49970178 </v>
    <v>       0.14248782       0.00021599       0.49295462 </v>
    <v>       0.14159808       0.14253736       0.49731057 </v>
    <v>       0.14096074       0.28512803       0.49584370 </v>
    <v>       0.14187111       0.42856767       0.49463020 </v>
    <v>       0.14267780       0.57129227       0.49659753 </v>
    <v>       0.14280345       0.71425061       0.49337946 </v>
    <v>       0.14286995       0.85737516       0.49210766 </v>
    <v>       0.28529577       0.99997623       0.49118138 </v>
    <v>       0.28481400       0.14241278       0.48996566 </v>
    <v>       0.28365544       0.28573478       0.48497846 </v>
    <v>       0.28067079       0.42651129       0.46395827 </v>
    <v>       0.28555374       0.57218988       0.47604739 </v>
    <v>       0.28525200       0.71475094       0.48979857 </v>
    <v>       0.28512043       0.85745549       0.49128076 </v>
    <v>       0.42821229       0.99985201       0.49436286 </v>
    <v>       0.42796034       0.14275424       0.49450613 </v>
    <v>       0.42310246       0.27901666       0.51359723 </v>
    <v>       0.42718892       0.85636469       0.49600229 </v>
    <v>       0.57031793       0.99870038       0.50206163 </v>
    <v>       0.57076610       0.14213812       0.50373288 </v>
    <v>       0.57159420       0.28591199       0.50217626 </v>
    <v>       0.56829577       0.85406390       0.51247675 </v>
    <v>       0.71239920       0.99721455       0.51077663 </v>
    <v>       0.71335893       0.14150426       0.50805289 </v>
    <v>       0.71388648       0.28519046       0.51014408 </v>
    <v>       0.71504123       0.42910414       0.51016822 </v>
    <v>       0.72389546       0.57685003       0.54078945 </v>
    <v>       0.71253174       0.85370312       0.52577374 </v>
    <v>       0.85556828       0.99826096       0.51130125 </v>
    <v>       0.85558193       0.14138521       0.50922322 </v>
    <v>       0.85626054       0.28483846       0.50996627 </v>
    <v>       0.85721080       0.42837482       0.51094162 </v>
    <v>       0.85834226       0.57244135       0.50692956 </v>
    <v>       0.85967945       0.71563482       0.51246988 </v>
    <v>       0.85725806       0.85618049       0.51496466 </v>
    <v>       0.04649194       0.09466713       0.50235097 </v>
    <v>       0.04586853       0.23715643       0.50322498 </v>
    <v>       0.04670185       0.38052926       0.50294883 </v>
    <v>       0.04751662       0.52353269       0.50169708 </v>
    <v>       0.04774005       0.66663640       0.49685655 </v>
    <v>       0.04791033       0.80973733       0.49595440 </v>
    <v>       0.04734264       0.95247186       0.49822119 </v>
    <v>       0.18951099       0.09505435       0.49185674 </v>
    <v>       0.18846311       0.23771824       0.49427229 </v>
    <v>       0.18793154       0.38006504       0.48772577 </v>
    <v>       0.19047442       0.52406517       0.49135563 </v>
    <v>       0.19009024       0.66661014       0.49266020 </v>
    <v>       0.19023975       0.80963477       0.49144331 </v>
    <v>       0.19025626       0.95251010       0.49120927 </v>
    <v>       0.33280823       0.09521450       0.49188800 </v>
    <v>       0.33194677       0.23757237       0.49410706 </v>
    <v>       0.32375160       0.37526129       0.45855513 </v>
    <v>       0.32348074       0.52066451       0.44971399 </v>
    <v>       0.33606252       0.67025951       0.48430742 </v>
    <v>       0.33247217       0.80960106       0.49189383 </v>
    <v>       0.33285606       0.95242463       0.49177238 </v>
    <v>       0.47585231       0.09505162       0.49643020 </v>
    <v>       0.47519536       0.23791803       0.50187465 </v>
    <v>       0.47109006       0.80487699       0.50059099 </v>
    <v>       0.47541260       0.95178507       0.49752508 </v>
    <v>       0.61807222       0.09405622       0.50476199 </v>
    <v>       0.61875324       0.23769433       0.50756063 </v>
    <v>       0.62367366       0.37925296       0.49169616 </v>
    <v>       0.61867978       0.81217025       0.53172395 </v>
    <v>       0.61694303       0.94974721       0.50723552 </v>
    <v>       0.76036393       0.09320401       0.50919947 </v>
    <v>       0.76115567       0.23697092       0.50953976 </v>
    <v>       0.76195267       0.38057854       0.51314117 </v>
    <v>       0.76334308       0.52600568       0.51723315 </v>
    <v>       0.76624357       0.67145592       0.53092154 </v>
    <v>       0.76186652       0.80460199       0.52799738 </v>
    <v>       0.76006819       0.94935485       0.51491726 </v>
    <v>       0.90306275       0.09355408       0.50865920 </v>
    <v>       0.90345063       0.23693156       0.50867261 </v>
    <v>       0.90422302       0.38045885       0.50949409 </v>
    <v>       0.90491738       0.52383005       0.50511223 </v>
    <v>       0.90602838       0.66728127       0.50535043 </v>
    <v>       0.90597773       0.81013157       0.50836857 </v>
    <v>       0.90380413       0.95119371       0.50984512 </v>
    <v>       0.46085728       0.36062381       0.55259511 </v>
    <v>       0.40711721       0.41389180       0.42489166 </v>
    <v>       0.40108461       0.56072108       0.40643177 </v>
    <v>       0.64216428       0.53414015       0.57916686 </v>
    <v>       0.58544406       0.42319118       0.45377595 </v>
    <v>       0.57295619       0.72768578       0.56028073 </v>
    <v>       0.42570453       0.71491046       0.49118255 </v>
    <v>       0.71947384       0.71530593       0.53894638 </v>
    <v>       0.58461483       0.61897282       0.52442677 </v>
    <v>       0.53409530       0.51919787       0.49848819 </v>
    <v>       0.52800909       0.57193269       0.50000005 </v>
   </varray>
  </structure>
  <varray name="primitive_index" >
   <v type="int" >        1 </v>
   <v type="int" >        2 </v>
   <v type="int" >        3 </v>
   <v type="int" >        4 </v>
   <v type="int" >        5 </v>
   <v type="int" >        6 </v>
   <v type="int" >        7 </v>
   <v type="int" >        8 </v>
   <v type="int" >        9 </v>
   <v type="int" >       10 </v>
   <v type="int" >       11 </v>
   <v type="int" >       12 </v>
   <v type="int" >       13 </v>
   <v type="int" >       14 </v>
   <v type="int" >       15 </v>
   <v type="int" >       16 </v>
   <v type="int" >       17 </v>
   <v type="int" >       18 </v>
   <v type="int" >       19 </v>
   <v type="int" >       20 </v>
   <v type="int" >       21 </v>
   <v type="int" >       22 </v>
   <v type="int" >       23 </v>
   <v type="int" >       24 </v>
   <v type="int" >       25 </v>
   <v type="int" >       26 </v>
   <v type="int" >       27 </v>
   <v type="int" >       28 </v>
   <v type="int" >       29 </v>
   <v type="int" >       30 </v>
   <v type="int" >       31 </v>
   <v type="int" >       32 </v>
   <v type="int" >       33 </v>
   <v type="int" >       34 </v>
   <v type="int" >       35 </v>
   <v type="int" >       36 </v>
   <v type="int" >       37 </v>
   <v type="int" >       38 </v>
   <v type="int" >       39 </v>
   <v type="int" >       40 </v>
   <v type="int" >       41 </v>
   <v type="int" >       42 </v>
   <v type="int" >       43 </v>
   <v type="int" >       44 </v>
   <v type="int" >       45 </v>
   <v type="int" >       46 </v>
   <v type="int" >       47 </v>
   <v type="int" >       48 </v>
   <v type="int" >       49 </v>
   <v type="int" >       50 </v>
   <v type="int" >       51 </v>
   <v type="int" >       52 </v>
   <v type="int" >       53 </v>
   <v type="int" >       54 </v>
   <v type="int" >       55 </v>
   <v type="int" >       56 </v>
   <v type="int" >       57 </v>
   <v type="int" >       58 </v>
   <v type="int" >       59 </v>
   <v type="int" >       60 </v>
   <v type="int" >       61 </v>
   <v type="int" >       62 </v>
   <v type="int" >       63 </v>
   <v type="int" >       64 </v>
   <v type="int" >       65 </v>
   <v type="int" >       66 </v>
   <v type="int" >       67 </v>
   <v type="int" >       68 </v>
   <v type="int" >       69 </v>
   <v type="int" >       70 </v>
   <v type="int" >       71 </v>
   <v type="int" >       72 </v>
   <v type="int" >       73 </v>
   <v type="int" >       74 </v>
   <v type="int" >       75 </v>
   <v type="int" >       76 </v>
   <v type="int" >       77 </v>
   <v type="int" >       78 </v>
   <v type="int" >       79 </v>
   <v type="int" >       80 </v>
   <v type="int" >       81 </v>
   <v type="int" >       82 </v>
   <v type="int" >       83 </v>
   <v type="int" >       84 </v>
   <v type="int" >       85 </v>
   <v type="int" >       86 </v>
   <v type="int" >       87 </v>
   <v type="int" >       88 </v>
   <v type="int" >       89 </v>
   <v type="int" >       90 </v>
   <v type="int" >       91 </v>
   <v type="int" >       92 </v>
   <v type="int" >       93 </v>
   <v type="int" >       94 </v>
   <v type="int" >       95 </v>
   <v type="int" >       96 </v>
   <v type="int" >       97 </v>
  </varray>
 </primitive_cell>
 <kpoints>
  <generation param="Gamma">
   <v type="int" name="divisions">       2        2        1 </v>
   <v name="usershift">      0.00000000       0.00000000       0.00000000 </v>
   <v name="genvec1">      0.50000000       0.00000000       0.00000000 </v>
   <v name="genvec2">      0.00000000       0.50000000       0.00000000 </v>
   <v name="genvec3">      0.00000000       0.00000000       1.00000000 </v>
   <v name="shift">      0.00000000       0.00000000       0.00000000 </v>
  </generation>
  <varray name="kpointlist" >
   <v>       0.00000000       0.00000000       0.00000000 </v>
   <v>       0.50000000       0.00000000       0.00000000 </v>
   <v>       0.00000000       0.50000000       0.00000000 </v>
   <v>       0.50000000       0.50000000       0.00000000 </v>
  </varray>
  <varray name="weights" >
   <v>       0.25000000 </v>
   <v>       0.25000000 </v>
   <v>       0.25000000 </v>
   <v>       0.25000000 </v>
  </varray>
 </kpoints>
 <parameters>
  <separator name="general" >
   <i type="string" name="SYSTEM">unknown system</i>
   <i type="logical" name="LCOMPAT"> F  </i>
  </separator>
  <separator name="electronic" >
   <i type="string" name="PREC">normal</i>
   <i name="ENMAX">    520.00000000</i>
   <i name="ENAUG">    644.87300000</i>
   <i name="EDIFF">      0.00000100</i>
   <i type="int" name="IALGO">    38</i>
   <i type="int" name="IWAVPR">    11</i>
   <i type="int" name="NBANDS">   280</i>
   <i type="int" name="NBANDSLOW">    -1</i>
   <i type="int" name="NBANDSHIGH">    -1</i>
   <i name="NELECT">    404.00000000</i>
   <i type="int" name="TURBO">     0</i>
   <i type="int" name="IRESTART">     0</i>
   <i type="int" name="NREBOOT">     0</i>
   <i type="int" name="NMIN">     0</i>
   <i name="EREF">      0.00000000</i>
   <separator name="electronic smearing" >
    <i type="int" name="ISMEAR">     0</i>
    <i name="SIGMA">      0.05000000</i>
    <i name="KSPACING">      0.50000000</i>
    <i type="logical" name="KGAMMA"> T  </i>
    <i type="logical" name="KBLOWUP"> T  </i>
   </separator>
   <separator name="electronic projectors" >
    <i type="logical" name="LREAL"> T  </i>
    <v name="ROPT">     -0.00050000     -0.00050000     -0.00050000     -0.00050000     -0.00050000</v>
    <i type="int" name="LMAXPAW">  -100</i>
    <i type="int" name="LMAXMIX">     2</i>
    <i type="logical" name="NLSPLINE"> F  </i>
   </separator>
   <separator name="electronic startup" >
    <i type="int" name="ISTART">     0</i>
    <i type="int" name="ICHARG">     2</i>
    <i type="int" name="INIWAV">     1</i>
   </separator>
   <separator name="electronic spin" >
    <i type="int" name="ISPIN">     2</i>
    <i type="logical" name="LNONCOLLINEAR"> F  </i>
    <v name="MAGMOM">      0.60000000      0.60000000      0.60000000      0.60000000      0.60000000      0.60000000      0.60000000      0.60000000      0.60000000      0.60000000      0.60000000      0.60000000      0.60000000      0.60000000      0.60000000      0.60000000      0.60000000      0.60000000      0.60000000      0.60000000
      0.60000000      0.60000000      0.60000000      0.60000000      0.60000000      0.60000000      0.60000000      0.60000000      0.60000000      0.60000000      0.60000000      0.60000000      0.60000000      0.60000000      0.60000000      0.60000000      0.60000000      0.60000000      0.60000000      0.60000000
      0.60000000      0.60000000      0.60000000      0.60000000      0.60000000      0.60000000      0.60000000      0.60000000      0.60000000      0.60000000      0.60000000      0.60000000      0.60000000      0.60000000      0.60000000      0.60000000      0.60000000      0.60000000      0.60000000      0.60000000
      0.60000000      0.60000000      0.60000000      0.60000000      0.60000000      0.60000000      0.60000000      0.60000000      0.60000000      0.60000000      0.60000000      0.60000000      0.60000000      0.60000000      0.60000000      0.60000000      0.60000000      0.60000000      0.60000000      0.60000000
      0.60000000      0.60000000      0.60000000      0.60000000      0.60000000      0.60000000      0.60000000      0.60000000      0.60000000      0.60000000      0.60000000      0.60000000      0.60000000      0.60000000      0.60000000      0.60000000      0.60000000</v>
    <i name="NUPDOWN">     -1.00000000</i>
    <i type="logical" name="LSORBIT"> F  </i>
    <v name="SAXIS">      0.00000000      0.00000000      1.00000000</v>
    <i type="logical" name="LSPIRAL"> F  </i>
    <v name="QSPIRAL">      0.00000000      0.00000000      0.00000000</v>
    <i type="logical" name="LZEROZ"> F  </i>
   </separator>
   <separator name="electronic exchange-correlation" >
    <i type="logical" name="LASPH"> T  </i>
    <i type="logical" name="LMETAGGA"> F  </i>
   </separator>
   <separator name="electronic convergence" >
    <i type="int" name="NELM">   200</i>
    <i type="int" name="NELMDL">    -5</i>
    <i type="int" name="NELMIN">     2</i>
    <i name="ENINI">    520.00000000</i>
    <separator name="electronic convergence detail" >
     <i type="logical" name="LDIAG"> T  </i>
     <i type="logical" name="LSUBROT"> F  </i>
     <i name="WEIMIN">      0.00100000</i>
     <i name="EBREAK">      0.00000000</i>
     <i name="DEPER">      0.30000000</i>
     <i type="int" name="NRMM">     4</i>
     <i name="TIME">      0.40000000</i>
    </separator>
   </separator>
   <separator name="electronic mixer" >
    <i name="AMIX">      0.20000000</i>
    <i name="BMIX">      0.00010000</i>
    <i name="AMIN">      0.10000000</i>
    <i name="AMIX_MAG">      0.80000000</i>
    <i name="BMIX_MAG">      0.00010000</i>
    <separator name="electronic mixer details" >
     <i type="int" name="IMIX">     4</i>
     <i type="logical" name="MIXFIRST"> F  </i>
     <i type="int" name="MAXMIX">   -45</i>
     <i name="WC">    100.00000000</i>
     <i type="int" name="INIMIX">     1</i>
     <i type="int" name="MIXPRE">     1</i>
     <i type="int" name="MREMOVE">     5</i>
    </separator>
   </separator>
   <separator name="electronic dipolcorrection" >
    <i type="logical" name="LDIPOL"> F  </i>
    <i type="logical" name="LMONO"> F  </i>
    <i type="int" name="IDIPOL">     0</i>
    <i name="EPSILON">      1.00000000</i>
    <v name="DIPOL">   -100.00000000   -100.00000000   -100.00000000</v>
    <i name="EFIELD">      0.00000000</i>
   </separator>
  </separator>
  <separator name="grids" >
   <i type="int" name="NGX">    96</i>
   <i type="int" name="NGY">    96</i>
   <i type="int" name="NGZ">    84</i>
   <i type="int" name="NGXF">   192</i>
   <i type="int" name="NGYF">   192</i>
   <i type="int" name="NGZF">   168</i>
   <i type="logical" name="ADDGRID"> T  </i>
  </separator>
  <separator name="ionic" >
   <i type="int" name="NSW">   300</i>
   <i type="int" name="IBRION">     3</i>
   <i type="int" name="MDALGO">     0</i>
   <i type="int" name="ISIF">     2</i>
   <i name="PSTRESS">      0.00000000</i>
   <i name="EDIFFG">     -0.03000000</i>
   <i type="int" name="NFREE">     0</i>
   <i name="POTIM">      0.05000000</i>
   <i name="SMASS">     -3.00000000</i>
   <i name="SCALEE">      1.00000000</i>
  </separator>
  <separator name="ionic md" >
   <i name="TEBEG">      0.00010000</i>
   <i name="TEEND">      0.00010000</i>
   <i type="int" name="NBLOCK">     1</i>
   <i type="int" name="KBLOCK">   300</i>
   <i type="int" name="NPACO">   256</i>
   <i name="APACO">     10.00000000</i>
  </separator>
  <separator name="symmetry" >
   <i type="int" name="ISYM">     0</i>
   <i name="SYMPREC">      0.00001000</i>
  </separator>
  <separator name="dos" >
   <i type="int" name="LORBIT">     0</i>
   <v name="RWIGS">     -1.00000000     -1.00000000     -1.00000000     -1.00000000     -1.00000000</v>
   <i type="int" name="NEDOS">   301</i>
   <i name="EMIN">     10.00000000</i>
   <i name="EMAX">    -10.00000000</i>
   <i name="EFERMI">      0.00000000</i>
  </separator>
  <separator name="writing" >
   <i type="int" name="NWRITE">     2</i>
   <i type="logical" name="LWAVE"> F  </i>
   <i type="logical" name="LDOWNSAMPLE"> F  </i>
   <i type="logical" name="LCHARG"> F  </i>
   <i type="logical" name="LPARD"> F  </i>
   <i type="logical" name="LVTOT"> F  </i>
   <i type="logical" name="LVHAR"> F  </i>
   <i type="logical" name="LELF"> F  </i>
   <i type="logical" name="LOPTICS"> F  </i>
   <v name="STM">      0.00000000      0.00000000      0.00000000      0.00000000      0.00000000      0.00000000      0.00000000</v>
  </separator>
  <separator name="performance" >
   <i type="int" name="NPAR">     5</i>
   <i type="int" name="NSIM">     4</i>
   <i type="int" name="NBLK">    -1</i>
   <i type="logical" name="LPLANE"> T  </i>
   <i type="logical" name="LSCALAPACK"> T  </i>
   <i type="logical" name="LSCAAWARE"> F  </i>
   <i type="logical" name="LSCALU"> F  </i>
   <i type="logical" name="LASYNC"> F  </i>
   <i type="logical" name="LORBITALREAL"> F  </i>
  </separator>
  <separator name="miscellaneous" >
   <i type="int" name="IDIOT">     3</i>
   <i type="int" name="PHON_NSTRUCT">    -1</i>
   <i type="logical" name="LMUSIC"> F  </i>
   <v name="POMASS">     12.01100000     18.99800000     14.00100000      1.00000000     16.00000000</v>
   <v name="DARWINR">      0.00000000      0.00000000      0.00000000      0.00000000      0.00000000</v>
   <v name="DARWINV">      1.00000000      1.00000000      1.00000000      1.00000000      1.00000000</v>
   <i type="logical" name="LCORR"> T  </i>
  </separator>
  <i type="logical" name="GGA_COMPAT"> T  </i>
  <i type="logical" name="LBERRY"> F  </i>
  <i type="int" name="ICORELEVEL">     0</i>
  <i type="logical" name="LDAU"> F  </i>
  <i type="int" name="I_CONSTRAINED_M">     0</i>
  <separator name="electronic exchange-correlation" >
   <i type="string" name="GGA">--</i>
   <i type="int" name="VOSKOWN">     0</i>
   <i type="logical" name="LHFCALC"> F  </i>
   <i type="string" name="PRECFOCK"></i>
   <i type="logical" name="LSYMGRAD"> F  </i>
   <i type="logical" name="LHFONE"> F  </i>
   <i type="logical" name="LRHFCALC"> F  </i>
   <i type="logical" name="LTHOMAS"> F  </i>
   <i type="logical" name="LMODELHF"> F  </i>
   <i type="logical" name="LFOCKACE"> F  </i>
   <i name="ENCUT4O">     -1.00000000</i>
   <i type="int" name="EXXOEP">     0</i>
   <i type="int" name="FOURORBIT">     0</i>
   <i name="AEXX">      0.00000000</i>
   <i name="HFALPHA">      0.00000000</i>
   <i name="MCALPHA">      0.00000000</i>
   <i name="ALDAX">      1.00000000</i>
   <i name="AGGAX">      1.00000000</i>
   <i name="ALDAC">      1.00000000</i>
   <i name="AGGAC">      1.00000000</i>
   <i type="int" name="NKREDX">     1</i>
   <i type="int" name="NKREDY">     1</i>
   <i type="int" name="NKREDZ">     1</i>
   <i type="logical" name="SHIFTRED"> F  </i>
   <i type="logical" name="ODDONLY"> F  </i>
   <i type="logical" name="EVENONLY"> F  </i>
   <i type="int" name="LMAXFOCK">     0</i>
   <i type="int" name="NMAXFOCKAE">     0</i>
   <i type="logical" name="LFOCKAEDFT"> F  </i>
   <i name="HFSCREEN">      0.00000000</i>
   <i name="HFSCREENC">      0.00000000</i>
   <i type="int" name="NBANDSGWLOW">     0</i>
  </separator>
  <separator name="vdW DFT" >
   <i type="logical" name="LUSE_VDW"> F  </i>
   <i type="int" name="IVDW_NL">     1</i>
   <i type="logical" name="LSPIN_VDW"> F  </i>
   <i name="Zab_VDW">     -0.84910000</i>
   <i name="PARAM1">      0.12340000</i>
   <i name="PARAM2">      1.00000000</i>
   <i name="PARAM3">      0.00000000</i>
  </separator>
  <separator name="model GW" >
   <i type="int" name="MODEL_GW">     0</i>
   <i name="MODEL_EPS0">     23.96835834</i>
   <i name="MODEL_ALPHA">      1.00000000</i>
  </separator>
  <separator name="linear response parameters" >
   <i type="logical" name="LEPSILON"> F  </i>
   <i type="logical" name="LRPA"> F  </i>
   <i type="logical" name="LNABLA"> F  </i>
   <i type="logical" name="LVEL"> F  </i>
   <i name="CSHIFT">      0.10000000</i>
   <i name="OMEGAMAX">     -1.00000000</i>
   <i name="DEG_THRESHOLD">      0.00200000</i>
   <i name="RTIME">     -0.10000000</i>
   <i name="WPLASMAI">      0.00000000</i>
   <v name="DFIELD">      0.00000000      0.00000000      0.00000000</v>
   <v name="WPLASMA">      0.00000000      0.00000000      0.00000000      0.00000000      0.00000000      0.00000000      0.00000000      0.00000000      0.00000000</v>
  </separator>
  <separator name="orbital magnetization" >
   <i type="logical" name="NUCIND"> F  </i>
   <v name="MAGPOS">      0.00000000      0.00000000      0.00000000</v>
   <i type="logical" name="LNICSALL"> T  </i>
   <i type="logical" name="ORBITALMAG"> F  </i>
   <i type="logical" name="LMAGBLOCH"> F  </i>
   <i type="logical" name="LCHIMAG"> F  </i>
   <i type="logical" name="LGAUGE"> T  </i>
   <i type="int" name="MAGATOM">     0</i>
   <v name="MAGDIPOL">      0.00000000      0.00000000      0.00000000</v>
   <v name="AVECCONST">      0.00000000      0.00000000      0.00000000</v>
  </separator>
  <separator name="response functions" >
   <i type="logical" name="LALL_IN_ONE"> F  </i>
   <i type="int" name="IALL_IN_ONE">    -1</i>
   <i type="int" name="NBANDS_WAVE">    -1</i>
   <i type="logical" name="LFINITE_TEMPERATURE"> F  </i>
   <i type="logical" name="LADDER"> F  </i>
   <i type="logical" name="LRPAFORCE"> F  </i>
   <i type="logical" name="LFXC"> F  </i>
   <i type="logical" name="LHARTREE"> T  </i>
   <i type="int" name="IBSE">     0</i>
   <v type="int" name="KPOINT">    -1     0     0     0</v>
   <i type="logical" name="LTCTC"> F  </i>
   <i type="logical" name="LTCTE"> F  </i>
   <i type="logical" name="LTETE"> F  </i>
   <i type="logical" name="LTRIPLET"> F  </i>
   <i type="logical" name="LFXCEPS"> F  </i>
   <i type="logical" name="LFXHEG"> F  </i>
   <i type="int" name="NATURALO">     2</i>
   <i type="logical" name="LHOLEGF"> F  </i>
   <i type="logical" name="L2ORDER"> F  </i>
   <i type="logical" name="LDMP1"> F  </i>
   <i type="logical" name="LMP2LT"> F  </i>
   <i type="logical" name="LSMP2LT"> F  </i>
   <i type="logical" name="LGWLF"> F  </i>
   <i name="ENCUTGW">     -1.60000002</i>
   <i name="ENCUTGWSOFT">     -1.60000002</i>
   <i name="ENCUTLF">     -1.00000000</i>
   <i type="logical" name="LESF_SPLINES"> F  </i>
   <i type="int" name="LMAXMP2">    -1</i>
   <i name="SCISSOR">      0.00000000</i>
   <i type="int" name="NOMEGA">     0</i>
   <i type="int" name="NOMEGAR">     0</i>
   <i type="int" name="NBANDSGW">    -1</i>
   <i type="int" name="NBANDSO">    -1</i>
   <i type="int" name="NBANDSV">    -1</i>
   <i type="int" name="NELMGW">     1</i>
   <i type="int" name="NELMHF">     1</i>
   <i type="int" name="DIM">     3</i>
   <i type="int" name="IESPILON">     4</i>
   <i type="int" name="ANTIRES">     0</i>
   <i name="OMEGAMAX">    -30.00000000</i>
   <i name="OMEGAMIN">    -30.00000000</i>
   <i name="OMEGATL">   -200.00000000</i>
   <i type="int" name="OMEGAGRID">     0</i>
   <i name="CSHIFT">     -0.10000000</i>
   <i type="logical" name="LSELFENERGY"> F  </i>
   <i type="logical" name="LSPECTRAL"> F  </i>
   <i type="logical" name="LSPECTRALGW"> F  </i>
   <i type="logical" name="LSINGLES"> F  </i>
   <i type="logical" name="LFERMIGW"> F  </i>
   <i type="logical" name="ODDONLYGW"> F  </i>
   <i type="logical" name="EVENONLYGW"> F  </i>
   <i type="int" name="NKREDLFX">     1</i>
   <i type="int" name="NKREDLFY">     1</i>
   <i type="int" name="NKREDLFZ">     1</i>
   <i type="int" name="MAXMEM">  2800</i>
   <i type="int" name="TELESCOPE">     0</i>
   <i type="int" name="NTAUPAR">    -1</i>
   <i type="int" name="NOMEGAPAR">    -1</i>
   <i name="DAMP_NEWTON">      0.80000001</i>
   <i name="LAMBDA">      1.00000000</i>
  </separator>
  <separator name="External order field" >
   <i name="OFIELD_KAPPA">      0.00000000</i>
   <v name="OFIELD_K">      0.00000000      0.00000000      0.00000000</v>
   <i name="OFIELD_Q6_NEAR">      0.00000000</i>
   <i name="OFIELD_Q6_FAR">      0.00000000</i>
   <i name="OFIELD_A">      0.00000000</i>
  </separator>
  <separator name="optional k-points parameters" >
   <i type="int" name="KPOINTS_OPT_MODE">     1</i>
   <i type="logical" name="LKPOINTS_OPT"> F  </i>
  </separator>
 </parameters>
 <atominfo>
  <atoms>      97 </atoms>
  <types>       5 </types>
  <array name="atoms" >
   <dimension dim="1">ion</dimension>
   <field type="string">element</field>
   <field type="int">atomtype</field>
   <set>
    <rc><c>C </c><c>   1</c></rc>
    <rc><c>C </c><c>   1</c></rc>
    <rc><c>C </c><c>   1</c></rc>
    <rc><c>C </c><c>   1</c></rc>
    <rc><c>C </c><c>   1</c></rc>
    <rc><c>C </c><c>   1</c></rc>
    <rc><c>C </c><c>   1</c></rc>
    <rc><c>C </c><c>   1</c></rc>
    <rc><c>C </c><c>   1</c></rc>
    <rc><c>C </c><c>   1</c></rc>
    <rc><c>C </c><c>   1</c></rc>
    <rc><c>C </c><c>   1</c></rc>
    <rc><c>C </c><c>   1</c></rc>
    <rc><c>C </c><c>   1</c></rc>
    <rc><c>C </c><c>   1</c></rc>
    <rc><c>C </c><c>   1</c></rc>
    <rc><c>C </c><c>   1</c></rc>
    <rc><c>C </c><c>   1</c></rc>
    <rc><c>C </c><c>   1</c></rc>
    <rc><c>C </c><c>   1</c></rc>
    <rc><c>C </c><c>   1</c></rc>
    <rc><c>C </c><c>   1</c></rc>
    <rc><c>C </c><c>   1</c></rc>
    <rc><c>C </c><c>   1</c></rc>
    <rc><c>C </c><c>   1</c></rc>
    <rc><c>C </c><c>   1</c></rc>
    <rc><c>C </c><c>   1</c></rc>
    <rc><c>C </c><c>   1</c></rc>
    <rc><c>C </c><c>   1</c></rc>
    <rc><c>C </c><c>   1</c></rc>
    <rc><c>C </c><c>   1</c></rc>
    <rc><c>C </c><c>   1</c></rc>
    <rc><c>C </c><c>   1</c></rc>
    <rc><c>C </c><c>   1</c></rc>
    <rc><c>C </c><c>   1</c></rc>
    <rc><c>C </c><c>   1</c></rc>
    <rc><c>C </c><c>   1</c></rc>
    <rc><c>C </c><c>   1</c></rc>
    <rc><c>C </c><c>   1</c></rc>
    <rc><c>C </c><c>   1</c></rc>
    <rc><c>C </c><c>   1</c></rc>
    <rc><c>C </c><c>   1</c></rc>
    <rc><c>C </c><c>   1</c></rc>
    <rc><c>C </c><c>   1</c></rc>
    <rc><c>C </c><c>   1</c></rc>
    <rc><c>C </c><c>   1</c></rc>
    <rc><c>C </c><c>   1</c></rc>
    <rc><c>C </c><c>   1</c></rc>
    <rc><c>C </c><c>   1</c></rc>
    <rc><c>C </c><c>   1</c></rc>
    <rc><c>C </c><c>   1</c></rc>
    <rc><c>C </c><c>   1</c></rc>
    <rc><c>C </c><c>   1</c></rc>
    <rc><c>C </c><c>   1</c></rc>
    <rc><c>C </c><c>   1</c></rc>
    <rc><c>C </c><c>   1</c></rc>
    <rc><c>C </c><c>   1</c></rc>
    <rc><c>C </c><c>   1</c></rc>
    <rc><c>C </c><c>   1</c></rc>
    <rc><c>C </c><c>   1</c></rc>
    <rc><c>C </c><c>   1</c></rc>
    <rc><c>C </c><c>   1</c></rc>
    <rc><c>C </c><c>   1</c></rc>
    <rc><c>C </c><c>   1</c></rc>
    <rc><c>C </c><c>   1</c></rc>
    <rc><c>C </c><c>   1</c></rc>
    <rc><c>C </c><c>   1</c></rc>
    <rc><c>C </c><c>   1</c></rc>
    <rc><c>C </c><c>   1</c></rc>
    <rc><c>C </c><c>   1</c></rc>
    <rc><c>C </c><c>   1</c></rc>
    <rc><c>C </c><c>   1</c></rc>
    <rc><c>C </c><c>   1</c></rc>
    <rc><c>C </c><c>   1</c></rc>
    <rc><c>C </c><c>   1</c></rc>
    <rc><c>C </c><c>   1</c></rc>
    <rc><c>C </c><c>   1</c></rc>
    <rc><c>C </c><c>   1</c></rc>
    <rc><c>C </c><c>   1</c></rc>
    <rc><c>C </c><c>   1</c></rc>
    <rc><c>C </c><c>   1</c></rc>
    <rc><c>C </c><c>   1</c></rc>
    <rc><c>C </c><c>   1</c></rc>
    <rc><c>C </c><c>   1</c></rc>
    <rc><c>C </c><c>   1</c></rc>
    <rc><c>C </c><c>   1</c></rc>
    <rc><c>F </c><c>   2</c></rc>
    <rc><c>F </c><c>   2</c></rc>
    <rc><c>F </c><c>   2</c></rc>
    <rc><c>F </c><c>   2</c></rc>
    <rc><c>F </c><c>   2</c></rc>
    <rc><c>F </c><c>   2</c></rc>
    <rc><c>N </c><c>   3</c></rc>
    <rc><c>N </c><c>   3</c></rc>
    <rc><c>H </c><c>   4</c></rc>
    <rc><c>H </c><c>   4</c></rc>
    <rc><c>O </c><c>   5</c></rc>
   </set>
  </array>
  <array name="atomtypes" >
   <dimension dim="1">type</dimension>
   <field type="int">atomspertype</field>
   <field type="string">element</field>
   <field>mass</field>
   <field>valence</field>
   <field type="string">pseudopotential</field>
   <set>
    <rc><c>  86</c><c>C </c><c>     12.01100000</c><c>      4.00000000</c><c>  PAW_PBE C 08Apr2002                   </c></rc>
    <rc><c>   6</c><c>F </c><c>     18.99800000</c><c>      7.00000000</c><c>  PAW_PBE F 08Apr2002                   </c></rc>
    <rc><c>   2</c><c>N </c><c>     14.00100000</c><c>      5.00000000</c><c>  PAW_PBE N 08Apr2002                   </c></rc>
    <rc><c>   2</c><c>H </c><c>      1.00000000</c><c>      1.00000000</c><c>  PAW_PBE H 15Jun2001                   </c></rc>
    <rc><c>   1</c><c>O </c><c>     16.00000000</c><c>      6.00000000</c><c>  PAW_PBE O 08Apr2002                   </c></rc>
   </set>
  </array>
 </atominfo>
 <structure name="initialpos" >
  <crystal>
   <varray name="basis" >
    <v>      17.27103806       0.00000000       0.00000000 </v>
    <v>      -8.63551903      14.95715771       0.00000000 </v>
    <v>       0.00000000       0.00000000      15.00000000 </v>
   </varray>
   <i name="volume">   3874.88459904 </i>
   <varray name="rec_basis" >
    <v>       0.05790040       0.03342881      -0.00000000 </v>
    <v>       0.00000000       0.06685762       0.00000000 </v>
    <v>       0.00000000      -0.00000000       0.06666667 </v>
   </varray>
  </crystal>
  <varray name="positions" >
   <v>       0.99902963       0.99932438       0.50323689 </v>
   <v>       0.99849060       0.14186989       0.50553398 </v>
   <v>       0.99876075       0.28504364       0.50555281 </v>
   <v>       0.99946321       0.42821136       0.50538959 </v>
   <v>       0.00001948       0.57134152       0.50093981 </v>
   <v>       0.00079711       0.71465982       0.49850783 </v>
   <v>       0.00067484       0.85762848       0.49970178 </v>
   <v>       0.14248782       0.00021599       0.49295462 </v>
   <v>       0.14159808       0.14253736       0.49731057 </v>
   <v>       0.14096074       0.28512803       0.49584370 </v>
   <v>       0.14187111       0.42856767       0.49463020 </v>
   <v>       0.14267780       0.57129227       0.49659753 </v>
   <v>       0.14280345       0.71425061       0.49337946 </v>
   <v>       0.14286995       0.85737516       0.49210766 </v>
   <v>       0.28529577       0.99997623       0.49118138 </v>
   <v>       0.28481400       0.14241278       0.48996566 </v>
   <v>       0.28365544       0.28573478       0.48497846 </v>
   <v>       0.28067079       0.42651129       0.46395827 </v>
   <v>       0.28555374       0.57218988       0.47604739 </v>
   <v>       0.28525200       0.71475094       0.48979857 </v>
   <v>       0.28512043       0.85745549       0.49128076 </v>
   <v>       0.42821229       0.99985201       0.49436286 </v>
   <v>       0.42796034       0.14275424       0.49450613 </v>
   <v>       0.42310246       0.27901666       0.51359723 </v>
   <v>       0.42718892       0.85636469       0.49600229 </v>
   <v>       0.57031793       0.99870038       0.50206163 </v>
   <v>       0.57076610       0.14213812       0.50373288 </v>
   <v>       0.57159420       0.28591199       0.50217626 </v>
   <v>       0.56829577       0.85406390       0.51247675 </v>
   <v>       0.71239920       0.99721455       0.51077663 </v>
   <v>       0.71335893       0.14150426       0.50805289 </v>
   <v>       0.71388648       0.28519046       0.51014408 </v>
   <v>       0.71504123       0.42910414       0.51016822 </v>
   <v>       0.72389546       0.57685003       0.54078945 </v>
   <v>       0.71253174       0.85370312       0.52577374 </v>
   <v>       0.85556828       0.99826096       0.51130125 </v>
   <v>       0.85558193       0.14138521       0.50922322 </v>
   <v>       0.85626054       0.28483846       0.50996627 </v>
   <v>       0.85721080       0.42837482       0.51094162 </v>
   <v>       0.85834226       0.57244135       0.50692956 </v>
   <v>       0.85967945       0.71563482       0.51246988 </v>
   <v>       0.85725806       0.85618049       0.51496466 </v>
   <v>       0.04649194       0.09466713       0.50235097 </v>
   <v>       0.04586853       0.23715643       0.50322498 </v>
   <v>       0.04670185       0.38052926       0.50294883 </v>
   <v>       0.04751662       0.52353269       0.50169708 </v>
   <v>       0.04774005       0.66663640       0.49685655 </v>
   <v>       0.04791033       0.80973733       0.49595440 </v>
   <v>       0.04734264       0.95247186       0.49822119 </v>
   <v>       0.18951099       0.09505435       0.49185674 </v>
   <v>       0.18846311       0.23771824       0.49427229 </v>
   <v>       0.18793154       0.38006504       0.48772577 </v>
   <v>       0.19047442       0.52406517       0.49135563 </v>
   <v>       0.19009024       0.66661014       0.49266020 </v>
   <v>       0.19023975       0.80963477       0.49144331 </v>
   <v>       0.19025626       0.95251010       0.49120927 </v>
   <v>       0.33280823       0.09521450       0.49188800 </v>
   <v>       0.33194677       0.23757237       0.49410706 </v>
   <v>       0.32375160       0.37526129       0.45855513 </v>
   <v>       0.32348074       0.52066451       0.44971399 </v>
   <v>       0.33606252       0.67025951       0.48430742 </v>
   <v>       0.33247217       0.80960106       0.49189383 </v>
   <v>       0.33285606       0.95242463       0.49177238 </v>
   <v>       0.47585231       0.09505162       0.49643020 </v>
   <v>       0.47519536       0.23791803       0.50187465 </v>
   <v>       0.47109006       0.80487699       0.50059099 </v>
   <v>       0.47541260       0.95178507       0.49752508 </v>
   <v>       0.61807222       0.09405622       0.50476199 </v>
   <v>       0.61875324       0.23769433       0.50756063 </v>
   <v>       0.62367366       0.37925296       0.49169616 </v>
   <v>       0.61867978       0.81217025       0.53172395 </v>
   <v>       0.61694303       0.94974721       0.50723552 </v>
   <v>       0.76036393       0.09320401       0.50919947 </v>
   <v>       0.76115567       0.23697092       0.50953976 </v>
   <v>       0.76195267       0.38057854       0.51314117 </v>
   <v>       0.76334308       0.52600568       0.51723315 </v>
   <v>       0.76624357       0.67145592       0.53092154 </v>
   <v>       0.76186652       0.80460199       0.52799738 </v>
   <v>       0.76006819       0.94935485       0.51491726 </v>
   <v>       0.90306275       0.09355408       0.50865920 </v>
   <v>       0.90345063       0.23693156       0.50867261 </v>
   <v>       0.90422302       0.38045885       0.50949409 </v>
   <v>       0.90491738       0.52383005       0.50511223 </v>
   <v>       0.90602838       0.66728127       0.50535043 </v>
   <v>       0.90597773       0.81013157       0.50836857 </v>
   <v>       0.90380413       0.95119371       0.50984512 </v>
   <v>       0.46085728       0.36062381       0.55259511 </v>
   <v>       0.40711721       0.41389180       0.42489166 </v>
   <v>       0.40108461       0.56072108       0.40643177 </v>
   <v>       0.64216428       0.53414015       0.57916686 </v>
   <v>       0.58544406       0.42319118       0.45377595 </v>
   <v>       0.57295619       0.72768578       0.56028073 </v>
   <v>       0.42570453       0.71491046       0.49118255 </v>
   <v>       0.71947384       0.71530593       0.53894638 </v>
   <v>       0.58461483       0.61897282       0.52442677 </v>
   <v>       0.53409530       0.51919787       0.49848819 </v>
   <v>       0.52800909       0.57193269       0.50000005 </v>
  </varray>
  <varray name="selective"  type="logical" >
   <v type="logical" >  T  T  T </v>
   <v type="logical" >  T  T  T </v>
   <v type="logical" >  T  T  T </v>
   <v type="logical" >  T  T  T </v>
   <v type="logical" >  T  T  T </v>
   <v type="logical" >  T  T  T </v>
   <v type="logical" >  T  T  T </v>
   <v type="logical" >  T  T  T </v>
   <v type="logical" >  T  T  T </v>
   <v type="logical" >  T  T  T </v>
   <v type="logical" >  T  T  T </v>
   <v type="logical" >  T  T  T </v>
   <v type="logical" >  T  T  T </v>
   <v type="logical" >  T  T  T </v>
   <v type="logical" >  T  T  T </v>
   <v type="logical" >  T  T  T </v>
   <v type="logical" >  T  T  T </v>
   <v type="logical" >  T  T  T </v>
   <v type="logical" >  T  T  T </v>
   <v type="logical" >  T  T  T </v>
   <v type="logical" >  T  T  T </v>
   <v type="logical" >  T  T  T </v>
   <v type="logical" >  T  T  T </v>
   <v type="logical" >  T  T  T </v>
   <v type="logical" >  T  T  T </v>
   <v type="logical" >  T  T  T </v>
   <v type="logical" >  T  T  T </v>
   <v type="logical" >  T  T  T </v>
   <v type="logical" >  T  T  T </v>
   <v type="logical" >  T  T  T </v>
   <v type="logical" >  T  T  T </v>
   <v type="logical" >  T  T  T </v>
   <v type="logical" >  T  T  T </v>
   <v type="logical" >  T  T  T </v>
   <v type="logical" >  T  T  T </v>
   <v type="logical" >  T  T  T </v>
   <v type="logical" >  T  T  T </v>
   <v type="logical" >  T  T  T </v>
   <v type="logical" >  T  T  T </v>
   <v type="logical" >  T  T  T </v>
   <v type="logical" >  T  T  T </v>
   <v type="logical" >  T  T  T </v>
   <v type="logical" >  T  T  T </v>
   <v type="logical" >  T  T  T </v>
   <v type="logical" >  T  T  T </v>
   <v type="logical" >  T  T  T </v>
   <v type="logical" >  T  T  T </v>
   <v type="logical" >  T  T  T </v>
   <v type="logical" >  T  T  T </v>
   <v type="logical" >  T  T  T </v>
   <v type="logical" >  T  T  T </v>
   <v type="logical" >  T  T  T </v>
   <v type="logical" >  T  T  T </v>
   <v type="logical" >  T  T  T </v>
   <v type="logical" >  T  T  T </v>
   <v type="logical" >  T  T  T </v>
   <v type="logical" >  T  T  T </v>
   <v type="logical" >  T  T  T </v>
   <v type="logical" >  T  T  T </v>
   <v type="logical" >  T  T  T </v>
   <v type="logical" >  T  T  T </v>
   <v type="logical" >  T  T  T </v>
   <v type="logical" >  T  T  T </v>
   <v type="logical" >  T  T  T </v>
   <v type="logical" >  T  T  T </v>
   <v type="logical" >  T  T  T </v>
   <v type="logical" >  T  T  T </v>
   <v type="logical" >  T  T  T </v>
   <v type="logical" >  T  T  T </v>
   <v type="logical" >  T  T  T </v>
   <v type="logical" >  T  T  T </v>
   <v type="logical" >  T  T  T </v>
   <v type="logical" >  T  T  T </v>
   <v type="logical" >  T  T  T </v>
   <v type="logical" >  T  T  T </v>
   <v type="logical" >  T  T  T </v>
   <v type="logical" >  T  T  T </v>
   <v type="logical" >  T  T  T </v>
   <v type="logical" >  T  T  T </v>
   <v type="logical" >  T  T  T </v>
   <v type="logical" >  T  T  T </v>
   <v type="logical" >  T  T  T </v>
   <v type="logical" >  T  T  T </v>
   <v type="logical" >  T  T  T </v>
   <v type="logical" >  T  T  T </v>
   <v type="logical" >  T  T  T </v>
   <v type="logical" >  T  T  T </v>
   <v type="logical" >  T  T  T </v>
   <v type="logical" >  T  T  T </v>
   <v type="logical" >  T  T  T </v>
   <v type="logical" >  T  T  T </v>
   <v type="logical" >  T  T  T </v>
   <v type="logical" >  T  T  T </v>
   <v type="logical" >  T  T  T </v>
   <v type="logical" >  T  T  T </v>
   <v type="logical" >  T  T  T </v>
   <v type="logical" >  T  T  F </v>
  </varray>
  <nose>
   <v>      -3.00000000       0.00000000       0.00010000       0.00010000 </v>
  </nose>
 </structure>
 <calculation>
  <scstep>
   <time name="dav">   88.09   88.67</time>
   <time name="total">   95.53   96.18</time>
   <energy>
    <i name="alphaZ">    207.25300192 </i>
    <i name="ewald">  41220.58614854 </i>
    <i name="hartreedc"> -54921.44760931 </i>
    <i name="XCdc">   1433.43013890 </i>
    <i name="pawpsdc">  13324.18077321 </i>
    <i name="pawaedc"> -13407.67620897 </i>
    <i name="eentropy">     -0.04297137 </i>
    <i name="bandstr">  -1684.59904586 </i>
    <i name="atom">  17598.89992239 </i>
    <i name="e_fr_energy">   3770.58414945 </i>
    <i name="e_wo_entrp">   3770.62712082 </i>
    <i name="e_0_energy">   3770.60563514 </i>
   </energy>
  </scstep>
  <scstep>
   <time name="dav">  109.37  110.10</time>
   <time name="total">  109.37  110.10</time>
   <energy>
    <i name="e_fr_energy">   -173.44112013 </i>
    <i name="e_wo_entrp">   -173.43838395 </i>
    <i name="e_0_energy">   -173.43975204 </i>
   </energy>
  </scstep>
  <scstep>
   <time name="dav">   93.98   94.59</time>
   <time name="total">   93.98   94.59</time>
   <energy>
    <i name="e_fr_energy">   -861.19965414 </i>
    <i name="e_wo_entrp">   -861.19371915 </i>
    <i name="e_0_energy">   -861.19668665 </i>
   </energy>
  </scstep>
  <scstep>
   <time name="dav">   95.39   96.02</time>
   <time name="total">   95.39   96.02</time>
   <energy>
    <i name="e_fr_energy">   -883.64018018 </i>
    <i name="e_wo_entrp">   -883.63364227 </i>
    <i name="e_0_energy">   -883.63691123 </i>
   </energy>
  </scstep>
  <scstep>
   <time name="dav">  105.63  106.29</time>
   <time name="total">  111.77  112.46</time>
   <energy>
    <i name="e_fr_energy">   -884.33249861 </i>
    <i name="e_wo_entrp">   -884.32583643 </i>
    <i name="e_0_energy">   -884.32916752 </i>
   </energy>
  </scstep>
  <scstep>
   <time name="dav">   92.84   93.53</time>
   <time name="total">  107.13  107.90</time>
   <energy>
    <i name="e_fr_energy">   -866.73212523 </i>
    <i name="e_wo_entrp">   -866.73195361 </i>
    <i name="e_0_energy">   -866.73203942 </i>
   </energy>
  </scstep>
  <scstep>
   <time name="dav">   91.84   92.44</time>
   <time name="total">  106.38  107.06</time>
   <energy>
    <i name="e_fr_energy">   -846.18356352 </i>
    <i name="e_wo_entrp">   -846.18356289 </i>
    <i name="e_0_energy">   -846.18356321 </i>
   </energy>
  </scstep>
  <scstep>
   <time name="dav">   88.53   89.11</time>
   <time name="total">  103.17  103.85</time>
   <energy>
    <i name="e_fr_energy">   -841.34098631 </i>
    <i name="e_wo_entrp">   -841.34098631 </i>
    <i name="e_0_energy">   -841.34098631 </i>
   </energy>
  </scstep>
  <scstep>
   <time name="dav">   90.72   91.33</time>
   <time name="total">  105.53  106.24</time>
   <energy>
    <i name="e_fr_energy">   -841.52496104 </i>
    <i name="e_wo_entrp">   -841.52496104 </i>
    <i name="e_0_energy">   -841.52496104 </i>
   </energy>
  </scstep>
  <scstep>
   <time name="dav">   89.27   89.82</time>
   <time name="total">  103.92  104.56</time>
   <energy>
    <i name="e_fr_energy">   -841.34401985 </i>
    <i name="e_wo_entrp">   -841.34401985 </i>
    <i name="e_0_energy">   -841.34401985 </i>
   </energy>
  </scstep>
  <scstep>
   <time name="dav">   90.79   91.37</time>
   <time name="total">  105.53  106.20</time>
   <energy>
    <i name="e_fr_energy">   -841.31590618 </i>
    <i name="e_wo_entrp">   -841.31590618 </i>
    <i name="e_0_energy">   -841.31590618 </i>
   </energy>
  </scstep>
  <scstep>
   <time name="dav">   91.43   92.00</time>
   <time name="total">  106.13  106.78</time>
   <energy>
    <i name="e_fr_energy">   -841.31492602 </i>
    <i name="e_wo_entrp">   -841.31492602 </i>
    <i name="e_0_energy">   -841.31492602 </i>
   </energy>
  </scstep>
  <scstep>
   <time name="dav">   90.36   90.98</time>
   <time name="total">  105.14  105.86</time>
   <energy>
    <i name="e_fr_energy">   -841.31519440 </i>
    <i name="e_wo_entrp">   -841.31519440 </i>
    <i name="e_0_energy">   -841.31519440 </i>
   </energy>
  </scstep>
  <scstep>
   <time name="dav">   89.91   90.55</time>
   <time name="total">  104.74  105.45</time>
   <energy>
    <i name="e_fr_energy">   -841.31519619 </i>
    <i name="e_wo_entrp">   -841.31519619 </i>
    <i name="e_0_energy">   -841.31519619 </i>
   </energy>
  </scstep>
  <scstep>
   <time name="dav">   88.64   89.19</time>
   <time name="total">  103.33  103.98</time>
   <energy>
    <i name="e_fr_energy">   -841.31526108 </i>
    <i name="e_wo_entrp">   -841.31526108 </i>
    <i name="e_0_energy">   -841.31526108 </i>
   </energy>
  </scstep>
  <scstep>
   <time name="dav">   87.97   88.54</time>
   <time name="total">  102.73  103.40</time>
   <energy>
    <i name="e_fr_energy">   -841.31526940 </i>
    <i name="e_wo_entrp">   -841.31526940 </i>
    <i name="e_0_energy">   -841.31526940 </i>
   </energy>
  </scstep>
  <scstep>
   <time name="dav">   90.48   91.04</time>
   <time name="total">  105.12  105.79</time>
   <energy>
    <i name="e_fr_energy">   -841.31526844 </i>
    <i name="e_wo_entrp">   -841.31526844 </i>
    <i name="e_0_energy">   -841.31526844 </i>
   </energy>
  </scstep>
  <scstep>
   <time name="dav">   69.93   70.39</time>
   <time name="total">   77.88   78.39</time>
   <energy>
    <i name="alphaZ">    207.25300192 </i>
    <i name="ewald">  41220.58614854 </i>
    <i name="hartreedc"> -56402.28699164 </i>
    <i name="XCdc">   1483.24649498 </i>
    <i name="pawpsdc">  40863.90756060 </i>
    <i name="pawaedc"> -40958.69832807 </i>
    <i name="eentropy">     -0.00000000 </i>
    <i name="bandstr">  -4854.22307651 </i>
    <i name="atom">  17598.89992239 </i>
    <i name="e_fr_energy">   -841.31526780 </i>
    <i name="e_wo_entrp">   -841.31526780 </i>
    <i name="e_0_energy">   -841.31526780 </i>
   </energy>
  </scstep>
  <structure>
   <crystal>
    <varray name="basis" >
     <v>      17.27103806       0.00000000       0.00000000 </v>
     <v>      -8.63551903      14.95715771       0.00000000 </v>
     <v>       0.00000000       0.00000000      15.00000000 </v>
    </varray>
    <i name="volume">   3874.88459904 </i>
    <varray name="rec_basis" >
     <v>       0.05790040       0.03342881      -0.00000000 </v>
     <v>       0.00000000       0.06685762       0.00000000 </v>
     <v>       0.00000000      -0.00000000       0.06666667 </v>
    </varray>
   </crystal>
   <varray name="positions" >
    <v>       0.99902963       0.99932438       0.50323689 </v>
    <v>       0.99849060       0.14186989       0.50553398 </v>
    <v>       0.99876075       0.28504364       0.50555281 </v>
    <v>       0.99946321       0.42821136       0.50538959 </v>
    <v>       0.00001948       0.57134152       0.50093981 </v>
    <v>       0.00079711       0.71465982       0.49850783 </v>
    <v>       0.00067484       0.85762848       0.49970178 </v>
    <v>       0.14248782       0.00021599       0.49295462 </v>
    <v>       0.14159808       0.14253736       0.49731057 </v>
    <v>       0.14096074       0.28512803       0.49584370 </v>
    <v>       0.14187111       0.42856767       0.49463020 </v>
    <v>       0.14267780       0.57129227       0.49659753 </v>
    <v>       0.14280345       0.71425061       0.49337946 </v>
    <v>       0.14286995       0.85737516       0.49210766 </v>
    <v>       0.28529577       0.99997623       0.49118138 </v>
    <v>       0.28481400       0.14241278       0.48996566 </v>
    <v>       0.28365544       0.28573478       0.48497846 </v>
    <v>       0.28067079       0.42651129       0.46395827 </v>
    <v>       0.28555374       0.57218988       0.47604739 </v>
    <v>       0.28525200       0.71475094       0.48979857 </v>
    <v>       0.28512043       0.85745549       0.49128076 </v>
    <v>       0.42821229       0.99985201       0.49436286 </v>
    <v>       0.42796034       0.14275424       0.49450613 </v>
    <v>       0.42310246       0.27901666       0.51359723 </v>
    <v>       0.42718892       0.85636469       0.49600229 </v>
    <v>       0.57031793       0.99870038       0.50206163 </v>
    <v>       0.57076610       0.14213812       0.50373288 </v>
    <v>       0.57159420       0.28591199       0.50217626 </v>
    <v>       0.56829577       0.85406390       0.51247675 </v>
    <v>       0.71239920       0.99721455       0.51077663 </v>
    <v>       0.71335893       0.14150426       0.50805289 </v>
    <v>       0.71388648       0.28519046       0.51014408 </v>
    <v>       0.71504123       0.42910414       0.51016822 </v>
    <v>       0.72389546       0.57685003       0.54078945 </v>
    <v>       0.71253174       0.85370312       0.52577374 </v>
    <v>       0.85556828       0.99826096       0.51130125 </v>
    <v>       0.85558193       0.14138521       0.50922322 </v>
    <v>       0.85626054       0.28483846       0.50996627 </v>
    <v>       0.85721080       0.42837482       0.51094162 </v>
    <v>       0.85834226       0.57244135       0.50692956 </v>
    <v>       0.85967945       0.71563482       0.51246988 </v>
    <v>       0.85725806       0.85618049       0.51496466 </v>
    <v>       0.04649194       0.09466713       0.50235097 </v>
    <v>       0.04586853       0.23715643       0.50322498 </v>
    <v>       0.04670185       0.38052926       0.50294883 </v>
    <v>       0.04751662       0.52353269       0.50169708 </v>
    <v>       0.04774005       0.66663640       0.49685655 </v>
    <v>       0.04791033       0.80973733       0.49595440 </v>
    <v>       0.04734264       0.95247186       0.49822119 </v>
    <v>       0.18951099       0.09505435       0.49185674 </v>
    <v>       0.18846311       0.23771824       0.49427229 </v>
    <v>       0.18793154       0.38006504       0.48772577 </v>
    <v>       0.19047442       0.52406517       0.49135563 </v>
    <v>       0.19009024       0.66661014       0.49266020 </v>
    <v>       0.19023975       0.80963477       0.49144331 </v>
    <v>       0.19025626       0.95251010       0.49120927 </v>
    <v>       0.33280823       0.09521450       0.49188800 </v>
    <v>       0.33194677       0.23757237       0.49410706 </v>
    <v>       0.32375160       0.37526129       0.45855513 </v>
    <v>       0.32348074       0.52066451       0.44971399 </v>
    <v>       0.33606252       0.67025951       0.48430742 </v>
    <v>       0.33247217       0.80960106       0.49189383 </v>
    <v>       0.33285606       0.95242463       0.49177238 </v>
    <v>       0.47585231       0.09505162       0.49643020 </v>
    <v>       0.47519536       0.23791803       0.50187465 </v>
    <v>       0.47109006       0.80487699       0.50059099 </v>
    <v>       0.47541260       0.95178507       0.49752508 </v>
    <v>       0.61807222       0.09405622       0.50476199 </v>
    <v>       0.61875324       0.23769433       0.50756063 </v>
    <v>       0.62367366       0.37925296       0.49169616 </v>
    <v>       0.61867978       0.81217025       0.53172395 </v>
    <v>       0.61694303       0.94974721       0.50723552 </v>
    <v>       0.76036393       0.09320401       0.50919947 </v>
    <v>       0.76115567       0.23697092       0.50953976 </v>
    <v>       0.76195267       0.38057854       0.51314117 </v>
    <v>       0.76334308       0.52600568       0.51723315 </v>
    <v>       0.76624357       0.67145592       0.53092154 </v>
    <v>       0.76186652       0.80460199       0.52799738 </v>
    <v>       0.76006819       0.94935485       0.51491726 </v>
    <v>       0.90306275       0.09355408       0.50865920 </v>
    <v>       0.90345063       0.23693156       0.50867261 </v>
    <v>       0.90422302       0.38045885       0.50949409 </v>
    <v>       0.90491738       0.52383005       0.50511223 </v>
    <v>       0.90602838       0.66728127       0.50535043 </v>
    <v>       0.90597773       0.81013157       0.50836857 </v>
    <v>       0.90380413       0.95119371       0.50984512 </v>
    <v>       0.46085728       0.36062381       0.55259511 </v>
    <v>       0.40711721       0.41389180       0.42489166 </v>
    <v>       0.40108461       0.56072108       0.40643177 </v>
    <v>       0.64216428       0.53414015       0.57916686 </v>
    <v>       0.58544406       0.42319118       0.45377595 </v>
    <v>       0.57295619       0.72768578       0.56028073 </v>
    <v>       0.42570453       0.71491046       0.49118255 </v>
    <v>       0.71947384       0.71530593       0.53894638 </v>
    <v>       0.58461483       0.61897282       0.52442677 </v>
    <v>       0.53409530       0.51919787       0.49848819 </v>
    <v>       0.52800909       0.57193269       0.50000005 </v>
   </varray>
  </structure>
  <varray name="forces" >
   <v>      -0.00884546       0.00236937       0.00684300 </v>
   <v>      -0.00726814       0.00278934      -0.00092348 </v>
   <v>       0.00093987      -0.00090086      -0.00559432 </v>
   <v>       0.00874216       0.00026519      -0.00213355 </v>
   <v>       0.01221808      -0.00554322       0.00211437 </v>
   <v>       0.01191080      -0.02032341       0.00713361 </v>
   <v>      -0.00039940      -0.00490567       0.00850809 </v>
   <v>       0.00024104      -0.00288613      -0.00021633 </v>
   <v>      -0.00868109       0.00001715      -0.00540432 </v>
   <v>      -0.01210124       0.00345507      -0.01228396 </v>
   <v>      -0.00560823       0.00549800      -0.01159395 </v>
   <v>       0.00315993      -0.00134530      -0.00425398 </v>
   <v>       0.01232429      -0.01119825      -0.00106351 </v>
   <v>       0.01175554      -0.00887685       0.00151046 </v>
   <v>       0.01461292      -0.00623664      -0.00363256 </v>
   <v>       0.00610279      -0.00408081      -0.01049349 </v>
   <v>      -0.00818854      -0.00089453      -0.01309887 </v>
   <v>      -0.01174170       0.00442763      -0.01761190 </v>
   <v>      -0.00828434       0.00441159      -0.00868660 </v>
   <v>      -0.00138998      -0.00611486      -0.00458719 </v>
   <v>       0.00610704      -0.00826795      -0.00062399 </v>
   <v>       0.00163431      -0.00780761       0.00065145 </v>
   <v>       0.01256352       0.00109270      -0.00502927 </v>
   <v>       0.00273863       0.00576182      -0.01389698 </v>
   <v>      -0.00077252      -0.00514531      -0.00010314 </v>
   <v>       0.00198828       0.00035158       0.00215736 </v>
   <v>       0.00417156       0.00202696      -0.00078208 </v>
   <v>       0.00432091      -0.00382319       0.00115484 </v>
   <v>       0.00321900      -0.00001133       0.00362428 </v>
   <v>       0.00393620       0.00056065       0.00978296 </v>
   <v>       0.00681370       0.00698835       0.00401831 </v>
   <v>       0.00672566       0.00035707       0.00576888 </v>
   <v>       0.01783951      -0.00780343       0.01240534 </v>
   <v>       0.00134944      -0.00177955       0.01782371 </v>
   <v>       0.00235243      -0.00035766       0.00961556 </v>
   <v>      -0.00249238       0.00336336       0.00890282 </v>
   <v>       0.00406065       0.00273613       0.00373425 </v>
   <v>       0.00694495       0.00206157       0.00294371 </v>
   <v>       0.00785166       0.00094844       0.00379691 </v>
   <v>       0.00910475      -0.00755739       0.01190693 </v>
   <v>       0.00186295      -0.00701683       0.01253353 </v>
   <v>      -0.00195568       0.00303910       0.01282826 </v>
   <v>       0.00945917      -0.00233352      -0.00004095 </v>
   <v>       0.00359366      -0.00006623      -0.00688371 </v>
   <v>      -0.00258028       0.00084387      -0.00652022 </v>
   <v>      -0.00864882       0.00334247      -0.00133394 </v>
   <v>      -0.01427823       0.01239041       0.00278799 </v>
   <v>      -0.00767512       0.01341657       0.00426405 </v>
   <v>       0.00544600       0.00015811       0.00467745 </v>
   <v>       0.00251601      -0.00013715      -0.00463998 </v>
   <v>       0.00953542      -0.00105837      -0.01235191 </v>
   <v>       0.00903928      -0.00155212      -0.01787565 </v>
   <v>       0.00414510      -0.00120793      -0.00898508 </v>
   <v>      -0.00455393       0.00824749      -0.00368861 </v>
   <v>      -0.01307043       0.01179199       0.00079511 </v>
   <v>      -0.00870180       0.00626601      -0.00078719 </v>
   <v>      -0.01812334       0.00493285      -0.00771749 </v>
   <v>      -0.00783014      -0.00149760      -0.01655818 </v>
   <v>       0.00245365      -0.00341970      -0.02055440 </v>
   <v>       0.00925099      -0.00458981      -0.01843697 </v>
   <v>       0.00539542       0.00210479      -0.00715699 </v>
   <v>      -0.00066956       0.00895445      -0.00137018 </v>
   <v>      -0.00646843       0.01048423      -0.00136032 </v>
   <v>      -0.00640460       0.00593997      -0.00222022 </v>
   <v>      -0.00668664       0.00320608      -0.00653004 </v>
   <v>      -0.00037810       0.00327035      -0.00011622 </v>
   <v>      -0.00117333       0.00451571       0.00138311 </v>
   <v>      -0.00389658      -0.00344089       0.00241935 </v>
   <v>      -0.00558109      -0.00046389       0.00201707 </v>
   <v>      -0.00368733       0.00527351       0.00539058 </v>
   <v>      -0.00234363      -0.00454310       0.00124127 </v>
   <v>      -0.00236483      -0.00150937       0.00701286 </v>
   <v>      -0.00635872      -0.00401552       0.00554571 </v>
   <v>      -0.00691714      -0.00315098       0.00398871 </v>
   <v>      -0.01192626       0.00434527       0.00971021 </v>
   <v>      -0.00544727       0.00672115       0.01608929 </v>
   <v>       0.00240041       0.00164777       0.01481790 </v>
   <v>       0.00016916      -0.00211520       0.01147312 </v>
   <v>      -0.00327591      -0.00468850       0.01143879 </v>
   <v>       0.00167060      -0.00207064       0.00346958 </v>
   <v>      -0.00390963      -0.00046768       0.00098797 </v>
   <v>      -0.00788550      -0.00044630       0.00412336 </v>
   <v>      -0.01467690       0.00525753       0.00662435 </v>
   <v>      -0.00383999       0.01152529       0.01045368 </v>
   <v>       0.00564381       0.00420081       0.01156296 </v>
   <v>       0.00743248      -0.00285704       0.00977524 </v>
   <v>      -0.00554206       0.00350935      -0.01612082 </v>
   <v>      -0.01077280      -0.00155064      -0.02159756 </v>
   <v>      -0.00176776       0.00169088      -0.01018283 </v>
   <v>      -0.00111202       0.00191963       0.02047630 </v>
   <v>       0.00185813       0.00884452       0.00511261 </v>
   <v>      -0.00444189      -0.00585611      -0.01053898 </v>
   <v>      -0.00268193      -0.00387822      -0.00412731 </v>
   <v>       0.00053257       0.00004809       0.01265652 </v>
   <v>       0.00690062      -0.00626882      -0.02000882 </v>
   <v>      -0.00281258      -0.00900487       0.00437617 </v>
   <v>       0.02117819      -0.01230324       0.00528815 </v>
  </varray>
  <varray name="stress" >
   <v>       1.59785713       0.75375697       0.02101653 </v>
   <v>       0.75375652      -4.74807381      -0.01014220 </v>
   <v>       0.02101583      -0.01014309      -0.30411522 </v>
  </varray>
  <energy>
   <i name="e_fr_energy">   -849.14899170 </i>
   <i name="e_wo_entrp">   -849.14899170 </i>
   <i name="e_0_energy">   -849.14899170 </i>
  </energy>
  <time name="totalsc"> 2025.84 2039.06</time>
 </calculation>
 <calculation>
  <scstep>
   <time name="dav">   82.29   82.78</time>
   <time name="total">   96.02   96.59</time>
   <energy>
    <i name="alphaZ">    207.25300192 </i>
    <i name="ewald">  41220.40370548 </i>
    <i name="hartreedc"> -56402.08918213 </i>
    <i name="XCdc">   1483.24646551 </i>
    <i name="pawpsdc">  40862.96569170 </i>
    <i name="pawaedc"> -40957.75624905 </i>
    <i name="eentropy">     -0.00000000 </i>
    <i name="bandstr">  -4854.23874095 </i>
    <i name="atom">  17598.89992239 </i>
    <i name="e_fr_energy">   -841.31538513 </i>
    <i name="e_wo_entrp">   -841.31538513 </i>
    <i name="e_0_energy">   -841.31538513 </i>
   </energy>
  </scstep>
  <scstep>
   <time name="dav">   88.68   89.34</time>
   <time name="total">  102.63  103.36</time>
   <energy>
    <i name="e_fr_energy">   -841.31539600 </i>
    <i name="e_wo_entrp">   -841.31539600 </i>
    <i name="e_0_energy">   -841.31539600 </i>
   </energy>
  </scstep>
  <scstep>
   <time name="dav">   85.04   85.60</time>
   <time name="total">   97.57   98.21</time>
   <energy>
    <i name="e_fr_energy">   -841.31539469 </i>
    <i name="e_wo_entrp">   -841.31539469 </i>
    <i name="e_0_energy">   -841.31539469 </i>
   </energy>
  </scstep>
  <scstep>
   <time name="dav">   46.35   46.61</time>
   <time name="total">   53.51   53.81</time>
   <energy>
    <i name="alphaZ">    207.25300192 </i>
    <i name="ewald">  41220.40370548 </i>
    <i name="hartreedc"> -56402.06826746 </i>
    <i name="XCdc">   1483.24588434 </i>
    <i name="pawpsdc">  40862.18564809 </i>
    <i name="pawaedc"> -40956.97546662 </i>
    <i name="eentropy">     -0.00000000 </i>
    <i name="bandstr">  -4854.25982198 </i>
    <i name="atom">  17598.89992239 </i>
    <i name="e_fr_energy">   -841.31539385 </i>
    <i name="e_wo_entrp">   -841.31539385 </i>
    <i name="e_0_energy">   -841.31539385 </i>
   </energy>
  </scstep>
  <structure>
   <crystal>
    <varray name="basis" >
     <v>      17.27103806       0.00000000       0.00000000 </v>
     <v>      -8.63551903      14.95715771       0.00000000 </v>
     <v>       0.00000000       0.00000000      15.00000000 </v>
    </varray>
    <i name="volume">   3874.88459904 </i>
    <varray name="rec_basis" >
     <v>       0.05790040       0.03342881      -0.00000000 </v>
     <v>       0.00000000       0.06685762       0.00000000 </v>
     <v>       0.00000000      -0.00000000       0.06666667 </v>
    </varray>
   </crystal>
   <varray name="positions" >
    <v>       0.99902595       0.99932626       0.50324138 </v>
    <v>       0.99848796       0.14187206       0.50553386 </v>
    <v>       0.99876150       0.28504341       0.50554979 </v>
    <v>       0.99946870       0.42821185       0.50538863 </v>
    <v>       0.00002507       0.57133827       0.50094133 </v>
    <v>       0.00079773       0.71464705       0.49851230 </v>
    <v>       0.00067357       0.85762567       0.49970704 </v>
    <v>       0.14248752       0.00021445       0.49295471 </v>
    <v>       0.14159372       0.14253772       0.49730722 </v>
    <v>       0.14095560       0.28513063       0.49583569 </v>
    <v>       0.14187027       0.42857153       0.49462245 </v>
    <v>       0.14267968       0.57129171       0.49659468 </v>
    <v>       0.14280723       0.71424370       0.49337892 </v>
    <v>       0.14287416       0.85736976       0.49210887 </v>
    <v>       0.28530238       0.99997252       0.49117931 </v>
    <v>       0.28481653       0.14241046       0.48995862 </v>
    <v>       0.28365092       0.28573450       0.48496857 </v>
    <v>       0.28066585       0.42651429       0.46394439 </v>
    <v>       0.28555089       0.57219293       0.47603955 </v>
    <v>       0.28524971       0.71474725       0.48979474 </v>
    <v>       0.28512164       0.85745045       0.49128045 </v>
    <v>       0.42821112       0.99984728       0.49436351 </v>
    <v>       0.42796814       0.14275525       0.49450280 </v>
    <v>       0.42310636       0.27902093       0.51358658 </v>
    <v>       0.42718727       0.85636166       0.49600137 </v>
    <v>       0.57031960       0.99870095       0.50206301 </v>
    <v>       0.57076952       0.14213975       0.50373268 </v>
    <v>       0.57159582       0.28590984       0.50217606 </v>
    <v>       0.56829804       0.85406418       0.51247659 </v>
    <v>       0.71240203       0.99721525       0.51078253 </v>
    <v>       0.71336544       0.14150909       0.50805592 </v>
    <v>       0.71389081       0.28519100       0.51014787 </v>
    <v>       0.71504913       0.42909939       0.51017465 </v>
    <v>       0.72389580       0.57684920       0.54079754 </v>
    <v>       0.71253339       0.85370316       0.52577736 </v>
    <v>       0.85556848       0.99826351       0.51130679 </v>
    <v>       0.85558556       0.14138733       0.50922613 </v>
    <v>       0.85626557       0.28484012       0.50996873 </v>
    <v>       0.85721598       0.42837577       0.51094405 </v>
    <v>       0.85834543       0.57243679       0.50693631 </v>
    <v>       0.85967867       0.71563064       0.51247633 </v>
    <v>       0.85725837       0.85618273       0.51497156 </v>
    <v>       0.04649697       0.09466598       0.50235129 </v>
    <v>       0.04587105       0.23715676       0.50322100 </v>
    <v>       0.04670123       0.38053015       0.50294499 </v>
    <v>       0.04751342       0.52353517       0.50169649 </v>
    <v>       0.04773660       0.66664472       0.49685847 </v>
    <v>       0.04791089       0.80974632       0.49595715 </v>
    <v>       0.04734624       0.95247230       0.49822429 </v>
    <v>       0.18951280       0.09505458       0.49185381 </v>
    <v>       0.18846856       0.23771790       0.49426402 </v>
    <v>       0.18793661       0.38006438       0.48771348 </v>
    <v>       0.19047689       0.52406469       0.49134916 </v>
    <v>       0.19009086       0.66661574       0.49265760 </v>
    <v>       0.19023674       0.80964268       0.49144403 </v>
    <v>       0.19025390       0.95251446       0.49120903 </v>
    <v>       0.33280014       0.09521800       0.49188306 </v>
    <v>       0.33194234       0.23757178       0.49409519 </v>
    <v>       0.32375184       0.37525900       0.45853895 </v>
    <v>       0.32348425       0.52066158       0.44969814 </v>
    <v>       0.33606662       0.67026111       0.48430061 </v>
    <v>       0.33247512       0.80960710       0.49189246 </v>
    <v>       0.33285628       0.95243169       0.49177174 </v>
    <v>       0.47585108       0.09505576       0.49642903 </v>
    <v>       0.47519310       0.23792046       0.50186958 </v>
    <v>       0.47109137       0.80487936       0.50058860 </v>
    <v>       0.47541384       0.95178828       0.49752584 </v>
    <v>       0.61806937       0.09405434       0.50476393 </v>
    <v>       0.61875041       0.23769436       0.50756186 </v>
    <v>       0.62367383       0.37925653       0.49169775 </v>
    <v>       0.61867749       0.81216739       0.53172039 </v>
    <v>       0.61694168       0.94974657       0.50723928 </v>
    <v>       0.76035955       0.09320177       0.50920333 </v>
    <v>       0.76115126       0.23696921       0.50954280 </v>
    <v>       0.76194788       0.38058166       0.51314700 </v>
    <v>       0.76334263       0.52601028       0.51724149 </v>
    <v>       0.76624560       0.67145725       0.53092806 </v>
    <v>       0.76186618       0.80460074       0.52800208 </v>
    <v>       0.76006535       0.94935220       0.51492377 </v>
    <v>       0.90306353       0.09355312       0.50866181 </v>
    <v>       0.90344880       0.23693161       0.50867390 </v>
    <v>       0.90421898       0.38045890       0.50949716 </v>
    <v>       0.90491142       0.52383377       0.50511631 </v>
    <v>       0.90603043       0.66728903       0.50535636 </v>
    <v>       0.90598273       0.81013463       0.50837498 </v>
    <v>       0.90380783       0.95119220       0.50985098 </v>
    <v>       0.46085610       0.36062730       0.55258172 </v>
    <v>       0.40710982       0.41388973       0.42487270 </v>
    <v>       0.40108225       0.56072175       0.40641730 </v>
    <v>       0.64216356       0.53414172       0.57917476 </v>
    <v>       0.58544864       0.42319672       0.45377586 </v>
    <v>       0.57295222       0.72768131       0.56026536 </v>
    <v>       0.42570224       0.71490827       0.49117671 </v>
    <v>       0.71947400       0.71530592       0.53895087 </v>
    <v>       0.58460279       0.61896060       0.52442446 </v>
    <v>       0.53408645       0.51918416       0.49849483 </v>
    <v>       0.52799768       0.57191497       0.50000005 </v>
   </varray>
  </structure>
  <varray name="forces" >
   <v>       0.00046367      -0.00010590       0.00624936 </v>
   <v>       0.00010036      -0.00007430      -0.00118445 </v>
   <v>      -0.00061587       0.00152742      -0.00435138 </v>
   <v>      -0.00090637       0.00065413      -0.00091238 </v>
   <v>      -0.00073588       0.00096632       0.00213646 </v>
   <v>      -0.00065628       0.00281358       0.00636470 </v>
   <v>       0.00037852       0.00052281       0.00821878 </v>
   <v>      -0.00043773       0.00013176      -0.00027072 </v>
   <v>       0.00028028      -0.00041146      -0.00592777 </v>
   <v>      -0.00090654       0.00073580      -0.01311975 </v>
   <v>      -0.00007558       0.00093326      -0.01213148 </v>
   <v>       0.00034804       0.00058880      -0.00432826 </v>
   <v>       0.00007888       0.00072545      -0.00102898 </v>
   <v>      -0.00119967       0.00151863       0.00158410 </v>
   <v>      -0.00217708       0.00097337      -0.00314716 </v>
   <v>      -0.00127487      -0.00059712      -0.01069760 </v>
   <v>      -0.00324316      -0.00058916      -0.01416849 </v>
   <v>      -0.00190194      -0.00008925      -0.01924480 </v>
   <v>       0.00095045       0.00049139      -0.01158013 </v>
   <v>       0.00034977       0.00098629      -0.00463908 </v>
   <v>      -0.00234953       0.00046129      -0.00219883 </v>
   <v>      -0.00061454      -0.00035807       0.00042316 </v>
   <v>      -0.00196445       0.00120680      -0.00464936 </v>
   <v>      -0.00427995       0.00316588      -0.01518541 </v>
   <v>       0.00080114       0.00033410       0.00002822 </v>
   <v>       0.00037328       0.00016679       0.00226487 </v>
   <v>       0.00002953       0.00009269       0.00062693 </v>
   <v>      -0.00103035       0.00311496       0.00046297 </v>
   <v>       0.00080161      -0.00035582       0.00318436 </v>
   <v>      -0.00036887      -0.00134745       0.00961447 </v>
   <v>      -0.00073809      -0.00246204       0.00431127 </v>
   <v>      -0.00289371      -0.00231985       0.00488215 </v>
   <v>       0.00059795       0.00139076       0.01131253 </v>
   <v>      -0.00079071       0.00020377       0.01856188 </v>
   <v>       0.00036541      -0.00258413       0.00979162 </v>
   <v>      -0.00021235      -0.00093388       0.00902206 </v>
   <v>      -0.00020390      -0.00045420       0.00371413 </v>
   <v>      -0.00020240       0.00043686       0.00310054 </v>
   <v>      -0.00104181       0.00170254       0.00455692 </v>
   <v>      -0.00090672       0.00194252       0.01235223 </v>
   <v>       0.00083257       0.00037064       0.01247197 </v>
   <v>       0.00167169       0.00013302       0.01269024 </v>
   <v>      -0.00174945      -0.00051717      -0.00098778 </v>
   <v>      -0.00147289       0.00049381      -0.00679098 </v>
   <v>      -0.00013594       0.00057447      -0.00681470 </v>
   <v>       0.00037969       0.00080327      -0.00158724 </v>
   <v>       0.00120735      -0.00056479       0.00273987 </v>
   <v>       0.00022037      -0.00020332       0.00442531 </v>
   <v>      -0.00044571       0.00013263       0.00506117 </v>
   <v>      -0.00041989      -0.00017173      -0.00470485 </v>
   <v>      -0.00217364       0.00053941      -0.01197952 </v>
   <v>      -0.00185890       0.00126386      -0.01659383 </v>
   <v>      -0.00034561       0.00046149      -0.00733072 </v>
   <v>       0.00062848       0.00009123      -0.00374671 </v>
   <v>       0.00326590      -0.00042512      -0.00003604 </v>
   <v>       0.00105013       0.00028054      -0.00094218 </v>
   <v>       0.00286007       0.00077490      -0.00673883 </v>
   <v>      -0.00201196       0.00056614      -0.01565456 </v>
   <v>      -0.00427906      -0.00119986      -0.01994198 </v>
   <v>      -0.00033029       0.00137752      -0.01533762 </v>
   <v>       0.00016399       0.00039586      -0.00706427 </v>
   <v>       0.00000140      -0.00030307      -0.00167786 </v>
   <v>       0.00134590       0.00008776      -0.00134782 </v>
   <v>       0.00110025       0.00044845      -0.00072041 </v>
   <v>      -0.00154703       0.00045731      -0.00578882 </v>
   <v>      -0.00004010      -0.00048026      -0.00047130 </v>
   <v>       0.00008609       0.00010389       0.00130954 </v>
   <v>       0.00070761      -0.00001633       0.00248768 </v>
   <v>       0.00071258       0.00013602       0.00219817 </v>
   <v>       0.00104445       0.00275244       0.00663413 </v>
   <v>      -0.00013571      -0.00323904       0.00110122 </v>
   <v>       0.00047120      -0.00035120       0.00703160 </v>
   <v>       0.00014457      -0.00032809       0.00572057 </v>
   <v>       0.00035622       0.00091302       0.00414208 </v>
   <v>       0.00117379       0.00026385       0.00959277 </v>
   <v>       0.00069075       0.00116633       0.01522745 </v>
   <v>       0.00097789      -0.00024113       0.01530727 </v>
   <v>       0.00026497      -0.00090072       0.01145631 </v>
   <v>      -0.00026741      -0.00174304       0.01131078 </v>
   <v>      -0.00003749       0.00005011       0.00355501 </v>
   <v>       0.00018858       0.00036192       0.00079562 </v>
   <v>       0.00016695       0.00073676       0.00349140 </v>
   <v>       0.00309101      -0.00082794       0.00670003 </v>
   <v>       0.00223062      -0.00085087       0.00904729 </v>
   <v>       0.00061353      -0.00016215       0.01225289 </v>
   <v>       0.00012372       0.00041170       0.01011095 </v>
   <v>      -0.00500101       0.00514589      -0.01216594 </v>
   <v>      -0.00447035      -0.00140044      -0.02419579 </v>
   <v>       0.00104005       0.00236641      -0.01188500 </v>
   <v>      -0.00135698       0.00168017       0.02060386 </v>
   <v>       0.00224526       0.00929411       0.00513462 </v>
   <v>      -0.00447595      -0.00838195      -0.01028176 </v>
   <v>       0.00013905       0.00063682      -0.00365991 </v>
   <v>       0.00175549      -0.00014340       0.01223929 </v>
   <v>       0.00643925      -0.00681280      -0.02023404 </v>
   <v>      -0.00134735      -0.01063713       0.00431907 </v>
   <v>       0.02032079      -0.01047556       0.00552462 </v>
  </varray>
  <varray name="stress" >
   <v>       1.60527407       0.74603712       0.01906179 </v>
   <v>       0.74603666      -4.75529325      -0.01397449 </v>
   <v>       0.01906110      -0.01397537      -0.29803540 </v>
  </varray>
  <energy>
   <i name="e_fr_energy">   -849.14910987 </i>
   <i name="e_wo_entrp">   -849.14910987 </i>
   <i name="e_0_energy">   -849.14910987 </i>
  </energy>
  <time name="totalsc">  497.88  501.41</time>
 </calculation>
 <calculation>
  <scstep>
   <time name="dav">   82.53   83.04</time>
   <time name="total">   96.37   96.96</time>
   <energy>
    <i name="alphaZ">    207.25300192 </i>
    <i name="ewald">  41219.90657064 </i>
    <i name="hartreedc"> -56401.59397071 </i>
    <i name="XCdc">   1483.24479272 </i>
    <i name="pawpsdc">  40861.89568389 </i>
    <i name="pawaedc"> -40956.68546777 </i>
    <i name="eentropy">     -0.00000000 </i>
    <i name="bandstr">  -4854.23607956 </i>
    <i name="atom">  17598.89992239 </i>
    <i name="e_fr_energy">   -841.31554648 </i>
    <i name="e_wo_entrp">   -841.31554648 </i>
    <i name="e_0_energy">   -841.31554648 </i>
   </energy>
  </scstep>
  <scstep>
   <time name="dav">   81.05   81.54</time>
   <time name="total">   95.27   95.86</time>
   <energy>
    <i name="e_fr_energy">   -841.31557295 </i>
    <i name="e_wo_entrp">   -841.31557295 </i>
[...]
       <r>   -17.7994     6.0535    36.4266 </r>
       <r>   -17.6753     7.1625    37.3155 </r>
       <r>   -17.5512    15.3180    39.2165 </r>
       <r>   -17.4271    10.2377    40.4871 </r>
       <r>   -17.3030     9.9052    41.7164 </r>
       <r>   -17.1789     4.2807    42.2476 </r>
       <r>   -17.0548     6.5024    43.0546 </r>
       <r>   -16.9307     8.7098    44.1356 </r>
       <r>   -16.8066     6.0508    44.8865 </r>
       <r>   -16.6825     5.2039    45.5323 </r>
       <r>   -16.5584    12.5017    47.0838 </r>
       <r>   -16.4343    13.1865    48.7204 </r>
       <r>   -16.3102     6.1456    49.4831 </r>
       <r>   -16.1860     0.1525    49.5020 </r>
       <r>   -16.0619     3.0873    49.8851 </r>
       <r>   -15.9378     1.6241    50.0867 </r>
       <r>   -15.8137     2.7196    50.4242 </r>
       <r>   -15.6896     6.4634    51.2263 </r>
       <r>   -15.5655     4.9555    51.8414 </r>
       <r>   -15.4414     7.9249    52.8249 </r>
       <r>   -15.3173     7.0302    53.6973 </r>
       <r>   -15.1932    11.9358    55.1786 </r>
       <r>   -15.0691     8.5968    56.2455 </r>
       <r>   -14.9450     7.9417    57.2311 </r>
       <r>   -14.8209     6.4523    58.0319 </r>
       <r>   -14.6968     9.3990    59.1984 </r>
       <r>   -14.5727     9.6984    60.4020 </r>
       <r>   -14.4486    14.3725    62.1857 </r>
       <r>   -14.3245     9.7100    63.3908 </r>
       <r>   -14.2004     4.7948    63.9858 </r>
       <r>   -14.0763     5.4022    64.6563 </r>
       <r>   -13.9522     4.2660    65.1857 </r>
       <r>   -13.8281     5.4876    65.8667 </r>
       <r>   -13.7039    12.4227    67.4084 </r>
       <r>   -13.5798    10.1931    68.6734 </r>
       <r>   -13.4557     8.2239    69.6941 </r>
       <r>   -13.3316     5.5020    70.3769 </r>
       <r>   -13.2075     2.2825    70.6602 </r>
       <r>   -13.0834     5.8402    71.3850 </r>
       <r>   -12.9593     6.6651    72.2121 </r>
       <r>   -12.8352     7.9383    73.1973 </r>
       <r>   -12.7111    21.4663    75.8614 </r>
       <r>   -12.5870     7.2237    76.7579 </r>
       <r>   -12.4629     8.1258    77.7664 </r>
       <r>   -12.3388    11.9797    79.2531 </r>
       <r>   -12.2147     6.4113    80.0488 </r>
       <r>   -12.0906     6.4789    80.8528 </r>
       <r>   -11.9665     8.2232    81.8734 </r>
       <r>   -11.8424    12.9570    83.4814 </r>
       <r>   -11.7183    11.3316    84.8877 </r>
       <r>   -11.5942    14.8633    86.7323 </r>
       <r>   -11.4701    10.2178    88.0004 </r>
       <r>   -11.3460    10.7789    89.3381 </r>
       <r>   -11.2219    14.1246    91.0910 </r>
       <r>   -11.0977     9.9855    92.3303 </r>
       <r>   -10.9736     9.3084    93.4855 </r>
       <r>   -10.8495     8.7584    94.5724 </r>
       <r>   -10.7254     9.8641    95.7966 </r>
       <r>   -10.6013     8.3563    96.8337 </r>
       <r>   -10.4772    12.8147    98.4241 </r>
       <r>   -10.3531    15.6109   100.3614 </r>
       <r>   -10.2290    17.5639   102.5412 </r>
       <r>   -10.1049    18.2119   104.8014 </r>
       <r>    -9.9808    23.5462   107.7236 </r>
       <r>    -9.8567    17.9236   109.9480 </r>
       <r>    -9.7326    17.3476   112.1009 </r>
       <r>    -9.6085    20.7042   114.6704 </r>
       <r>    -9.4844    19.8002   117.1277 </r>
       <r>    -9.3603    27.3655   120.5239 </r>
       <r>    -9.2362    22.1131   123.2683 </r>
       <r>    -9.1121    20.0448   125.7559 </r>
       <r>    -8.9880    22.0967   128.4982 </r>
       <r>    -8.8639    27.3663   131.8945 </r>
       <r>    -8.7398    22.6718   134.7082 </r>
       <r>    -8.6156    17.0634   136.8258 </r>
       <r>    -8.4915    12.5015   138.3773 </r>
       <r>    -8.3674    17.9273   140.6022 </r>
       <r>    -8.2433    18.4199   142.8882 </r>
       <r>    -8.1192    19.1275   145.2620 </r>
       <r>    -7.9951    21.6805   147.9527 </r>
       <r>    -7.8710    16.8310   150.0415 </r>
       <r>    -7.7469     9.9535   151.2768 </r>
       <r>    -7.6228    15.0607   153.1459 </r>
       <r>    -7.4987    14.6963   154.9697 </r>
       <r>    -7.3746    18.9757   157.3247 </r>
       <r>    -7.2505    19.2390   159.7124 </r>
       <r>    -7.1264    20.8816   162.3039 </r>
       <r>    -7.0023    20.9683   164.9061 </r>
       <r>    -6.8782     9.9274   166.1382 </r>
       <r>    -6.7541    13.2169   167.7785 </r>
       <r>    -6.6300    11.0923   169.1551 </r>
       <r>    -6.5059     8.2461   170.1784 </r>
       <r>    -6.3818     9.0531   171.3020 </r>
       <r>    -6.2577    23.1555   174.1757 </r>
       <r>    -6.1336    20.1146   176.6720 </r>
       <r>    -6.0094     5.1029   177.3053 </r>
       <r>    -5.8853    12.2419   178.8246 </r>
       <r>    -5.7612    11.7992   180.2889 </r>
       <r>    -5.6371     9.8329   181.5092 </r>
       <r>    -5.5130     8.4566   182.5588 </r>
       <r>    -5.3889     7.9178   183.5414 </r>
       <r>    -5.2648     2.6869   183.8748 </r>
       <r>    -5.1407    15.9099   185.8494 </r>
       <r>    -5.0166    16.5690   187.9056 </r>
       <r>    -4.8925    16.8526   189.9971 </r>
       <r>    -4.7684     3.9180   190.4834 </r>
       <r>    -4.6443     7.1646   191.3725 </r>
       <r>    -4.5202     6.5044   192.1798 </r>
       <r>    -4.3961    11.6272   193.6228 </r>
       <r>    -4.2720     8.0232   194.6185 </r>
       <r>    -4.1479     7.0462   195.4930 </r>
       <r>    -4.0238    14.7821   197.3275 </r>
       <r>    -3.8997     6.1409   198.0896 </r>
       <r>    -3.7756     9.8243   199.3088 </r>
       <r>    -3.6515     5.5314   199.9953 </r>
       <r>    -3.5273     1.1326   200.1359 </r>
       <r>    -3.4032     1.3860   200.3079 </r>
       <r>    -3.2791     5.5454   200.9961 </r>
       <r>    -3.1550     2.2929   201.2807 </r>
       <r>    -3.0309     1.7485   201.4976 </r>
       <r>    -2.9068     0.0319   201.5016 </r>
       <r>    -2.7827     1.9215   201.7401 </r>
       <r>    -2.6586     2.0728   201.9973 </r>
       <r>    -2.5345     0.0215   202.0000 </r>
       <r>    -2.4104     0.0118   202.0015 </r>
       <r>    -2.2863     2.9057   202.3621 </r>
       <r>    -2.1622     1.1112   202.5000 </r>
       <r>    -2.0381     0.1929   202.5239 </r>
       <r>    -1.9140     1.9035   202.7602 </r>
       <r>    -1.7899     4.0439   203.2620 </r>
       <r>    -1.6658     4.0294   203.7621 </r>
       <r>    -1.5417     1.8874   203.9963 </r>
       <r>    -1.4176     0.3782   204.0433 </r>
       <r>    -1.2935     5.2621   204.6963 </r>
       <r>    -1.1694     4.1444   205.2107 </r>
       <r>    -1.0452     9.8341   206.4311 </r>
       <r>    -0.9211    17.0332   208.5450 </r>
       <r>    -0.7970     3.2683   208.9506 </r>
       <r>    -0.6729    10.1043   210.2046 </r>
       <r>    -0.5488    11.6945   211.6560 </r>
       <r>    -0.4247     5.2698   212.3100 </r>
       <r>    -0.3006     5.5144   212.9943 </r>
       <r>    -0.1765     5.9156   213.7285 </r>
       <r>    -0.0524     9.2929   214.8818 </r>
       <r>     0.0717    14.8312   216.7224 </r>
       <r>     0.1958     9.9351   217.9554 </r>
       <r>     0.3199     1.1820   218.1021 </r>
       <r>     0.4440     6.0129   218.8483 </r>
       <r>     0.5681     4.8912   219.4553 </r>
       <r>     0.6922     6.9034   220.3121 </r>
       <r>     0.8163     6.3060   221.0947 </r>
       <r>     0.9404     6.5486   221.9074 </r>
       <r>     1.0645     9.8905   223.1349 </r>
       <r>     1.1886     6.3850   223.9273 </r>
       <r>     1.3127     9.9269   225.1593 </r>
       <r>     1.4368    21.1202   227.7804 </r>
       <r>     1.5610    15.9001   229.7537 </r>
       <r>     1.6851     5.9739   230.4950 </r>
       <r>     1.8092     9.0212   231.6146 </r>
       <r>     1.9333    13.3481   233.2712 </r>
       <r>     2.0574    24.6555   236.3310 </r>
       <r>     2.1815    11.5169   237.7604 </r>
       <r>     2.3056    11.4877   239.1860 </r>
       <r>     2.4297    20.8894   241.7785 </r>
       <r>     2.5538    22.9261   244.6238 </r>
       <r>     2.6779    10.6731   245.9483 </r>
       <r>     2.8020    17.9613   248.1774 </r>
       <r>     2.9261    35.5531   252.5897 </r>
       <r>     3.0502    42.5186   257.8665 </r>
       <r>     3.1743    10.7400   259.1994 </r>
       <r>     3.2984    15.7846   261.1583 </r>
       <r>     3.4225    15.2491   263.0508 </r>
       <r>     3.5466    25.2241   266.1813 </r>
       <r>     3.6707    16.3372   268.2088 </r>
       <r>     3.7948    20.1500   270.7095 </r>
       <r>     3.9189    29.5591   274.3779 </r>
       <r>     4.0431    25.2978   277.5175 </r>
       <r>     4.1672    15.7775   279.4756 </r>
       <r>     4.2913     4.1975   279.9965 </r>
       <r>     4.4154     0.0282   280.0000 </r>
       <r>     4.5395     0.0000   280.0000 </r>
       <r>     4.6636     0.0000   280.0000 </r>
       <r>     4.7877     0.0000   280.0000 </r>
       <r>     4.9118     0.0000   280.0000 </r>
       <r>     5.0359     0.0000   280.0000 </r>
       <r>     5.1600     0.0000   280.0000 </r>
       <r>     5.2841     0.0000   280.0000 </r>
       <r>     5.4082     0.0000   280.0000 </r>
       <r>     5.5323     0.0000   280.0000 </r>
       <r>     5.6564     0.0000   280.0000 </r>
       <r>     5.7805     0.0000   280.0000 </r>
       <r>     5.9046     0.0000   280.0000 </r>
      </set>
     </set>
    </array>
   </total>
  </dos>
 </calculation>
 <structure name="finalpos" >
  <crystal>
   <varray name="basis" >
    <v>      17.27103806       0.00000000       0.00000000 </v>
    <v>      -8.63551903      14.95715771       0.00000000 </v>
    <v>       0.00000000       0.00000000      15.00000000 </v>
   </varray>
   <i name="volume">   3874.88459904 </i>
   <varray name="rec_basis" >
    <v>       0.05790040       0.03342881      -0.00000000 </v>
    <v>       0.00000000       0.06685762       0.00000000 </v>
    <v>       0.00000000      -0.00000000       0.06666667 </v>
   </varray>
  </crystal>
  <varray name="positions" >
   <v>       0.99903296       0.99936161       0.50358832 </v>
   <v>       0.99849239       0.14192687       0.50548800 </v>
   <v>       0.99878815       0.28511400       0.50522523 </v>
   <v>       0.99954323       0.42828937       0.50534165 </v>
   <v>       0.00011834       0.57141870       0.50125175 </v>
   <v>       0.00087315       0.71472761       0.49895650 </v>
   <v>       0.00070809       0.85767962       0.50019246 </v>
   <v>       0.14249959       0.00027929       0.49287871 </v>
   <v>       0.14157775       0.14257964       0.49698594 </v>
   <v>       0.14095453       0.28519193       0.49497175 </v>
   <v>       0.14191610       0.42863589       0.49366456 </v>
   <v>       0.14278083       0.57135385       0.49614636 </v>
   <v>       0.14286771       0.71430452       0.49335861 </v>
   <v>       0.14292251       0.85744795       0.49216749 </v>
   <v>       0.28534885       1.00008005       0.49080078 </v>
   <v>       0.28483074       0.14248932       0.48924763 </v>
   <v>       0.28357422       0.28573987       0.48390325 </v>
   <v>       0.28062354       0.42653321       0.46236578 </v>
   <v>       0.28562476       0.57224913       0.47476470 </v>
   <v>       0.28531006       0.71479363       0.48930138 </v>
   <v>       0.28517449       0.85752721       0.49111752 </v>
   <v>       0.42825796       0.99993745       0.49428694 </v>
   <v>       0.42802882       0.14289651       0.49404266 </v>
   <v>       0.42308304       0.27918501       0.51275649 </v>
   <v>       0.42723817       0.85641766       0.49589982 </v>
   <v>       0.57034186       0.99874005       0.50237311 </v>
   <v>       0.57080018       0.14221832       0.50376361 </v>
   <v>       0.57165089       0.28604202       0.50210713 </v>
   <v>       0.56830290       0.85402908       0.51247414 </v>
   <v>       0.71240365       0.99721308       0.51136747 </v>
   <v>       0.71337065       0.14153295       0.50845701 </v>
   <v>       0.71392015       0.28524448       0.51047627 </v>
   <v>       0.71515763       0.42916353       0.51086734 </v>
   <v>       0.72400827       0.57689130       0.54179369 </v>
   <v>       0.71250076       0.85363123       0.52620769 </v>
   <v>       0.85557479       0.99828427       0.51193943 </v>
   <v>       0.85559014       0.14142465       0.50955887 </v>
   <v>       0.85630427       0.28490604       0.51028288 </v>
   <v>       0.85730052       0.42844061       0.51147637 </v>
   <v>       0.85844681       0.57249832       0.50773620 </v>
   <v>       0.85976889       0.71567368       0.51326157 </v>
   <v>       0.85727548       0.85619338       0.51569158 </v>
   <v>       0.04649001       0.09470156       0.50236120 </v>
   <v>       0.04588660       0.23721940       0.50277318 </v>
   <v>       0.04676273       0.38060900       0.50249132 </v>
   <v>       0.04761400       0.52361284       0.50165227 </v>
   <v>       0.04780892       0.66672508       0.49711861 </v>
   <v>       0.04796306       0.80982475       0.49629028 </v>
   <v>       0.04736818       0.95251826       0.49851423 </v>
   <v>       0.18951656       0.09511701       0.49146242 </v>
   <v>       0.18844092       0.23775966       0.49357410 </v>
   <v>       0.18795329       0.38011832       0.48647733 </v>
   <v>       0.19057173       0.52413707       0.49040013 </v>
   <v>       0.19016248       0.66668003       0.49233217 </v>
   <v>       0.19029015       0.80971694       0.49139111 </v>
   <v>       0.19029037       0.95259584       0.49105434 </v>
   <v>       0.33285506       0.09533368       0.49130371 </v>
   <v>       0.33193222       0.23765377       0.49315705 </v>
   <v>       0.32362948       0.37517542       0.45711239 </v>
   <v>       0.32347025       0.52070910       0.44810769 </v>
   <v>       0.33613219       0.67032103       0.48344946 </v>
   <v>       0.33251963       0.80966071       0.49165367 </v>
   <v>       0.33289693       0.95252145       0.49155588 </v>
   <v>       0.47588917       0.09515482       0.49627792 </v>
   <v>       0.47523534       0.23808764       0.50136794 </v>
   <v>       0.47112760       0.80490664       0.50027573 </v>
   <v>       0.47543378       0.95184688       0.49761053 </v>
   <v>       0.61807595       0.09410350       0.50501657 </v>
   <v>       0.61877627       0.23778381       0.50764596 </v>
   <v>       0.62385067       0.37942426       0.49203313 </v>
   <v>       0.61859730       0.81197219       0.53147804 </v>
   <v>       0.61695011       0.94975221       0.50766041 </v>
   <v>       0.76036281       0.09321847       0.50972373 </v>
   <v>       0.76117261       0.23701293       0.50992696 </v>
   <v>       0.76202616       0.38062901       0.51369155 </v>
   <v>       0.76345168       0.52605710       0.51819502 </v>
   <v>       0.76634360       0.67148444       0.53178523 </v>
   <v>       0.76186379       0.80456045       0.52863531 </v>
   <v>       0.76006040       0.94932613       0.51558969 </v>
   <v>       0.90306392       0.09358454       0.50897403 </v>
   <v>       0.90347501       0.23698665       0.50878749 </v>
   <v>       0.90429430       0.38053486       0.50979465 </v>
   <v>       0.90501029       0.52390966       0.50572571 </v>
   <v>       0.90612136       0.66734115       0.50600248 </v>
   <v>       0.90602690       0.81017015       0.50907978 </v>
   <v>       0.90382114       0.95121086       0.51046624 </v>
   <v>       0.46068225       0.36080874       0.55176283 </v>
   <v>       0.40672588       0.41345332       0.42287648 </v>
   <v>       0.40115075       0.56083319       0.40494324 </v>
   <v>       0.64223836       0.53427252       0.58009334 </v>
   <v>       0.58593025       0.42363674       0.45409214 </v>
   <v>       0.57267603       0.72707065       0.55884577 </v>
   <v>       0.42575634       0.71497652       0.49040540 </v>
   <v>       0.71949871       0.71527100       0.53964228 </v>
   <v>       0.58350690       0.61771450       0.52401096 </v>
   <v>       0.53330774       0.51767847       0.49916744 </v>
   <v>       0.52694062       0.57025651       0.50000005 </v>
  </varray>
  <varray name="selective"  type="logical" >
   <v type="logical" >  T  T  T </v>
   <v type="logical" >  T  T  T </v>
   <v type="logical" >  T  T  T </v>
   <v type="logical" >  T  T  T </v>
   <v type="logical" >  T  T  T </v>
   <v type="logical" >  T  T  T </v>
   <v type="logical" >  T  T  T </v>
   <v type="logical" >  T  T  T </v>
   <v type="logical" >  T  T  T </v>
   <v type="logical" >  T  T  T </v>
   <v type="logical" >  T  T  T </v>
   <v type="logical" >  T  T  T </v>
   <v type="logical" >  T  T  T </v>
   <v type="logical" >  T  T  T </v>
   <v type="logical" >  T  T  T </v>
   <v type="logical" >  T  T  T </v>
   <v type="logical" >  T  T  T </v>
   <v type="logical" >  T  T  T </v>
   <v type="logical" >  T  T  T </v>
   <v type="logical" >  T  T  T </v>
   <v type="logical" >  T  T  T </v>
   <v type="logical" >  T  T  T </v>
   <v type="logical" >  T  T  T </v>
   <v type="logical" >  T  T  T </v>
   <v type="logical" >  T  T  T </v>
   <v type="logical" >  T  T  T </v>
   <v type="logical" >  T  T  T </v>
   <v type="logical" >  T  T  T </v>
   <v type="logical" >  T  T  T </v>
   <v type="logical" >  T  T  T </v>
   <v type="logical" >  T  T  T </v>
   <v type="logical" >  T  T  T </v>
   <v type="logical" >  T  T  T </v>
   <v type="logical" >  T  T  T </v>
   <v type="logical" >  T  T  T </v>
   <v type="logical" >  T  T  T </v>
   <v type="logical" >  T  T  T </v>
   <v type="logical" >  T  T  T </v>
   <v type="logical" >  T  T  T </v>
   <v type="logical" >  T  T  T </v>
   <v type="logical" >  T  T  T </v>
   <v type="logical" >  T  T  T </v>
   <v type="logical" >  T  T  T </v>
   <v type="logical" >  T  T  T </v>
   <v type="logical" >  T  T  T </v>
   <v type="logical" >  T  T  T </v>
   <v type="logical" >  T  T  T </v>
   <v type="logical" >  T  T  T </v>
   <v type="logical" >  T  T  T </v>
   <v type="logical" >  T  T  T </v>
   <v type="logical" >  T  T  T </v>
   <v type="logical" >  T  T  T </v>
   <v type="logical" >  T  T  T </v>
   <v type="logical" >  T  T  T </v>
   <v type="logical" >  T  T  T </v>
   <v type="logical" >  T  T  T </v>
   <v type="logical" >  T  T  T </v>
   <v type="logical" >  T  T  T </v>
   <v type="logical" >  T  T  T </v>
   <v type="logical" >  T  T  T </v>
   <v type="logical" >  T  T  T </v>
   <v type="logical" >  T  T  T </v>
   <v type="logical" >  T  T  T </v>
   <v type="logical" >  T  T  T </v>
   <v type="logical" >  T  T  T </v>
   <v type="logical" >  T  T  T </v>
   <v type="logical" >  T  T  T </v>
   <v type="logical" >  T  T  T </v>
   <v type="logical" >  T  T  T </v>
   <v type="logical" >  T  T  T </v>
   <v type="logical" >  T  T  T </v>
   <v type="logical" >  T  T  T </v>
   <v type="logical" >  T  T  T </v>
   <v type="logical" >  T  T  T </v>
   <v type="logical" >  T  T  T </v>
   <v type="logical" >  T  T  T </v>
   <v type="logical" >  T  T  T </v>
   <v type="logical" >  T  T  T </v>
   <v type="logical" >  T  T  T </v>
   <v type="logical" >  T  T  T </v>
   <v type="logical" >  T  T  T </v>
   <v type="logical" >  T  T  T </v>
   <v type="logical" >  T  T  T </v>
   <v type="logical" >  T  T  T </v>
   <v type="logical" >  T  T  T </v>
   <v type="logical" >  T  T  T </v>
   <v type="logical" >  T  T  T </v>
   <v type="logical" >  T  T  T </v>
   <v type="logical" >  T  T  T </v>
   <v type="logical" >  T  T  T </v>
   <v type="logical" >  T  T  T </v>
   <v type="logical" >  T  T  T </v>
   <v type="logical" >  T  T  T </v>
   <v type="logical" >  T  T  T </v>
   <v type="logical" >  T  T  T </v>
   <v type="logical" >  T  T  T </v>
   <v type="logical" >  T  T  F </v>
  </varray>
  <nose>
   <v>      -3.00000000       0.00000000       0.00010000       0.00010000 </v>
  </nose>
 </structure>
</modeling>
