unknown system                          
            1
    17.271038    0.000000    0.000000
    -8.635519   14.957158    0.000000
     0.000000    0.000000   15.000000
   C    F    N    H    O 
    86     6     2     2     1
Direct configuration=     1
   0.99902963  0.99932438  0.50323689
   0.99849060  0.14186989  0.50553398
   0.99876075  0.28504364  0.50555281
   0.99946321  0.42821136  0.50538959
   0.00001948  0.57134152  0.50093981
   0.00079711  0.71465982  0.49850783
   0.00067484  0.85762848  0.49970178
   0.14248782  0.00021599  0.49295462
   0.14159808  0.14253736  0.49731057
   0.14096074  0.28512803  0.49584370
   0.14187111  0.42856767  0.49463020
   0.14267780  0.57129227  0.49659753
   0.14280345  0.71425061  0.49337946
   0.14286995  0.85737516  0.49210766
   0.28529577  0.99997623  0.49118138
   0.28481400  0.14241278  0.48996566
   0.28365544  0.28573478  0.48497846
   0.28067079  0.42651129  0.46395827
   0.28555374  0.57218988  0.47604739
   0.28525200  0.71475094  0.48979857
   0.28512043  0.85745549  0.49128076
   0.42821229  0.99985201  0.49436286
   0.42796034  0.14275424  0.49450613
   0.42310246  0.27901666  0.51359723
   0.42718892  0.85636469  0.49600229
   0.57031793  0.99870038  0.50206163
   0.57076610  0.14213812  0.50373288
   0.57159420  0.28591199  0.50217626
   0.56829577  0.85406390  0.51247675
   0.71239920  0.99721455  0.51077663
   0.71335893  0.14150426  0.50805289
   0.71388648  0.28519046  0.51014408
   0.71504123  0.42910414  0.51016822
   0.72389546  0.57685003  0.54078945
   0.71253174  0.85370312  0.52577374
   0.85556828  0.99826096  0.51130125
   0.85558193  0.14138521  0.50922322
   0.85626054  0.28483846  0.50996627
   0.85721080  0.42837482  0.51094162
   0.85834226  0.57244135  0.50692956
   0.85967945  0.71563482  0.51246988
   0.85725806  0.85618049  0.51496466
   0.04649194  0.09466713  0.50235097
   0.04586853  0.23715643  0.50322498
   0.04670185  0.38052926  0.50294883
   0.04751662  0.52353269  0.50169708
   0.04774005  0.66663640  0.49685655
   0.04791033  0.80973733  0.49595440
   0.04734264  0.95247186  0.49822119
   0.18951099  0.09505435  0.49185674
   0.18846311  0.23771824  0.49427229
   0.18793154  0.38006504  0.48772577
   0.19047442  0.52406517  0.49135563
   0.19009024  0.66661014  0.49266020
   0.19023975  0.80963477  0.49144331
   0.19025626  0.95251010  0.49120927
   0.33280823  0.09521450  0.49188800
   0.33194677  0.23757237  0.49410706
   0.32375160  0.37526129  0.45855513
   0.32348074  0.52066451  0.44971399
   0.33606252  0.67025951  0.48430742
   0.33247217  0.80960106  0.49189383
   0.33285606  0.95242463  0.49177238
   0.47585231  0.09505162  0.49643020
   0.47519536  0.23791803  0.50187465
   0.47109006  0.80487699  0.50059099
   0.47541260  0.95178507  0.49752508
   0.61807222  0.09405622  0.50476199
   0.61875324  0.23769433  0.50756063
   0.62367366  0.37925296  0.49169616
   0.61867978  0.81217025  0.53172395
   0.61694303  0.94974721  0.50723552
   0.76036393  0.09320401  0.50919947
   0.76115567  0.23697092  0.50953976
   0.76195267  0.38057854  0.51314117
   0.76334308  0.52600568  0.51723315
   0.76624357  0.67145592  0.53092154
   0.76186652  0.80460199  0.52799738
   0.76006819  0.94935485  0.51491726
   0.90306275  0.09355408  0.50865920
   0.90345063  0.23693156  0.50867261
   0.90422302  0.38045885  0.50949409
   0.90491738  0.52383005  0.50511223
   0.90602838  0.66728127  0.50535043
   0.90597773  0.81013157  0.50836857
   0.90380413  0.95119371  0.50984512
   0.46085728  0.36062381  0.55259511
   0.40711721  0.41389180  0.42489166
   0.40108461  0.56072108  0.40643177
   0.64216428  0.53414015  0.57916686
   0.58544406  0.42319118  0.45377595
   0.57295619  0.72768578  0.56028073
   0.42570453  0.71491046  0.49118255
   0.71947384  0.71530593  0.53894638
   0.58461483  0.61897282  0.52442677
   0.53409530  0.51919787  0.49848819
   0.52800909  0.57193269  0.50000005
Direct configuration=     2
   0.99902595  0.99932626  0.50324138
   0.99848796  0.14187206  0.50553386
   0.99876150  0.28504341  0.50554979
   0.99946870  0.42821185  0.50538863
   0.00002507  0.57133827  0.50094133
   0.00079773  0.71464705  0.49851230
   0.00067357  0.85762567  0.49970704
   0.14248752  0.00021445  0.49295471
   0.14159372  0.14253772  0.49730722
   0.14095560  0.28513063  0.49583569
   0.14187027  0.42857153  0.49462245
   0.14267968  0.57129171  0.49659468
   0.14280723  0.71424370  0.49337892
   0.14287416  0.85736976  0.49210887
   0.28530238  0.99997252  0.49117931
   0.28481653  0.14241046  0.48995862
   0.28365092  0.28573450  0.48496857
   0.28066585  0.42651429  0.46394439
   0.28555089  0.57219293  0.47603955
   0.28524971  0.71474725  0.48979474
   0.28512164  0.85745045  0.49128045
   0.42821112  0.99984728  0.49436351
   0.42796814  0.14275525  0.49450280
   0.42310636  0.27902093  0.51358658
   0.42718727  0.85636166  0.49600137
   0.57031960  0.99870095  0.50206301
   0.57076952  0.14213975  0.50373268
   0.57159582  0.28590984  0.50217606
   0.56829804  0.85406418  0.51247659
   0.71240203  0.99721525  0.51078253
   0.71336544  0.14150909  0.50805592
   0.71389081  0.28519100  0.51014787
   0.71504913  0.42909939  0.51017465
   0.72389580  0.57684920  0.54079754
   0.71253339  0.85370316  0.52577736
   0.85556848  0.99826351  0.51130679
   0.85558556  0.14138733  0.50922613
   0.85626557  0.28484012  0.50996873
   0.85721598  0.42837577  0.51094405
   0.85834543  0.57243679  0.50693631
   0.85967867  0.71563064  0.51247633
   0.85725837  0.85618273  0.51497156
   0.04649697  0.09466598  0.50235129
   0.04587105  0.23715676  0.50322100
   0.04670123  0.38053015  0.50294499
   0.04751342  0.52353517  0.50169649
   0.04773660  0.66664472  0.49685847
   0.04791089  0.80974632  0.49595715
   0.04734624  0.95247230  0.49822429
   0.18951280  0.09505458  0.49185381
   0.18846856  0.23771790  0.49426402
   0.18793661  0.38006438  0.48771348
   0.19047689  0.52406469  0.49134916
   0.19009086  0.66661574  0.49265760
   0.19023674  0.80964268  0.49144403
   0.19025390  0.95251446  0.49120903
   0.33280014  0.09521800  0.49188306
   0.33194234  0.23757178  0.49409519
   0.32375184  0.37525900  0.45853895
   0.32348425  0.52066158  0.44969814
   0.33606662  0.67026111  0.48430061
   0.33247512  0.80960710  0.49189246
   0.33285628  0.95243169  0.49177174
   0.47585108  0.09505576  0.49642903
   0.47519310  0.23792046  0.50186958
   0.47109137  0.80487936  0.50058860
   0.47541384  0.95178828  0.49752584
   0.61806937  0.09405434  0.50476393
   0.61875041  0.23769436  0.50756186
   0.62367383  0.37925653  0.49169775
   0.61867749  0.81216739  0.53172039
   0.61694168  0.94974657  0.50723928
   0.76035955  0.09320177  0.50920333
   0.76115126  0.23696921  0.50954280
   0.76194788  0.38058166  0.51314700
   0.76334263  0.52601028  0.51724149
   0.76624560  0.67145725  0.53092806
   0.76186618  0.80460074  0.52800208
   0.76006535  0.94935220  0.51492377
   0.90306353  0.09355312  0.50866181
   0.90344880  0.23693161  0.50867390
   0.90421898  0.38045890  0.50949716
   0.90491142  0.52383377  0.50511631
   0.90603043  0.66728903  0.50535636
   0.90598273  0.81013463  0.50837498
   0.90380783  0.95119220  0.50985098
   0.46085610  0.36062730  0.55258172
   0.40710982  0.41388973  0.42487270
   0.40108225  0.56072175  0.40641730
   0.64216356  0.53414172  0.57917476
   0.58544864  0.42319672  0.45377586
   0.57295222  0.72768131  0.56026536
   0.42570224  0.71490827  0.49117671
   0.71947400  0.71530592  0.53895087
   0.58460279  0.61896060  0.52442446
   0.53408645  0.51918416  0.49849483
   0.52799768  0.57191497  0.50000005
Direct configuration=     3
   0.99902734  0.99932679  0.50324931
   0.99848902  0.14187267  0.50553329
   0.99876278  0.28504597  0.50554547
   0.99946912  0.42821328  0.50538827
   0.00002594  0.57134010  0.50094429
   0.00079978  0.71465118  0.49851998
   0.00067531  0.85762699  0.49971686
   0.14248806  0.00021523  0.49295481
   0.14159469  0.14253786  0.49730010
   0.14095604  0.28513226  0.49581919
   0.14187176  0.42857329  0.49460680
   0.14268146  0.57129301  0.49658908
   0.14280875  0.71424519  0.49337791
   0.14287478  0.85737227  0.49211130
   0.28530151  0.99997432  0.49117591
   0.28481561  0.14241032  0.48994477
   0.28364771  0.28573431  0.48494818
   0.28066411  0.42651446  0.46391563
   0.28555290  0.57219393  0.47602088
   0.28525158  0.71474895  0.48978731
   0.28512027  0.85745157  0.49127789
   0.42821107  0.99984740  0.49436447
   0.42796760  0.14275733  0.49449684
   0.42310470  0.27902594  0.51356447
   0.42718919  0.85636262  0.49599977
   0.57032095  0.99870181  0.50206580
   0.57077043  0.14214049  0.50373405
   0.57159750  0.28591432  0.50217484
   0.56829958  0.85406430  0.51247583
   0.71240166  0.99721421  0.51079375
   0.71336396  0.14150664  0.50806214
   0.71388710  0.28518871  0.51015408
   0.71505149  0.42910166  0.51018577
   0.72389537  0.57685003  0.54081418
   0.71253304  0.85370046  0.52578464
   0.85556863  0.99826305  0.51131765
   0.85558598  0.14138742  0.50923171
   0.85626655  0.28484130  0.50997366
   0.85721685  0.42837853  0.51094967
   0.85834665  0.57243982  0.50694993
   0.85968063  0.71563175  0.51248876
   0.85726106  0.85618344  0.51498476
   0.04649571  0.09466600  0.50235071
   0.04587079  0.23715810  0.50321341
   0.04670248  0.38053150  0.50293719
   0.04751538  0.52353677  0.50169504
   0.04773855  0.66664464  0.49686212
   0.04791198  0.80974670  0.49596266
   0.04734679  0.95247311  0.49823076
   0.18951311  0.09505497  0.49184805
   0.18846743  0.23771923  0.49424850
   0.18793639  0.38006660  0.48769135
   0.19047785  0.52406583  0.49133873
   0.19009253  0.66661640  0.49265250
   0.19024093  0.80964274  0.49144437
   0.19025612  0.95251541  0.49120836
   0.33280454  0.09521956  0.49187474
   0.33194133  0.23757319  0.49407344
   0.32374640  0.37525735  0.45850855
   0.32348439  0.52066336  0.44967152
   0.33606781  0.67026207  0.48428765
   0.33247577  0.80960723  0.49188944
   0.33285863  0.95243235  0.49177052
   0.47585337  0.09505690  0.49642860
   0.47519255  0.23792172  0.50186073
   0.47109190  0.80487927  0.50058361
   0.47541484  0.95178898  0.49752721
   0.61807096  0.09405495  0.50476776
   0.61875212  0.23769518  0.50756447
   0.62367769  0.37926029  0.49170242
   0.61867625  0.81216349  0.53171349
   0.61694282  0.94974678  0.50724658
   0.76036041  0.09320202  0.50921099
   0.76115311  0.23697097  0.50954884
   0.76195019  0.38058259  0.51315815
   0.76334491  0.52601225  0.51725659
   0.76624682  0.67145744  0.53094137
   0.76186638  0.80459985  0.52801122
   0.76006492  0.94935074  0.51493621
   0.90306451  0.09355390  0.50866695
   0.90345019  0.23693272  0.50867612
   0.90422059  0.38046045  0.50950228
   0.90491527  0.52383337  0.50512429
   0.90603323  0.66728859  0.50536609
   0.90598422  0.81013509  0.50838824
   0.90380912  0.95119336  0.50986272
   0.46085540  0.36063603  0.55256087
   0.40710245  0.41388596  0.42483303
   0.40108120  0.56072392  0.40638751
   0.64216178  0.53414445  0.57919036
   0.58545817  0.42320799  0.45377582
   0.57294292  0.72766954  0.56023627
   0.42570365  0.71490967  0.49116612
   0.71947554  0.71530565  0.53895914
   0.58457915  0.61893658  0.52441936
   0.53407006  0.51915591  0.49850747
   0.52797648  0.57188334  0.50000005
Direct configuration=     4
   0.99903309  0.99933255  0.50325920
   0.99848914  0.14187460  0.50553222
   0.99876365  0.28504807  0.50553860
   0.99947124  0.42821575  0.50538733
   0.00002959  0.57134145  0.50094891
   0.00080345  0.71465126  0.49853112
   0.00067678  0.85762830  0.49973161
   0.14248867  0.00021582  0.49295500
   0.14159325  0.14253905  0.49728931
   0.14095434  0.28513476  0.49579406
   0.14187113  0.42857457  0.49458655
   0.14268366  0.57129460  0.49658059
   0.14281135  0.71424501  0.49337665
   0.14287844  0.85737212  0.49211472
   0.28530637  0.99997604  0.49117071
   0.28481787  0.14241158  0.48992396
   0.28364593  0.28573537  0.48491808
   0.28066092  0.42651586  0.46387205
   0.28555430  0.57219538  0.47599324
   0.28525340  0.71474983  0.48977598
   0.28512734  0.85745393  0.49127741
   0.42821371  0.99984932  0.49436565
   0.42797212  0.14275809  0.49449042
   0.42310534  0.27903428  0.51353268
   0.42718977  0.85636326  0.49599716
   0.57032202  0.99870210  0.50207069
   0.57077284  0.14214258  0.50373334
   0.57159713  0.28591325  0.50217299
   0.56830038  0.85406357  0.51247459
   0.71240618  0.99721742  0.51080807
   0.71337192  0.14151598  0.50807063
   0.71389394  0.28519225  0.51016484
   0.71505352  0.42910416  0.51020050
   0.72389690  0.57685368  0.54083849
   0.71253210  0.85369713  0.52579530
   0.85557044  0.99826378  0.51133130
   0.85558746  0.14138883  0.50924000
   0.85626810  0.28484329  0.50998113
   0.85721939  0.42837885  0.51095954
   0.85835088  0.57243984  0.50696983
   0.85968297  0.71563125  0.51250785
   0.85726030  0.85618490  0.51500315
   0.04649788  0.09466695  0.50234993
   0.04587212  0.23716020  0.50320163
   0.04670446  0.38053468  0.50292550
   0.04751757  0.52353898  0.50169286
   0.04774060  0.66664920  0.49686746
   0.04791478  0.80975093  0.49597153
   0.04734876  0.95247415  0.49824061
   0.18951316  0.09505502  0.49183871
   0.18846494  0.23771894  0.49422508
   0.18793624  0.38006815  0.48765777
   0.19047936  0.52406840  0.49132394
   0.19009353  0.66661605  0.49264756
   0.19023457  0.80964485  0.49144566
   0.19025578  0.95251741  0.49120739
   0.33280326  0.09522141  0.49186180
   0.33193765  0.23757484  0.49404577
   0.32373947  0.37525605  0.45846460
   0.32348414  0.52066558  0.44963081
   0.33607022  0.67026383  0.48426804
   0.33247772  0.80960989  0.49188455
   0.33285714  0.95243428  0.49176845
   0.47585395  0.09505857  0.49642775
   0.47519268  0.23792792  0.50184708
   0.47109436  0.80488036  0.50057615
   0.47541692  0.95179011  0.49752913
   0.61807092  0.09405471  0.50477353
   0.61874934  0.23769647  0.50756816
   0.62368217  0.37926826  0.49170804
   0.61867366  0.81215711  0.53170349
   0.61694320  0.94974680  0.50725719
   0.76036028  0.09320050  0.50922303
   0.76115163  0.23696928  0.50955793
   0.76194977  0.38058277  0.51317388
   0.76334635  0.52601534  0.51728045
   0.76624964  0.67145814  0.53096157
   0.76186775  0.80459801  0.52802261
   0.76006237  0.94934868  0.51495246
   0.90306482  0.09355358  0.50867512
   0.90345118  0.23693399  0.50867953
   0.90422181  0.38046285  0.50950943
   0.90491605  0.52383736  0.50513631
   0.90603595  0.66729243  0.50538207
   0.90598572  0.81013152  0.50840567
   0.90381083  0.95119364  0.50988064
   0.46085135  0.36064610  0.55252516
   0.40708113  0.41387875  0.42478065
   0.40108022  0.56072796  0.40634035
   0.64216299  0.53414448  0.57921599
   0.58548060  0.42321667  0.45377671
   0.57293901  0.72765596  0.56019555
   0.42570441  0.71491035  0.49115001
   0.71947614  0.71530522  0.53897189
   0.58454414  0.61890083  0.52441138
   0.53404593  0.51911262  0.49852619
   0.52794460  0.57183747  0.50000005
Direct configuration=     5
   0.99902623  0.99932350  0.50327489
   0.99849187  0.14187544  0.50553087
   0.99876601  0.28505118  0.50552964
   0.99947373  0.42821885  0.50538584
   0.00003072  0.57134690  0.50095517
   0.00080571  0.71466071  0.49854519
   0.00067884  0.85762874  0.49974993
   0.14249057  0.00021694  0.49295541
   0.14159740  0.14254021  0.49727516
   0.14095495  0.28513564  0.49576543
   0.14187501  0.42857851  0.49456011
   0.14268611  0.57129582  0.49657087
   0.14280714  0.71425333  0.49337760
   0.14287525  0.85738002  0.49211936
   0.28529990  0.99997874  0.49116393
   0.28481441  0.14241304  0.48989888
   0.28364104  0.28573338  0.48488092
   0.28065586  0.42651648  0.46381775
   0.28555695  0.57219679  0.47595840
   0.28525558  0.71475145  0.48976218
   0.28511360  0.85745311  0.49127301
   0.42821368  0.99985030  0.49436646
   0.42796919  0.14276427  0.49448101
   0.42310095  0.27904023  0.51349298
   0.42719528  0.85636580  0.49599383
   0.57032611  0.99870367  0.50207816
   0.57077281  0.14214224  0.50373737
   0.57160070  0.28592434  0.50217000
   0.56829843  0.85406054  0.51247547
   0.71240166  0.99721329  0.51082639
   0.71335842  0.14149654  0.50808264
   0.71388105  0.28518861  0.51017728
   0.71505695  0.42910820  0.51022184
   0.72389914  0.57685339  0.54086634
   0.71253129  0.85369494  0.52580699
   0.85556866  0.99826078  0.51135012
   0.85558781  0.14138778  0.50925082
   0.85626986  0.28484461  0.50999078
   0.85721956  0.42838395  0.51097375
   0.85835090  0.57244748  0.50699531
   0.85968595  0.71563151  0.51253194
   0.85726891  0.85618269  0.51502219
   0.04649804  0.09467257  0.50234948
   0.04586941  0.23715759  0.50318805
   0.04669912  0.38053530  0.50291441
   0.04751901  0.52354002  0.50169364
   0.04774606  0.66664573  0.49687418
   0.04791737  0.80974954  0.49598365
   0.04735023  0.95247752  0.49825321
   0.18951500  0.09505833  0.49182616
   0.18846072  0.23772013  0.49419793
   0.18793410  0.38007138  0.48761643
   0.19047781  0.52406434  0.49130187
   0.19009498  0.66661550  0.49264227
   0.19025724  0.80964480  0.49144524
   0.19026391  0.95251957  0.49120627
   0.33281386  0.09522475  0.49184616
   0.33194168  0.23757916  0.49401355
   0.32372337  0.37525022  0.45841537
   0.32348446  0.52067026  0.44957864
   0.33607148  0.67026553  0.48424338
   0.33248058  0.80960875  0.49187853
   0.33286729  0.95243534  0.49176676
   0.47585922  0.09505994  0.49642693
   0.47519379  0.23792931  0.50182911
   0.47109664  0.80488098  0.50056957
   0.47541718  0.95179083  0.49753141
   0.61808015  0.09406189  0.50478072
   0.61875892  0.23770048  0.50757303
   0.62369175  0.37926426  0.49172039
   0.61867465  0.81215320  0.53169073
   0.61694792  0.94974877  0.50726999
   0.76036097  0.09320499  0.50923541
   0.76116290  0.23698030  0.50957003
   0.76195728  0.38058633  0.51319302
   0.76335201  0.52601872  0.51730955
   0.76625343  0.67146237  0.53098402
   0.76186744  0.80459806  0.52803851
   0.76007485  0.94935374  0.51496992
   0.90306755  0.09355633  0.50868550
   0.90345342  0.23693719  0.50868401
   0.90422578  0.38046381  0.50951788
   0.90492347  0.52383518  0.50515166
   0.90603442  0.66728078  0.50539882
   0.90598040  0.81013446  0.50842620
   0.90381710  0.95120134  0.50989859
   0.46084671  0.36066057  0.55247624
   0.40706651  0.41387395  0.42470523
   0.40107359  0.56073643  0.40628678
   0.64216092  0.53415109  0.57924814
   0.58549609  0.42324422  0.45377307
   0.57293109  0.72763343  0.56014207
   0.42570886  0.71491333  0.49113021
   0.71947810  0.71530295  0.53898741
   0.58450236  0.61885754  0.52440277
   0.53401697  0.51906237  0.49854962
   0.52791424  0.57178887  0.50000005
Direct configuration=     6
   0.99904081  0.99934481  0.50328412
   0.99848908  0.14187698  0.50553002
   0.99876269  0.28505009  0.50552283
   0.99947100  0.42821957  0.50538529
   0.00003547  0.57134091  0.50096120
   0.00080420  0.71463747  0.49855720
   0.00067677  0.85763115  0.49976473
   0.14249272  0.00022091  0.49295567
   0.14159068  0.14254517  0.49726676
   0.14094789  0.28513711  0.49574439
   0.14186431  0.42857356  0.49453946
   0.14268532  0.57129468  0.49656352
   0.14282396  0.71424219  0.49337716
   0.14289244  0.85737127  0.49212268
   0.28532211  0.99998066  0.49115854
   0.28482441  0.14241570  0.48987960
   0.28363841  0.28573546  0.48484997
   0.28064946  0.42651841  0.46377474
   0.28555449  0.57219662  0.47593090
   0.28525568  0.71475146  0.48975161
   0.28514828  0.85745935  0.49127306
   0.42821994  0.99985232  0.49436701
   0.42798255  0.14276414  0.49447268
   0.42311008  0.27904924  0.51346940
   0.42719130  0.85636466  0.49599110
   0.57032554  0.99870561  0.50208463
   0.57078009  0.14214923  0.50373775
   0.57159949  0.28591472  0.50216903
   0.56830470  0.85406342  0.51247463
   0.71241464  0.99721947  0.51084053
   0.71338595  0.14153343  0.50809196
   0.71390715  0.28519905  0.51018916
   0.71506597  0.42910861  0.51023531
   0.72389708  0.57685553  0.54089186
   0.71253898  0.85369637  0.52581296
   0.85557975  0.99827141  0.51136457
   0.85558932  0.14139321  0.50925662
   0.85627386  0.28484960  0.50999852
   0.85722852  0.42837889  0.51098361
   0.85835992  0.57243209  0.50701194
   0.85968610  0.71562914  0.51255089
   0.85725811  0.85619101  0.51503336
   0.04650010  0.09466351  0.50234910
   0.04587448  0.23716347  0.50317613
   0.04671943  0.38054251  0.50290274
   0.04752177  0.52354558  0.50169302
   0.04774001  0.66666178  0.49687997
   0.04791402  0.80975690  0.49599180
   0.04735092  0.95247134  0.49826365
   0.18951383  0.09505478  0.49181532
   0.18846315  0.23772150  0.49418045
   0.18793195  0.38007237  0.48758848
   0.19048794  0.52407463  0.49128272
   0.19009127  0.66662077  0.49263691
   0.19022043  0.80965229  0.49144645
   0.19025231  0.95252059  0.49120551
   0.33279599  0.09522713  0.49183254
   0.33193285  0.23757640  0.49398866
   0.32372338  0.37525148  0.45837648
   0.32347692  0.52066757  0.44954207
   0.33607687  0.67026750  0.48422687
   0.33247926  0.80961470  0.49187317
   0.33285164  0.95243893  0.49176437
   0.47585545  0.09506445  0.49642615
   0.47519357  0.23794038  0.50181538
   0.47109907  0.80488172  0.50056381
   0.47542452  0.95179459  0.49753359
   0.61806538  0.09404955  0.50478662
   0.61873768  0.23769601  0.50757623
   0.62369105  0.37928666  0.49171890
   0.61867080  0.81214823  0.53168417
   0.61694199  0.94974361  0.50728035
   0.76035763  0.09318884  0.50924348
   0.76114314  0.23696140  0.50957978
   0.76194862  0.38058677  0.51320807
   0.76335280  0.52602157  0.51732903
   0.76625791  0.67145724  0.53100189
   0.76187105  0.80459564  0.52805148
   0.76005729  0.94934366  0.51498843
   0.90306489  0.09355261  0.50869439
   0.90345417  0.23693405  0.50868754
   0.90422650  0.38047177  0.50952196
   0.90491318  0.52384922  0.50516418
   0.90604135  0.66729985  0.50541524
   0.90599267  0.81012981  0.50844218
   0.90380935  0.95118785  0.50991256
   0.46083924  0.36066337  0.55245060
   0.40705768  0.41386206  0.42465479
   0.40107364  0.56074548  0.40623905
   0.64216749  0.53415405  0.57927500
   0.58552474  0.42324809  0.45377946
   0.57292640  0.72761824  0.56009606
   0.42570561  0.71491159  0.49111408
   0.71947813  0.71530692  0.53900065
   0.58448034  0.61883200  0.52439845
   0.53399515  0.51902786  0.49856705
   0.52788030  0.57174275  0.50000005
Direct configuration=     7
   0.99903594  0.99933373  0.50328820
   0.99849080  0.14187626  0.50552961
   0.99876648  0.28505229  0.50552018
   0.99947606  0.42822131  0.50538463
   0.00003353  0.57134792  0.50096320
   0.00080531  0.71465293  0.49856082
   0.00067882  0.85762985  0.49976957
   0.14249080  0.00021847  0.49295577
   0.14159387  0.14254084  0.49726236
   0.14095160  0.28513817  0.49573731
   0.14187197  0.42857900  0.49453118
   0.14268765  0.57129689  0.49656076
   0.14281480  0.71425050  0.49337768
   0.14288054  0.85737707  0.49212423
   0.28530905  0.99998158  0.49115647
   0.28481821  0.14241561  0.48987279
   0.28363794  0.28573553  0.48483933
   0.28064903  0.42651725  0.46376084
   0.28555638  0.57219803  0.47592095
   0.28525589  0.71475205  0.48974795
   0.28512974  0.85745796  0.49127181
   0.42821767  0.99985341  0.49436698
   0.42797533  0.14276646  0.49446929
   0.42310400  0.27904887  0.51345965
   0.42719501  0.85636623  0.49599041
   0.57032671  0.99870402  0.50208701
   0.57077561  0.14214620  0.50373888
   0.57160011  0.28592376  0.50216735
   0.56830262  0.85406176  0.51247501
   0.71240682  0.99721384  0.51084536
   0.71337043  0.14151213  0.50809401
   0.71389303  0.28519457  0.51019252
   0.71506191  0.42911074  0.51023973
   0.72390059  0.57685561  0.54089871
   0.71253430  0.85369379  0.52581696
   0.85557368  0.99826518  0.51137026
   0.85558719  0.14138875  0.50925893
   0.85627153  0.28484734  0.51000110
   0.85722445  0.42838422  0.51098744
   0.85835610  0.57244362  0.50701949
   0.85968938  0.71563249  0.51255650
   0.85726264  0.85618497  0.51503718
   0.04649938  0.09467038  0.50234939
   0.04587074  0.23716165  0.50317238
   0.04670810  0.38053977  0.50290006
   0.04752187  0.52354125  0.50169263
   0.04774632  0.66665173  0.49688202
   0.04791612  0.80975101  0.49599421
   0.04735156  0.95247763  0.49826732
   0.18951478  0.09505945  0.49181165
   0.18845973  0.23772387  0.49417476
   0.18792978  0.38007245  0.48757846
   0.19048338  0.52407181  0.49127628
   0.19009603  0.66661789  0.49263474
   0.19024360  0.80964862  0.49144542
   0.19026208  0.95252224  0.49120514
   0.33280825  0.09522754  0.49182925
   0.33193743  0.23758022  0.49398136
   0.32372079  0.37524994  0.45836483
   0.32347791  0.52066995  0.44952709
   0.33607447  0.67026763  0.48422065
   0.33248265  0.80961138  0.49187193
   0.33286353  0.95243838  0.49176396
   0.47585880  0.09506371  0.49642596
   0.47519553  0.23793875  0.50181015
   0.47109797  0.80488146  0.50056137
   0.47542146  0.95179325  0.49753413
   0.61807547  0.09405855  0.50478929
   0.61875161  0.23770153  0.50757750
   0.62369677  0.37928077  0.49172485
   0.61867461  0.81214791  0.53168221
   0.61694624  0.94974713  0.50728397
   0.76036298  0.09319982  0.50924688
   0.76115595  0.23697361  0.50958360
   0.76195665  0.38058663  0.51321329
   0.76335603  0.52602098  0.51733499
   0.76625575  0.67145844  0.53100912
   0.76187032  0.80459698  0.52805551
   0.76006725  0.94934862  0.51499333
   0.90306747  0.09355659  0.50869731
   0.90345362  0.23693765  0.50868871
   0.90422750  0.38046842  0.50952450
   0.90492107  0.52384086  0.50516859
   0.90603997  0.66728984  0.50541960
   0.90598636  0.81013240  0.50844890
   0.90381368  0.95119608  0.50991674
   0.46083812  0.36066673  0.55244157
   0.40705538  0.41385846  0.42463569
   0.40107220  0.56074749  0.40622463
   0.64216659  0.53415569  0.57928520
   0.58552784  0.42325776  0.45377752
   0.57292395  0.72761214  0.56007945
   0.42570861  0.71491383  0.49110903
   0.71947957  0.71530407  0.53900518
   0.58446765  0.61881918  0.52439483
   0.53398788  0.51901407  0.49857300
   0.52787368  0.57173293  0.50000005
Direct configuration=     8
   0.99903505  0.99933413  0.50329552
   0.99849127  0.14187794  0.50552894
   0.99876567  0.28505348  0.50551497
   0.99947614  0.42822114  0.50538378
   0.00003496  0.57134682  0.50096791
   0.00080843  0.71465646  0.49856841
   0.00067966  0.85763051  0.49978020
   0.14249233  0.00022036  0.49295582
   0.14159355  0.14254512  0.49725742
   0.14095041  0.28513869  0.49572279
   0.14187206  0.42858140  0.49451509
   0.14268857  0.57129773  0.49655499
   0.14281498  0.71425125  0.49337691
   0.14288127  0.85737856  0.49212669
   0.28530983  0.99998274  0.49115235
   0.28481812  0.14241716  0.48985872
   0.28363545  0.28573591  0.48481735
   0.28064698  0.42651666  0.46373118
   0.28555666  0.57219957  0.47590019
   0.28525754  0.71475263  0.48974026
   0.28512942  0.85745805  0.49127134
   0.42821880  0.99985444  0.49436714
   0.42797597  0.14276949  0.49446246
   0.42310262  0.27905163  0.51344081
   0.42719655  0.85636695  0.49598852
   0.57032772  0.99870520  0.50209212
   0.57077689  0.14214829  0.50373971
   0.57160293  0.28592903  0.50216533
   0.56830165  0.85405965  0.51247608
   0.71240686  0.99721401  0.51085568
   0.71336940  0.14150907  0.50810131
   0.71389153  0.28519467  0.51019862
   0.71506541  0.42911089  0.51024884
   0.72390308  0.57685441  0.54091502
   0.71253521  0.85369190  0.52582277
   0.85557314  0.99826513  0.51138166
   0.85558930  0.14139080  0.50926392
   0.85627234  0.28484871  0.51000671
   0.85722587  0.42838470  0.51099571
   0.85835894  0.57244496  0.50703233
   0.85969037  0.71563303  0.51256933
   0.85726453  0.85618489  0.51504645
   0.04649972  0.09467117  0.50234960
   0.04587043  0.23716125  0.50316393
   0.04670398  0.38053937  0.50289284
   0.04752270  0.52354518  0.50169224
   0.04774724  0.66665320  0.49688651
   0.04791663  0.80975122  0.49599988
   0.04735253  0.95247727  0.49827492
   0.18951435  0.09505905  0.49180352
   0.18845981  0.23772601  0.49416357
   0.18793005  0.38007410  0.48755609
   0.19048574  0.52407086  0.49126215
   0.19009646  0.66661914  0.49263030
   0.19024491  0.80965010  0.49144635
   0.19026157  0.95252221  0.49120460
   0.33281109  0.09522827  0.49182142
   0.33193610  0.23758209  0.49396343
   0.32371788  0.37524721  0.45833803
   0.32347814  0.52067234  0.44949591
   0.33607505  0.67026820  0.48420723
   0.33248295  0.80961272  0.49186794
   0.33286542  0.95244012  0.49176254
   0.47585947  0.09506527  0.49642518
   0.47519530  0.23794095  0.50179957
   0.47109960  0.80488188  0.50055651
   0.47542189  0.95179405  0.49753561
   0.61807665  0.09405954  0.50479421
   0.61875554  0.23770485  0.50757937
   0.62370137  0.37928113  0.49173064
   0.61867471  0.81214525  0.53167739
   0.61694707  0.94974697  0.50729167
   0.76036191  0.09320091  0.50925433
   0.76115720  0.23697522  0.50959123
   0.76195493  0.38058546  0.51322282
   0.76335740  0.52602203  0.51734875
   0.76625811  0.67146017  0.53102294
   0.76186969  0.80459557  0.52806419
   0.76007142  0.94935039  0.51500452
   0.90306651  0.09355590  0.50870198
   0.90345418  0.23693800  0.50869105
   0.90422956  0.38047024  0.50952799
   0.90492491  0.52384145  0.50517814
   0.90604188  0.66729053  0.50542956
   0.90598658  0.81013389  0.50846144
   0.90381583  0.95119732  0.50992647
   0.46083358  0.36067099  0.55242591
   0.40704831  0.41384961  0.42459482
   0.40107372  0.56075319  0.40619583
   0.64216789  0.53416032  0.57930558
   0.58553890  0.42327334  0.45377717
   0.57291926  0.72759886  0.56004311
   0.42570891  0.71491456  0.49109768
   0.71948014  0.71530289  0.53901494
   0.58444481  0.61879540  0.52438974
   0.53397185  0.51898734  0.49858580
   0.52785726  0.57170555  0.50000005
Direct configuration=     9