  99  99   0   0
  0.3914025E+02  0.1727104E-08  0.1727104E-08  0.1500000E-08  0.0000000E+00
  1.000000000000000E-004
  CAR 
 unknown system                          
      6.13686078    -31.32996256  301     -2.41385618      1.00000000
    -31.330  0.0000E+00  0.0000E+00  0.0000E+00  0.0000E+00
    -31.205  0.0000E+00  0.0000E+00  0.0000E+00  0.0000E+00
    -31.080  0.0000E+00  0.0000E+00  0.0000E+00  0.0000E+00
    -30.955  0.0000E+00  0.0000E+00  0.0000E+00  0.0000E+00
    -30.830  0.0000E+00  0.0000E+00  0.0000E+00  0.0000E+00
    -30.706  0.0000E+00  0.0000E+00  0.0000E+00  0.0000E+00
    -30.581  0.0000E+00  0.0000E+00  0.0000E+00  0.0000E+00
    -30.456  0.0000E+00  0.0000E+00  0.0000E+00  0.0000E+00
    -30.331  0.0000E+00  0.0000E+00  0.0000E+00  0.0000E+00
    -30.206  0.0000E+00  0.0000E+00  0.0000E+00  0.0000E+00
    -30.081  0.0000E+00  0.0000E+00  0.0000E+00  0.0000E+00
    -29.956  0.0000E+00  0.0000E+00  0.0000E+00  0.0000E+00
    -29.831  0.3489E-10  0.3489E-10  0.4357E-11  0.4357E-11
    -29.706  0.1431E-03  0.1431E-03  0.1787E-04  0.1787E-04
    -29.582  0.1380E-01  0.1380E-01  0.1741E-02  0.1741E-02
    -29.457  0.2076E-02  0.2076E-02  0.2000E-02  0.2000E-02
    -29.332  0.5397E-02  0.5397E-02  0.2674E-02  0.2674E-02
    -29.207  0.1060E-01  0.1060E-01  0.3998E-02  0.3998E-02
    -29.082  0.1613E-04  0.1613E-04  0.4000E-02  0.4000E-02
    -28.957  0.3300E-12  0.3300E-12  0.4000E-02  0.4000E-02
    -28.832  0.0000E+00  0.0000E+00  0.4000E-02  0.4000E-02
    -28.707  0.0000E+00  0.0000E+00  0.4000E-02  0.4000E-02
    -28.582  0.0000E+00  0.0000E+00  0.4000E-02  0.4000E-02
    -28.458  0.0000E+00  0.0000E+00  0.4000E-02  0.4000E-02
    -28.333  0.0000E+00  0.0000E+00  0.4000E-02  0.4000E-02
    -28.208  0.0000E+00  0.0000E+00  0.4000E-02  0.4000E-02
    -28.083  0.0000E+00  0.0000E+00  0.4000E-02  0.4000E-02
    -27.958  0.0000E+00  0.0000E+00  0.4000E-02  0.4000E-02
    -27.833  0.0000E+00  0.0000E+00  0.4000E-02  0.4000E-02
    -27.708  0.0000E+00  0.0000E+00  0.4000E-02  0.4000E-02
    -27.583  0.0000E+00  0.0000E+00  0.4000E-02  0.4000E-02
    -27.458  0.0000E+00  0.0000E+00  0.4000E-02  0.4000E-02
    -27.334  0.0000E+00  0.0000E+00  0.4000E-02  0.4000E-02
    -27.209  0.0000E+00  0.0000E+00  0.4000E-02  0.4000E-02
    -27.084  0.0000E+00  0.0000E+00  0.4000E-02  0.4000E-02
    -26.959  0.0000E+00  0.0000E+00  0.4000E-02  0.4000E-02
    -26.834  0.0000E+00  0.0000E+00  0.4000E-02  0.4000E-02
    -26.709  0.0000E+00  0.0000E+00  0.4000E-02  0.4000E-02
    -26.584  0.0000E+00  0.0000E+00  0.4000E-02  0.4000E-02
    -26.459  0.0000E+00  0.0000E+00  0.4000E-02  0.4000E-02
    -26.334  0.0000E+00  0.0000E+00  0.4000E-02  0.4000E-02
    -26.209  0.0000E+00  0.0000E+00  0.4000E-02  0.4000E-02
    -26.085  0.0000E+00  0.0000E+00  0.4000E-02  0.4000E-02
    -25.960  0.0000E+00  0.0000E+00  0.4000E-02  0.4000E-02
    -25.835  0.0000E+00  0.0000E+00  0.4000E-02  0.4000E-02
    -25.710  0.0000E+00  0.0000E+00  0.4000E-02  0.4000E-02
    -25.585  0.0000E+00  0.0000E+00  0.4000E-02  0.4000E-02
    -25.460  0.0000E+00  0.0000E+00  0.4000E-02  0.4000E-02
    -25.335  0.0000E+00  0.0000E+00  0.4000E-02  0.4000E-02
    -25.210  0.0000E+00  0.0000E+00  0.4000E-02  0.4000E-02
    -25.085  0.0000E+00  0.0000E+00  0.4000E-02  0.4000E-02
    -24.961  0.0000E+00  0.0000E+00  0.4000E-02  0.4000E-02
    -24.836  0.0000E+00  0.0000E+00  0.4000E-02  0.4000E-02
    -24.711  0.0000E+00  0.0000E+00  0.4000E-02  0.4000E-02
    -24.586  0.0000E+00  0.0000E+00  0.4000E-02  0.4000E-02
    -24.461  0.0000E+00  0.0000E+00  0.4000E-02  0.4000E-02
    -24.336  0.0000E+00  0.0000E+00  0.4000E-02  0.4000E-02
    -24.211  0.0000E+00  0.0000E+00  0.4000E-02  0.4000E-02
    -24.086  0.0000E+00  0.0000E+00  0.4000E-02  0.4000E-02
    -23.961  0.0000E+00  0.0000E+00  0.4000E-02  0.4000E-02
    -23.837  0.0000E+00  0.0000E+00  0.4000E-02  0.4000E-02
    -23.712  0.0000E+00  0.0000E+00  0.4000E-02  0.4000E-02
    -23.587  0.0000E+00  0.0000E+00  0.4000E-02  0.4000E-02
    -23.462  0.3911E-16  0.3911E-16  0.4000E-02  0.4000E-02
    -23.337  0.1024E-06  0.1024E-06  0.4000E-02  0.4000E-02
    -23.212  0.1995E-02  0.1995E-02  0.4249E-02  0.4249E-02
    -23.087  0.5995E-02  0.5995E-02  0.4998E-02  0.4998E-02
    -22.962  0.1722E-04  0.1722E-04  0.5000E-02  0.5000E-02
    -22.837  0.6749E-12  0.6749E-12  0.5000E-02  0.5000E-02
    -22.713  0.0000E+00  0.0000E+00  0.5000E-02  0.5000E-02
    -22.588  0.0000E+00  0.0000E+00  0.5000E-02  0.5000E-02
    -22.463  0.0000E+00  0.0000E+00  0.5000E-02  0.5000E-02
    -22.338  0.0000E+00  0.0000E+00  0.5000E-02  0.5000E-02
    -22.213  0.0000E+00  0.0000E+00  0.5000E-02  0.5000E-02
    -22.088  0.2556E-17  0.2556E-17  0.5000E-02  0.5000E-02
    -21.963  0.1217E-07  0.1217E-07  0.5000E-02  0.5000E-02
    -21.838  0.4655E-03  0.4655E-03  0.5058E-02  0.5058E-02
    -21.713  0.6857E-02  0.6857E-02  0.5914E-02  0.5914E-02
    -21.589  0.5651E-02  0.5651E-02  0.6620E-02  0.6620E-02
    -21.464  0.3643E-02  0.3643E-02  0.7075E-02  0.7075E-02
    -21.339  0.1184E-01  0.1184E-01  0.8554E-02  0.8554E-02
    -21.214  0.5327E-02  0.5327E-02  0.9219E-02  0.9219E-02
    -21.089  0.2031E-02  0.2031E-02  0.9473E-02  0.9473E-02
    -20.964  0.1036E-01  0.1036E-01  0.1077E-01  0.1077E-01
    -20.839  0.8022E-02  0.8022E-02  0.1177E-01  0.1177E-01
    -20.714  0.7638E-02  0.7638E-02  0.1272E-01  0.1272E-01
    -20.589  0.1392E-02  0.1392E-02  0.1290E-01  0.1290E-01
    -20.465  0.7213E-02  0.7213E-02  0.1380E-01  0.1380E-01
    -20.340  0.9067E-02  0.9067E-02  0.1493E-01  0.1493E-01
    -20.215  0.9451E-02  0.9451E-02  0.1611E-01  0.1611E-01
    -20.090  0.7927E-02  0.7927E-02  0.1710E-01  0.1710E-01
    -19.965  0.2650E-02  0.2650E-02  0.1743E-01  0.1743E-01
    -19.840  0.8574E-02  0.8574E-02  0.1850E-01  0.1850E-01
    -19.715  0.2836E-02  0.2836E-02  0.1886E-01  0.1886E-01
    -19.590  0.7617E-02  0.7617E-02  0.1981E-01  0.1981E-01
    -19.465  0.1145E-01  0.1145E-01  0.2124E-01  0.2124E-01
    -19.341  0.1052E-01  0.1052E-01  0.2255E-01  0.2255E-01
    -19.216  0.4205E-02  0.4205E-02  0.2308E-01  0.2308E-01
    -19.091  0.8103E-02  0.8103E-02  0.2409E-01  0.2409E-01
    -18.966  0.3005E-02  0.3005E-02  0.2446E-01  0.2446E-01
    -18.841  0.4777E-02  0.4777E-02  0.2506E-01  0.2506E-01
    -18.716  0.5081E-02  0.5081E-02  0.2569E-01  0.2569E-01
    -18.591  0.1170E-01  0.1170E-01  0.2716E-01  0.2716E-01
    -18.466  0.1366E-01  0.1366E-01  0.2886E-01  0.2886E-01
    -18.341  0.4864E-02  0.4864E-02  0.2947E-01  0.2947E-01
    -18.217  0.9031E-02  0.9031E-02  0.3060E-01  0.3060E-01
    -18.092  0.4858E-02  0.4858E-02  0.3120E-01  0.3120E-01
    -17.967  0.8330E-02  0.8330E-02  0.3225E-01  0.3225E-01
    -17.842  0.3047E-02  0.3047E-02  0.3263E-01  0.3263E-01
    -17.717  0.6089E-02  0.6089E-02  0.3339E-01  0.3339E-01
    -17.592  0.4658E-02  0.4658E-02  0.3397E-01  0.3397E-01
    -17.467  0.1180E-01  0.1180E-01  0.3544E-01  0.3544E-01
    -17.342  0.1509E-01  0.1509E-01  0.3733E-01  0.3733E-01
    -17.217  0.1220E-01  0.1220E-01  0.3885E-01  0.3885E-01
    -17.093  0.3300E-02  0.3300E-02  0.3926E-01  0.3926E-01
    -16.968  0.6276E-02  0.6276E-02  0.4005E-01  0.4005E-01
    -16.843  0.9689E-02  0.9689E-02  0.4126E-01  0.4126E-01
    -16.718  0.7038E-02  0.7038E-02  0.4213E-01  0.4213E-01
    -16.593  0.6802E-02  0.6802E-02  0.4298E-01  0.4298E-01
    -16.468  0.3547E-02  0.3547E-02  0.4343E-01  0.4343E-01
    -16.343  0.1489E-01  0.1489E-01  0.4529E-01  0.4529E-01
    -16.218  0.1141E-01  0.1141E-01  0.4671E-01  0.4671E-01
    -16.093  0.3432E-02  0.3432E-02  0.4714E-01  0.4714E-01
    -15.969  0.4114E-02  0.4114E-02  0.4765E-01  0.4765E-01
    -15.844  0.7712E-03  0.7712E-03  0.4775E-01  0.4775E-01
    -15.719  0.2658E-02  0.2658E-02  0.4808E-01  0.4808E-01
    -15.594  0.1503E-02  0.1503E-02  0.4827E-01  0.4827E-01
    -15.469  0.6419E-02  0.6419E-02  0.4907E-01  0.4907E-01
    -15.344  0.7650E-02  0.7650E-02  0.5003E-01  0.5003E-01
    -15.219  0.7650E-02  0.7650E-02  0.5098E-01  0.5098E-01
    -15.094  0.8532E-02  0.8532E-02  0.5205E-01  0.5205E-01
    -14.969  0.1124E-01  0.1124E-01  0.5345E-01  0.5345E-01
    -14.845  0.9972E-02  0.9972E-02  0.5470E-01  0.5470E-01
    -14.720  0.4184E-02  0.4184E-02  0.5522E-01  0.5522E-01
    -14.595  0.9931E-02  0.9931E-02  0.5646E-01  0.5646E-01
    -14.470  0.9442E-02  0.9442E-02  0.5764E-01  0.5764E-01
    -14.345  0.1206E-01  0.1206E-01  0.5915E-01  0.5915E-01
    -14.220  0.1179E-01  0.1179E-01  0.6062E-01  0.6062E-01
    -14.095  0.8126E-02  0.8126E-02  0.6163E-01  0.6163E-01
    -13.970  0.4478E-02  0.4478E-02  0.6219E-01  0.6219E-01
    -13.845  0.5234E-02  0.5234E-02  0.6285E-01  0.6285E-01
    -13.721  0.7949E-02  0.7949E-02  0.6384E-01  0.6384E-01
    -13.596  0.7786E-02  0.7786E-02  0.6481E-01  0.6481E-01
    -13.471  0.7909E-02  0.7909E-02  0.6580E-01  0.6580E-01
    -13.346  0.9463E-02  0.9463E-02  0.6698E-01  0.6698E-01
    -13.221  0.5486E-02  0.5486E-02  0.6767E-01  0.6767E-01
    -13.096  0.7253E-02  0.7253E-02  0.6857E-01  0.6857E-01
    -12.971  0.5444E-02  0.5444E-02  0.6925E-01  0.6925E-01
    -12.846  0.9392E-02  0.9392E-02  0.7042E-01  0.7042E-01
    -12.721  0.3872E-02  0.3872E-02  0.7091E-01  0.7091E-01
    -12.597  0.1319E-01  0.1319E-01  0.7255E-01  0.7255E-01
    -12.472  0.1094E-01  0.1094E-01  0.7392E-01  0.7392E-01
    -12.347  0.1046E-01  0.1046E-01  0.7523E-01  0.7523E-01
    -12.222  0.1370E-01  0.1370E-01  0.7694E-01  0.7694E-01
    -12.097  0.5074E-02  0.5074E-02  0.7757E-01  0.7757E-01
    -11.972  0.9319E-02  0.9319E-02  0.7874E-01  0.7874E-01
    -11.847  0.7171E-02  0.7171E-02  0.7963E-01  0.7963E-01
    -11.722  0.8812E-02  0.8812E-02  0.8073E-01  0.8073E-01
    -11.597  0.8374E-02  0.8374E-02  0.8178E-01  0.8178E-01
    -11.473  0.1675E-01  0.1675E-01  0.8387E-01  0.8387E-01
    -11.348  0.7797E-02  0.7797E-02  0.8484E-01  0.8484E-01
    -11.223  0.1467E-01  0.1467E-01  0.8668E-01  0.8668E-01
    -11.098  0.1037E-01  0.1037E-01  0.8797E-01  0.8797E-01
    -10.973  0.1771E-01  0.1771E-01  0.9018E-01  0.9018E-01
    -10.848  0.6974E-02  0.6974E-02  0.9105E-01  0.9105E-01
    -10.723  0.8550E-02  0.8550E-02  0.9212E-01  0.9212E-01
    -10.598  0.8750E-02  0.8750E-02  0.9321E-01  0.9321E-01
    -10.473  0.1070E-01  0.1070E-01  0.9455E-01  0.9455E-01
    -10.349  0.1491E-01  0.1491E-01  0.9641E-01  0.9641E-01
    -10.224  0.8495E-02  0.8495E-02  0.9747E-01  0.9747E-01
    -10.099  0.1621E-01  0.1621E-01  0.9950E-01  0.9950E-01
     -9.974  0.1960E-01  0.1960E-01  0.1019E+00  0.1019E+00
     -9.849  0.1794E-01  0.1794E-01  0.1042E+00  0.1042E+00
     -9.724  0.2088E-01  0.2088E-01  0.1068E+00  0.1068E+00
     -9.599  0.1764E-01  0.1764E-01  0.1090E+00  0.1090E+00
     -9.474  0.2074E-01  0.2074E-01  0.1116E+00  0.1116E+00
     -9.349  0.1848E-01  0.1848E-01  0.1139E+00  0.1139E+00
     -9.225  0.1702E-01  0.1702E-01  0.1160E+00  0.1160E+00
     -9.100  0.1898E-01  0.1898E-01  0.1184E+00  0.1184E+00
     -8.975  0.1996E-01  0.1996E-01  0.1209E+00  0.1209E+00
     -8.850  0.2523E-01  0.2523E-01  0.1240E+00  0.1240E+00
     -8.725  0.2621E-01  0.2621E-01  0.1273E+00  0.1273E+00
     -8.600  0.2168E-01  0.2168E-01  0.1300E+00  0.1300E+00
     -8.475  0.2197E-01  0.2197E-01  0.1328E+00  0.1328E+00
     -8.350  0.1558E-01  0.1558E-01  0.1347E+00  0.1347E+00
     -8.225  0.1778E-01  0.1778E-01  0.1369E+00  0.1369E+00
     -8.101  0.2131E-01  0.2131E-01  0.1396E+00  0.1396E+00
     -7.976  0.2095E-01  0.2095E-01  0.1422E+00  0.1422E+00
     -7.851  0.1684E-01  0.1684E-01  0.1443E+00  0.1443E+00
     -7.726  0.2069E-01  0.2069E-01  0.1469E+00  0.1469E+00
     -7.601  0.1690E-01  0.1690E-01  0.1490E+00  0.1490E+00
     -7.476  0.9358E-02  0.9358E-02  0.1502E+00  0.1502E+00
     -7.351  0.9048E-02  0.9048E-02  0.1513E+00  0.1513E+00
     -7.226  0.1744E-01  0.1744E-01  0.1535E+00  0.1535E+00
     -7.101  0.2266E-01  0.2266E-01  0.1563E+00  0.1563E+00
     -6.977  0.2495E-01  0.2495E-01  0.1594E+00  0.1594E+00
     -6.852  0.1457E-01  0.1457E-01  0.1612E+00  0.1612E+00
     -6.727  0.1031E-01  0.1031E-01  0.1625E+00  0.1625E+00
     -6.602  0.1432E-01  0.1432E-01  0.1643E+00  0.1643E+00
     -6.477  0.7592E-02  0.7592E-02  0.1653E+00  0.1653E+00
     -6.352  0.1177E-01  0.1177E-01  0.1667E+00  0.1667E+00
     -6.227  0.1322E-01  0.1322E-01  0.1684E+00  0.1684E+00
     -6.102  0.1650E-01  0.1650E-01  0.1704E+00  0.1704E+00
     -5.977  0.2034E-01  0.2034E-01  0.1730E+00  0.1730E+00
     -5.853  0.7715E-02  0.7715E-02  0.1740E+00  0.1740E+00
     -5.728  0.1618E-01  0.1618E-01  0.1760E+00  0.1760E+00
     -5.603  0.1042E-01  0.1042E-01  0.1773E+00  0.1773E+00
     -5.478  0.1030E-01  0.1030E-01  0.1786E+00  0.1786E+00
     -5.353  0.6267E-02  0.6267E-02  0.1793E+00  0.1793E+00
     -5.228  0.7020E-02  0.7020E-02  0.1802E+00  0.1802E+00
     -5.103  0.7631E-02  0.7631E-02  0.1812E+00  0.1812E+00
     -4.978  0.1774E-01  0.1774E-01  0.1834E+00  0.1834E+00
     -4.853  0.2031E-01  0.2031E-01  0.1859E+00  0.1859E+00
     -4.729  0.1159E-01  0.1159E-01  0.1874E+00  0.1874E+00
     -4.604  0.4914E-02  0.4914E-02  0.1880E+00  0.1880E+00
     -4.479  0.8120E-02  0.8120E-02  0.1890E+00  0.1890E+00
     -4.354  0.2675E-02  0.2675E-02  0.1893E+00  0.1893E+00
     -4.229  0.5063E-02  0.5063E-02  0.1900E+00  0.1900E+00
     -4.104  0.6647E-02  0.6647E-02  0.1908E+00  0.1908E+00
     -3.979  0.9491E-02  0.9491E-02  0.1920E+00  0.1920E+00
     -3.854  0.4364E-02  0.4364E-02  0.1925E+00  0.1925E+00
     -3.729  0.8332E-02  0.8332E-02  0.1936E+00  0.1936E+00
     -3.605  0.3469E-02  0.3469E-02  0.1940E+00  0.1940E+00
     -3.480  0.4020E-05  0.4020E-05  0.1940E+00  0.1940E+00
     -3.355  0.5680E-03  0.5680E-03  0.1941E+00  0.1941E+00
     -3.230  0.5186E-02  0.5186E-02  0.1947E+00  0.1947E+00
     -3.105  0.4093E-02  0.4093E-02  0.1952E+00  0.1952E+00
     -2.980  0.1706E-02  0.1706E-02  0.1954E+00  0.1954E+00
     -2.855  0.4577E-03  0.4577E-03  0.1955E+00  0.1955E+00
     -2.730  0.2632E-05  0.2632E-05  0.1955E+00  0.1955E+00
     -2.605  0.2498E-02  0.2498E-02  0.1958E+00  0.1958E+00
     -2.481  0.1503E-02  0.1503E-02  0.1960E+00  0.1960E+00
     -2.356  0.3237E-06  0.3237E-06  0.1960E+00  0.1960E+00
     -2.231  0.1158E-02  0.1158E-02  0.1961E+00  0.1961E+00
     -2.106  0.2840E-02  0.2840E-02  0.1965E+00  0.1965E+00
     -1.981  0.5838E-05  0.5838E-05  0.1965E+00  0.1965E+00
     -1.856  0.3364E-03  0.3364E-03  0.1965E+00  0.1965E+00
     -1.731  0.2034E-02  0.2034E-02  0.1968E+00  0.1968E+00
     -1.606  0.4329E-02  0.4329E-02  0.1973E+00  0.1973E+00
     -1.481  0.5220E-02  0.5220E-02  0.1980E+00  0.1980E+00
     -1.357  0.9399E-04  0.9399E-04  0.1980E+00  0.1980E+00
     -1.232  0.2704E-02  0.2704E-02  0.1983E+00  0.1983E+00
     -1.107  0.4578E-02  0.4578E-02  0.1989E+00  0.1989E+00
     -0.982  0.8179E-02  0.8179E-02  0.1999E+00  0.1999E+00
     -0.857  0.1229E-01  0.1229E-01  0.2015E+00  0.2015E+00
     -0.732  0.1062E-01  0.1062E-01  0.2028E+00  0.2028E+00
     -0.607  0.4327E-02  0.4327E-02  0.2033E+00  0.2033E+00
     -0.482  0.1320E-01  0.1320E-01  0.2050E+00  0.2050E+00
     -0.357  0.9346E-02  0.9346E-02  0.2061E+00  0.2061E+00
     -0.232  0.5538E-02  0.5538E-02  0.2068E+00  0.2068E+00
     -0.108  0.4851E-02  0.4851E-02  0.2074E+00  0.2074E+00
      0.017  0.7440E-02  0.7440E-02  0.2084E+00  0.2084E+00
      0.142  0.1155E-01  0.1155E-01  0.2098E+00  0.2098E+00
      0.267  0.1357E-01  0.1357E-01  0.2115E+00  0.2115E+00
      0.392  0.3881E-02  0.3881E-02  0.2120E+00  0.2120E+00
      0.517  0.6769E-03  0.6769E-03  0.2121E+00  0.2121E+00
      0.642  0.8737E-02  0.8737E-02  0.2132E+00  0.2132E+00
      0.767  0.6712E-02  0.6712E-02  0.2140E+00  0.2140E+00
      0.892  0.8817E-02  0.8817E-02  0.2151E+00  0.2151E+00
      1.016  0.9820E-02  0.9820E-02  0.2163E+00  0.2163E+00
      1.141  0.8855E-02  0.8855E-02  0.2174E+00  0.2174E+00
      1.266  0.5411E-02  0.5411E-02  0.2181E+00  0.2181E+00
      1.391  0.1163E-01  0.1163E-01  0.2196E+00  0.2196E+00
      1.516  0.1856E-01  0.1856E-01  0.2219E+00  0.2219E+00
      1.641  0.1259E-01  0.1259E-01  0.2235E+00  0.2235E+00
      1.766  0.1177E-01  0.1176E-01  0.2249E+00  0.2249E+00
      1.891  0.1350E-01  0.1350E-01  0.2266E+00  0.2266E+00
      2.016  0.1422E-01  0.1422E-01  0.2284E+00  0.2284E+00
      2.140  0.1990E-01  0.1990E-01  0.2309E+00  0.2309E+00
      2.265  0.1817E-01  0.1817E-01  0.2331E+00  0.2331E+00
      2.390  0.1568E-01  0.1568E-01  0.2351E+00  0.2351E+00
      2.515  0.2298E-01  0.2298E-01  0.2380E+00  0.2380E+00
      2.640  0.9881E-02  0.9881E-02  0.2392E+00  0.2392E+00
      2.765  0.2001E-01  0.2001E-01  0.2417E+00  0.2417E+00
      2.890  0.2365E-01  0.2365E-01  0.2447E+00  0.2447E+00
      3.015  0.3579E-01  0.3579E-01  0.2491E+00  0.2491E+00
      3.140  0.2805E-01  0.2806E-01  0.2526E+00  0.2526E+00
      3.264  0.2013E-01  0.2013E-01  0.2552E+00  0.2552E+00
      3.389  0.1690E-01  0.1690E-01  0.2573E+00  0.2573E+00
      3.514  0.2314E-01  0.2314E-01  0.2602E+00  0.2602E+00
      3.639  0.1833E-01  0.1833E-01  0.2624E+00  0.2624E+00
      3.764  0.1220E-01  0.1220E-01  0.2640E+00  0.2640E+00
      3.889  0.2509E-01  0.2509E-01  0.2671E+00  0.2671E+00
      4.014  0.2898E-01  0.2898E-01  0.2707E+00  0.2707E+00
      4.139  0.1953E-01  0.1953E-01  0.2732E+00  0.2732E+00
      4.264  0.1639E-01  0.1639E-01  0.2752E+00  0.2752E+00
      4.388  0.2691E-01  0.2691E-01  0.2786E+00  0.2786E+00
      4.513  0.1145E-01  0.1145E-01  0.2800E+00  0.2800E+00
      4.638  0.5187E-04  0.5188E-04  0.2800E+00  0.2800E+00
      4.763  0.1386E-10  0.1387E-10  0.2800E+00  0.2800E+00
      4.888  0.0000E+00  0.0000E+00  0.2800E+00  0.2800E+00
      5.013  0.0000E+00  0.0000E+00  0.2800E+00  0.2800E+00
      5.138  0.0000E+00  0.0000E+00  0.2800E+00  0.2800E+00
      5.263  0.0000E+00  0.0000E+00  0.2800E+00  0.2800E+00
      5.388  0.0000E+00  0.0000E+00  0.2800E+00  0.2800E+00
      5.512  0.0000E+00  0.0000E+00  0.2800E+00  0.2800E+00
      5.637  0.0000E+00  0.0000E+00  0.2800E+00  0.2800E+00
      5.762  0.0000E+00  0.0000E+00  0.2800E+00  0.2800E+00
      5.887  0.0000E+00  0.0000E+00  0.2800E+00  0.2800E+00
      6.012  0.0000E+00  0.0000E+00  0.2800E+00  0.2800E+00
      6.137  0.0000E+00  0.0000E+00  0.2800E+00  0.2800E+00
