 vasp.6.4.2 20Jul23 (build Aug 26 2025 15:10:52) complex                        
  
 POSCAR found type information on POSCAR C H F O 
 03/POSCAR found :  4 types and      99 ions
 Reading from existing POTCAR
 scaLAPACK will be used
 -----------------------------------------------------------------------------
|                                                                             |
|           W    W    AA    RRRRR   N    N  II  N    N   GGGG   !!!           |
|           W    W   A  A   R    R  NN   N  II  NN   N  G    G  !!!           |
|           W    W  A    A  R    R  N N  N  II  N N  N  G       !!!           |
|           W WW W  AAAAAA  RRRRR   N  N N  II  N  N N  G  GGG   !            |
|           WW  WW  A    A  R   R   N   NN  II  N   NN  G    G                |
|           W    W  A    A  R    R  N    N  II  N    N   GGGG   !!!           |
|                                                                             |
|     For optimal performance we recommend to set                             |
|       NCORE = 2 up to number-of-cores-per-socket                            |
|     NCORE specifies how many cores store one orbital (NPAR=cpu/NCORE).      |
|     This setting can greatly improve the performance of VASP for DFT.       |
|     The default, NCORE=1 might be grossly inefficient on modern             |
|     multi-core architectures or massively parallel machines. Do your        |
|     own testing! More info at https://www.vasp.at/wiki/index.php/NCORE      |
|     Unfortunately you need to use the default for GW and RPA                |
|     calculations (for HF NCORE is supported but not extensively tested      |
|     yet).                                                                   |
|                                                                             |
 -----------------------------------------------------------------------------

 Reading from existing POTCAR
 LDA part: xc-table for Pade appr. of Perdew
 POSCAR found type information on POSCAR C H F O 
 00/POSCAR found :  4 types and      99 ions
 POSCAR found type information on POSCAR C H F O 
 06/POSCAR found :  4 types and      99 ions
 Jacobian:    33.7825262909836     
 POSCAR found type information on POSCAR C H F O 
 00/POSCAR found :  4 types and      99 ions
 POSCAR found type information on POSCAR C H F O 
 06/POSCAR found :  4 types and      99 ions
 POSCAR, INCAR and KPOINTS ok, starting setup
 FFT: planning ... GRIDC
 FFT: planning ... GRID_SOFT
 FFT: planning ... GRID
 WAVECAR not read
 entering main loop
       N       E                     dE             d eps       ncg     rms          rms(c)
DAV:   1     0.355024898288E+04    0.35502E+04   -0.14917E+05  4810   0.107E+03
DAV:   2    -0.222385302974E+03   -0.37726E+04   -0.35594E+04  6720   0.265E+02
DAV:   3    -0.872758010260E+03   -0.65037E+03   -0.64738E+03  5580   0.114E+02
DAV:   4    -0.894822795342E+03   -0.22065E+02   -0.21976E+02  5590   0.262E+01
DAV:   5    -0.895479623459E+03   -0.65683E+00   -0.65588E+00  6340   0.389E+00    0.522E+01
DAV:   6    -0.877627430520E+03    0.17852E+02   -0.23041E+01  5550   0.969E+00    0.338E+01
DAV:   7    -0.856442964179E+03    0.21184E+02   -0.35752E+01  5330   0.986E+00    0.206E+01
DAV:   8    -0.851521992195E+03    0.49210E+01   -0.21515E+01  5500   0.705E+00    0.859E+00
DAV:   9    -0.851655532555E+03   -0.13354E+00   -0.10615E+00  5440   0.197E+00    0.389E+00
DAV:  10    -0.851474431743E+03    0.18110E+00   -0.58766E-01  5290   0.143E+00    0.113E+00
DAV:  11    -0.851459696777E+03    0.14735E-01   -0.11301E-01  5240   0.658E-01    0.312E-01
DAV:  12    -0.851459331866E+03    0.36491E-03   -0.16536E-02  5400   0.313E-01    0.143E-01
DAV:  13    -0.851459510160E+03   -0.17829E-03   -0.26054E-03  5460   0.102E-01    0.114E-01
DAV:  14    -0.851459478479E+03    0.31680E-04   -0.47567E-04  5330   0.487E-02    0.655E-02
DAV:  15    -0.851459553219E+03   -0.74740E-04   -0.22671E-04  5280   0.334E-02    0.349E-02
DAV:  16    -0.851459557832E+03   -0.46129E-05   -0.10214E-04  5070   0.306E-02    0.148E-02
DAV:  17    -0.851459559118E+03   -0.12860E-05   -0.27470E-05  5500   0.107E-02    0.136E-02
DAV:  18    -0.851459556590E+03    0.25272E-05   -0.13368E-05  5170   0.118E-02    0.432E-03
DAV:  19    -0.851459557059E+03   -0.46878E-06   -0.34383E-06  4500   0.377E-03
   1 F= -.85935769E+03 E0= -.85935769E+03  d E =-.859358E+03  mag=    -0.0000
quench:  g(F)=  0.000E+00 g(S)=  0.000E+00 dE (1.order)= 0.000E+00
 bond charge predicted
       N       E                     dE             d eps       ncg     rms          rms(c)
DAV:   1    -0.851459701043E+03   -0.14445E-03   -0.12834E-02  4720   0.163E-01    0.212E-02
DAV:   2    -0.851459719830E+03   -0.18786E-04   -0.27215E-04  4860   0.222E-02    0.186E-02
DAV:   3    -0.851459715696E+03    0.41341E-05   -0.36945E-06  4620   0.347E-03    0.153E-02
DAV:   4    -0.851459716797E+03   -0.11014E-05   -0.14512E-05  4440   0.587E-03    0.411E-03
DAV:   5    -0.851459717535E+03   -0.73783E-06   -0.30915E-06  4140   0.227E-03
   2 F= -.85935786E+03 E0= -.85935786E+03  d E =-.170122E-03  mag=     0.0000
quench:  g(F)=  0.000E+00 g(S)=  0.000E+00 dE (1.order)= 0.000E+00
 bond charge predicted
       N       E                     dE             d eps       ncg     rms          rms(c)
DAV:   1    -0.851459867053E+03   -0.15026E-03   -0.28180E-02  4760   0.253E-01    0.307E-02
DAV:   2    -0.851459900712E+03   -0.33659E-04   -0.50988E-04  4720   0.327E-02    0.256E-02
DAV:   3    -0.851459893218E+03    0.74936E-05   -0.79152E-06  5280   0.514E-03    0.205E-02
DAV:   4    -0.851459900201E+03   -0.69823E-05   -0.24177E-05  4500   0.825E-03    0.474E-03
DAV:   5    -0.851459901281E+03   -0.10799E-05   -0.49497E-06  4470   0.310E-03    0.312E-03
DAV:   6    -0.851459901502E+03   -0.22126E-06   -0.48533E-07  3060   0.172E-03
   3 F= -.85935806E+03 E0= -.85935806E+03  d E =-.200422E-03  mag=    -0.0000
quench:  g(F)=  0.000E+00 g(S)=  0.000E+00 dE (1.order)= 0.000E+00
 bond charge predicted
       N       E                     dE             d eps       ncg     rms          rms(c)
DAV:   1    -0.851460214389E+03   -0.31311E-03   -0.39152E-02  4780   0.314E-01    0.363E-02
DAV:   2    -0.851460258012E+03   -0.43622E-04   -0.63432E-04  4640   0.385E-02    0.293E-02
DAV:   3    -0.851460250427E+03    0.75848E-05   -0.11352E-05  5360   0.634E-03    0.229E-02
DAV:   4    -0.851460257553E+03   -0.71261E-05   -0.24932E-05  4570   0.943E-03    0.473E-03
DAV:   5    -0.851460258003E+03   -0.44980E-06   -0.55785E-06  4850   0.357E-03
   4 F= -.85935843E+03 E0= -.85935843E+03  d E =-.377381E-03  mag=     0.0000
quench:  g(F)=  0.000E+00 g(S)=  0.000E+00 dE (1.order)= 0.000E+00
 bond charge predicted
       N       E                     dE             d eps       ncg     rms          rms(c)
DAV:   1    -0.851460574227E+03   -0.31667E-03   -0.63942E-02  4760   0.406E-01    0.471E-02
DAV:   2    -0.851460645814E+03   -0.71586E-04   -0.10436E-03  4640   0.496E-02    0.382E-02
DAV:   3    -0.851460634614E+03    0.11200E-04   -0.19321E-05  5640   0.834E-03    0.298E-02
DAV:   4    -0.851460646071E+03   -0.11456E-04   -0.40078E-05  4610   0.122E-02    0.654E-03
DAV:   5    -0.851460646724E+03   -0.65366E-06   -0.92340E-06  5030   0.470E-03
   5 F= -.85935885E+03 E0= -.85935885E+03  d E =-.416726E-03  mag=     0.0000
quench:  g(F)=  0.000E+00 g(S)=  0.000E+00 dE (1.order)= 0.000E+00
 bond charge predicted
       N       E                     dE             d eps       ncg     rms          rms(c)
DAV:   1    -0.851461013528E+03   -0.36746E-03   -0.11019E-01  4740   0.516E-01    0.595E-02
DAV:   2    -0.851461131072E+03   -0.11754E-03   -0.17651E-03  4680   0.628E-02    0.489E-02
DAV:   3    -0.851461108962E+03    0.22110E-04   -0.29580E-05  5560   0.102E-02    0.386E-02
DAV:   4    -0.851461133758E+03   -0.24797E-04   -0.87673E-05  4820   0.166E-02    0.787E-03
DAV:   5    -0.851461134735E+03   -0.97650E-06   -0.16617E-05  5100   0.627E-03    0.581E-03
DAV:   6    -0.851461135446E+03   -0.71138E-06   -0.21848E-06  3720   0.312E-03
   6 F= -.85935938E+03 E0= -.85935938E+03  d E =-.525945E-03  mag=    -0.0000
quench:  g(F)=  0.000E+00 g(S)=  0.000E+00 dE (1.order)= 0.000E+00
 bond charge predicted
       N       E                     dE             d eps       ncg     rms          rms(c)
DAV:   1    -0.851461509646E+03   -0.37491E-03   -0.17509E-01  4720   0.635E-01    0.741E-02
DAV:   2    -0.851461707342E+03   -0.19770E-03   -0.29022E-03  4720   0.785E-02    0.617E-02
DAV:   3    -0.851461670996E+03    0.36347E-04   -0.45783E-05  5560   0.125E-02    0.494E-02
DAV:   4    -0.851461702006E+03   -0.31010E-04   -0.15703E-04  5000   0.212E-02    0.979E-03
DAV:   5    -0.851461704722E+03   -0.27163E-05   -0.28559E-05  5120   0.783E-03    0.729E-03
DAV:   6    -0.851461706184E+03   -0.14625E-05   -0.26818E-06  3880   0.373E-03    0.358E-03
DAV:   7    -0.851461706366E+03   -0.18215E-06   -0.10719E-06  3780   0.189E-03
   7 F= -.85935999E+03 E0= -.85935999E+03  d E =-.616683E-03  mag=     0.0000
quench:  g(F)=  0.000E+00 g(S)=  0.000E+00 dE (1.order)= 0.000E+00
 bond charge predicted
       N       E                     dE             d eps       ncg     rms          rms(c)
DAV:   1    -0.851462122573E+03   -0.41639E-03   -0.25042E-01  4660   0.770E-01    0.893E-02
DAV:   2    -0.851462396531E+03   -0.27396E-03   -0.39741E-03  4720   0.926E-02    0.734E-02
DAV:   3    -0.851462349203E+03    0.47328E-04   -0.69992E-05  5550   0.154E-02    0.578E-02
DAV:   4    -0.851462380791E+03   -0.31588E-04   -0.18421E-04  5100   0.240E-02    0.117E-02
DAV:   5    -0.851462384916E+03   -0.41245E-05   -0.36920E-05  5160   0.901E-03    0.819E-03
DAV:   6    -0.851462386473E+03   -0.15575E-05   -0.35250E-06  4240   0.401E-03    0.412E-03
DAV:   7    -0.851462386629E+03   -0.15544E-06   -0.12067E-06  3770   0.203E-03
   8 F= -.85936072E+03 E0= -.85936072E+03  d E =-.731708E-03  mag=     0.0000
quench:  g(F)=  0.000E+00 g(S)=  0.000E+00 dE (1.order)= 0.000E+00
 bond charge predicted
       N       E                     dE             d eps       ncg     rms          rms(c)
DAV:   1    -0.851462816235E+03   -0.42976E-03   -0.36281E-01  4680   0.942E-01    0.108E-01
DAV:   2    -0.851463214421E+03   -0.39819E-03   -0.56577E-03  4720   0.112E-01    0.883E-02
DAV:   3    -0.851463151722E+03    0.62699E-04   -0.10589E-04  5570   0.192E-02    0.691E-02
DAV:   4    -0.851463183192E+03   -0.31471E-04   -0.23812E-04  5200   0.285E-02    0.143E-02
DAV:   5    -0.851463188146E+03   -0.49536E-05   -0.51386E-05  5100   0.107E-02    0.965E-03
DAV:   6    -0.851463189728E+03   -0.15823E-05   -0.54018E-06  4370   0.473E-03    0.480E-03
DAV:   7    -0.851463189836E+03   -0.10721E-06   -0.14685E-06  3900   0.225E-03
   9 F= -.85936159E+03 E0= -.85936159E+03  d E =-.868096E-03  mag=    -0.0000
quench:  g(F)=  0.000E+00 g(S)=  0.000E+00 dE (1.order)= 0.000E+00
 bond charge predicted
       N       E                     dE             d eps       ncg     rms          rms(c)
DAV:   1    -0.851463514779E+03   -0.32505E-03   -0.62860E-01  4620   0.122E+00    0.139E-01
DAV:   2    -0.851464245431E+03   -0.73065E-03   -0.10031E-02  4720   0.147E-01    0.116E-01
DAV:   3    -0.851464128731E+03    0.11670E-03   -0.17157E-04  5610   0.244E-02    0.920E-02
DAV:   4    -0.851464156355E+03   -0.27623E-04   -0.51001E-04  5360   0.391E-02    0.190E-02
DAV:   5    -0.851464167591E+03   -0.11236E-04   -0.95275E-05  5120   0.144E-02    0.136E-02
DAV:   6    -0.851464173124E+03   -0.55336E-05   -0.99546E-06  4290   0.674E-03    0.650E-03
DAV:   7    -0.851464173649E+03   -0.52466E-06   -0.29994E-06  4180   0.317E-03
  10 F= -.85936267E+03 E0= -.85936267E+03  d E =-.107418E-02  mag=    -0.0000
quench:  g(F)=  0.000E+00 g(S)=  0.000E+00 dE (1.order)= 0.000E+00
 bond charge predicted
       N       E                     dE             d eps       ncg     rms          rms(c)
DAV:   1    -0.851464348336E+03   -0.17521E-03   -0.92181E-01  4620   0.151E+00    0.168E-01
DAV:   2    -0.851465432099E+03   -0.10838E-02   -0.14641E-02  4720   0.182E-01    0.138E-01
DAV:   3    -0.851465273601E+03    0.15850E-03   -0.26315E-04  5600   0.302E-02    0.109E-01
DAV:   4    -0.851465301413E+03   -0.27813E-04   -0.63901E-04  5340   0.455E-02    0.229E-02
DAV:   5    -0.851465317393E+03   -0.15979E-04   -0.12964E-04  5100   0.169E-02    0.156E-02
DAV:   6    -0.851465323842E+03   -0.64495E-05   -0.12893E-05  4380   0.755E-03    0.770E-03
DAV:   7    -0.851465324532E+03   -0.69014E-06   -0.44343E-06  4780   0.386E-03
  11 F= -.85936393E+03 E0= -.85936393E+03  d E =-.125869E-02  mag=    -0.0000
quench:  g(F)=  0.000E+00 g(S)=  0.000E+00 dE (1.order)= 0.000E+00
 bond charge predicted
       N       E                     dE             d eps       ncg     rms          rms(c)
DAV:   1    -0.851465101376E+03    0.22247E-03   -0.13853E+00  4620   0.186E+00    0.206E-01
DAV:   2    -0.851466782741E+03   -0.16814E-02   -0.22237E-02  4760   0.227E-01    0.166E-01
DAV:   3    -0.851466563891E+03    0.21885E-03   -0.40065E-04  5680   0.373E-02    0.131E-01
DAV:   4    -0.851466578794E+03   -0.14903E-04   -0.88481E-04  5320   0.548E-02    0.282E-02
DAV:   5    -0.851466600204E+03   -0.21410E-04   -0.18957E-04  5140   0.203E-02    0.186E-02
DAV:   6    -0.851466608891E+03   -0.86870E-05   -0.18764E-05  4580   0.895E-03    0.919E-03
DAV:   7    -0.851466609977E+03   -0.10866E-05   -0.56944E-06  5100   0.436E-03    0.448E-03
DAV:   8    -0.851466609870E+03    0.10720E-06   -0.17806E-06  3920   0.277E-03
  12 F= -.85936536E+03 E0= -.85936536E+03  d E =-.143131E-02  mag=     0.0000
quench:  g(F)=  0.000E+00 g(S)=  0.000E+00 dE (1.order)= 0.000E+00
 bond charge predicted
       N       E                     dE             d eps       ncg     rms          rms(c)
DAV:   1    -0.851465095590E+03    0.15144E-02   -0.22044E+00  4580   0.232E+00    0.256E-01
DAV:   2    -0.851467962448E+03   -0.28669E-02   -0.36938E-02  4760   0.290E-01    0.212E-01
DAV:   3    -0.851467582589E+03    0.37986E-03   -0.62698E-04  5660   0.464E-02    0.169E-01
DAV:   4    -0.851467503117E+03    0.79472E-04   -0.17114E-03  5320   0.729E-02    0.378E-02
DAV:   5    -0.851467545318E+03   -0.42200E-04   -0.34507E-04  5140   0.268E-02    0.259E-02
DAV:   6    -0.851467560915E+03   -0.15598E-04   -0.32544E-05  4700   0.131E-02    0.125E-02
DAV:   7    -0.851467565368E+03   -0.44527E-05   -0.11717E-05  5080   0.630E-03    0.673E-03
DAV:   8    -0.851467565272E+03    0.95693E-07   -0.35924E-06  4360   0.474E-03
  13 F= -.85936650E+03 E0= -.85936650E+03  d E =-.114642E-02  mag=     0.0000
quench:  g(F)=  0.000E+00 g(S)=  0.000E+00 dE (1.order)= 0.000E+00
 bond charge predicted
       N       E                     dE             d eps       ncg     rms          rms(c)
DAV:   1    -0.851462702921E+03    0.48624E-02   -0.26229E+00  4560   0.266E+00    0.294E-01
DAV:   2    -0.851466449406E+03   -0.37465E-02   -0.47657E-02  4800   0.341E-01    0.236E-01
DAV:   3    -0.851466041381E+03    0.40802E-03   -0.97144E-04  5700   0.585E-02    0.185E-01
DAV:   4    -0.851465872695E+03    0.16869E-03   -0.13866E-03  5240   0.745E-02    0.522E-02
DAV:   5    -0.851465929627E+03   -0.56932E-04   -0.41107E-04  5040   0.295E-02    0.281E-02
DAV:   6    -0.851465933465E+03   -0.38376E-05   -0.46626E-05  4930   0.134E-02    0.130E-02
DAV:   7    -0.851465935471E+03   -0.20064E-05   -0.85332E-06  5150   0.530E-03    0.791E-03
DAV:   8    -0.851465934701E+03    0.76985E-06   -0.27740E-06  4000   0.367E-03
  14 F= -.85936506E+03 E0= -.85936506E+03  d E =0.143949E-02  mag=    -0.0000
quench:  g(F)=  0.000E+00 g(S)=  0.000E+00 dE (1.order)= 0.000E+00
 bond charge predicted
       N       E                     dE             d eps       ncg     rms          rms(c)
DAV:   1    -0.851469159955E+03   -0.32245E-02   -0.26673E-01  4670   0.797E-01    0.106E-01
DAV:   2    -0.851469723700E+03   -0.56374E-03   -0.74436E-03  4960   0.118E-01    0.100E-01
DAV:   3    -0.851469638503E+03    0.85197E-04   -0.12150E-04  5830   0.201E-02    0.856E-02
DAV:   4    -0.851469537362E+03    0.10114E-03   -0.32128E-04  4990   0.297E-02    0.325E-02
DAV:   5    -0.851469554135E+03   -0.16772E-04   -0.11556E-04  5080   0.144E-02    0.136E-02
DAV:   6    -0.851469561539E+03   -0.74045E-05   -0.11981E-05  4720   0.602E-03    0.497E-03
DAV:   7    -0.851469562590E+03   -0.10512E-05   -0.75225E-07  3420   0.206E-03    0.353E-03
DAV:   8    -0.851469562474E+03    0.11617E-06   -0.87979E-07  3620   0.188E-03
  15 F= -.85936872E+03 E0= -.85936872E+03  d E =-.365789E-02  mag=     0.0000
quench:  g(F)=  0.000E+00 g(S)=  0.000E+00 dE (1.order)= 0.000E+00
 bond charge predicted
       N       E                     dE             d eps       ncg     rms          rms(c)
DAV:   1    -0.851469585806E+03   -0.23216E-04   -0.22172E-04  4660   0.254E-02    0.300E-03
DAV:   2    -0.851469586233E+03   -0.42689E-06   -0.54814E-06  4010   0.364E-03
  16 F= -.85936875E+03 E0= -.85936875E+03  d E =-.256796E-04  mag=    -0.0000
quench:  g(F)=  0.000E+00 g(S)=  0.000E+00 dE (1.order)= 0.000E+00
 bond charge predicted
       N       E                     dE             d eps       ncg     rms          rms(c)
DAV:   1    -0.851469620464E+03   -0.34658E-04   -0.76452E-04  4720   0.477E-02    0.695E-03
DAV:   2    -0.851469621496E+03   -0.10316E-05   -0.17746E-05  5140   0.663E-03    0.625E-03
DAV:   3    -0.851469621196E+03    0.30000E-06   -0.37394E-07  3020   0.128E-03
  17 F= -.85936879E+03 E0= -.85936879E+03  d E =-.387790E-04  mag=     0.0000
quench:  g(F)=  0.000E+00 g(S)=  0.000E+00 dE (1.order)= 0.000E+00
 bond charge predicted
       N       E                     dE             d eps       ncg     rms          rms(c)
DAV:   1    -0.851469653283E+03   -0.31787E-04   -0.13841E-03  4620   0.656E-02    0.768E-03
DAV:   2    -0.851469655308E+03   -0.20249E-05   -0.27235E-05  5090   0.858E-03    0.643E-03
DAV:   3    -0.851469655090E+03    0.21754E-06   -0.49552E-07  3370   0.149E-03
  18 F= -.85936883E+03 E0= -.85936883E+03  d E =-.396790E-04  mag=     0.0000
quench:  g(F)=  0.000E+00 g(S)=  0.000E+00 dE (1.order)= 0.000E+00
 bond charge predicted
       N       E                     dE             d eps       ncg     rms          rms(c)
DAV:   1    -0.851469686872E+03   -0.31564E-04   -0.20596E-03  4640   0.812E-02    0.891E-03
DAV:   2    -0.851469689529E+03   -0.26565E-05   -0.36175E-05  4780   0.102E-02    0.705E-03
DAV:   3    -0.851469689284E+03    0.24464E-06   -0.65499E-07  3770   0.174E-03
  19 F= -.85936887E+03 E0= -.85936887E+03  d E =-.422160E-04  mag=    -0.0000
quench:  g(F)=  0.000E+00 g(S)=  0.000E+00 dE (1.order)= 0.000E+00
 bond charge predicted
       N       E                     dE             d eps       ncg     rms          rms(c)
DAV:   1    -0.851469732087E+03   -0.42559E-04   -0.29521E-03  4600   0.966E-02    0.101E-02
DAV:   2    -0.851469735426E+03   -0.33387E-05   -0.48170E-05  4720   0.118E-02    0.788E-03
DAV:   3    -0.851469735073E+03    0.35309E-06   -0.79897E-07  3640   0.193E-03
  20 F= -.85936892E+03 E0= -.85936892E+03  d E =-.559257E-04  mag=     0.0000
quench:  g(F)=  0.000E+00 g(S)=  0.000E+00 dE (1.order)= 0.000E+00
 bond charge predicted
       N       E                     dE             d eps       ncg     rms          rms(c)
DAV:   1    -0.851469792060E+03   -0.56634E-04   -0.42339E-03  4620   0.114E-01    0.118E-02
DAV:   2    -0.851469796488E+03   -0.44285E-05   -0.69185E-05  4700   0.139E-02    0.932E-03
DAV:   3    -0.851469795839E+03    0.64923E-06   -0.11057E-06  4040   0.217E-03
  21 F= -.85936900E+03 E0= -.85936900E+03  d E =-.728312E-04  mag=    -0.0000
quench:  g(F)=  0.000E+00 g(S)=  0.000E+00 dE (1.order)= 0.000E+00
 bond charge predicted
       N       E                     dE             d eps       ncg     rms          rms(c)
DAV:   1    -0.851469866452E+03   -0.69964E-04   -0.73484E-03  4620   0.148E-01    0.155E-02
DAV:   2    -0.851469873847E+03   -0.73948E-05   -0.12315E-04  4720   0.183E-02    0.124E-02
DAV:   3    -0.851469872493E+03    0.13542E-05   -0.19624E-06  4320   0.281E-03    0.969E-03
DAV:   4    -0.851469875613E+03   -0.31206E-05   -0.48511E-06  4240   0.430E-03    0.220E-03
DAV:   5    -0.851469875754E+03   -0.14084E-06   -0.11098E-06  3600   0.169E-03
  22 F= -.85936909E+03 E0= -.85936909E+03  d E =-.958178E-04  mag=     0.0000
quench:  g(F)=  0.000E+00 g(S)=  0.000E+00 dE (1.order)= 0.000E+00
 bond charge predicted
       N       E                     dE             d eps       ncg     rms          rms(c)
DAV:   1    -0.851469945020E+03   -0.69407E-04   -0.12212E-02  4620   0.191E-01    0.191E-02
DAV:   2    -0.851469959869E+03   -0.14849E-04   -0.22066E-04  4600   0.245E-02    0.151E-02
DAV:   3    -0.851469957267E+03    0.26022E-05   -0.36199E-06  4720   0.374E-03    0.119E-02
DAV:   4    -0.851469960861E+03   -0.35945E-05   -0.80517E-06  4320   0.564E-03    0.289E-03
DAV:   5    -0.851469961137E+03   -0.27563E-06   -0.17604E-06  3760   0.213E-03
  23 F= -.85936920E+03 E0= -.85936920E+03  d E =-.105939E-03  mag=     0.0000
quench:  g(F)=  0.000E+00 g(S)=  0.000E+00 dE (1.order)= 0.000E+00
 bond charge predicted
       N       E                     dE             d eps       ncg     rms          rms(c)
DAV:   1    -0.851470039659E+03   -0.78798E-04   -0.18093E-02  4600   0.233E-01    0.231E-02
DAV:   2    -0.851470061714E+03   -0.22055E-04   -0.31710E-04  4540   0.296E-02    0.179E-02
DAV:   3    -0.851470058463E+03    0.32504E-05   -0.54196E-06  5020   0.457E-03    0.139E-02
DAV:   4    -0.851470062638E+03   -0.41745E-05   -0.99757E-06  4360   0.650E-03    0.339E-03
DAV:   5    -0.851470063013E+03   -0.37529E-06   -0.24131E-06  4060   0.247E-03
  24 F= -.85936933E+03 E0= -.85936933E+03  d E =-.127364E-03  mag=    -0.0000
quench:  g(F)=  0.000E+00 g(S)=  0.000E+00 dE (1.order)= 0.000E+00
 bond charge predicted
       N       E                     dE             d eps       ncg     rms          rms(c)
DAV:   1    -0.851470163919E+03   -0.10128E-03   -0.26663E-02  4600   0.284E-01    0.283E-02
DAV:   2    -0.851470197532E+03   -0.33613E-04   -0.46494E-04  4540   0.359E-02    0.216E-02
DAV:   3    -0.851470193426E+03    0.41067E-05   -0.81841E-06  5320   0.563E-03    0.166E-02
DAV:   4    -0.851470197651E+03   -0.42253E-05   -0.13070E-05  4470   0.757E-03    0.412E-03
DAV:   5    -0.851470198186E+03   -0.53553E-06   -0.34123E-06  4080   0.289E-03
  25 F= -.85936949E+03 E0= -.85936949E+03  d E =-.166102E-03  mag=    -0.0000
quench:  g(F)=  0.000E+00 g(S)=  0.000E+00 dE (1.order)= 0.000E+00
 bond charge predicted
       N       E                     dE             d eps       ncg     rms          rms(c)
DAV:   1    -0.851470299275E+03   -0.10162E-03   -0.40988E-02  4560   0.352E-01    0.352E-02
DAV:   2    -0.851470351921E+03   -0.52646E-04   -0.71862E-04  4540   0.446E-02    0.268E-02
DAV:   3    -0.851470345773E+03    0.61480E-05   -0.12653E-05  5500   0.700E-03    0.206E-02
DAV:   4    -0.851470351391E+03   -0.56185E-05   -0.19611E-05  4560   0.929E-03    0.512E-03
DAV:   5    -0.851470352248E+03   -0.85685E-06   -0.52688E-06  4560   0.356E-03
  26 F= -.85936968E+03 E0= -.85936968E+03  d E =-.192379E-03  mag=    -0.0000
quench:  g(F)=  0.000E+00 g(S)=  0.000E+00 dE (1.order)= 0.000E+00
 bond charge predicted
       N       E                     dE             d eps       ncg     rms          rms(c)
DAV:   1    -0.851470449855E+03   -0.98463E-04   -0.63783E-02  4560   0.436E-01    0.435E-02
DAV:   2    -0.851470530875E+03   -0.81021E-04   -0.11122E-03  4640   0.553E-02    0.333E-02
DAV:   3    -0.851470520841E+03    0.10034E-04   -0.19216E-05  5500   0.857E-03    0.257E-02
DAV:   4    -0.851470530181E+03   -0.93394E-05   -0.32217E-05  4650   0.117E-02    0.622E-03
DAV:   5    -0.851470531663E+03   -0.14826E-05   -0.82378E-06  5060   0.450E-03    0.388E-03
DAV:   6    -0.851470531928E+03   -0.26503E-06   -0.94568E-07  3060   0.222E-03
  27 F= -.85936991E+03 E0= -.85936991E+03  d E =-.227265E-03  mag=     0.0000
quench:  g(F)=  0.000E+00 g(S)=  0.000E+00 dE (1.order)= 0.000E+00
 bond charge predicted
       N       E                     dE             d eps       ncg     rms          rms(c)
DAV:   1    -0.851470609537E+03   -0.77874E-04   -0.98987E-02  4580   0.544E-01    0.535E-02
DAV:   2    -0.851470737723E+03   -0.12819E-03   -0.17480E-03  4660   0.694E-02    0.417E-02
DAV:   3    -0.851470720592E+03    0.17130E-04   -0.29593E-05  5520   0.106E-02    0.324E-02
DAV:   4    -0.851470732527E+03   -0.11935E-04   -0.56624E-05  4740   0.151E-02    0.775E-03
DAV:   5    -0.851470735003E+03   -0.24759E-05   -0.13515E-05  5120   0.576E-03    0.485E-03
DAV:   6    -0.851470735761E+03   -0.75743E-06   -0.14272E-06  3480   0.266E-03
  28 F= -.85937018E+03 E0= -.85937018E+03  d E =-.263733E-03  mag=     0.0000
quench:  g(F)=  0.000E+00 g(S)=  0.000E+00 dE (1.order)= 0.000E+00
 bond charge predicted
       N       E                     dE             d eps       ncg     rms          rms(c)
DAV:   1    -0.851470778750E+03   -0.43747E-04   -0.14450E-01  4580   0.661E-01    0.646E-02
DAV:   2    -0.851470966525E+03   -0.18777E-03   -0.25280E-03  4680   0.838E-02    0.501E-02
DAV:   3    -0.851470943207E+03    0.23318E-04   -0.43690E-05  5520   0.130E-02    0.387E-02
DAV:   4    -0.851470957542E+03   -0.14336E-04   -0.77557E-05  4860   0.179E-02    0.934E-03
DAV:   5    -0.851470960701E+03   -0.31588E-05   -0.18784E-05  5120   0.679E-03    0.574E-03
DAV:   6    -0.851470961590E+03   -0.88895E-06   -0.21013E-06  3680   0.311E-03
  29 F= -.85937047E+03 E0= -.85937047E+03  d E =-.297945E-03  mag=    -0.0000
quench:  g(F)=  0.000E+00 g(S)=  0.000E+00 dE (1.order)= 0.000E+00
 bond charge predicted
       N       E                     dE             d eps       ncg     rms          rms(c)
DAV:   1    -0.851470979089E+03   -0.18388E-04   -0.20319E-01  4580   0.787E-01    0.773E-02
DAV:   2    -0.851471245221E+03   -0.26613E-03   -0.35409E-03  4670   0.994E-02    0.595E-02
DAV:   3    -0.851471214403E+03    0.30818E-04   -0.63145E-05  5520   0.158E-02    0.457E-02
DAV:   4    -0.851471228909E+03   -0.14506E-04   -0.10307E-04  5100   0.209E-02    0.111E-02
DAV:   5    -0.851471232470E+03   -0.35606E-05   -0.25586E-05  5080   0.802E-03    0.655E-03
DAV:   6    -0.851471233264E+03   -0.79452E-06   -0.29379E-06  4080   0.350E-03
  30 F= -.85937083E+03 E0= -.85937083E+03  d E =-.356791E-03  mag=     0.0000
quench:  g(F)=  0.000E+00 g(S)=  0.000E+00 dE (1.order)= 0.000E+00
 bond charge predicted
       N       E                     dE             d eps       ncg     rms          rms(c)
DAV:   1    -0.851471171508E+03    0.60962E-04   -0.29176E-01  4580   0.931E-01    0.927E-02
DAV:   2    -0.851471542942E+03   -0.37143E-03   -0.49959E-03  4670   0.117E-01    0.726E-02
DAV:   3    -0.851471494888E+03    0.48054E-04   -0.90462E-05  5540   0.187E-02    0.558E-02
DAV:   4    -0.851471513586E+03   -0.18697E-04   -0.16396E-04  5200   0.258E-02    0.133E-02
DAV:   5    -0.851471519424E+03   -0.58379E-05   -0.38762E-05  5120   0.990E-03    0.803E-03
DAV:   6    -0.851471521039E+03   -0.16154E-05   -0.40716E-06  4260   0.425E-03    0.402E-03
DAV:   7    -0.851471521287E+03   -0.24788E-06   -0.87205E-07  3520   0.188E-03
  31 F= -.85937122E+03 E0= -.85937122E+03  d E =-.388911E-03  mag=    -0.0000
quench:  g(F)=  0.000E+00 g(S)=  0.000E+00 dE (1.order)= 0.000E+00
 bond charge predicted
       N       E                     dE             d eps       ncg     rms          rms(c)
DAV:   1    -0.851471395592E+03    0.12545E-03   -0.40125E-01  4580   0.109E+00    0.109E-01
DAV:   2    -0.851471895573E+03   -0.49998E-03   -0.67458E-03  4690   0.136E-01    0.860E-02
DAV:   3    -0.851471828699E+03    0.66874E-04   -0.12903E-04  5560   0.223E-02    0.661E-02
DAV:   4    -0.851471843471E+03   -0.14772E-04   -0.22646E-04  5200   0.301E-02    0.162E-02
DAV:   5    -0.851471851696E+03   -0.82249E-05   -0.54077E-05  5110   0.115E-02    0.969E-03
DAV:   6    -0.851471853795E+03   -0.20993E-05   -0.60567E-06  4300   0.502E-03    0.477E-03
DAV:   7    -0.851471854182E+03   -0.38714E-06   -0.12636E-06  3580   0.223E-03
  32 F= -.85937167E+03 E0= -.85937167E+03  d E =-.448901E-03  mag=    -0.0000
quench:  g(F)=  0.000E+00 g(S)=  0.000E+00 dE (1.order)= 0.000E+00
 bond charge predicted
       N       E                     dE             d eps       ncg     rms          rms(c)
DAV:   1    -0.851471586065E+03    0.26773E-03   -0.54333E-01  4580   0.127E+00    0.128E-01
DAV:   2    -0.851472273725E+03   -0.68766E-03   -0.91890E-03  4670   0.159E-01    0.100E-01
DAV:   3    -0.851472187058E+03    0.86667E-04   -0.17749E-04  5600   0.264E-02    0.765E-02
DAV:   4    -0.851472200149E+03   -0.13091E-04   -0.29408E-04  5320   0.348E-02    0.188E-02
DAV:   5    -0.851472209397E+03   -0.92485E-05   -0.72200E-05  5080   0.135E-02    0.110E-02
DAV:   6    -0.851472211657E+03   -0.22593E-05   -0.79806E-06  4380   0.559E-03    0.549E-03
DAV:   7    -0.851472212042E+03   -0.38563E-06   -0.14994E-06  3700   0.241E-03
  33 F= -.85937217E+03 E0= -.85937217E+03  d E =-.497556E-03  mag=     0.0000
quench:  g(F)=  0.000E+00 g(S)=  0.000E+00 dE (1.order)= 0.000E+00
 bond charge predicted
       N       E                     dE             d eps       ncg     rms          rms(c)
DAV:   1    -0.851471676554E+03    0.53510E-03   -0.75602E-01  4580   0.148E+00    0.150E-01
DAV:   2    -0.851472636530E+03   -0.95998E-03   -0.12862E-02  4690   0.185E-01    0.121E-01
DAV:   3    -0.851472502240E+03    0.13429E-03   -0.24728E-04  5640   0.304E-02    0.940E-02
DAV:   4    -0.851472508477E+03   -0.62366E-05   -0.47897E-04  5340   0.428E-02    0.231E-02
DAV:   5    -0.851472525322E+03   -0.16846E-04   -0.11043E-04  5080   0.163E-02    0.140E-02
DAV:   6    -0.851472530442E+03   -0.51197E-05   -0.11651E-05  4380   0.707E-03    0.682E-03
DAV:   7    -0.851472531274E+03   -0.83244E-06   -0.27531E-06  4200   0.321E-03
  34 F= -.85937264E+03 E0= -.85937264E+03  d E =-.473504E-03  mag=     0.0000
quench:  g(F)=  0.000E+00 g(S)=  0.000E+00 dE (1.order)= 0.000E+00
 bond charge predicted
       N       E                     dE             d eps       ncg     rms          rms(c)
DAV:   1    -0.851471343929E+03    0.11865E-02   -0.91685E-01  4580   0.166E+00    0.170E-01
DAV:   2    -0.851472601606E+03   -0.12577E-02   -0.16351E-02  4660   0.212E-01    0.135E-01
DAV:   3    -0.851472451755E+03    0.14985E-03   -0.33698E-04  5680   0.357E-02    0.104E-01
DAV:   4    -0.851472420520E+03    0.31234E-04   -0.48883E-04  5260   0.459E-02    0.284E-02
DAV:   5    -0.851472438713E+03   -0.18193E-04   -0.13697E-04  5100   0.181E-02    0.156E-02
DAV:   6    -0.851472439931E+03   -0.12174E-05   -0.16200E-05  4740   0.808E-03    0.747E-03
DAV:   7    -0.851472440467E+03   -0.53588E-06   -0.27702E-06  4060   0.318E-03
  35 F= -.85937273E+03 E0= -.85937273E+03  d E =-.866922E-04  mag=     0.0000
quench:  g(F)=  0.000E+00 g(S)=  0.000E+00 dE (1.order)= 0.000E+00
 bond charge predicted
       N       E                     dE             d eps       ncg     rms          rms(c)
DAV:   1    -0.851473089267E+03   -0.64934E-03   -0.40529E-02  4620   0.326E-01    0.412E-02
DAV:   2    -0.851473169250E+03   -0.79983E-04   -0.11187E-03  4880   0.481E-02    0.390E-02
DAV:   3    -0.851473154748E+03    0.14502E-04   -0.19207E-05  5800   0.796E-03    0.335E-02
DAV:   4    -0.851473144978E+03    0.97701E-05   -0.50477E-05  4700   0.122E-02    0.119E-02
DAV:   5    -0.851473148245E+03   -0.32668E-05   -0.17220E-05  4900   0.574E-03    0.507E-03
DAV:   6    -0.851473148936E+03   -0.69142E-06   -0.15075E-06  3560   0.227E-03
  36 F= -.85937344E+03 E0= -.85937344E+03  d E =-.711908E-03  mag=    -0.0000
quench:  g(F)=  0.000E+00 g(S)=  0.000E+00 dE (1.order)= 0.000E+00
 bond charge predicted
       N       E                     dE             d eps       ncg     rms          rms(c)
DAV:   1    -0.851472597322E+03    0.55092E-03   -0.43618E-02  4580   0.350E-01    0.422E-02
DAV:   2    -0.851472681989E+03   -0.84667E-04   -0.11714E-03  4880   0.514E-02    0.390E-02
DAV:   3    -0.851472667099E+03    0.14890E-04   -0.21541E-05  5840   0.849E-03    0.330E-02
DAV:   4    -0.851472660102E+03    0.69969E-05   -0.51015E-05  4700   0.128E-02    0.114E-02
DAV:   5    -0.851472663568E+03   -0.34656E-05   -0.16026E-05  4900   0.572E-03    0.516E-03
DAV:   6    -0.851472664357E+03   -0.78888E-06   -0.10807E-06  3360   0.219E-03
  37 F= -.85937296E+03 E0= -.85937296E+03  d E =0.474622E-03  mag=    -0.0000
quench:  g(F)=  0.000E+00 g(S)=  0.000E+00 dE (1.order)= 0.000E+00
 bond charge predicted
       N       E                     dE             d eps       ncg     rms          rms(c)
DAV:   1    -0.851472893972E+03   -0.23040E-03   -0.19244E-03  4710   0.704E-02    0.916E-03
DAV:   2    -0.851472897754E+03   -0.37826E-05   -0.53973E-05  5000   0.104E-02    0.899E-03
DAV:   3    -0.851472896979E+03    0.77550E-06   -0.75377E-07  3760   0.168E-03
  38 F= -.85937320E+03 E0= -.85937320E+03  d E =-.233973E-03  mag=    -0.0000
quench:  g(F)=  0.000E+00 g(S)=  0.000E+00 dE (1.order)= 0.000E+00
 bond charge predicted
       N       E                     dE             d eps       ncg     rms          rms(c)
DAV:   1    -0.851473145252E+03   -0.24750E-03   -0.57850E-03  4750   0.123E-01    0.171E-02
DAV:   2    -0.851473154655E+03   -0.94031E-05   -0.14963E-04  5000   0.176E-02    0.161E-02
DAV:   3    -0.851473152399E+03    0.22562E-05   -0.24761E-06  4420   0.300E-03    0.137E-02
DAV:   4    -0.851473152060E+03    0.33901E-06   -0.99944E-06  4420   0.549E-03
  39 F= -.85937345E+03 E0= -.85937345E+03  d E =-.257632E-03  mag=     0.0000
quench:  g(F)=  0.000E+00 g(S)=  0.000E+00 dE (1.order)= 0.000E+00
 bond charge predicted
       N       E                     dE             d eps       ncg     rms          rms(c)
DAV:   1    -0.851473193977E+03   -0.41578E-04   -0.83198E-03  4660   0.150E-01    0.196E-02
DAV:   2    -0.851473210726E+03   -0.16749E-04   -0.23345E-04  4980   0.219E-02    0.184E-02
DAV:   3    -0.851473207994E+03    0.27316E-05   -0.38497E-06  4880   0.364E-03    0.159E-02
DAV:   4    -0.851473207308E+03    0.68643E-06   -0.11333E-05  4450   0.596E-03    0.528E-03
DAV:   5    -0.851473208039E+03   -0.73102E-06   -0.32469E-06  4100   0.258E-03
  40 F= -.85937351E+03 E0= -.85937351E+03  d E =-.595469E-04  mag=     0.0000
quench:  g(F)=  0.000E+00 g(S)=  0.000E+00 dE (1.order)= 0.000E+00
 bond charge predicted
       N       E                     dE             d eps       ncg     rms          rms(c)
DAV:   1    -0.851473211125E+03   -0.38174E-05   -0.62710E-06  4200   0.426E-03    0.135E-03
DAV:   2    -0.851473211141E+03   -0.15934E-07   -0.18283E-07  2560   0.818E-04
  41 F= -.85937352E+03 E0= -.85937352E+03  d E =-.329016E-05  mag=     0.0000
quench:  g(F)=  0.000E+00 g(S)=  0.000E+00 dE (1.order)= 0.000E+00
 bond charge predicted
       N       E                     dE             d eps       ncg     rms          rms(c)
DAV:   1    -0.851473216522E+03   -0.53969E-05   -0.24465E-05  4490   0.801E-03    0.143E-03
DAV:   2    -0.851473216547E+03   -0.24593E-07   -0.54840E-07  2800   0.118E-03
  42 F= -.85937352E+03 E0= -.85937352E+03  d E =-.578414E-05  mag=    -0.0000
quench:  g(F)=  0.000E+00 g(S)=  0.000E+00 dE (1.order)= 0.000E+00
 bond charge predicted
       N       E                     dE             d eps       ncg     rms          rms(c)
DAV:   1    -0.851473223559E+03   -0.70366E-05   -0.52723E-05  4620   0.118E-02    0.224E-03
DAV:   2    -0.851473223587E+03   -0.28165E-07   -0.12033E-06  3230   0.172E-03
  43 F= -.85937353E+03 E0= -.85937353E+03  d E =-.762421E-05  mag=    -0.0000
quench:  g(F)=  0.000E+00 g(S)=  0.000E+00 dE (1.order)= 0.000E+00
 bond charge predicted
       N       E                     dE             d eps       ncg     rms          rms(c)
DAV:   1    -0.851473231282E+03   -0.77236E-05   -0.84631E-05  4670   0.150E-02    0.306E-03
DAV:   2    -0.851473231285E+03   -0.26994E-08   -0.18162E-06  3530   0.211E-03
  44 F= -.85937354E+03 E0= -.85937354E+03  d E =-.850940E-05  mag=    -0.0000
quench:  g(F)=  0.000E+00 g(S)=  0.000E+00 dE (1.order)= 0.000E+00
 bond charge predicted
       N       E                     dE             d eps       ncg     rms          rms(c)
DAV:   1    -0.851473238767E+03   -0.74842E-05   -0.11678E-04  4650   0.179E-02    0.368E-03
DAV:   2    -0.851473238753E+03    0.13642E-07   -0.23674E-06  3830   0.246E-03
  45 F= -.85937355E+03 E0= -.85937355E+03  d E =-.853423E-05  mag=     0.0000
quench:  g(F)=  0.000E+00 g(S)=  0.000E+00 dE (1.order)= 0.000E+00
 bond charge predicted
       N       E                     dE             d eps       ncg     rms          rms(c)
DAV:   1    -0.851473245331E+03   -0.65647E-05   -0.14435E-04  4620   0.201E-02    0.411E-03
DAV:   2    -0.851473245318E+03    0.13330E-07   -0.27835E-06  3990   0.273E-03
  46 F= -.85937356E+03 E0= -.85937356E+03  d E =-.790997E-05  mag=     0.0000
quench:  g(F)=  0.000E+00 g(S)=  0.000E+00 dE (1.order)= 0.000E+00
 bond charge predicted
       N       E                     dE             d eps       ncg     rms          rms(c)
DAV:   1    -0.851473251875E+03   -0.65442E-05   -0.20104E-04  4580   0.242E-02    0.457E-03
DAV:   2    -0.851473251892E+03   -0.16480E-07   -0.36877E-06  4220   0.322E-03
  47 F= -.85937356E+03 E0= -.85937356E+03  d E =-.842881E-05  mag=    -0.0000
quench:  g(F)=  0.000E+00 g(S)=  0.000E+00 dE (1.order)= 0.000E+00
 bond charge predicted
       N       E                     dE             d eps       ncg     rms          rms(c)
DAV:   1    -0.851473259340E+03   -0.74645E-05   -0.26942E-04  4610   0.286E-02    0.512E-03
DAV:   2    -0.851473259391E+03   -0.50859E-07   -0.47076E-06  4680   0.371E-03
  48 F= -.85937357E+03 E0= -.85937357E+03  d E =-.100075E-04  mag=     0.0000
quench:  g(F)=  0.000E+00 g(S)=  0.000E+00 dE (1.order)= 0.000E+00
 bond charge predicted
       N       E                     dE             d eps       ncg     rms          rms(c)
DAV:   1    -0.851473269239E+03   -0.98986E-05   -0.36223E-04  4600   0.336E-02    0.571E-03
DAV:   2    -0.851473269330E+03   -0.91321E-07   -0.57720E-06  4780   0.417E-03
  49 F= -.85937359E+03 E0= -.85937359E+03  d E =-.132523E-04  mag=    -0.0000
quench:  g(F)=  0.000E+00 g(S)=  0.000E+00 dE (1.order)= 0.000E+00
 bond charge predicted
       N       E                     dE             d eps       ncg     rms          rms(c)
DAV:   1    -0.851473283032E+03   -0.13793E-04   -0.50620E-04  4610   0.401E-02    0.644E-03
DAV:   2    -0.851473283254E+03   -0.22230E-06   -0.79878E-06  4740   0.493E-03
  50 F= -.85937361E+03 E0= -.85937361E+03  d E =-.182369E-04  mag=     0.0000
quench:  g(F)=  0.000E+00 g(S)=  0.000E+00 dE (1.order)= 0.000E+00
 bond charge predicted
       N       E                     dE             d eps       ncg     rms          rms(c)
DAV:   1    -0.851473301454E+03   -0.18422E-04   -0.74351E-04  4620   0.487E-02    0.764E-03
DAV:   2    -0.851473301845E+03   -0.39139E-06   -0.11840E-05  4760   0.599E-03    0.631E-03
DAV:   3    -0.851473301938E+03   -0.92456E-07   -0.39523E-07  3140   0.144E-03
  51 F= -.85937363E+03 E0= -.85937363E+03  d E =-.243169E-04  mag=    -0.0000
quench:  g(F)=  0.000E+00 g(S)=  0.000E+00 dE (1.order)= 0.000E+00
 bond charge predicted
       N       E                     dE             d eps       ncg     rms          rms(c)
DAV:   1    -0.851473323805E+03   -0.21959E-04   -0.11318E-03  4560   0.602E-02    0.642E-03
DAV:   2    -0.851473325126E+03   -0.13208E-05   -0.18588E-05  4680   0.743E-03    0.514E-03
DAV:   3    -0.851473325067E+03    0.58026E-07   -0.32456E-07  3010   0.124E-03
  52 F= -.85937366E+03 E0= -.85937366E+03  d E =-.302811E-04  mag=    -0.0000
quench:  g(F)=  0.000E+00 g(S)=  0.000E+00 dE (1.order)= 0.000E+00
 bond charge predicted
       N       E                     dE             d eps       ncg     rms          rms(c)
DAV:   1    -0.851473347422E+03   -0.22296E-04   -0.17708E-03  4540   0.755E-02    0.800E-03
DAV:   2    -0.851473349539E+03   -0.21168E-05   -0.29900E-05  4680   0.945E-03    0.642E-03
DAV:   3    -0.851473349379E+03    0.16008E-06   -0.52840E-07  3470   0.158E-03
  53 F= -.85937369E+03 E0= -.85937369E+03  d E =-.333811E-04  mag=     0.0000
quench:  g(F)=  0.000E+00 g(S)=  0.000E+00 dE (1.order)= 0.000E+00
 bond charge predicted
       N       E                     dE             d eps       ncg     rms          rms(c)
DAV:   1    -0.851473373262E+03   -0.23723E-04   -0.26511E-03  4540   0.922E-02    0.969E-03
DAV:   2    -0.851473376233E+03   -0.29711E-05   -0.43069E-05  4660   0.114E-02    0.774E-03
DAV:   3    -0.851473375987E+03    0.24580E-06   -0.75420E-07  3510   0.189E-03
  54 F= -.85937373E+03 E0= -.85937373E+03  d E =-.375179E-04  mag=    -0.0000
quench:  g(F)=  0.000E+00 g(S)=  0.000E+00 dE (1.order)= 0.000E+00
 bond charge predicted
       N       E                     dE             d eps       ncg     rms          rms(c)
DAV:   1    -0.851473407632E+03   -0.31399E-04   -0.39573E-03  4540   0.112E-01    0.116E-02
DAV:   2    -0.851473411895E+03   -0.42634E-05   -0.63399E-05  4660   0.137E-02    0.929E-03
DAV:   3    -0.851473411480E+03    0.41534E-06   -0.11214E-06  3810   0.226E-03
  55 F= -.85937378E+03 E0= -.85937378E+03  d E =-.484547E-04  mag=    -0.0000
quench:  g(F)=  0.000E+00 g(S)=  0.000E+00 dE (1.order)= 0.000E+00
 bond charge predicted
       N       E                     dE             d eps       ncg     rms          rms(c)
DAV:   1    -0.851473451470E+03   -0.39575E-04   -0.61101E-03  4540   0.139E-01    0.144E-02
DAV:   2    -0.851473457995E+03   -0.65253E-05   -0.99595E-05  4660   0.171E-02    0.116E-02
DAV:   3    -0.851473457262E+03    0.73266E-06   -0.17903E-06  4090   0.278E-03
  56 F= -.85937384E+03 E0= -.85937384E+03  d E =-.610837E-04  mag=     0.0000
quench:  g(F)=  0.000E+00 g(S)=  0.000E+00 dE (1.order)= 0.000E+00
 bond charge predicted
       N       E                     dE             d eps       ncg     rms          rms(c)
DAV:   1    -0.851473500742E+03   -0.42747E-04   -0.93564E-03  4520   0.172E-01    0.179E-02
DAV:   2    -0.851473510870E+03   -0.10128E-04   -0.15552E-04  4660   0.214E-02    0.144E-02
DAV:   3    -0.851473509749E+03    0.11209E-05   -0.29125E-06  4420   0.347E-03    0.111E-02
DAV:   4    -0.851473512379E+03   -0.26297E-05   -0.54342E-06  4290   0.474E-03    0.272E-03
DAV:   5    -0.851473512635E+03   -0.25565E-06   -0.12491E-06  3580   0.182E-03
  57 F= -.85937391E+03 E0= -.85937391E+03  d E =-.737266E-04  mag=     0.0000
quench:  g(F)=  0.000E+00 g(S)=  0.000E+00 dE (1.order)= 0.000E+00
 bond charge predicted
       N       E                     dE             d eps       ncg     rms          rms(c)
DAV:   1    -0.851473554960E+03   -0.42581E-04   -0.13811E-02  4580   0.210E-01    0.206E-02
DAV:   2    -0.851473572629E+03   -0.17669E-04   -0.24558E-04  4510   0.269E-02    0.160E-02
DAV:   3    -0.851473570694E+03    0.19345E-05   -0.43369E-06  4760   0.425E-03    0.124E-02
DAV:   4    -0.851473572907E+03   -0.22127E-05   -0.75266E-06  4380   0.578E-03    0.328E-03
DAV:   5    -0.851473573253E+03   -0.34642E-06   -0.17598E-06  3700   0.217E-03
  58 F= -.85937400E+03 E0= -.85937400E+03  d E =-.831541E-04  mag=     0.0000
quench:  g(F)=  0.000E+00 g(S)=  0.000E+00 dE (1.order)= 0.000E+00
 bond charge predicted
       N       E                     dE             d eps       ncg     rms          rms(c)
DAV:   1    -0.851473620958E+03   -0.48051E-04   -0.19232E-02  4560   0.249E-01    0.245E-02
DAV:   2    -0.851473645999E+03   -0.25041E-04   -0.34284E-04  4510   0.319E-02    0.189E-02
DAV:   3    -0.851473643573E+03    0.24261E-05   -0.62667E-06  5300   0.508E-03    0.146E-02
DAV:   4    -0.851473646018E+03   -0.24451E-05   -0.94083E-06  4460   0.661E-03    0.393E-03
DAV:   5    -0.851473646501E+03   -0.48314E-06   -0.24255E-06  3840   0.254E-03
  59 F= -.85937410E+03 E0= -.85937410E+03  d E =-.100245E-03  mag=     0.0000
quench:  g(F)=  0.000E+00 g(S)=  0.000E+00 dE (1.order)= 0.000E+00
 bond charge predicted
       N       E                     dE             d eps       ncg     rms          rms(c)
DAV:   1    -0.851473689983E+03   -0.43965E-04   -0.28382E-02  4560   0.304E-01    0.298E-02
DAV:   2    -0.851473728029E+03   -0.38045E-04   -0.51416E-04  4500   0.392E-02    0.229E-02
DAV:   3    -0.851473724544E+03    0.34848E-05   -0.92319E-06  5540   0.618E-03    0.177E-02
DAV:   4    -0.851473727919E+03   -0.33747E-05   -0.13562E-05  4470   0.799E-03    0.473E-03
DAV:   5    -0.851473728632E+03   -0.71383E-06   -0.35987E-06  4100   0.308E-03
  60 F= -.85937421E+03 E0= -.85937421E+03  d E =-.116716E-03  mag=     0.0000
quench:  g(F)=  0.000E+00 g(S)=  0.000E+00 dE (1.order)= 0.000E+00
 bond charge predicted
       N       E                     dE             d eps       ncg     rms          rms(c)
DAV:   1    -0.851473765373E+03   -0.37454E-04   -0.42082E-02  4560   0.371E-01    0.360E-02
DAV:   2    -0.851473822044E+03   -0.56672E-04   -0.76867E-04  4500   0.481E-02    0.277E-02
DAV:   3    -0.851473816708E+03    0.53360E-05   -0.13355E-05  5540   0.741E-03    0.214E-02
DAV:   4    -0.851473822357E+03   -0.56483E-05   -0.20361E-05  4540   0.973E-03    0.561E-03
DAV:   5    -0.851473823518E+03   -0.11613E-05   -0.53140E-06  4560   0.372E-03    0.346E-03
DAV:   6    -0.851473823543E+03   -0.25000E-07   -0.85888E-07  3140   0.220E-03
  61 F= -.85937435E+03 E0= -.85937435E+03  d E =-.140215E-03  mag=    -0.0000
quench:  g(F)=  0.000E+00 g(S)=  0.000E+00 dE (1.order)= 0.000E+00
 bond charge predicted
       N       E                     dE             d eps       ncg     rms          rms(c)
DAV:   1    -0.851473849443E+03   -0.25926E-04   -0.61906E-02  4560   0.447E-01    0.428E-02
DAV:   2    -0.851473932412E+03   -0.82968E-04   -0.11241E-03  4570   0.577E-02    0.330E-02
DAV:   3    -0.851473923576E+03    0.88353E-05   -0.19577E-05  5540   0.888E-03    0.256E-02
DAV:   4    -0.851473930454E+03   -0.68775E-05   -0.32001E-05  4630   0.119E-02    0.669E-03
DAV:   5    -0.851473932120E+03   -0.16657E-05   -0.79947E-06  5000   0.451E-03    0.408E-03
DAV:   6    -0.851473932201E+03   -0.81949E-07   -0.10515E-06  3100   0.252E-03
  62 F= -.85937452E+03 E0= -.85937452E+03  d E =-.164584E-03  mag=    -0.0000
quench:  g(F)=  0.000E+00 g(S)=  0.000E+00 dE (1.order)= 0.000E+00
 bond charge predicted
       N       E                     dE             d eps       ncg     rms          rms(c)
DAV:   1    -0.851473937783E+03   -0.56638E-05   -0.88581E-02  4560   0.536E-01    0.505E-02
DAV:   2    -0.851474059595E+03   -0.12181E-03   -0.16085E-03  4520   0.689E-02    0.384E-02
DAV:   3    -0.851474048425E+03    0.11170E-04   -0.27399E-05  5540   0.105E-02    0.296E-02
DAV:   4    -0.851474056454E+03   -0.80293E-05   -0.42564E-05  4630   0.138E-02    0.756E-03
DAV:   5    -0.851474058279E+03   -0.18249E-05   -0.10666E-05  5040   0.523E-03    0.456E-03
DAV:   6    -0.851474058339E+03   -0.60369E-07   -0.13728E-06  3340   0.270E-03
  63 F= -.85937472E+03 E0= -.85937472E+03  d E =-.195700E-03  mag=     0.0000
quench:  g(F)=  0.000E+00 g(S)=  0.000E+00 dE (1.order)= 0.000E+00
 bond charge predicted
       N       E                     dE             d eps       ncg     rms          rms(c)
DAV:   1    -0.851474002996E+03    0.55283E-04   -0.12880E-01  4580   0.647E-01    0.605E-02
DAV:   2    -0.851474180586E+03   -0.17759E-03   -0.23335E-03  4520   0.830E-02    0.460E-02
DAV:   3    -0.851474164636E+03    0.15950E-04   -0.40239E-05  5580   0.127E-02    0.354E-02
DAV:   4    -0.851474174933E+03   -0.10297E-04   -0.62754E-05  4870   0.165E-02    0.903E-03
DAV:   5    -0.851474177407E+03   -0.24746E-05   -0.15155E-05  5080   0.622E-03    0.537E-03
DAV:   6    -0.851474177580E+03   -0.17320E-06   -0.18965E-06  3560   0.294E-03
  64 F= -.85937492E+03 E0= -.85937492E+03  d E =-.208109E-03  mag=     0.0000
quench:  g(F)=  0.000E+00 g(S)=  0.000E+00 dE (1.order)= 0.000E+00
 bond charge predicted
       N       E                     dE             d eps       ncg     rms          rms(c)
DAV:   1    -0.851474049317E+03    0.12809E-03   -0.17599E-01  4580   0.751E-01    0.707E-02
DAV:   2    -0.851474282845E+03   -0.23353E-03   -0.31340E-03  4620   0.962E-02    0.551E-02
DAV:   3    -0.851474257546E+03    0.25299E-04   -0.55732E-05  5560   0.149E-02    0.425E-02
DAV:   4    -0.851474272850E+03   -0.15304E-04   -0.97456E-05  5000   0.203E-02    0.106E-02
DAV:   5    -0.851474276190E+03   -0.33396E-05   -0.22730E-05  5080   0.773E-03    0.620E-03
DAV:   6    -0.851474276843E+03   -0.65288E-06   -0.24621E-06  3840   0.339E-03
  65 F= -.85937513E+03 E0= -.85937513E+03  d E =-.207548E-03  mag=    -0.0000
quench:  g(F)=  0.000E+00 g(S)=  0.000E+00 dE (1.order)= 0.000E+00
 bond charge predicted
       N       E                     dE             d eps       ncg     rms          rms(c)
DAV:   1    -0.851474124779E+03    0.15141E-03   -0.21612E-01  4580   0.827E-01    0.796E-02
DAV:   2    -0.851474395599E+03   -0.27082E-03   -0.36725E-03  4540   0.104E-01    0.627E-02
DAV:   3    -0.851474364186E+03    0.31413E-04   -0.75299E-05  5560   0.172E-02    0.476E-02
DAV:   4    -0.851474372916E+03   -0.87302E-05   -0.11337E-04  5080   0.222E-02    0.123E-02
DAV:   5    -0.851474376656E+03   -0.37398E-05   -0.27665E-05  5060   0.831E-03    0.695E-03
DAV:   6    -0.851474377087E+03   -0.43095E-06   -0.34220E-06  3980   0.382E-03
  66 F= -.85937536E+03 E0= -.85937536E+03  d E =-.226543E-03  mag=     0.0000
quench:  g(F)=  0.000E+00 g(S)=  0.000E+00 dE (1.order)= 0.000E+00
 bond charge predicted
       N       E                     dE             d eps       ncg     rms          rms(c)
DAV:   1    -0.851474156136E+03    0.22052E-03   -0.28770E-01  4580   0.940E-01    0.914E-02
DAV:   2    -0.851474490160E+03   -0.33402E-03   -0.47328E-03  4740   0.117E-01    0.749E-02
DAV:   3    -0.851474438932E+03    0.51228E-04   -0.10259E-04  5640   0.199E-02    0.575E-02
DAV:   4    -0.851474453282E+03   -0.14350E-04   -0.17850E-04  5240   0.274E-02    0.146E-02
DAV:   5    -0.851474459184E+03   -0.59020E-05   -0.40701E-05  5060   0.102E-02    0.853E-03
DAV:   6    -0.851474460547E+03   -0.13629E-05   -0.48693E-06  4260   0.502E-03    0.389E-03
DAV:   7    -0.851474460787E+03   -0.23992E-06   -0.96615E-07  3500   0.192E-03
  67 F= -.85937559E+03 E0= -.85937559E+03  d E =-.232533E-03  mag=    -0.0000
quench:  g(F)=  0.000E+00 g(S)=  0.000E+00 dE (1.order)= 0.000E+00
 bond charge predicted
       N       E                     dE             d eps       ncg     rms          rms(c)
DAV:   1    -0.851473990024E+03    0.47052E-03   -0.36469E-01  4560   0.106E+00    0.105E-01
DAV:   2    -0.851474441662E+03   -0.45164E-03   -0.61658E-03  4700   0.133E-01    0.877E-02
DAV:   3    -0.851474374746E+03    0.66916E-04   -0.14628E-04  5760   0.237E-02    0.675E-02
DAV:   4    -0.851474358360E+03    0.16387E-04   -0.21992E-04  5220   0.306E-02    0.189E-02
DAV:   5    -0.851474366083E+03   -0.77231E-05   -0.56013E-05  5120   0.116E-02    0.104E-02
DAV:   6    -0.851474366739E+03   -0.65598E-06   -0.71257E-06  4300   0.549E-03
  68 F= -.85937564E+03 E0= -.85937564E+03  d E =-.482470E-04  mag=    -0.0000
quench:  g(F)=  0.000E+00 g(S)=  0.000E+00 dE (1.order)= 0.000E+00
 bond charge predicted
       N       E                     dE             d eps       ncg     rms          rms(c)
DAV:   1    -0.851474616782E+03   -0.25070E-03   -0.16120E-02  4660   0.213E-01    0.267E-02
DAV:   2    -0.851474648773E+03   -0.31991E-04   -0.45343E-04  5040   0.322E-02    0.253E-02
DAV:   3    -0.851474642776E+03    0.59975E-05   -0.91076E-06  5620   0.575E-03    0.216E-02
DAV:   4    -0.851474637618E+03    0.51578E-05   -0.18934E-05  4660   0.781E-03    0.872E-03
DAV:   5    -0.851474638643E+03   -0.10249E-05   -0.79625E-06  4660   0.424E-03    0.372E-03
DAV:   6    -0.851474638827E+03   -0.18407E-06   -0.10083E-06  3440   0.200E-03
  69 F= -.85937591E+03 E0= -.85937591E+03  d E =-.274893E-03  mag=     0.0000
quench:  g(F)=  0.000E+00 g(S)=  0.000E+00 dE (1.order)= 0.000E+00
 bond charge predicted
       N       E                     dE             d eps       ncg     rms          rms(c)
DAV:   1    -0.851474440270E+03    0.19837E-03   -0.15694E-02  4560   0.226E-01    0.262E-02
DAV:   2    -0.851474471572E+03   -0.31302E-04   -0.42930E-04  5120   0.338E-02    0.239E-02
DAV:   3    -0.851474466272E+03    0.53000E-05   -0.96147E-06  5760   0.602E-03    0.199E-02
DAV:   4    -0.851474462821E+03    0.34512E-05   -0.16668E-05  4580   0.778E-03    0.786E-03
DAV:   5    -0.851474463836E+03   -0.10147E-05   -0.60638E-06  4720   0.391E-03    0.367E-03
DAV:   6    -0.851474463997E+03   -0.16097E-06   -0.60911E-07  3280   0.157E-03
  70 F= -.85937574E+03 E0= -.85937574E+03  d E =0.172184E-03  mag=    -0.0000
quench:  g(F)=  0.000E+00 g(S)=  0.000E+00 dE (1.order)= 0.000E+00
 bond charge predicted
       N       E                     dE             d eps       ncg     rms          rms(c)
DAV:   1    -0.851474554724E+03   -0.90888E-04   -0.78880E-04  4720   0.466E-02    0.591E-03
DAV:   2    -0.851474556272E+03   -0.15486E-05   -0.22247E-05  4880   0.709E-03    0.576E-03
DAV:   3    -0.851474555955E+03    0.31693E-06   -0.38322E-07  3340   0.129E-03
  71 F= -.85937583E+03 E0= -.85937583E+03  d E =-.919522E-04  mag=     0.0000
quench:  g(F)=  0.000E+00 g(S)=  0.000E+00 dE (1.order)= 0.000E+00
 bond charge predicted
       N       E                     dE             d eps       ncg     rms          rms(c)
DAV:   1    -0.851474652364E+03   -0.96091E-04   -0.23969E-03  4660   0.816E-02    0.114E-02
DAV:   2    -0.851474656247E+03   -0.38830E-05   -0.62356E-05  5060   0.119E-02    0.107E-02
DAV:   3    -0.851474655255E+03    0.99175E-06   -0.12431E-06  4100   0.229E-03
  72 F= -.85937593E+03 E0= -.85937593E+03  d E =-.993748E-04  mag=     0.0000
quench:  g(F)=  0.000E+00 g(S)=  0.000E+00 dE (1.order)= 0.000E+00
 bond charge predicted
       N       E                     dE             d eps       ncg     rms          rms(c)
DAV:   1    -0.851474669642E+03   -0.13395E-04   -0.33728E-03  4660   0.981E-02    0.140E-02
DAV:   2    -0.851474674717E+03   -0.50756E-05   -0.84331E-05  5120   0.141E-02    0.130E-02
DAV:   3    -0.851474673391E+03    0.13260E-05   -0.17443E-06  4360   0.270E-03    0.108E-02
DAV:   4    -0.851474673158E+03    0.23332E-06   -0.61927E-06  4220   0.455E-03
  73 F= -.85937595E+03 E0= -.85937595E+03  d E =-.181538E-04  mag=     0.0000
quench:  g(F)=  0.000E+00 g(S)=  0.000E+00 dE (1.order)= 0.000E+00
 bond charge predicted
       N       E                     dE             d eps       ncg     rms          rms(c)
DAV:   1    -0.851474675002E+03   -0.16103E-05   -0.51097E-06  4240   0.380E-03    0.195E-03
DAV:   2    -0.851474675015E+03   -0.12944E-07   -0.21044E-07  2500   0.886E-04
  74 F= -.85937595E+03 E0= -.85937595E+03  d E =-.191061E-05  mag=     0.0000
quench:  g(F)=  0.000E+00 g(S)=  0.000E+00 dE (1.order)= 0.000E+00
 bond charge predicted
       N       E                     dE             d eps       ncg     rms          rms(c)
DAV:   1    -0.851474677918E+03   -0.29166E-05   -0.11339E-05  4380   0.609E-03    0.113E-03
DAV:   2    -0.851474677942E+03   -0.24011E-07   -0.25827E-07  2580   0.921E-04
  75 F= -.85937596E+03 E0= -.85937596E+03  d E =-.303250E-05  mag=     0.0000
quench:  g(F)=  0.000E+00 g(S)=  0.000E+00 dE (1.order)= 0.000E+00
 bond charge predicted
       N       E                     dE             d eps       ncg     rms          rms(c)
DAV:   1    -0.851474681573E+03   -0.36549E-05   -0.25137E-05  4460   0.898E-03    0.158E-03
DAV:   2    -0.851474681606E+03   -0.32443E-07   -0.63522E-07  2740   0.136E-03
  76 F= -.85937596E+03 E0= -.85937596E+03  d E =-.378731E-05  mag=    -0.0000
quench:  g(F)=  0.000E+00 g(S)=  0.000E+00 dE (1.order)= 0.000E+00
 bond charge predicted
       N       E                     dE             d eps       ncg     rms          rms(c)
DAV:   1    -0.851474685382E+03   -0.38088E-05   -0.39299E-05  4560   0.113E-02    0.220E-03
DAV:   2    -0.851474685407E+03   -0.25160E-07   -0.93487E-07  2920   0.165E-03
  77 F= -.85937596E+03 E0= -.85937596E+03  d E =-.401644E-05  mag=    -0.0000
quench:  g(F)=  0.000E+00 g(S)=  0.000E+00 dE (1.order)= 0.000E+00
 bond charge predicted
       N       E                     dE             d eps       ncg     rms          rms(c)
DAV:   1    -0.851474688882E+03   -0.35004E-05   -0.52302E-05  4620   0.132E-02    0.263E-03
DAV:   2    -0.851474688899E+03   -0.16342E-07   -0.11335E-06  3110   0.184E-03
  78 F= -.85937597E+03 E0= -.85937597E+03  d E =-.375023E-05  mag=    -0.0000
quench:  g(F)=  0.000E+00 g(S)=  0.000E+00 dE (1.order)= 0.000E+00
 bond charge predicted
       N       E                     dE             d eps       ncg     rms          rms(c)
DAV:   1    -0.851474691826E+03   -0.29433E-05   -0.62792E-05  4620   0.147E-02    0.286E-03
DAV:   2    -0.851474691847E+03   -0.21377E-07   -0.12858E-06  3340   0.202E-03
  79 F= -.85937597E+03 E0= -.85937597E+03  d E =-.330630E-05  mag=     0.0000
quench:  g(F)=  0.000E+00 g(S)=  0.000E+00 dE (1.order)= 0.000E+00
 bond charge predicted
       N       E                     dE             d eps       ncg     rms          rms(c)
DAV:   1    -0.851474694559E+03   -0.27328E-05   -0.86038E-05  4600   0.177E-02    0.310E-03
DAV:   2    -0.851474694604E+03   -0.45053E-07   -0.16844E-06  3480   0.238E-03
  80 F= -.85937597E+03 E0= -.85937597E+03  d E =-.322197E-05  mag=     0.0000
quench:  g(F)=  0.000E+00 g(S)=  0.000E+00 dE (1.order)= 0.000E+00
 bond charge predicted
       N       E                     dE             d eps       ncg     rms          rms(c)
DAV:   1    -0.851474697389E+03   -0.28305E-05   -0.11138E-04  4570   0.205E-02    0.337E-03
DAV:   2    -0.851474697459E+03   -0.70009E-07   -0.20716E-06  3720   0.273E-03
  81 F= -.85937598E+03 E0= -.85937598E+03  d E =-.361037E-05  mag=     0.0000
quench:  g(F)=  0.000E+00 g(S)=  0.000E+00 dE (1.order)= 0.000E+00
 bond charge predicted
       N       E                     dE             d eps       ncg     rms          rms(c)
DAV:   1    -0.851474701202E+03   -0.38134E-05   -0.14695E-04  4560   0.238E-02    0.362E-03
DAV:   2    -0.851474701323E+03   -0.12106E-06   -0.26933E-06  4100   0.309E-03
  82 F= -.85937598E+03 E0= -.85937598E+03  d E =-.494427E-05  mag=     0.0000
quench:  g(F)=  0.000E+00 g(S)=  0.000E+00 dE (1.order)= 0.000E+00
 bond charge predicted
       N       E                     dE             d eps       ncg     rms          rms(c)
DAV:   1    -0.851474706889E+03   -0.56866E-05   -0.21001E-04  4540   0.285E-02    0.408E-03
DAV:   2    -0.851474707072E+03   -0.18287E-06   -0.36803E-06  4440   0.359E-03
  83 F= -.85937599E+03 E0= -.85937599E+03  d E =-.714908E-05  mag=    -0.0000
quench:  g(F)=  0.000E+00 g(S)=  0.000E+00 dE (1.order)= 0.000E+00
 bond charge predicted
       N       E                     dE             d eps       ncg     rms          rms(c)
DAV:   1    -0.851474714936E+03   -0.80472E-05   -0.32246E-04  4590   0.352E-02    0.488E-03
DAV:   2    -0.851474715243E+03   -0.30686E-06   -0.58319E-06  4880   0.448E-03
  84 F= -.85937600E+03 E0= -.85937600E+03  d E =-.982629E-05  mag=    -0.0000
quench:  g(F)=  0.000E+00 g(S)=  0.000E+00 dE (1.order)= 0.000E+00
 bond charge predicted
       N       E                     dE             d eps       ncg     rms          rms(c)
DAV:   1    -0.851474724337E+03   -0.94004E-05   -0.50625E-04  4520   0.439E-02    0.617E-03
DAV:   2    -0.851474724823E+03   -0.48668E-06   -0.94962E-06  5050   0.569E-03
  85 F= -.85937601E+03 E0= -.85937601E+03  d E =-.115639E-04  mag=    -0.0000
quench:  g(F)=  0.000E+00 g(S)=  0.000E+00 dE (1.order)= 0.000E+00
 bond charge predicted
       N       E                     dE             d eps       ncg     rms          rms(c)
DAV:   1    -0.851474734219E+03   -0.98824E-05   -0.76671E-04  4520   0.540E-02    0.777E-03
DAV:   2    -0.851474734856E+03   -0.63718E-06   -0.14156E-05  4770   0.698E-03    0.657E-03
DAV:   3    -0.851474734759E+03    0.96734E-07   -0.48807E-07  3180   0.163E-03
  86 F= -.85937602E+03 E0= -.85937602E+03  d E =-.123218E-04  mag=     0.0000
quench:  g(F)=  0.000E+00 g(S)=  0.000E+00 dE (1.order)= 0.000E+00
 bond charge predicted
       N       E                     dE             d eps       ncg     rms          rms(c)
DAV:   1    -0.851474744480E+03   -0.96234E-05   -0.11049E-03  4520   0.649E-02    0.617E-03
DAV:   2    -0.851474745964E+03   -0.14840E-05   -0.19516E-05  4700   0.816E-03    0.506E-03
DAV:   3    -0.851474745889E+03    0.74891E-07   -0.31099E-07  3180   0.126E-03
  87 F= -.85937604E+03 E0= -.85937604E+03  d E =-.142121E-04  mag=    -0.0000
quench:  g(F)=  0.000E+00 g(S)=  0.000E+00 dE (1.order)= 0.000E+00
 bond charge predicted
       N       E                     dE             d eps       ncg     rms          rms(c)
DAV:   1    -0.851474759929E+03   -0.13966E-04   -0.16176E-03  4540   0.785E-02    0.715E-03
DAV:   2    -0.851474762029E+03   -0.20995E-05   -0.28325E-05  4700   0.983E-03    0.583E-03
DAV:   3    -0.851474761871E+03    0.15799E-06   -0.45353E-07  3200   0.152E-03
  88 F= -.85937606E+03 E0= -.85937606E+03  d E =-.190970E-04  mag=     0.0000
quench:  g(F)=  0.000E+00 g(S)=  0.000E+00 dE (1.order)= 0.000E+00
 bond charge predicted
       N       E                     dE             d eps       ncg     rms          rms(c)
DAV:   1    -0.851474779447E+03   -0.17419E-04   -0.24810E-03  4500   0.971E-02    0.889E-03
DAV:   2    -0.851474782756E+03   -0.33089E-05   -0.44995E-05  4680   0.124E-02    0.731E-03
DAV:   3    -0.851474782493E+03    0.26332E-06   -0.74154E-07  3700   0.192E-03
  89 F= -.85937608E+03 E0= -.85937608E+03  d E =-.243237E-04  mag=    -0.0000
quench:  g(F)=  0.000E+00 g(S)=  0.000E+00 dE (1.order)= 0.000E+00
 bond charge predicted
       N       E                     dE             d eps       ncg     rms          rms(c)
DAV:   1    -0.851474800348E+03   -0.17592E-04   -0.36488E-03  4540   0.117E-01    0.108E-02
DAV:   2    -0.851474804845E+03   -0.44972E-05   -0.63630E-05  4640   0.147E-02    0.898E-03
DAV:   3    -0.851474804429E+03    0.41568E-06   -0.11459E-06  4020   0.230E-03
  90 F= -.85937611E+03 E0= -.85937611E+03  d E =-.260300E-04  mag=     0.0000
quench:  g(F)=  0.000E+00 g(S)=  0.000E+00 dE (1.order)= 0.000E+00
 bond charge predicted
       N       E                     dE             d eps       ncg     rms          rms(c)
DAV:   1    -0.851474822034E+03   -0.17188E-04   -0.50457E-03  4500   0.137E-01    0.129E-02
DAV:   2    -0.851474828055E+03   -0.60218E-05   -0.86087E-05  4600   0.172E-02    0.108E-02
DAV:   3    -0.851474827519E+03    0.53641E-06   -0.17862E-06  4200   0.283E-03
  91 F= -.85937614E+03 E0= -.85937614E+03  d E =-.298064E-04  mag=    -0.0000
quench:  g(F)=  0.000E+00 g(S)=  0.000E+00 dE (1.order)= 0.000E+00
 bond charge predicted
       N       E                     dE             d eps       ncg     rms          rms(c)
DAV:   1    -0.851474845551E+03   -0.17495E-04   -0.70357E-03  4500   0.162E-01    0.154E-02
DAV:   2    -0.851474853663E+03   -0.81124E-05   -0.11695E-04  4580   0.201E-02    0.130E-02
DAV:   3    -0.851474852837E+03    0.82627E-06   -0.27292E-06  4500   0.347E-03
  92 F= -.85937617E+03 E0= -.85937617E+03  d E =-.349458E-04  mag=    -0.0000
quench:  g(F)=  0.000E+00 g(S)=  0.000E+00 dE (1.order)= 0.000E+00
 bond charge predicted
       N       E                     dE             d eps       ncg     rms          rms(c)
DAV:   1    -0.851474868160E+03   -0.14497E-04   -0.97668E-03  4520   0.188E-01    0.184E-02
DAV:   2    -0.851474878175E+03   -0.10016E-04   -0.15162E-04  4600   0.228E-02    0.157E-02
DAV:   3    -0.851474876811E+03    0.13642E-05   -0.40032E-06  4920   0.418E-03    0.116E-02
DAV:   4    -0.851474878099E+03   -0.12881E-05   -0.55877E-06  4320   0.513E-03    0.285E-03
DAV:   5    -0.851474878254E+03   -0.15505E-06   -0.15936E-06  3640   0.211E-03
  93 F= -.85937621E+03 E0= -.85937621E+03  d E =-.392890E-04  mag=    -0.0000
quench:  g(F)=  0.000E+00 g(S)=  0.000E+00 dE (1.order)= 0.000E+00
 bond charge predicted
       N       E                     dE             d eps       ncg     rms          rms(c)
DAV:   1    -0.851474895321E+03   -0.17222E-04   -0.13336E-02  4540   0.218E-01    0.202E-02
DAV:   2    -0.851474909275E+03   -0.13953E-04   -0.21273E-04  4560   0.268E-02    0.173E-02
DAV:   3    -0.851474906627E+03    0.26480E-05   -0.59563E-06  5200   0.504E-03    0.128E-02
DAV:   4    -0.851474907300E+03   -0.67378E-06   -0.79865E-06  4320   0.609E-03
  94 F= -.85937626E+03 E0= -.85937626E+03  d E =-.455195E-04  mag=    -0.0000
quench:  g(F)=  0.000E+00 g(S)=  0.000E+00 dE (1.order)= 0.000E+00
 bond charge predicted
       N       E                     dE             d eps       ncg     rms          rms(c)
DAV:   1    -0.851474918768E+03   -0.12141E-04   -0.18438E-02  4560   0.254E-01    0.246E-02
DAV:   2    -0.851474937128E+03   -0.18360E-04   -0.28390E-04  4580   0.307E-02    0.212E-02
DAV:   3    -0.851474933573E+03    0.35552E-05   -0.79086E-06  5420   0.584E-03    0.156E-02
DAV:   4    -0.851474935188E+03   -0.16154E-05   -0.10698E-05  4400   0.715E-03    0.409E-03
DAV:   5    -0.851474935554E+03   -0.36535E-06   -0.31806E-06  3900   0.298E-03
  95 F= -.85937631E+03 E0= -.85937631E+03  d E =-.502537E-04  mag=    -0.0000
quench:  g(F)=  0.000E+00 g(S)=  0.000E+00 dE (1.order)= 0.000E+00
 bond charge predicted
       N       E                     dE             d eps       ncg     rms          rms(c)
DAV:   1    -0.851474948537E+03   -0.13349E-04   -0.24265E-02  4560   0.289E-01    0.274E-02
DAV:   2    -0.851474972802E+03   -0.24266E-04   -0.37301E-04  4600   0.348E-02    0.235E-02
DAV:   3    -0.851474967701E+03    0.51014E-05   -0.10807E-05  5540   0.675E-03    0.172E-02
DAV:   4    -0.851474968614E+03   -0.91329E-06   -0.13775E-05  4400   0.807E-03    0.471E-03
DAV:   5    -0.851474969042E+03   -0.42803E-06   -0.41176E-06  4040   0.333E-03
  96 F= -.85937636E+03 E0= -.85937636E+03  d E =-.578019E-04  mag=    -0.0000
quench:  g(F)=  0.000E+00 g(S)=  0.000E+00 dE (1.order)= 0.000E+00
 bond charge predicted
       N       E                     dE             d eps       ncg     rms          rms(c)
DAV:   1    -0.851474970298E+03   -0.16837E-05   -0.32929E-02  4560   0.336E-01    0.322E-02
DAV:   2    -0.851475003563E+03   -0.33265E-04   -0.50789E-04  4600   0.404E-02    0.276E-02
DAV:   3    -0.851474996448E+03    0.71145E-05   -0.14928E-05  5720   0.792E-03    0.202E-02
DAV:   4    -0.851474997394E+03   -0.94594E-06   -0.18705E-05  4420   0.944E-03    0.559E-03
DAV:   5    -0.851474998016E+03   -0.62179E-06   -0.55880E-06  4280   0.387E-03
  97 F= -.85937642E+03 E0= -.85937642E+03  d E =-.596874E-04  mag=     0.0000
quench:  g(F)=  0.000E+00 g(S)=  0.000E+00 dE (1.order)= 0.000E+00
 bond charge predicted
       N       E                     dE             d eps       ncg     rms          rms(c)
DAV:   1    -0.851474992606E+03    0.47886E-05   -0.43541E-02  4560   0.384E-01    0.367E-02
DAV:   2    -0.851475036663E+03   -0.44057E-04   -0.67336E-04  4600   0.460E-02    0.318E-02
DAV:   3    -0.851475026834E+03    0.98290E-05   -0.19012E-05  5720   0.888E-03    0.236E-02
DAV:   4    -0.851475028506E+03   -0.16727E-05   -0.26495E-05  4440   0.111E-02    0.629E-03
DAV:   5    -0.851475029272E+03   -0.76631E-06   -0.75161E-06  4800   0.459E-03
  98 F= -.85937649E+03 E0= -.85937649E+03  d E =-.648390E-04  mag=     0.0000
quench:  g(F)=  0.000E+00 g(S)=  0.000E+00 dE (1.order)= 0.000E+00
 bond charge predicted
       N       E                     dE             d eps       ncg     rms          rms(c)
DAV:   1    -0.851474996261E+03    0.32245E-04   -0.57225E-02  4560   0.440E-01    0.425E-02
DAV:   2    -0.851475055051E+03   -0.58790E-04   -0.88972E-04  4600   0.528E-02    0.362E-02
DAV:   3    -0.851475043105E+03    0.11946E-04   -0.24965E-05  5720   0.103E-02    0.268E-02
DAV:   4    -0.851475044716E+03   -0.16115E-05   -0.33761E-05  4520   0.127E-02    0.723E-03
DAV:   5    -0.851475045704E+03   -0.98791E-06   -0.96502E-06  4880   0.512E-03
  99 F= -.85937656E+03 E0= -.85937656E+03  d E =-.681200E-04  mag=     0.0000
quench:  g(F)=  0.000E+00 g(S)=  0.000E+00 dE (1.order)= 0.000E+00
 bond charge predicted
       N       E                     dE             d eps       ncg     rms          rms(c)
DAV:   1    -0.851475004061E+03    0.40655E-04   -0.75842E-02  4560   0.506E-01    0.493E-02
DAV:   2    -0.851475083616E+03   -0.79554E-04   -0.12105E-03  4620   0.618E-02    0.420E-02
DAV:   3    -0.851475067307E+03    0.16309E-04   -0.34309E-05  5760   0.119E-02    0.313E-02
DAV:   4    -0.851475069534E+03   -0.22270E-05   -0.44971E-05  4760   0.146E-02    0.885E-03
DAV:   5    -0.851475071420E+03   -0.18859E-05   -0.12225E-05  5000   0.578E-03    0.476E-03
DAV:   6    -0.851475071766E+03   -0.34655E-06   -0.13723E-06  3240   0.275E-03
 100 F= -.85937662E+03 E0= -.85937662E+03  d E =-.597212E-04  mag=     0.0000
quench:  g(F)=  0.000E+00 g(S)=  0.000E+00 dE (1.order)= 0.000E+00
 bond charge predicted
       N       E                     dE             d eps       ncg     rms          rms(c)
DAV:   1    -0.851475094986E+03   -0.23566E-04   -0.10357E-03  4480   0.659E-02    0.738E-03
DAV:   2    -0.851475097135E+03   -0.21492E-05   -0.30250E-05  5340   0.104E-02    0.660E-03
DAV:   3    -0.851475096734E+03    0.40116E-06   -0.85279E-07  3380   0.204E-03
 101 F= -.85937665E+03 E0= -.85937665E+03  d E =-.305481E-04  mag=     0.0000
quench:  g(F)=  0.000E+00 g(S)=  0.000E+00 dE (1.order)= 0.000E+00
 bond charge predicted
       N       E                     dE             d eps       ncg     rms          rms(c)
DAV:   1    -0.851475084095E+03    0.13040E-04   -0.17924E-03  4480   0.869E-02    0.107E-02
DAV:   2    -0.851475087200E+03   -0.31049E-05   -0.46070E-05  5420   0.130E-02    0.916E-03
DAV:   3    -0.851475086519E+03    0.68054E-06   -0.15528E-06  3780   0.278E-03
 102 F= -.85937664E+03 E0= -.85937664E+03  d E =0.222496E-05  mag=     0.0000
quench:  g(F)=  0.000E+00 g(S)=  0.000E+00 dE (1.order)= 0.000E+00
 bond charge predicted
       N       E                     dE             d eps       ncg     rms          rms(c)
DAV:   1    -0.851475091857E+03   -0.46575E-05   -0.45600E-05  4640   0.137E-02    0.236E-03
DAV:   2    -0.851475092011E+03   -0.15338E-06   -0.21912E-06  3420   0.273E-03
 103 F= -.85937665E+03 E0= -.85937665E+03  d E =-.519611E-05  mag=    -0.0000
quench:  g(F)=  0.000E+00 g(S)=  0.000E+00 dE (1.order)= 0.000E+00
 bond charge predicted
       N       E                     dE             d eps       ncg     rms          rms(c)
DAV:   1    -0.851475100564E+03   -0.87071E-05   -0.12388E-04  4560   0.223E-02    0.300E-03
DAV:   2    -0.851475100720E+03   -0.15583E-06   -0.31308E-06  4420   0.337E-03
 104 F= -.85937666E+03 E0= -.85937666E+03  d E =-.818497E-05  mag=    -0.0000
quench:  g(F)=  0.000E+00 g(S)=  0.000E+00 dE (1.order)= 0.000E+00
 bond charge predicted
       N       E                     dE             d eps       ncg     rms          rms(c)
DAV:   1    -0.851475106532E+03   -0.59674E-05   -0.21295E-04  4600   0.293E-02    0.472E-03
DAV:   2    -0.851475106704E+03   -0.17201E-06   -0.52308E-06  5140   0.435E-03
 105 F= -.85937666E+03 E0= -.85937666E+03  d E =-.555624E-05  mag=    -0.0000
quench:  g(F)=  0.000E+00 g(S)=  0.000E+00 dE (1.order)= 0.000E+00
 bond charge predicted
       N       E                     dE             d eps       ncg     rms          rms(c)
DAV:   1    -0.851475107794E+03   -0.12624E-05   -0.23702E-04  4520   0.310E-02    0.560E-03
DAV:   2    -0.851475107914E+03   -0.11994E-06   -0.54247E-06  5220   0.443E-03
 106 F= -.85937666E+03 E0= -.85937666E+03  d E =-.128153E-05  mag=     0.0000
quench:  g(F)=  0.000E+00 g(S)=  0.000E+00 dE (1.order)= 0.000E+00
 bond charge predicted
       N       E                     dE             d eps       ncg     rms          rms(c)
DAV:   1    -0.851475108013E+03   -0.21876E-06   -0.11955E-06  2940   0.237E-03    0.295E-03
DAV:   2    -0.851475108017E+03   -0.36962E-08   -0.21028E-07  2480   0.902E-04
 107 F= -.85937667E+03 E0= -.85937667E+03  d E =-.245461E-06  mag=    -0.0000
quench:  g(F)=  0.000E+00 g(S)=  0.000E+00 dE (1.order)= 0.000E+00
 bond charge predicted
       N       E                     dE             d eps       ncg     rms          rms(c)
DAV:   1    -0.851475108652E+03   -0.63889E-06   -0.27071E-06  4000   0.333E-03    0.109E-03
DAV:   2    -0.851475108664E+03   -0.12638E-07   -0.12457E-07  2480   0.689E-04
 108 F= -.85937667E+03 E0= -.85937667E+03  d E =-.930530E-06  mag=    -0.0000
quench:  g(F)=  0.000E+00 g(S)=  0.000E+00 dE (1.order)= 0.000E+00
 bond charge predicted
       N       E                     dE             d eps       ncg     rms          rms(c)
DAV:   1    -0.851475109453E+03   -0.80136E-06   -0.49375E-06  4280   0.450E-03    0.108E-03
DAV:   2    -0.851475109460E+03   -0.65847E-08   -0.12740E-07  2480   0.725E-04
 109 F= -.85937667E+03 E0= -.85937667E+03  d E =-.121544E-05  mag=     0.0000
quench:  g(F)=  0.000E+00 g(S)=  0.000E+00 dE (1.order)= 0.000E+00
 bond charge predicted
       N       E                     dE             d eps       ncg     rms          rms(c)
DAV:   1    -0.851475110290E+03   -0.83679E-06   -0.80521E-06  4400   0.575E-03    0.124E-03
DAV:   2    -0.851475110298E+03   -0.79090E-08   -0.18909E-07  2420   0.873E-04
 110 F= -.85937667E+03 E0= -.85937667E+03  d E =-.133048E-05  mag=    -0.0000
quench:  g(F)=  0.000E+00 g(S)=  0.000E+00 dE (1.order)= 0.000E+00
 bond charge predicted
       N       E                     dE             d eps       ncg     rms          rms(c)
DAV:   1    -0.851475111079E+03   -0.78891E-06   -0.11324E-05  4360   0.681E-03    0.139E-03
DAV:   2    -0.851475111088E+03   -0.88257E-08   -0.25360E-07  2360   0.101E-03
 111 F= -.85937667E+03 E0= -.85937667E+03  d E =-.143335E-05  mag=     0.0000
quench:  g(F)=  0.000E+00 g(S)=  0.000E+00 dE (1.order)= 0.000E+00
 bond charge predicted
       N       E                     dE             d eps       ncg     rms          rms(c)
DAV:   1    -0.851475111715E+03   -0.63590E-06   -0.14563E-05  4460   0.770E-03    0.152E-03
DAV:   2    -0.851475111725E+03   -0.10099E-07   -0.29829E-07  2360   0.109E-03
 112 F= -.85937667E+03 E0= -.85937667E+03  d E =-.139797E-05  mag=     0.0000
quench:  g(F)=  0.000E+00 g(S)=  0.000E+00 dE (1.order)= 0.000E+00
 bond charge predicted
       N       E                     dE             d eps       ncg     rms          rms(c)
DAV:   1    -0.851475112103E+03   -0.38846E-06   -0.21456E-05  4540   0.929E-03    0.167E-03
DAV:   2    -0.851475112118E+03   -0.15134E-07   -0.40462E-07  2440   0.126E-03
 113 F= -.85937667E+03 E0= -.85937667E+03  d E =-.137960E-05  mag=     0.0000
quench:  g(F)=  0.000E+00 g(S)=  0.000E+00 dE (1.order)= 0.000E+00
 bond charge predicted
       N       E                     dE             d eps       ncg     rms          rms(c)
DAV:   1    -0.851475112636E+03   -0.53278E-06   -0.30027E-05  4560   0.108E-02    0.187E-03
DAV:   2    -0.851475112653E+03   -0.17229E-07   -0.51230E-07  2440   0.142E-03
 114 F= -.85937667E+03 E0= -.85937667E+03  d E =-.170913E-05  mag=     0.0000
quench:  g(F)=  0.000E+00 g(S)=  0.000E+00 dE (1.order)= 0.000E+00
 bond charge predicted
       N       E                     dE             d eps       ncg     rms          rms(c)
DAV:   1    -0.851475113459E+03   -0.82356E-06   -0.43784E-05  4520   0.130E-02    0.208E-03
DAV:   2    -0.851475113489E+03   -0.29773E-07   -0.73206E-07  2700   0.169E-03
 115 F= -.85937668E+03 E0= -.85937668E+03  d E =-.223890E-05  mag=     0.0000
quench:  g(F)=  0.000E+00 g(S)=  0.000E+00 dE (1.order)= 0.000E+00
 bond charge predicted
       N       E                     dE             d eps       ncg     rms          rms(c)
DAV:   1    -0.851475114673E+03   -0.12135E-05   -0.67387E-05  4540   0.161E-02    0.245E-03
DAV:   2    -0.851475114719E+03   -0.45817E-07   -0.11360E-06  3060   0.210E-03
 116 F= -.85937668E+03 E0= -.85937668E+03  d E =-.281857E-05  mag=     0.0000
quench:  g(F)=  0.000E+00 g(S)=  0.000E+00 dE (1.order)= 0.000E+00
 bond charge predicted
       N       E                     dE             d eps       ncg     rms          rms(c)
DAV:   1    -0.851475116711E+03   -0.20384E-05   -0.10161E-04  4520   0.197E-02    0.293E-03
DAV:   2    -0.851475116776E+03   -0.65098E-07   -0.16934E-06  3220   0.253E-03
 117 F= -.85937668E+03 E0= -.85937668E+03  d E =-.375150E-05  mag=     0.0000
quench:  g(F)=  0.000E+00 g(S)=  0.000E+00 dE (1.order)= 0.000E+00
 bond charge predicted
       N       E                     dE             d eps       ncg     rms          rms(c)
DAV:   1    -0.851475119472E+03   -0.27611E-05   -0.15688E-04  4500   0.243E-02    0.357E-03
DAV:   2    -0.851475119574E+03   -0.10143E-06   -0.26639E-06  3940   0.310E-03
 118 F= -.85937669E+03 E0= -.85937669E+03  d E =-.461218E-05  mag=     0.0000
quench:  g(F)=  0.000E+00 g(S)=  0.000E+00 dE (1.order)= 0.000E+00
 bond charge predicted
       N       E                     dE             d eps       ncg     rms          rms(c)
DAV:   1    -0.851475122402E+03   -0.29296E-05   -0.23729E-04  4550   0.298E-02    0.449E-03
DAV:   2    -0.851475122525E+03   -0.12323E-06   -0.39749E-06  4700   0.375E-03
 119 F= -.85937669E+03 E0= -.85937669E+03  d E =-.502799E-05  mag=    -0.0000
quench:  g(F)=  0.000E+00 g(S)=  0.000E+00 dE (1.order)= 0.000E+00
 bond charge predicted
       N       E                     dE             d eps       ncg     rms          rms(c)
DAV:   1    -0.851475125129E+03   -0.27272E-05   -0.34375E-04  4550   0.358E-02    0.547E-03
DAV:   2    -0.851475125301E+03   -0.17171E-06   -0.56787E-06  4700   0.447E-03
 120 F= -.85937670E+03 E0= -.85937670E+03  d E =-.582154E-05  mag=     0.0000
quench:  g(F)=  0.000E+00 g(S)=  0.000E+00 dE (1.order)= 0.000E+00
 bond charge predicted
       N       E                     dE             d eps       ncg     rms          rms(c)
DAV:   1    -0.851475127595E+03   -0.24655E-05   -0.48353E-04  4540   0.421E-02    0.649E-03
DAV:   2    -0.851475127821E+03   -0.22579E-06   -0.76872E-06  4740   0.516E-03
 121 F= -.85937671E+03 E0= -.85937671E+03  d E =-.691832E-05  mag=    -0.0000
quench:  g(F)=  0.000E+00 g(S)=  0.000E+00 dE (1.order)= 0.000E+00
 bond charge predicted
       N       E                     dE             d eps       ncg     rms          rms(c)
DAV:   1    -0.851475130374E+03   -0.27792E-05   -0.70668E-04  4540   0.510E-02    0.773E-03
DAV:   2    -0.851475130755E+03   -0.38108E-06   -0.11282E-05  4700   0.626E-03    0.649E-03
DAV:   3    -0.851475130745E+03    0.98589E-08   -0.49625E-07  3180   0.166E-03
 122 F= -.85937671E+03 E0= -.85937671E+03  d E =-.877966E-05  mag=    -0.0000
quench:  g(F)=  0.000E+00 g(S)=  0.000E+00 dE (1.order)= 0.000E+00
 bond charge predicted
       N       E                     dE             d eps       ncg     rms          rms(c)
DAV:   1    -0.851475133333E+03   -0.25777E-05   -0.10224E-03  4520   0.612E-02    0.634E-03
DAV:   2    -0.851475134439E+03   -0.11063E-05   -0.16474E-05  4640   0.747E-03    0.525E-03
DAV:   3    -0.851475134379E+03    0.60150E-07   -0.36187E-07  3050   0.135E-03
 123 F= -.85937673E+03 E0= -.85937673E+03  d E =-.106475E-04  mag=     0.0000
quench:  g(F)=  0.000E+00 g(S)=  0.000E+00 dE (1.order)= 0.000E+00
 bond charge predicted
       N       E                     dE             d eps       ncg     rms          rms(c)
DAV:   1    -0.851475137522E+03   -0.30826E-05   -0.15236E-03  4540   0.746E-02    0.771E-03
DAV:   2    -0.851475139159E+03   -0.16373E-05   -0.24792E-05  4700   0.915E-03    0.635E-03
DAV:   3    -0.851475139020E+03    0.13896E-06   -0.55319E-07  3340   0.167E-03
[...]
 161 F= -.85937710E+03 E0= -.85937710E+03  d E =-.108772E-04  mag=     0.0000
quench:  g(F)=  0.000E+00 g(S)=  0.000E+00 dE (1.order)= 0.000E+00
 bond charge predicted
       N       E                     dE             d eps       ncg     rms          rms(c)
DAV:   1    -0.851475159658E+03    0.12249E-04   -0.43915E-03  4540   0.129E-01    0.123E-02
DAV:   2    -0.851475166702E+03   -0.70440E-05   -0.88185E-05  4540   0.169E-02    0.937E-03
DAV:   3    -0.851475166319E+03    0.38280E-06   -0.12007E-06  4060   0.240E-03
 162 F= -.85937711E+03 E0= -.85937711E+03  d E =-.108081E-04  mag=    -0.0000
quench:  g(F)=  0.000E+00 g(S)=  0.000E+00 dE (1.order)= 0.000E+00
 bond charge predicted
       N       E                     dE             d eps       ncg     rms          rms(c)
DAV:   1    -0.851475152573E+03    0.14129E-04   -0.52334E-03  4520   0.141E-01    0.137E-02
DAV:   2    -0.851475160369E+03   -0.77961E-05   -0.10079E-04  4540   0.184E-02    0.107E-02
DAV:   3    -0.851475159902E+03    0.46733E-06   -0.17121E-06  4400   0.278E-03
 163 F= -.85937712E+03 E0= -.85937712E+03  d E =-.971250E-05  mag=     0.0000
quench:  g(F)=  0.000E+00 g(S)=  0.000E+00 dE (1.order)= 0.000E+00
 bond charge predicted
       N       E                     dE             d eps       ncg     rms          rms(c)
DAV:   1    -0.851475145869E+03    0.14500E-04   -0.58340E-03  4520   0.149E-01    0.151E-02
DAV:   2    -0.851475153294E+03   -0.74249E-05   -0.10396E-04  4580   0.190E-02    0.122E-02
DAV:   3    -0.851475152656E+03    0.63787E-06   -0.23562E-06  4580   0.321E-03
 164 F= -.85937713E+03 E0= -.85937713E+03  d E =-.118638E-04  mag=     0.0000
quench:  g(F)=  0.000E+00 g(S)=  0.000E+00 dE (1.order)= 0.000E+00
 bond charge predicted
       N       E                     dE             d eps       ncg     rms          rms(c)
DAV:   1    -0.851475135098E+03    0.18196E-04   -0.74015E-03  4520   0.167E-01    0.175E-02
DAV:   2    -0.851475143652E+03   -0.85540E-05   -0.12667E-04  4620   0.211E-02    0.146E-02
DAV:   3    -0.851475142648E+03    0.10047E-05   -0.34806E-06  4860   0.385E-03    0.108E-02
DAV:   4    -0.851475143824E+03   -0.11761E-05   -0.46328E-06  4260   0.471E-03    0.283E-03
DAV:   5    -0.851475143964E+03   -0.14033E-06   -0.11884E-06  3400   0.191E-03
 165 F= -.85937714E+03 E0= -.85937714E+03  d E =-.137025E-04  mag=     0.0000
quench:  g(F)=  0.000E+00 g(S)=  0.000E+00 dE (1.order)= 0.000E+00
 bond charge predicted
       N       E                     dE             d eps       ncg     rms          rms(c)
DAV:   1    -0.851475131056E+03    0.12768E-04   -0.93730E-03  4540   0.188E-01    0.184E-02
DAV:   2    -0.851475142581E+03   -0.11525E-04   -0.16642E-04  4600   0.242E-02    0.155E-02
DAV:   3    -0.851475140823E+03    0.17578E-05   -0.47096E-06  5140   0.449E-03    0.116E-02
DAV:   4    -0.851475141375E+03   -0.55152E-06   -0.61944E-06  4340   0.541E-03
 166 F= -.85937716E+03 E0= -.85937716E+03  d E =-.172797E-04  mag=     0.0000
quench:  g(F)=  0.000E+00 g(S)=  0.000E+00 dE (1.order)= 0.000E+00
 bond charge predicted
       N       E                     dE             d eps       ncg     rms          rms(c)
DAV:   1    -0.851475145685E+03   -0.48616E-05   -0.91897E-05  4640   0.196E-02    0.295E-03
DAV:   2    -0.851475145778E+03   -0.93176E-07   -0.23420E-06  3560   0.300E-03
 167 F= -.85937717E+03 E0= -.85937717E+03  d E =-.435982E-05  mag=    -0.0000
quench:  g(F)=  0.000E+00 g(S)=  0.000E+00 dE (1.order)= 0.000E+00
 bond charge predicted
       N       E                     dE             d eps       ncg     rms          rms(c)
DAV:   1    -0.851475146396E+03   -0.71138E-06   -0.20141E-04  4480   0.292E-02    0.413E-03
DAV:   2    -0.851475146644E+03   -0.24749E-06   -0.46406E-06  5360   0.413E-03
 168 F= -.85937717E+03 E0= -.85937717E+03  d E =-.145923E-05  mag=    -0.0000
quench:  g(F)=  0.000E+00 g(S)=  0.000E+00 dE (1.order)= 0.000E+00
 bond charge predicted
       N       E                     dE             d eps       ncg     rms          rms(c)
DAV:   1    -0.851475147153E+03   -0.75639E-06   -0.24656E-06  3600   0.328E-03    0.240E-03
DAV:   2    -0.851475147147E+03    0.52896E-08   -0.18370E-07  2480   0.852E-04
 169 F= -.85937717E+03 E0= -.85937717E+03  d E =-.499100E-06  mag=    -0.0000
quench:  g(F)=  0.000E+00 g(S)=  0.000E+00 dE (1.order)= 0.000E+00
 bond charge predicted
       N       E                     dE             d eps       ncg     rms          rms(c)
DAV:   1    -0.851475147897E+03   -0.74393E-06   -0.72399E-06  4320   0.554E-03    0.113E-03
DAV:   2    -0.851475147914E+03   -0.17957E-07   -0.21363E-07  2420   0.928E-04
 170 F= -.85937717E+03 E0= -.85937717E+03  d E =-.799993E-06  mag=    -0.0000
quench:  g(F)=  0.000E+00 g(S)=  0.000E+00 dE (1.order)= 0.000E+00
 bond charge predicted
       N       E                     dE             d eps       ncg     rms          rms(c)
DAV:   1    -0.851475148707E+03   -0.81038E-06   -0.13742E-05  4500   0.764E-03    0.134E-03
DAV:   2    -0.851475148725E+03   -0.18168E-07   -0.30870E-07  2420   0.113E-03
 171 F= -.85937717E+03 E0= -.85937717E+03  d E =-.883915E-06  mag=    -0.0000
quench:  g(F)=  0.000E+00 g(S)=  0.000E+00 dE (1.order)= 0.000E+00
 bond charge predicted
       N       E                     dE             d eps       ncg     rms          rms(c)
DAV:   1    -0.851475149220E+03   -0.51279E-06   -0.18351E-05  4460   0.879E-03    0.158E-03
DAV:   2    -0.851475149240E+03   -0.20045E-07   -0.38177E-07  2330   0.126E-03
 172 F= -.85937717E+03 E0= -.85937717E+03  d E =-.632632E-06  mag=     0.0000
quench:  g(F)=  0.000E+00 g(S)=  0.000E+00 dE (1.order)= 0.000E+00
 bond charge predicted
       N       E                     dE             d eps       ncg     rms          rms(c)
DAV:   1    -0.851475149490E+03   -0.27054E-06   -0.21266E-05  4440   0.944E-03    0.165E-03
DAV:   2    -0.851475149516E+03   -0.25611E-07   -0.42899E-07  2390   0.133E-03
 173 F= -.85937717E+03 E0= -.85937717E+03  d E =-.552924E-06  mag=     0.0000
quench:  g(F)=  0.000E+00 g(S)=  0.000E+00 dE (1.order)= 0.000E+00
 bond charge predicted
       N       E                     dE             d eps       ncg     rms          rms(c)
DAV:   1    -0.851475149997E+03   -0.50694E-06   -0.24273E-05  4510   0.100E-02    0.170E-03
DAV:   2    -0.851475150027E+03   -0.30144E-07   -0.46832E-07  2380   0.136E-03
 174 F= -.85937717E+03 E0= -.85937717E+03  d E =-.815268E-06  mag=    -0.0000
quench:  g(F)=  0.000E+00 g(S)=  0.000E+00 dE (1.order)= 0.000E+00
 bond charge predicted
       N       E                     dE             d eps       ncg     rms          rms(c)
DAV:   1    -0.851475150921E+03   -0.92379E-06   -0.36946E-05  4520   0.123E-02    0.192E-03
DAV:   2    -0.851475150964E+03   -0.42732E-07   -0.68090E-07  2410   0.164E-03
 175 F= -.85937717E+03 E0= -.85937717E+03  d E =-.125361E-05  mag=    -0.0000
quench:  g(F)=  0.000E+00 g(S)=  0.000E+00 dE (1.order)= 0.000E+00
 bond charge predicted
       N       E                     dE             d eps       ncg     rms          rms(c)
DAV:   1    -0.851475151993E+03   -0.10721E-05   -0.58848E-05  4520   0.155E-02    0.233E-03
DAV:   2    -0.851475152063E+03   -0.70366E-07   -0.10948E-06  2720   0.208E-03
 176 F= -.85937717E+03 E0= -.85937717E+03  d E =-.143655E-05  mag=     0.0000
quench:  g(F)=  0.000E+00 g(S)=  0.000E+00 dE (1.order)= 0.000E+00
 bond charge predicted
       N       E                     dE             d eps       ncg     rms          rms(c)
DAV:   1    -0.851475153049E+03   -0.10556E-05   -0.87568E-05  4520   0.188E-02    0.284E-03
DAV:   2    -0.851475153146E+03   -0.97731E-07   -0.16643E-06  3200   0.255E-03
 177 F= -.85937718E+03 E0= -.85937718E+03  d E =-.145090E-05  mag=     0.0000
quench:  g(F)=  0.000E+00 g(S)=  0.000E+00 dE (1.order)= 0.000E+00
 bond charge predicted
       N       E                     dE             d eps       ncg     rms          rms(c)
DAV:   1    -0.851475154206E+03   -0.11573E-05   -0.12715E-04  4520   0.226E-02    0.340E-03
DAV:   2    -0.851475154352E+03   -0.14630E-06   -0.24951E-06  3900   0.305E-03
 178 F= -.85937718E+03 E0= -.85937718E+03  d E =-.179320E-05  mag=    -0.0000
quench:  g(F)=  0.000E+00 g(S)=  0.000E+00 dE (1.order)= 0.000E+00
 bond charge predicted
       N       E                     dE             d eps       ncg     rms          rms(c)
DAV:   1    -0.851475155530E+03   -0.13242E-05   -0.18492E-04  4520   0.272E-02    0.410E-03
DAV:   2    -0.851475155710E+03   -0.17984E-06   -0.35159E-06  4500   0.358E-03
 179 F= -.85937718E+03 E0= -.85937718E+03  d E =-.237153E-05  mag=    -0.0000
quench:  g(F)=  0.000E+00 g(S)=  0.000E+00 dE (1.order)= 0.000E+00
 bond charge predicted
       N       E                     dE             d eps       ncg     rms          rms(c)
DAV:   1    -0.851475157109E+03   -0.15792E-05   -0.26867E-04  4520   0.327E-02    0.492E-03
DAV:   2    -0.851475157349E+03   -0.23979E-06   -0.50533E-06  4840   0.427E-03
 180 F= -.85937718E+03 E0= -.85937718E+03  d E =-.256953E-05  mag=    -0.0000
quench:  g(F)=  0.000E+00 g(S)=  0.000E+00 dE (1.order)= 0.000E+00
 bond charge predicted
       N       E                     dE             d eps       ncg     rms          rms(c)
DAV:   1    -0.851475158462E+03   -0.13524E-05   -0.38880E-04  4500   0.393E-02    0.583E-03
DAV:   2    -0.851475158811E+03   -0.34913E-06   -0.73556E-06  4860   0.515E-03
 181 F= -.85937718E+03 E0= -.85937718E+03  d E =-.277042E-05  mag=    -0.0000
quench:  g(F)=  0.000E+00 g(S)=  0.000E+00 dE (1.order)= 0.000E+00
 bond charge predicted
       N       E                     dE             d eps       ncg     rms          rms(c)
DAV:   1    -0.851475160339E+03   -0.18774E-05   -0.55263E-04  4500   0.468E-02    0.696E-03
DAV:   2    -0.851475160821E+03   -0.48220E-06   -0.10472E-05  4820   0.616E-03    0.583E-03
DAV:   3    -0.851475160826E+03   -0.48167E-08   -0.35499E-07  2960   0.141E-03
 182 F= -.85937719E+03 E0= -.85937719E+03  d E =-.371342E-05  mag=    -0.0000
quench:  g(F)=  0.000E+00 g(S)=  0.000E+00 dE (1.order)= 0.000E+00
 bond charge predicted
       N       E                     dE             d eps       ncg     rms          rms(c)
DAV:   1    -0.851475161232E+03   -0.41099E-06   -0.80099E-04  4500   0.563E-02    0.566E-03
DAV:   2    -0.851475162356E+03   -0.11233E-05   -0.14908E-05  4720   0.728E-03    0.461E-03
DAV:   3    -0.851475162315E+03    0.40622E-07   -0.27563E-07  2860   0.119E-03
 183 F= -.85937719E+03 E0= -.85937719E+03  d E =-.394440E-05  mag=    -0.0000
quench:  g(F)=  0.000E+00 g(S)=  0.000E+00 dE (1.order)= 0.000E+00
 bond charge predicted
       N       E                     dE             d eps       ncg     rms          rms(c)
DAV:   1    -0.851475161939E+03    0.41626E-06   -0.11064E-03  4500   0.661E-02    0.664E-03
DAV:   2    -0.851475163434E+03   -0.14950E-05   -0.20573E-05  4700   0.861E-03    0.550E-03
DAV:   3    -0.851475163326E+03    0.10882E-06   -0.40743E-07  3400   0.146E-03
 184 F= -.85937720E+03 E0= -.85937720E+03  d E =-.478959E-05  mag=     0.0000
quench:  g(F)=  0.000E+00 g(S)=  0.000E+00 dE (1.order)= 0.000E+00
 bond charge predicted
       N       E                     dE             d eps       ncg     rms          rms(c)
DAV:   1    -0.851475161852E+03    0.15824E-05   -0.15307E-03  4500   0.780E-02    0.784E-03
DAV:   2    -0.851475163940E+03   -0.20882E-05   -0.28656E-05  4760   0.102E-02    0.654E-03
DAV:   3    -0.851475163757E+03    0.18339E-06   -0.58962E-07  3440   0.174E-03
 185 F= -.85937720E+03 E0= -.85937720E+03  d E =-.401658E-05  mag=    -0.0000
quench:  g(F)=  0.000E+00 g(S)=  0.000E+00 dE (1.order)= 0.000E+00
 bond charge predicted
       N       E                     dE             d eps       ncg     rms          rms(c)
DAV:   1    -0.851475163673E+03    0.26765E-06   -0.17618E-03  4520   0.822E-02    0.847E-03
DAV:   2    -0.851475165591E+03   -0.19187E-05   -0.28903E-05  4720   0.102E-02    0.732E-03
DAV:   3    -0.851475165312E+03    0.27878E-06   -0.76566E-07  3460   0.197E-03
 186 F= -.85937721E+03 E0= -.85937721E+03  d E =-.494221E-05  mag=     0.0000
quench:  g(F)=  0.000E+00 g(S)=  0.000E+00 dE (1.order)= 0.000E+00
 bond charge predicted
       N       E                     dE             d eps       ncg     rms          rms(c)
DAV:   1    -0.851475164536E+03    0.10551E-05   -0.24485E-03  4520   0.962E-02    0.989E-03
DAV:   2    -0.851475167126E+03   -0.25899E-05   -0.39681E-05  4780   0.118E-02    0.870E-03
DAV:   3    -0.851475166637E+03    0.48860E-06   -0.11974E-06  3860   0.242E-03
 187 F= -.85937721E+03 E0= -.85937721E+03  d E =-.582502E-05  mag=    -0.0000
quench:  g(F)=  0.000E+00 g(S)=  0.000E+00 dE (1.order)= 0.000E+00
 bond charge predicted
       N       E                     dE             d eps       ncg     rms          rms(c)
DAV:   1    -0.851475163069E+03    0.40567E-05   -0.33276E-03  4540   0.111E-01    0.115E-02
DAV:   2    -0.851475166141E+03   -0.30719E-05   -0.50046E-05  4800   0.132E-02    0.102E-02
DAV:   3    -0.851475165404E+03    0.73695E-06   -0.16656E-06  4020   0.287E-03
 188 F= -.85937722E+03 E0= -.85937722E+03  d E =-.735169E-05  mag=     0.0000
quench:  g(F)=  0.000E+00 g(S)=  0.000E+00 dE (1.order)= 0.000E+00
 bond charge predicted
       N       E                     dE             d eps       ncg     rms          rms(c)
DAV:   1    -0.851475156131E+03    0.10010E-04   -0.49237E-03  4580   0.135E-01    0.141E-02
DAV:   2    -0.851475160741E+03   -0.46101E-05   -0.75567E-05  4840   0.161E-02    0.126E-02
DAV:   3    -0.851475159426E+03    0.13154E-05   -0.25956E-06  4360   0.353E-03    0.878E-03
DAV:   4    -0.851475159765E+03   -0.33891E-06   -0.42764E-06  4240   0.424E-03
 189 F= -.85937722E+03 E0= -.85937722E+03  d E =-.557574E-05  mag=    -0.0000
quench:  g(F)=  0.000E+00 g(S)=  0.000E+00 dE (1.order)= 0.000E+00
 bond charge predicted
       N       E                     dE             d eps       ncg     rms          rms(c)
DAV:   1    -0.851475165162E+03   -0.57362E-05   -0.15190E-04  4480   0.251E-02    0.301E-03
DAV:   2    -0.851475165452E+03   -0.28962E-06   -0.39936E-06  4600   0.379E-03
 190 F= -.85937723E+03 E0= -.85937723E+03  d E =-.653141E-05  mag=    -0.0000
quench:  g(F)=  0.000E+00 g(S)=  0.000E+00 dE (1.order)= 0.000E+00
 bond charge predicted
       N       E                     dE             d eps       ncg     rms          rms(c)
DAV:   1    -0.851475163619E+03    0.15434E-05   -0.30765E-04  4480   0.358E-02    0.555E-03
DAV:   2    -0.851475163937E+03   -0.31885E-06   -0.76619E-06  5660   0.528E-03
 191 F= -.85937723E+03 E0= -.85937723E+03  d E =0.169110E-07  mag=    -0.0000
quench:  g(F)=  0.000E+00 g(S)=  0.000E+00 dE (1.order)= 0.000E+00
 bond charge predicted
       N       E                     dE             d eps       ncg     rms          rms(c)
DAV:   1    -0.851475164198E+03   -0.57989E-06   -0.49211E-06  4300   0.464E-03    0.284E-03
DAV:   2    -0.851475164185E+03    0.13475E-07   -0.38294E-07  2420   0.118E-03
 192 F= -.85937723E+03 E0= -.85937723E+03  d E =-.396907E-06  mag=    -0.0000
quench:  g(F)=  0.000E+00 g(S)=  0.000E+00 dE (1.order)= 0.000E+00
 bond charge predicted
       N       E                     dE             d eps       ncg     rms          rms(c)
DAV:   1    -0.851475165224E+03   -0.10253E-05   -0.13735E-05  4480   0.765E-03    0.118E-03
DAV:   2    -0.851475165257E+03   -0.33499E-07   -0.41803E-07  2360   0.128E-03
 193 F= -.85937723E+03 E0= -.85937723E+03  d E =-.138205E-05  mag=     0.0000
quench:  g(F)=  0.000E+00 g(S)=  0.000E+00 dE (1.order)= 0.000E+00
 bond charge predicted
       N       E                     dE             d eps       ncg     rms          rms(c)
DAV:   1    -0.851475165815E+03   -0.59139E-06   -0.21147E-05  4560   0.940E-03    0.153E-03
DAV:   2    -0.851475165833E+03   -0.18023E-07   -0.47751E-07  2360   0.141E-03
 194 F= -.85937723E+03 E0= -.85937723E+03  d E =-.102967E-05  mag=     0.0000
quench:  g(F)=  0.000E+00 g(S)=  0.000E+00 dE (1.order)= 0.000E+00
 bond charge predicted
       N       E                     dE             d eps       ncg     rms          rms(c)
DAV:   1    -0.851475165550E+03    0.26481E-06   -0.26838E-05  4560   0.106E-02    0.183E-03
DAV:   2    -0.851475165569E+03   -0.19209E-07   -0.56913E-07  2420   0.153E-03
 195 F= -.85937723E+03 E0= -.85937723E+03  d E =-.379182E-06  mag=    -0.0000
quench:  g(F)=  0.000E+00 g(S)=  0.000E+00 dE (1.order)= 0.000E+00
 bond charge predicted
       N       E                     dE             d eps       ncg     rms          rms(c)
DAV:   1    -0.851475165581E+03   -0.30508E-07   -0.20868E-07  2420   0.101E-03    0.111E-03
DAV:   2    -0.851475165583E+03   -0.21682E-08   -0.33477E-08  2360   0.401E-04
 196 F= -.85937723E+03 E0= -.85937723E+03  d E =-.524682E-07  mag=    -0.0000
quench:  g(F)=  0.000E+00 g(S)=  0.000E+00 dE (1.order)= 0.000E+00
 bond charge predicted
       N       E                     dE             d eps       ncg     rms          rms(c)
DAV:   1    -0.851475165644E+03   -0.62813E-07   -0.31869E-07  2360   0.120E-03    0.859E-04
DAV:   2    -0.851475165646E+03   -0.24302E-08   -0.18548E-08  2360   0.339E-04
 197 F= -.85937723E+03 E0= -.85937723E+03  d E =-.129068E-06  mag=     0.0000
quench:  g(F)=  0.000E+00 g(S)=  0.000E+00 dE (1.order)= 0.000E+00
 bond charge predicted
       N       E                     dE             d eps       ncg     rms          rms(c)
DAV:   1    -0.851475165717E+03   -0.73458E-07   -0.63261E-07  2360   0.167E-03    0.860E-04
DAV:   2    -0.851475165721E+03   -0.36234E-08   -0.34407E-08  2300   0.444E-04
 198 F= -.85937723E+03 E0= -.85937723E+03  d E =-.163022E-06  mag=     0.0000
quench:  g(F)=  0.000E+00 g(S)=  0.000E+00 dE (1.order)= 0.000E+00
 bond charge predicted
       N       E                     dE             d eps       ncg     rms          rms(c)
DAV:   1    -0.851475165788E+03   -0.70700E-07   -0.87663E-07  2300   0.194E-03    0.877E-04
DAV:   2    -0.851475165792E+03   -0.45111E-08   -0.48339E-08  2300   0.510E-04
 199 F= -.85937724E+03 E0= -.85937724E+03  d E =-.179270E-06  mag=     0.0000
quench:  g(F)=  0.000E+00 g(S)=  0.000E+00 dE (1.order)= 0.000E+00
 bond charge predicted
       N       E                     dE             d eps       ncg     rms          rms(c)
DAV:   1    -0.851475165837E+03   -0.48829E-07   -0.11821E-06  2380   0.224E-03    0.900E-04
DAV:   2    -0.851475165841E+03   -0.46566E-08   -0.62712E-08  2300   0.571E-04
 200 F= -.85937724E+03 E0= -.85937724E+03  d E =-.199975E-06  mag=    -0.0000
quench:  g(F)=  0.000E+00 g(S)=  0.000E+00 dE (1.order)= 0.000E+00
 bond charge predicted
       N       E                     dE             d eps       ncg     rms          rms(c)
DAV:   1    -0.851475165828E+03    0.88403E-08   -0.16216E-06  2680   0.262E-03    0.924E-04
DAV:   2    -0.851475165834E+03   -0.63956E-08   -0.73015E-08  2300   0.603E-04
 201 F= -.85937724E+03 E0= -.85937724E+03  d E =-.166684E-06  mag=    -0.0000
quench:  g(F)=  0.000E+00 g(S)=  0.000E+00 dE (1.order)= 0.000E+00
 bond charge predicted
       N       E                     dE             d eps       ncg     rms          rms(c)
DAV:   1    -0.851475165771E+03    0.56818E-07   -0.22431E-06  3560   0.304E-03    0.950E-04
DAV:   2    -0.851475165776E+03   -0.48312E-08   -0.58569E-08  2300   0.522E-04
 202 F= -.85937724E+03 E0= -.85937724E+03  d E =-.195384E-06  mag=     0.0000
quench:  g(F)=  0.000E+00 g(S)=  0.000E+00 dE (1.order)= 0.000E+00
 bond charge predicted
       N       E                     dE             d eps       ncg     rms          rms(c)
DAV:   1    -0.851475165660E+03    0.11050E-06   -0.30647E-06  3940   0.355E-03    0.969E-04
DAV:   2    -0.851475165666E+03   -0.58499E-08   -0.68589E-08  2300   0.554E-04
 203 F= -.85937724E+03 E0= -.85937724E+03  d E =-.217845E-06  mag=    -0.0000
quench:  g(F)=  0.000E+00 g(S)=  0.000E+00 dE (1.order)= 0.000E+00
 reached required accuracy - stopping structural energy minimisation
