<?xml version="1.0" encoding="ISO-8859-1"?>
<modeling>
 <generator>
  <i name="program" type="string">vasp </i>
  <i name="version" type="string">6.4.2  </i>
  <i name="subversion" type="string">20Jul23 (build Aug 26 2025 15:10:52) complex                          parallel </i>
  <i name="platform" type="string">LinuxIFC </i>
  <i name="date" type="string">2025 12 07 </i>
  <i name="time" type="string">12:31:29 </i>
 </generator>
 <incar>
  <i type="int" name="ISTART">     0</i>
  <i type="string" name="ALGO">Normal</i>
  <i type="logical" name="ADDGRID"> T  </i>
  <i type="int" name="ISPIN">     2</i>
  <i type="int" name="IMIX">     4</i>
  <i name="AMIX">      0.20000000</i>
  <i name="BMIX">      0.00010000</i>
  <i name="AMIX_MAG">      0.80000000</i>
  <i name="BMIX_MAG">      0.00010000</i>
  <i type="int" name="ICHARG">     2</i>
  <i type="int" name="NELM">   200</i>
  <i type="int" name="IBRION">     3</i>
  <i name="EDIFF">      0.00000100</i>
  <i name="EDIFFG">     -0.03000000</i>
  <i type="int" name="NSW">  1000</i>
  <i type="int" name="ISIF">     2</i>
  <i type="int" name="ISYM">     0</i>
  <i name="ENCUT">    520.00000000</i>
  <i name="POTIM">      0.00000000</i>
  <v name="MAGMOM">      0.60000000      0.60000000      0.60000000      0.60000000      0.60000000      0.60000000      0.60000000      0.60000000      0.60000000      0.60000000      0.60000000      0.60000000      0.60000000      0.60000000      0.60000000      0.60000000      0.60000000      0.60000000      0.60000000      0.60000000
      0.60000000      0.60000000      0.60000000      0.60000000      0.60000000      0.60000000      0.60000000      0.60000000      0.60000000      0.60000000      0.60000000      0.60000000      0.60000000      0.60000000      0.60000000      0.60000000      0.60000000      0.60000000      0.60000000      0.60000000
      0.60000000      0.60000000      0.60000000      0.60000000      0.60000000      0.60000000      0.60000000      0.60000000      0.60000000      0.60000000      0.60000000      0.60000000      0.60000000      0.60000000      0.60000000      0.60000000      0.60000000      0.60000000      0.60000000      0.60000000
      0.60000000      0.60000000      0.60000000      0.60000000      0.60000000      0.60000000      0.60000000      0.60000000      0.60000000      0.60000000      0.60000000      0.60000000      0.60000000      0.60000000      0.60000000      0.60000000      0.60000000      0.60000000      0.60000000      0.60000000
      0.60000000      0.60000000      0.60000000      0.60000000      0.60000000      0.60000000      0.60000000      0.60000000      0.60000000      0.60000000      0.60000000      0.60000000      0.60000000      0.60000000      0.60000000      0.60000000      0.60000000      0.60000000      0.60000000</v>
  <i type="string" name="LREAL">Auto</i>
  <i type="int" name="ISMEAR">     0</i>
  <i name="SIGMA">      0.05000000</i>
  <i type="logical" name="LWAVE"> F  </i>
  <i type="logical" name="LCHARG"> F  </i>
  <i type="logical" name="LASPH"> T  </i>
  <i type="int" name="IVDW">    12</i>
  <i name="SPRING">     -5.00000000</i>
 </incar>
 <primitive_cell>
  <structure name="primitive_cell" >
   <crystal>
    <varray name="basis" >
     <v>      17.27103806       0.00000000       0.00000000 </v>
     <v>      -8.63551903      14.95715771       0.00000000 </v>
     <v>       0.00000000       0.00000000      15.00000000 </v>
    </varray>
    <i name="volume">   3874.88459904 </i>
    <varray name="rec_basis" >
     <v>       0.05790040       0.03342881       0.00000000 </v>
     <v>       0.00000000       0.06685762       0.00000000 </v>
     <v>       0.00000000       0.00000000       0.06666667 </v>
    </varray>
   </crystal>
   <varray name="positions" >
    <v>       0.99989566       0.00030698       0.49449607 </v>
    <v>       0.99912402       0.14277471       0.48857603 </v>
    <v>       0.99884255       0.28564761       0.48508683 </v>
    <v>       0.99937725       0.42885440       0.48811594 </v>
    <v>       0.00026562       0.57208435       0.49397205 </v>
    <v>       0.00167779       0.71545819       0.50054177 </v>
    <v>       0.00141146       0.85845437       0.50056109 </v>
    <v>       0.14282638       0.00064792       0.48043623 </v>
    <v>       0.14165810       0.14268158       0.47373101 </v>
    <v>       0.14005058       0.28447122       0.46497713 </v>
    <v>       0.14046402       0.42800850       0.46547049 </v>
    <v>       0.14216737       0.57145099       0.47389295 </v>
    <v>       0.14312371       0.71474051       0.48072046 </v>
    <v>       0.14338741       0.85796786       0.48411021 </v>
    <v>       0.28586694       0.00075569       0.47634412 </v>
    <v>       0.28520655       0.14309785       0.46598220 </v>
    <v>       0.28238400       0.28405623       0.44385273 </v>
    <v>       0.27778319       0.42478715       0.42785737 </v>
    <v>       0.28368690       0.57078747       0.44721744 </v>
    <v>       0.28553939       0.71472783       0.46799944 </v>
    <v>       0.28590737       0.85788810       0.47688894 </v>
    <v>       0.42887912       0.00105120       0.48204912 </v>
    <v>       0.42874482       0.14425335       0.47896608 </v>
    <v>       0.42680873       0.28398100       0.46628474 </v>
    <v>       0.42712460       0.71642429       0.46974083 </v>
    <v>       0.42871007       0.85778256       0.48047239 </v>
    <v>       0.57125328       0.00074268       0.49221220 </v>
    <v>       0.57124704       0.14386722       0.49178933 </v>
    <v>       0.57189967       0.28807311       0.49746534 </v>
    <v>       0.57186808       0.85753885       0.49813916 </v>
    <v>       0.71394328       0.00014252       0.50432096 </v>
    <v>       0.71397571       0.14343079       0.49871726 </v>
    <v>       0.71390751       0.28662245       0.50409542 </v>
    <v>       0.71377437       0.42829182       0.52447222 </v>
    <v>       0.72890848       0.57698668       0.56803964 </v>
    <v>       0.72682546       0.72181879       0.56157382 </v>
    <v>       0.71343663       0.85768035       0.52277391 </v>
    <v>       0.85720494       0.00062238       0.50725401 </v>
    <v>       0.85659082       0.14313726       0.49868111 </v>
    <v>       0.85663329       0.28607590       0.49840982 </v>
    <v>       0.85741263       0.42913920       0.50676857 </v>
    <v>       0.85944055       0.57295841       0.51898228 </v>
    <v>       0.86209973       0.71709539       0.52846579 </v>
    <v>       0.85901130       0.85856527       0.51963332 </v>
    <v>       0.04701757       0.09533678       0.48565363 </v>
    <v>       0.04583937       0.23751754       0.47995219 </v>
    <v>       0.04607960       0.38080465       0.47993899 </v>
    <v>       0.04742257       0.52417516       0.48524990 </v>
    <v>       0.04826846       0.66740699       0.49121531 </v>
    <v>       0.04866219       0.81056199       0.49484417 </v>
    <v>       0.04796422       0.95307369       0.49137904 </v>
    <v>       0.18982614       0.09525263       0.47187728 </v>
    <v>       0.18798718       0.23718109       0.46194560 </v>
    <v>       0.18579460       0.37894221       0.45421735 </v>
    <v>       0.18861995       0.52328436       0.46256340 </v>
    <v>       0.19019870       0.66710286       0.47270972 </v>
    <v>       0.19083546       0.81024682       0.47973037 </v>
    <v>       0.19073918       0.95307695       0.47941159 </v>
    <v>       0.33349526       0.09633935       0.47312379 </v>
    <v>       0.33353974       0.23819168       0.45596525 </v>
    <v>       0.31922635       0.37247837       0.41575341 </v>
    <v>       0.32152200       0.51915615       0.42216245 </v>
    <v>       0.33403957       0.66787752       0.45951176 </v>
    <v>       0.33353429       0.80993409       0.47454560 </v>
    <v>       0.33345875       0.95315380       0.47818123 </v>
    <v>       0.47623444       0.09632370       0.48466721 </v>
    <v>       0.47551466       0.23982563       0.48115904 </v>
    <v>       0.47554803       0.80930304       0.48326042 </v>
    <v>       0.47624623       0.95322938       0.48530899 </v>
    <v>       0.61861347       0.09595142       0.49458400 </v>
    <v>       0.61872946       0.23931325       0.49810861 </v>
    <v>       0.62039880       0.38073379       0.51439409 </v>
    <v>       0.62018862       0.81322793       0.51364619 </v>
    <v>       0.61879847       0.95287497       0.49854383 </v>
    <v>       0.76154412       0.09571275       0.50091723 </v>
    <v>       0.76154204       0.23864235       0.50063288 </v>
    <v>       0.76207003       0.38162394       0.51256368 </v>
    <v>       0.76517591       0.52534982       0.53796042 </v>
    <v>       0.77035908       0.67094565       0.55580778 </v>
    <v>       0.76403903       0.81110283       0.53590658 </v>
    <v>       0.76187974       0.95292118       0.51228223 </v>
    <v>       0.90423399       0.09529427       0.49854214 </v>
    <v>       0.90401871       0.23830397       0.49442026 </v>
    <v>       0.90442599       0.38153419       0.49798434 </v>
    <v>       0.90560183       0.52476227       0.50586228 </v>
    <v>       0.90761770       0.66825605       0.51661549 </v>
    <v>       0.90722486       0.81145187       0.51661367 </v>
    <v>       0.90524788       0.95297993       0.50684086 </v>
    <v>       0.46267046       0.35656764       0.46483263 </v>
    <v>       0.58439332       0.41736548       0.51803564 </v>
    <v>       0.58322927       0.74098482       0.51812832 </v>
    <v>       0.46364692       0.68058475       0.46774559 </v>
    <v>       0.49739938       0.52458971       0.44724775 </v>
    <v>       0.55794238       0.56457033       0.53081335 </v>
    <v>       0.40040942       0.41144858       0.37456303 </v>
    <v>       0.40837254       0.56226733       0.39288200 </v>
    <v>       0.63956929       0.67754187       0.59037290 </v>
    <v>       0.64881809       0.53495148       0.61088148 </v>
    <v>       0.51919589       0.50883548       0.50000005 </v>
   </varray>
  </structure>
  <varray name="primitive_index" >
   <v type="int" >        1 </v>
   <v type="int" >        2 </v>
   <v type="int" >        3 </v>
   <v type="int" >        4 </v>
   <v type="int" >        5 </v>
   <v type="int" >        6 </v>
   <v type="int" >        7 </v>
   <v type="int" >        8 </v>
   <v type="int" >        9 </v>
   <v type="int" >       10 </v>
   <v type="int" >       11 </v>
   <v type="int" >       12 </v>
   <v type="int" >       13 </v>
   <v type="int" >       14 </v>
   <v type="int" >       15 </v>
   <v type="int" >       16 </v>
   <v type="int" >       17 </v>
   <v type="int" >       18 </v>
   <v type="int" >       19 </v>
   <v type="int" >       20 </v>
   <v type="int" >       21 </v>
   <v type="int" >       22 </v>
   <v type="int" >       23 </v>
   <v type="int" >       24 </v>
   <v type="int" >       25 </v>
   <v type="int" >       26 </v>
   <v type="int" >       27 </v>
   <v type="int" >       28 </v>
   <v type="int" >       29 </v>
   <v type="int" >       30 </v>
   <v type="int" >       31 </v>
   <v type="int" >       32 </v>
   <v type="int" >       33 </v>
   <v type="int" >       34 </v>
   <v type="int" >       35 </v>
   <v type="int" >       36 </v>
   <v type="int" >       37 </v>
   <v type="int" >       38 </v>
   <v type="int" >       39 </v>
   <v type="int" >       40 </v>
   <v type="int" >       41 </v>
   <v type="int" >       42 </v>
   <v type="int" >       43 </v>
   <v type="int" >       44 </v>
   <v type="int" >       45 </v>
   <v type="int" >       46 </v>
   <v type="int" >       47 </v>
   <v type="int" >       48 </v>
   <v type="int" >       49 </v>
   <v type="int" >       50 </v>
   <v type="int" >       51 </v>
   <v type="int" >       52 </v>
   <v type="int" >       53 </v>
   <v type="int" >       54 </v>
   <v type="int" >       55 </v>
   <v type="int" >       56 </v>
   <v type="int" >       57 </v>
   <v type="int" >       58 </v>
   <v type="int" >       59 </v>
   <v type="int" >       60 </v>
   <v type="int" >       61 </v>
   <v type="int" >       62 </v>
   <v type="int" >       63 </v>
   <v type="int" >       64 </v>
   <v type="int" >       65 </v>
   <v type="int" >       66 </v>
   <v type="int" >       67 </v>
   <v type="int" >       68 </v>
   <v type="int" >       69 </v>
   <v type="int" >       70 </v>
   <v type="int" >       71 </v>
   <v type="int" >       72 </v>
   <v type="int" >       73 </v>
   <v type="int" >       74 </v>
   <v type="int" >       75 </v>
   <v type="int" >       76 </v>
   <v type="int" >       77 </v>
   <v type="int" >       78 </v>
   <v type="int" >       79 </v>
   <v type="int" >       80 </v>
   <v type="int" >       81 </v>
   <v type="int" >       82 </v>
   <v type="int" >       83 </v>
   <v type="int" >       84 </v>
   <v type="int" >       85 </v>
   <v type="int" >       86 </v>
   <v type="int" >       87 </v>
   <v type="int" >       88 </v>
   <v type="int" >       89 </v>
   <v type="int" >       90 </v>
   <v type="int" >       91 </v>
   <v type="int" >       92 </v>
   <v type="int" >       93 </v>
   <v type="int" >       94 </v>
   <v type="int" >       95 </v>
   <v type="int" >       96 </v>
   <v type="int" >       97 </v>
   <v type="int" >       98 </v>
   <v type="int" >       99 </v>
  </varray>
 </primitive_cell>
 <kpoints>
  <generation param="Gamma">
   <v type="int" name="divisions">       2        2        1 </v>
   <v name="usershift">      0.00000000       0.00000000       0.00000000 </v>
   <v name="genvec1">      0.50000000       0.00000000       0.00000000 </v>
   <v name="genvec2">      0.00000000       0.50000000       0.00000000 </v>
   <v name="genvec3">      0.00000000       0.00000000       1.00000000 </v>
   <v name="shift">      0.00000000       0.00000000       0.00000000 </v>
  </generation>
  <varray name="kpointlist" >
   <v>       0.00000000       0.00000000       0.00000000 </v>
   <v>       0.50000000       0.00000000       0.00000000 </v>
   <v>       0.00000000       0.50000000       0.00000000 </v>
   <v>       0.50000000       0.50000000       0.00000000 </v>
  </varray>
  <varray name="weights" >
   <v>       0.25000000 </v>
   <v>       0.25000000 </v>
   <v>       0.25000000 </v>
   <v>       0.25000000 </v>
  </varray>
 </kpoints>
 <parameters>
  <separator name="general" >
   <i type="string" name="SYSTEM">unknown system</i>
   <i type="logical" name="LCOMPAT"> F  </i>
  </separator>
  <separator name="electronic" >
   <i type="string" name="PREC">normal</i>
   <i name="ENMAX">    520.00000000</i>
   <i name="ENAUG">    644.87300000</i>
   <i name="EDIFF">      0.00000100</i>
   <i type="int" name="IALGO">    38</i>
   <i type="int" name="IWAVPR">    11</i>
   <i type="int" name="NBANDS">   280</i>
   <i type="int" name="NBANDSLOW">    -1</i>
   <i type="int" name="NBANDSHIGH">    -1</i>
   <i name="NELECT">    392.00000000</i>
   <i type="int" name="TURBO">     0</i>
   <i type="int" name="IRESTART">     0</i>
   <i type="int" name="NREBOOT">     0</i>
   <i type="int" name="NMIN">     0</i>
   <i name="EREF">      0.00000000</i>
   <separator name="electronic smearing" >
    <i type="int" name="ISMEAR">     0</i>
    <i name="SIGMA">      0.05000000</i>
    <i name="KSPACING">      0.50000000</i>
    <i type="logical" name="KGAMMA"> T  </i>
    <i type="logical" name="KBLOWUP"> T  </i>
   </separator>
   <separator name="electronic projectors" >
    <i type="logical" name="LREAL"> T  </i>
    <v name="ROPT">     -0.00050000     -0.00050000     -0.00050000     -0.00050000</v>
    <i type="int" name="LMAXPAW">  -100</i>
    <i type="int" name="LMAXMIX">     2</i>
    <i type="logical" name="NLSPLINE"> F  </i>
   </separator>
   <separator name="electronic startup" >
    <i type="int" name="ISTART">     0</i>
    <i type="int" name="ICHARG">     2</i>
    <i type="int" name="INIWAV">     1</i>
   </separator>
   <separator name="electronic spin" >
    <i type="int" name="ISPIN">     2</i>
    <i type="logical" name="LNONCOLLINEAR"> F  </i>
    <v name="MAGMOM">      0.60000000      0.60000000      0.60000000      0.60000000      0.60000000      0.60000000      0.60000000      0.60000000      0.60000000      0.60000000      0.60000000      0.60000000      0.60000000      0.60000000      0.60000000      0.60000000      0.60000000      0.60000000      0.60000000      0.60000000
      0.60000000      0.60000000      0.60000000      0.60000000      0.60000000      0.60000000      0.60000000      0.60000000      0.60000000      0.60000000      0.60000000      0.60000000      0.60000000      0.60000000      0.60000000      0.60000000      0.60000000      0.60000000      0.60000000      0.60000000
      0.60000000      0.60000000      0.60000000      0.60000000      0.60000000      0.60000000      0.60000000      0.60000000      0.60000000      0.60000000      0.60000000      0.60000000      0.60000000      0.60000000      0.60000000      0.60000000      0.60000000      0.60000000      0.60000000      0.60000000
      0.60000000      0.60000000      0.60000000      0.60000000      0.60000000      0.60000000      0.60000000      0.60000000      0.60000000      0.60000000      0.60000000      0.60000000      0.60000000      0.60000000      0.60000000      0.60000000      0.60000000      0.60000000      0.60000000      0.60000000
      0.60000000      0.60000000      0.60000000      0.60000000      0.60000000      0.60000000      0.60000000      0.60000000      0.60000000      0.60000000      0.60000000      0.60000000      0.60000000      0.60000000      0.60000000      0.60000000      0.60000000      0.60000000      0.60000000</v>
    <i name="NUPDOWN">     -1.00000000</i>
    <i type="logical" name="LSORBIT"> F  </i>
    <v name="SAXIS">      0.00000000      0.00000000      1.00000000</v>
    <i type="logical" name="LSPIRAL"> F  </i>
    <v name="QSPIRAL">      0.00000000      0.00000000      0.00000000</v>
    <i type="logical" name="LZEROZ"> F  </i>
   </separator>
   <separator name="electronic exchange-correlation" >
    <i type="logical" name="LASPH"> T  </i>
    <i type="logical" name="LMETAGGA"> F  </i>
   </separator>
   <separator name="electronic convergence" >
    <i type="int" name="NELM">   200</i>
    <i type="int" name="NELMDL">    -5</i>
    <i type="int" name="NELMIN">     2</i>
    <i name="ENINI">    520.00000000</i>
    <separator name="electronic convergence detail" >
     <i type="logical" name="LDIAG"> T  </i>
     <i type="logical" name="LSUBROT"> F  </i>
     <i name="WEIMIN">      0.00100000</i>
     <i name="EBREAK">      0.00000000</i>
     <i name="DEPER">      0.30000000</i>
     <i type="int" name="NRMM">     4</i>
     <i name="TIME">      0.40000000</i>
    </separator>
   </separator>
   <separator name="electronic mixer" >
    <i name="AMIX">      0.20000000</i>
    <i name="BMIX">      0.00010000</i>
    <i name="AMIN">      0.10000000</i>
    <i name="AMIX_MAG">      0.80000000</i>
    <i name="BMIX_MAG">      0.00010000</i>
    <separator name="electronic mixer details" >
     <i type="int" name="IMIX">     4</i>
     <i type="logical" name="MIXFIRST"> F  </i>
     <i type="int" name="MAXMIX">   -45</i>
     <i name="WC">    100.00000000</i>
     <i type="int" name="INIMIX">     1</i>
     <i type="int" name="MIXPRE">     1</i>
     <i type="int" name="MREMOVE">     5</i>
    </separator>
   </separator>
   <separator name="electronic dipolcorrection" >
    <i type="logical" name="LDIPOL"> F  </i>
    <i type="logical" name="LMONO"> F  </i>
    <i type="int" name="IDIPOL">     0</i>
    <i name="EPSILON">      1.00000000</i>
    <v name="DIPOL">   -100.00000000   -100.00000000   -100.00000000</v>
    <i name="EFIELD">      0.00000000</i>
   </separator>
  </separator>
  <separator name="grids" >
   <i type="int" name="NGX">    96</i>
   <i type="int" name="NGY">    96</i>
   <i type="int" name="NGZ">    84</i>
   <i type="int" name="NGXF">   192</i>
   <i type="int" name="NGYF">   192</i>
   <i type="int" name="NGZF">   168</i>
   <i type="logical" name="ADDGRID"> T  </i>
  </separator>
  <separator name="ionic" >
   <i type="int" name="NSW">  1000</i>
   <i type="int" name="IBRION">     3</i>
   <i type="int" name="MDALGO">     0</i>
   <i type="int" name="ISIF">     2</i>
   <i name="PSTRESS">      0.00000000</i>
   <i name="EDIFFG">     -0.03000000</i>
   <i type="int" name="NFREE">     0</i>
   <i name="POTIM">      0.00000000</i>
   <i name="SMASS">     -3.00000000</i>
   <i name="SCALEE">      1.00000000</i>
  </separator>
  <separator name="ionic md" >
   <i name="TEBEG">      0.00010000</i>
   <i name="TEEND">      0.00010000</i>
   <i type="int" name="NBLOCK">     1</i>
   <i type="int" name="KBLOCK">  1000</i>
   <i type="int" name="NPACO">   256</i>
   <i name="APACO">     10.00000000</i>
  </separator>
  <separator name="symmetry" >
   <i type="int" name="ISYM">     0</i>
   <i name="SYMPREC">      0.00001000</i>
  </separator>
  <separator name="dos" >
   <i type="int" name="LORBIT">     0</i>
   <v name="RWIGS">     -1.00000000     -1.00000000     -1.00000000     -1.00000000</v>
   <i type="int" name="NEDOS">   301</i>
   <i name="EMIN">     10.00000000</i>
   <i name="EMAX">    -10.00000000</i>
   <i name="EFERMI">      0.00000000</i>
  </separator>
  <separator name="writing" >
   <i type="int" name="NWRITE">     2</i>
   <i type="logical" name="LWAVE"> F  </i>
   <i type="logical" name="LDOWNSAMPLE"> F  </i>
   <i type="logical" name="LCHARG"> F  </i>
   <i type="logical" name="LPARD"> F  </i>
   <i type="logical" name="LVTOT"> F  </i>
   <i type="logical" name="LVHAR"> F  </i>
   <i type="logical" name="LELF"> F  </i>
   <i type="logical" name="LOPTICS"> F  </i>
   <v name="STM">      0.00000000      0.00000000      0.00000000      0.00000000      0.00000000      0.00000000      0.00000000</v>
  </separator>
  <separator name="performance" >
   <i type="int" name="NPAR">     5</i>
   <i type="int" name="NSIM">     4</i>
   <i type="int" name="NBLK">    -1</i>
   <i type="logical" name="LPLANE"> T  </i>
   <i type="logical" name="LSCALAPACK"> T  </i>
   <i type="logical" name="LSCAAWARE"> F  </i>
   <i type="logical" name="LSCALU"> F  </i>
   <i type="logical" name="LASYNC"> F  </i>
   <i type="logical" name="LORBITALREAL"> F  </i>
  </separator>
  <separator name="miscellaneous" >
   <i type="int" name="IDIOT">     3</i>
   <i type="int" name="PHON_NSTRUCT">    -1</i>
   <i type="logical" name="LMUSIC"> F  </i>
   <v name="POMASS">     12.01100000      1.00000000     18.99800000     16.00000000</v>
   <v name="DARWINR">      0.00000000      0.00000000      0.00000000      0.00000000</v>
   <v name="DARWINV">      1.00000000      1.00000000      1.00000000      1.00000000</v>
   <i type="logical" name="LCORR"> T  </i>
  </separator>
  <i type="logical" name="GGA_COMPAT"> T  </i>
  <i type="logical" name="LBERRY"> F  </i>
  <i type="int" name="ICORELEVEL">     0</i>
  <i type="logical" name="LDAU"> F  </i>
  <i type="int" name="I_CONSTRAINED_M">     0</i>
  <separator name="electronic exchange-correlation" >
   <i type="string" name="GGA">--</i>
   <i type="int" name="VOSKOWN">     0</i>
   <i type="logical" name="LHFCALC"> F  </i>
   <i type="string" name="PRECFOCK"></i>
   <i type="logical" name="LSYMGRAD"> F  </i>
   <i type="logical" name="LHFONE"> F  </i>
   <i type="logical" name="LRHFCALC"> F  </i>
   <i type="logical" name="LTHOMAS"> F  </i>
   <i type="logical" name="LMODELHF"> F  </i>
   <i type="logical" name="LFOCKACE"> F  </i>
   <i name="ENCUT4O">     -1.00000000</i>
   <i type="int" name="EXXOEP">     0</i>
   <i type="int" name="FOURORBIT">     0</i>
   <i name="AEXX">      0.00000000</i>
   <i name="HFALPHA">      0.00000000</i>
   <i name="MCALPHA">      0.00000000</i>
   <i name="ALDAX">      1.00000000</i>
   <i name="AGGAX">      1.00000000</i>
   <i name="ALDAC">      1.00000000</i>
   <i name="AGGAC">      1.00000000</i>
   <i type="int" name="NKREDX">     1</i>
   <i type="int" name="NKREDY">     1</i>
   <i type="int" name="NKREDZ">     1</i>
   <i type="logical" name="SHIFTRED"> F  </i>
   <i type="logical" name="ODDONLY"> F  </i>
   <i type="logical" name="EVENONLY"> F  </i>
   <i type="int" name="LMAXFOCK">     0</i>
   <i type="int" name="NMAXFOCKAE">     0</i>
   <i type="logical" name="LFOCKAEDFT"> F  </i>
   <i name="HFSCREEN">      0.00000000</i>
   <i name="HFSCREENC">      0.00000000</i>
   <i type="int" name="NBANDSGWLOW">     0</i>
  </separator>
  <separator name="vdW DFT" >
   <i type="logical" name="LUSE_VDW"> F  </i>
   <i type="int" name="IVDW_NL">     1</i>
   <i type="logical" name="LSPIN_VDW"> F  </i>
   <i name="Zab_VDW">     -0.84910000</i>
   <i name="PARAM1">      0.12340000</i>
   <i name="PARAM2">      1.00000000</i>
   <i name="PARAM3">      0.00000000</i>
  </separator>
  <separator name="model GW" >
   <i type="int" name="MODEL_GW">     0</i>
   <i name="MODEL_EPS0">     23.48414909</i>
   <i name="MODEL_ALPHA">      1.00000000</i>
  </separator>
  <separator name="linear response parameters" >
   <i type="logical" name="LEPSILON"> F  </i>
   <i type="logical" name="LRPA"> F  </i>
   <i type="logical" name="LNABLA"> F  </i>
   <i type="logical" name="LVEL"> F  </i>
   <i name="CSHIFT">      0.10000000</i>
   <i name="OMEGAMAX">     -1.00000000</i>
   <i name="DEG_THRESHOLD">      0.00200000</i>
   <i name="RTIME">     -0.10000000</i>
   <i name="WPLASMAI">      0.00000000</i>
   <v name="DFIELD">      0.00000000      0.00000000      0.00000000</v>
   <v name="WPLASMA">      0.00000000      0.00000000      0.00000000      0.00000000      0.00000000      0.00000000      0.00000000      0.00000000      0.00000000</v>
  </separator>
  <separator name="orbital magnetization" >
   <i type="logical" name="NUCIND"> F  </i>
   <v name="MAGPOS">      0.00000000      0.00000000      0.00000000</v>
   <i type="logical" name="LNICSALL"> T  </i>
   <i type="logical" name="ORBITALMAG"> F  </i>
   <i type="logical" name="LMAGBLOCH"> F  </i>
   <i type="logical" name="LCHIMAG"> F  </i>
   <i type="logical" name="LGAUGE"> T  </i>
   <i type="int" name="MAGATOM">     0</i>
   <v name="MAGDIPOL">      0.00000000      0.00000000      0.00000000</v>
   <v name="AVECCONST">      0.00000000      0.00000000      0.00000000</v>
  </separator>
  <separator name="response functions" >
   <i type="logical" name="LALL_IN_ONE"> F  </i>
   <i type="int" name="IALL_IN_ONE">    -1</i>
   <i type="int" name="NBANDS_WAVE">    -1</i>
   <i type="logical" name="LFINITE_TEMPERATURE"> F  </i>
   <i type="logical" name="LADDER"> F  </i>
   <i type="logical" name="LRPAFORCE"> F  </i>
   <i type="logical" name="LFXC"> F  </i>
   <i type="logical" name="LHARTREE"> T  </i>
   <i type="int" name="IBSE">     0</i>
   <v type="int" name="KPOINT">    -1     0     0     0</v>
   <i type="logical" name="LTCTC"> F  </i>
   <i type="logical" name="LTCTE"> F  </i>
   <i type="logical" name="LTETE"> F  </i>
   <i type="logical" name="LTRIPLET"> F  </i>
   <i type="logical" name="LFXCEPS"> F  </i>
   <i type="logical" name="LFXHEG"> F  </i>
   <i type="int" name="NATURALO">     2</i>
   <i type="logical" name="LHOLEGF"> F  </i>
   <i type="logical" name="L2ORDER"> F  </i>
   <i type="logical" name="LDMP1"> F  </i>
   <i type="logical" name="LMP2LT"> F  </i>
   <i type="logical" name="LSMP2LT"> F  </i>
   <i type="logical" name="LGWLF"> F  </i>
   <i name="ENCUTGW">     -1.60000002</i>
   <i name="ENCUTGWSOFT">     -1.60000002</i>
   <i name="ENCUTLF">     -1.00000000</i>
   <i type="logical" name="LESF_SPLINES"> F  </i>
   <i type="int" name="LMAXMP2">    -1</i>
   <i name="SCISSOR">      0.00000000</i>
   <i type="int" name="NOMEGA">     0</i>
   <i type="int" name="NOMEGAR">     0</i>
   <i type="int" name="NBANDSGW">    -1</i>
   <i type="int" name="NBANDSO">    -1</i>
   <i type="int" name="NBANDSV">    -1</i>
   <i type="int" name="NELMGW">     1</i>
   <i type="int" name="NELMHF">     1</i>
   <i type="int" name="DIM">     3</i>
   <i type="int" name="IESPILON">     4</i>
   <i type="int" name="ANTIRES">     0</i>
   <i name="OMEGAMAX">    -30.00000000</i>
   <i name="OMEGAMIN">    -30.00000000</i>
   <i name="OMEGATL">   -200.00000000</i>
   <i type="int" name="OMEGAGRID">     0</i>
   <i name="CSHIFT">     -0.10000000</i>
   <i type="logical" name="LSELFENERGY"> F  </i>
   <i type="logical" name="LSPECTRAL"> F  </i>
   <i type="logical" name="LSPECTRALGW"> F  </i>
   <i type="logical" name="LSINGLES"> F  </i>
   <i type="logical" name="LFERMIGW"> F  </i>
   <i type="logical" name="ODDONLYGW"> F  </i>
   <i type="logical" name="EVENONLYGW"> F  </i>
   <i type="int" name="NKREDLFX">     1</i>
   <i type="int" name="NKREDLFY">     1</i>
   <i type="int" name="NKREDLFZ">     1</i>
   <i type="int" name="MAXMEM">  2800</i>
   <i type="int" name="TELESCOPE">     0</i>
   <i type="int" name="NTAUPAR">    -1</i>
   <i type="int" name="NOMEGAPAR">    -1</i>
   <i name="DAMP_NEWTON">      0.80000001</i>
   <i name="LAMBDA">      1.00000000</i>
  </separator>
  <separator name="External order field" >
   <i name="OFIELD_KAPPA">      0.00000000</i>
   <v name="OFIELD_K">      0.00000000      0.00000000      0.00000000</v>
   <i name="OFIELD_Q6_NEAR">      0.00000000</i>
   <i name="OFIELD_Q6_FAR">      0.00000000</i>
   <i name="OFIELD_A">      0.00000000</i>
  </separator>
  <separator name="optional k-points parameters" >
   <i type="int" name="KPOINTS_OPT_MODE">     1</i>
   <i type="logical" name="LKPOINTS_OPT"> F  </i>
  </separator>
 </parameters>
 <atominfo>
  <atoms>      99 </atoms>
  <types>       4 </types>
  <array name="atoms" >
   <dimension dim="1">ion</dimension>
   <field type="string">element</field>
   <field type="int">atomtype</field>
   <set>
    <rc><c>C </c><c>   1</c></rc>
    <rc><c>C </c><c>   1</c></rc>
    <rc><c>C </c><c>   1</c></rc>
    <rc><c>C </c><c>   1</c></rc>
    <rc><c>C </c><c>   1</c></rc>
    <rc><c>C </c><c>   1</c></rc>
    <rc><c>C </c><c>   1</c></rc>
    <rc><c>C </c><c>   1</c></rc>
    <rc><c>C </c><c>   1</c></rc>
    <rc><c>C </c><c>   1</c></rc>
    <rc><c>C </c><c>   1</c></rc>
    <rc><c>C </c><c>   1</c></rc>
    <rc><c>C </c><c>   1</c></rc>
    <rc><c>C </c><c>   1</c></rc>
    <rc><c>C </c><c>   1</c></rc>
    <rc><c>C </c><c>   1</c></rc>
    <rc><c>C </c><c>   1</c></rc>
    <rc><c>C </c><c>   1</c></rc>
    <rc><c>C </c><c>   1</c></rc>
    <rc><c>C </c><c>   1</c></rc>
    <rc><c>C </c><c>   1</c></rc>
    <rc><c>C </c><c>   1</c></rc>
    <rc><c>C </c><c>   1</c></rc>
    <rc><c>C </c><c>   1</c></rc>
    <rc><c>C </c><c>   1</c></rc>
    <rc><c>C </c><c>   1</c></rc>
    <rc><c>C </c><c>   1</c></rc>
    <rc><c>C </c><c>   1</c></rc>
    <rc><c>C </c><c>   1</c></rc>
    <rc><c>C </c><c>   1</c></rc>
    <rc><c>C </c><c>   1</c></rc>
    <rc><c>C </c><c>   1</c></rc>
    <rc><c>C </c><c>   1</c></rc>
    <rc><c>C </c><c>   1</c></rc>
    <rc><c>C </c><c>   1</c></rc>
    <rc><c>C </c><c>   1</c></rc>
    <rc><c>C </c><c>   1</c></rc>
    <rc><c>C </c><c>   1</c></rc>
    <rc><c>C </c><c>   1</c></rc>
    <rc><c>C </c><c>   1</c></rc>
    <rc><c>C </c><c>   1</c></rc>
    <rc><c>C </c><c>   1</c></rc>
    <rc><c>C </c><c>   1</c></rc>
    <rc><c>C </c><c>   1</c></rc>
    <rc><c>C </c><c>   1</c></rc>
    <rc><c>C </c><c>   1</c></rc>
    <rc><c>C </c><c>   1</c></rc>
    <rc><c>C </c><c>   1</c></rc>
    <rc><c>C </c><c>   1</c></rc>
    <rc><c>C </c><c>   1</c></rc>
    <rc><c>C </c><c>   1</c></rc>
    <rc><c>C </c><c>   1</c></rc>
    <rc><c>C </c><c>   1</c></rc>
    <rc><c>C </c><c>   1</c></rc>
    <rc><c>C </c><c>   1</c></rc>
    <rc><c>C </c><c>   1</c></rc>
    <rc><c>C </c><c>   1</c></rc>
    <rc><c>C </c><c>   1</c></rc>
    <rc><c>C </c><c>   1</c></rc>
    <rc><c>C </c><c>   1</c></rc>
    <rc><c>C </c><c>   1</c></rc>
    <rc><c>C </c><c>   1</c></rc>
    <rc><c>C </c><c>   1</c></rc>
    <rc><c>C </c><c>   1</c></rc>
    <rc><c>C </c><c>   1</c></rc>
    <rc><c>C </c><c>   1</c></rc>
    <rc><c>C </c><c>   1</c></rc>
    <rc><c>C </c><c>   1</c></rc>
    <rc><c>C </c><c>   1</c></rc>
    <rc><c>C </c><c>   1</c></rc>
    <rc><c>C </c><c>   1</c></rc>
    <rc><c>C </c><c>   1</c></rc>
    <rc><c>C </c><c>   1</c></rc>
    <rc><c>C </c><c>   1</c></rc>
    <rc><c>C </c><c>   1</c></rc>
    <rc><c>C </c><c>   1</c></rc>
    <rc><c>C </c><c>   1</c></rc>
    <rc><c>C </c><c>   1</c></rc>
    <rc><c>C </c><c>   1</c></rc>
    <rc><c>C </c><c>   1</c></rc>
    <rc><c>C </c><c>   1</c></rc>
    <rc><c>C </c><c>   1</c></rc>
    <rc><c>C </c><c>   1</c></rc>
    <rc><c>C </c><c>   1</c></rc>
    <rc><c>C </c><c>   1</c></rc>
    <rc><c>C </c><c>   1</c></rc>
    <rc><c>C </c><c>   1</c></rc>
    <rc><c>C </c><c>   1</c></rc>
    <rc><c>H </c><c>   2</c></rc>
    <rc><c>H </c><c>   2</c></rc>
    <rc><c>H </c><c>   2</c></rc>
    <rc><c>H </c><c>   2</c></rc>
    <rc><c>H </c><c>   2</c></rc>
    <rc><c>H </c><c>   2</c></rc>
    <rc><c>F </c><c>   3</c></rc>
    <rc><c>F </c><c>   3</c></rc>
    <rc><c>F </c><c>   3</c></rc>
    <rc><c>F </c><c>   3</c></rc>
    <rc><c>O </c><c>   4</c></rc>
   </set>
  </array>
  <array name="atomtypes" >
   <dimension dim="1">type</dimension>
   <field type="int">atomspertype</field>
   <field type="string">element</field>
   <field>mass</field>
   <field>valence</field>
   <field type="string">pseudopotential</field>
   <set>
    <rc><c>  88</c><c>C </c><c>     12.01100000</c><c>      4.00000000</c><c>  PAW_PBE C 08Apr2002                   </c></rc>
    <rc><c>   6</c><c>H </c><c>      1.00000000</c><c>      1.00000000</c><c>  PAW_PBE H 15Jun2001                   </c></rc>
    <rc><c>   4</c><c>F </c><c>     18.99800000</c><c>      7.00000000</c><c>  PAW_PBE F 08Apr2002                   </c></rc>
    <rc><c>   1</c><c>O </c><c>     16.00000000</c><c>      6.00000000</c><c>  PAW_PBE O 08Apr2002                   </c></rc>
   </set>
  </array>
 </atominfo>
 <structure name="initialpos" >
  <crystal>
   <varray name="basis" >
    <v>      17.27103806       0.00000000       0.00000000 </v>
    <v>      -8.63551903      14.95715771       0.00000000 </v>
    <v>       0.00000000       0.00000000      15.00000000 </v>
   </varray>
   <i name="volume">   3874.88459904 </i>
   <varray name="rec_basis" >
    <v>       0.05790040       0.03342881       0.00000000 </v>
    <v>       0.00000000       0.06685762       0.00000000 </v>
    <v>       0.00000000       0.00000000       0.06666667 </v>
   </varray>
  </crystal>
  <varray name="positions" >
   <v>       0.99989566       0.00030698       0.49449607 </v>
   <v>       0.99912402       0.14277471       0.48857603 </v>
   <v>       0.99884255       0.28564761       0.48508683 </v>
   <v>       0.99937725       0.42885440       0.48811594 </v>
   <v>       0.00026562       0.57208435       0.49397205 </v>
   <v>       0.00167779       0.71545819       0.50054177 </v>
   <v>       0.00141146       0.85845437       0.50056109 </v>
   <v>       0.14282638       0.00064792       0.48043623 </v>
   <v>       0.14165810       0.14268158       0.47373101 </v>
   <v>       0.14005058       0.28447122       0.46497713 </v>
   <v>       0.14046402       0.42800850       0.46547049 </v>
   <v>       0.14216737       0.57145099       0.47389295 </v>
   <v>       0.14312371       0.71474051       0.48072046 </v>
   <v>       0.14338741       0.85796786       0.48411021 </v>
   <v>       0.28586694       0.00075569       0.47634412 </v>
   <v>       0.28520655       0.14309785       0.46598220 </v>
   <v>       0.28238400       0.28405623       0.44385273 </v>
   <v>       0.27778319       0.42478715       0.42785737 </v>
   <v>       0.28368690       0.57078747       0.44721744 </v>
   <v>       0.28553939       0.71472783       0.46799944 </v>
   <v>       0.28590737       0.85788810       0.47688894 </v>
   <v>       0.42887912       0.00105120       0.48204912 </v>
   <v>       0.42874482       0.14425335       0.47896608 </v>
   <v>       0.42680873       0.28398100       0.46628474 </v>
   <v>       0.42712460       0.71642429       0.46974083 </v>
   <v>       0.42871007       0.85778256       0.48047239 </v>
   <v>       0.57125328       0.00074268       0.49221220 </v>
   <v>       0.57124704       0.14386722       0.49178933 </v>
   <v>       0.57189967       0.28807311       0.49746534 </v>
   <v>       0.57186808       0.85753885       0.49813916 </v>
   <v>       0.71394328       0.00014252       0.50432096 </v>
   <v>       0.71397571       0.14343079       0.49871726 </v>
   <v>       0.71390751       0.28662245       0.50409542 </v>
   <v>       0.71377437       0.42829182       0.52447222 </v>
   <v>       0.72890848       0.57698668       0.56803964 </v>
   <v>       0.72682546       0.72181879       0.56157382 </v>
   <v>       0.71343663       0.85768035       0.52277391 </v>
   <v>       0.85720494       0.00062238       0.50725401 </v>
   <v>       0.85659082       0.14313726       0.49868111 </v>
   <v>       0.85663329       0.28607590       0.49840982 </v>
   <v>       0.85741263       0.42913920       0.50676857 </v>
   <v>       0.85944055       0.57295841       0.51898228 </v>
   <v>       0.86209973       0.71709539       0.52846579 </v>
   <v>       0.85901130       0.85856527       0.51963332 </v>
   <v>       0.04701757       0.09533678       0.48565363 </v>
   <v>       0.04583937       0.23751754       0.47995219 </v>
   <v>       0.04607960       0.38080465       0.47993899 </v>
   <v>       0.04742257       0.52417516       0.48524990 </v>
   <v>       0.04826846       0.66740699       0.49121531 </v>
   <v>       0.04866219       0.81056199       0.49484417 </v>
   <v>       0.04796422       0.95307369       0.49137904 </v>
   <v>       0.18982614       0.09525263       0.47187728 </v>
   <v>       0.18798718       0.23718109       0.46194560 </v>
   <v>       0.18579460       0.37894221       0.45421735 </v>
   <v>       0.18861995       0.52328436       0.46256340 </v>
   <v>       0.19019870       0.66710286       0.47270972 </v>
   <v>       0.19083546       0.81024682       0.47973037 </v>
   <v>       0.19073918       0.95307695       0.47941159 </v>
   <v>       0.33349526       0.09633935       0.47312379 </v>
   <v>       0.33353974       0.23819168       0.45596525 </v>
   <v>       0.31922635       0.37247837       0.41575341 </v>
   <v>       0.32152200       0.51915615       0.42216245 </v>
   <v>       0.33403957       0.66787752       0.45951176 </v>
   <v>       0.33353429       0.80993409       0.47454560 </v>
   <v>       0.33345875       0.95315380       0.47818123 </v>
   <v>       0.47623444       0.09632370       0.48466721 </v>
   <v>       0.47551466       0.23982563       0.48115904 </v>
   <v>       0.47554803       0.80930304       0.48326042 </v>
   <v>       0.47624623       0.95322938       0.48530899 </v>
   <v>       0.61861347       0.09595142       0.49458400 </v>
   <v>       0.61872946       0.23931325       0.49810861 </v>
   <v>       0.62039880       0.38073379       0.51439409 </v>
   <v>       0.62018862       0.81322793       0.51364619 </v>
   <v>       0.61879847       0.95287497       0.49854383 </v>
   <v>       0.76154412       0.09571275       0.50091723 </v>
   <v>       0.76154204       0.23864235       0.50063288 </v>
   <v>       0.76207003       0.38162394       0.51256368 </v>
   <v>       0.76517591       0.52534982       0.53796042 </v>
   <v>       0.77035908       0.67094565       0.55580778 </v>
   <v>       0.76403903       0.81110283       0.53590658 </v>
   <v>       0.76187974       0.95292118       0.51228223 </v>
   <v>       0.90423399       0.09529427       0.49854214 </v>
   <v>       0.90401871       0.23830397       0.49442026 </v>
   <v>       0.90442599       0.38153419       0.49798434 </v>
   <v>       0.90560183       0.52476227       0.50586228 </v>
   <v>       0.90761770       0.66825605       0.51661549 </v>
   <v>       0.90722486       0.81145187       0.51661367 </v>
   <v>       0.90524788       0.95297993       0.50684086 </v>
   <v>       0.46267046       0.35656764       0.46483263 </v>
   <v>       0.58439332       0.41736548       0.51803564 </v>
   <v>       0.58322927       0.74098482       0.51812832 </v>
   <v>       0.46364692       0.68058475       0.46774559 </v>
   <v>       0.49739938       0.52458971       0.44724775 </v>
   <v>       0.55794238       0.56457033       0.53081335 </v>
   <v>       0.40040942       0.41144858       0.37456303 </v>
   <v>       0.40837254       0.56226733       0.39288200 </v>
   <v>       0.63956929       0.67754187       0.59037290 </v>
   <v>       0.64881809       0.53495148       0.61088148 </v>
   <v>       0.51919589       0.50883548       0.50000005 </v>
  </varray>
  <varray name="selective"  type="logical" >
   <v type="logical" >  T  T  T </v>
   <v type="logical" >  T  T  T </v>
   <v type="logical" >  T  T  T </v>
   <v type="logical" >  T  T  T </v>
   <v type="logical" >  T  T  T </v>
   <v type="logical" >  T  T  T </v>
   <v type="logical" >  T  T  T </v>
   <v type="logical" >  T  T  T </v>
   <v type="logical" >  T  T  T </v>
   <v type="logical" >  T  T  T </v>
   <v type="logical" >  T  T  T </v>
   <v type="logical" >  T  T  T </v>
   <v type="logical" >  T  T  T </v>
   <v type="logical" >  T  T  T </v>
   <v type="logical" >  T  T  T </v>
   <v type="logical" >  T  T  T </v>
   <v type="logical" >  T  T  T </v>
   <v type="logical" >  T  T  T </v>
   <v type="logical" >  T  T  T </v>
   <v type="logical" >  T  T  T </v>
   <v type="logical" >  T  T  T </v>
   <v type="logical" >  T  T  T </v>
   <v type="logical" >  T  T  T </v>
   <v type="logical" >  T  T  T </v>
   <v type="logical" >  T  T  T </v>
   <v type="logical" >  T  T  T </v>
   <v type="logical" >  T  T  T </v>
   <v type="logical" >  T  T  T </v>
   <v type="logical" >  T  T  T </v>
   <v type="logical" >  T  T  T </v>
   <v type="logical" >  T  T  T </v>
   <v type="logical" >  T  T  T </v>
   <v type="logical" >  T  T  T </v>
   <v type="logical" >  T  T  T </v>
   <v type="logical" >  T  T  T </v>
   <v type="logical" >  T  T  T </v>
   <v type="logical" >  T  T  T </v>
   <v type="logical" >  T  T  T </v>
   <v type="logical" >  T  T  T </v>
   <v type="logical" >  T  T  T </v>
   <v type="logical" >  T  T  T </v>
   <v type="logical" >  T  T  T </v>
   <v type="logical" >  T  T  T </v>
   <v type="logical" >  T  T  T </v>
   <v type="logical" >  T  T  T </v>
   <v type="logical" >  T  T  T </v>
   <v type="logical" >  T  T  T </v>
   <v type="logical" >  T  T  T </v>
   <v type="logical" >  T  T  T </v>
   <v type="logical" >  T  T  T </v>
   <v type="logical" >  T  T  T </v>
   <v type="logical" >  T  T  T </v>
   <v type="logical" >  T  T  T </v>
   <v type="logical" >  T  T  T </v>
   <v type="logical" >  T  T  T </v>
   <v type="logical" >  T  T  T </v>
   <v type="logical" >  T  T  T </v>
   <v type="logical" >  T  T  T </v>
   <v type="logical" >  T  T  T </v>
   <v type="logical" >  T  T  T </v>
   <v type="logical" >  T  T  T </v>
   <v type="logical" >  T  T  T </v>
   <v type="logical" >  T  T  T </v>
   <v type="logical" >  T  T  T </v>
   <v type="logical" >  T  T  T </v>
   <v type="logical" >  T  T  T </v>
   <v type="logical" >  T  T  T </v>
   <v type="logical" >  T  T  T </v>
   <v type="logical" >  T  T  T </v>
   <v type="logical" >  T  T  T </v>
   <v type="logical" >  T  T  T </v>
   <v type="logical" >  T  T  T </v>
   <v type="logical" >  T  T  T </v>
   <v type="logical" >  T  T  T </v>
   <v type="logical" >  T  T  T </v>
   <v type="logical" >  T  T  T </v>
   <v type="logical" >  T  T  T </v>
   <v type="logical" >  T  T  T </v>
   <v type="logical" >  T  T  T </v>
   <v type="logical" >  T  T  T </v>
   <v type="logical" >  T  T  T </v>
   <v type="logical" >  T  T  T </v>
   <v type="logical" >  T  T  T </v>
   <v type="logical" >  T  T  T </v>
   <v type="logical" >  T  T  T </v>
   <v type="logical" >  T  T  T </v>
   <v type="logical" >  T  T  T </v>
   <v type="logical" >  T  T  T </v>
   <v type="logical" >  T  T  T </v>
   <v type="logical" >  T  T  T </v>
   <v type="logical" >  T  T  T </v>
   <v type="logical" >  T  T  T </v>
   <v type="logical" >  T  T  T </v>
   <v type="logical" >  T  T  T </v>
   <v type="logical" >  T  T  T </v>
   <v type="logical" >  T  T  T </v>
   <v type="logical" >  T  T  T </v>
   <v type="logical" >  T  T  T </v>
   <v type="logical" >  T  T  T </v>
  </varray>
  <nose>
   <v>      -3.00000000       0.00000000       0.00010000       0.00010000 </v>
  </nose>
 </structure>
 <calculation>
  <scstep>
   <time name="dav">   82.03   82.62</time>
   <time name="total">   87.16   87.81</time>
   <energy>
    <i name="alphaZ">    196.80145815 </i>
    <i name="ewald">  38365.73242333 </i>
    <i name="hartreedc"> -50716.33017232 </i>
    <i name="XCdc">   1354.55007231 </i>
    <i name="pawpsdc">  12061.16201661 </i>
    <i name="pawaedc"> -12133.24665886 </i>
    <i name="eentropy">     -0.04123997 </i>
    <i name="bandstr">  -1673.22202532 </i>
    <i name="atom">  16094.84310894 </i>
    <i name="e_fr_energy">   3550.24898288 </i>
    <i name="e_wo_entrp">   3550.29022285 </i>
    <i name="e_0_energy">   3550.26960286 </i>
   </energy>
  </scstep>
  <scstep>
   <time name="dav">  108.63  109.42</time>
   <time name="total">  108.64  109.45</time>
   <energy>
    <i name="e_fr_energy">   -222.38530297 </i>
    <i name="e_wo_entrp">   -222.37712266 </i>
    <i name="e_0_energy">   -222.38121282 </i>
   </energy>
  </scstep>
  <scstep>
   <time name="dav">   95.67   96.33</time>
   <time name="total">   95.67   96.34</time>
   <energy>
    <i name="e_fr_energy">   -872.75801026 </i>
    <i name="e_wo_entrp">   -872.75318384 </i>
    <i name="e_0_energy">   -872.75559705 </i>
   </energy>
  </scstep>
  <scstep>
   <time name="dav">   96.55   97.21</time>
   <time name="total">   96.55   97.23</time>
   <energy>
    <i name="e_fr_energy">   -894.82279534 </i>
    <i name="e_wo_entrp">   -894.81783157 </i>
    <i name="e_0_energy">   -894.82031346 </i>
   </energy>
  </scstep>
  <scstep>
   <time name="dav">  106.82  107.57</time>
   <time name="total">  112.76  113.55</time>
   <energy>
    <i name="e_fr_energy">   -895.47962346 </i>
    <i name="e_wo_entrp">   -895.47469368 </i>
    <i name="e_0_energy">   -895.47715857 </i>
   </energy>
  </scstep>
  <scstep>
   <time name="dav">   93.85   94.42</time>
   <time name="total">  106.13  106.81</time>
   <energy>
    <i name="e_fr_energy">   -877.62743052 </i>
    <i name="e_wo_entrp">   -877.62597558 </i>
    <i name="e_0_energy">   -877.62670305 </i>
   </energy>
  </scstep>
  <scstep>
   <time name="dav">   90.85   91.48</time>
   <time name="total">  103.02  103.78</time>
   <energy>
    <i name="e_fr_energy">   -856.44296418 </i>
    <i name="e_wo_entrp">   -856.44296305 </i>
    <i name="e_0_energy">   -856.44296362 </i>
   </energy>
  </scstep>
  <scstep>
   <time name="dav">   93.31   93.93</time>
   <time name="total">  105.50  106.24</time>
   <energy>
    <i name="e_fr_energy">   -851.52199220 </i>
    <i name="e_wo_entrp">   -851.52199219 </i>
    <i name="e_0_energy">   -851.52199219 </i>
   </energy>
  </scstep>
  <scstep>
   <time name="dav">   92.68   93.31</time>
   <time name="total">  104.92  105.67</time>
   <energy>
    <i name="e_fr_energy">   -851.65553256 </i>
    <i name="e_wo_entrp">   -851.65553255 </i>
    <i name="e_0_energy">   -851.65553255 </i>
   </energy>
  </scstep>
  <scstep>
   <time name="dav">   89.82   90.39</time>
   <time name="total">  102.03  102.72</time>
   <energy>
    <i name="e_fr_energy">   -851.47443174 </i>
    <i name="e_wo_entrp">   -851.47443174 </i>
    <i name="e_0_energy">   -851.47443174 </i>
   </energy>
  </scstep>
  <scstep>
   <time name="dav">   89.54   90.11</time>
   <time name="total">  101.79  102.50</time>
   <energy>
    <i name="e_fr_energy">   -851.45969678 </i>
    <i name="e_wo_entrp">   -851.45969677 </i>
    <i name="e_0_energy">   -851.45969678 </i>
   </energy>
  </scstep>
  <scstep>
   <time name="dav">   91.26   91.84</time>
   <time name="total">  103.49  104.21</time>
   <energy>
    <i name="e_fr_energy">   -851.45933187 </i>
    <i name="e_wo_entrp">   -851.45933186 </i>
    <i name="e_0_energy">   -851.45933187 </i>
   </energy>
  </scstep>
  <scstep>
   <time name="dav">   91.22   91.81</time>
   <time name="total">  103.53  104.25</time>
   <energy>
    <i name="e_fr_energy">   -851.45951016 </i>
    <i name="e_wo_entrp">   -851.45951016 </i>
    <i name="e_0_energy">   -851.45951016 </i>
   </energy>
  </scstep>
  <scstep>
   <time name="dav">   91.88   92.46</time>
   <time name="total">  104.11  104.88</time>
   <energy>
    <i name="e_fr_energy">   -851.45947848 </i>
    <i name="e_wo_entrp">   -851.45947848 </i>
    <i name="e_0_energy">   -851.45947848 </i>
   </energy>
  </scstep>
  <scstep>
   <time name="dav">   90.07   90.66</time>
   <time name="total">  102.35  103.05</time>
   <energy>
    <i name="e_fr_energy">   -851.45955322 </i>
    <i name="e_wo_entrp">   -851.45955322 </i>
    <i name="e_0_energy">   -851.45955322 </i>
   </energy>
  </scstep>
  <scstep>
   <time name="dav">   86.92   87.50</time>
   <time name="total">   99.23   99.93</time>
   <energy>
    <i name="e_fr_energy">   -851.45955783 </i>
    <i name="e_wo_entrp">   -851.45955783 </i>
    <i name="e_0_energy">   -851.45955783 </i>
   </energy>
  </scstep>
  <scstep>
   <time name="dav">   91.15   91.75</time>
   <time name="total">  103.48  104.19</time>
   <energy>
    <i name="e_fr_energy">   -851.45955912 </i>
    <i name="e_wo_entrp">   -851.45955912 </i>
    <i name="e_0_energy">   -851.45955912 </i>
   </energy>
  </scstep>
  <scstep>
   <time name="dav">   73.53   73.95</time>
   <time name="total">   83.94   84.45</time>
   <energy>
    <i name="e_fr_energy">   -851.45955659 </i>
    <i name="e_wo_entrp">   -851.45955659 </i>
    <i name="e_0_energy">   -851.45955659 </i>
   </energy>
  </scstep>
  <scstep>
   <time name="dav">   42.26   42.45</time>
   <time name="total">   46.99   47.25</time>
   <energy>
    <i name="alphaZ">    196.80145815 </i>
    <i name="ewald">  38365.73242333 </i>
    <i name="hartreedc"> -52209.46784056 </i>
    <i name="XCdc">   1404.93804464 </i>
    <i name="pawpsdc">  39272.37593750 </i>
    <i name="pawaedc"> -39355.53172746 </i>
    <i name="eentropy">     -0.00000000 </i>
    <i name="bandstr">  -4621.15096160 </i>
    <i name="atom">  16094.84310894 </i>
    <i name="e_fr_energy">   -851.45955706 </i>
    <i name="e_wo_entrp">   -851.45955706 </i>
    <i name="e_0_energy">   -851.45955706 </i>
   </energy>
  </scstep>
  <structure>
   <crystal>
    <varray name="basis" >
     <v>      17.27103806       0.00000000       0.00000000 </v>
     <v>      -8.63551903      14.95715771       0.00000000 </v>
     <v>       0.00000000       0.00000000      15.00000000 </v>
    </varray>
    <i name="volume">   3874.88459904 </i>
    <varray name="rec_basis" >
     <v>       0.05790040       0.03342881       0.00000000 </v>
     <v>       0.00000000       0.06685762       0.00000000 </v>
     <v>       0.00000000       0.00000000       0.06666667 </v>
    </varray>
   </crystal>
   <varray name="positions" >
    <v>       0.99989566       0.00030698       0.49449607 </v>
    <v>       0.99912402       0.14277471       0.48857603 </v>
    <v>       0.99884255       0.28564761       0.48508683 </v>
    <v>       0.99937725       0.42885440       0.48811594 </v>
    <v>       0.00026562       0.57208435       0.49397205 </v>
    <v>       0.00167779       0.71545819       0.50054177 </v>
    <v>       0.00141146       0.85845437       0.50056109 </v>
    <v>       0.14282638       0.00064792       0.48043623 </v>
    <v>       0.14165810       0.14268158       0.47373101 </v>
    <v>       0.14005058       0.28447122       0.46497713 </v>
    <v>       0.14046402       0.42800850       0.46547049 </v>
    <v>       0.14216737       0.57145099       0.47389295 </v>
    <v>       0.14312371       0.71474051       0.48072046 </v>
    <v>       0.14338741       0.85796786       0.48411021 </v>
    <v>       0.28586694       0.00075569       0.47634412 </v>
    <v>       0.28520655       0.14309785       0.46598220 </v>
    <v>       0.28238400       0.28405623       0.44385273 </v>
    <v>       0.27778319       0.42478715       0.42785737 </v>
    <v>       0.28368690       0.57078747       0.44721744 </v>
    <v>       0.28553939       0.71472783       0.46799944 </v>
    <v>       0.28590737       0.85788810       0.47688894 </v>
    <v>       0.42887912       0.00105120       0.48204912 </v>
    <v>       0.42874482       0.14425335       0.47896608 </v>
    <v>       0.42680873       0.28398100       0.46628474 </v>
    <v>       0.42712460       0.71642429       0.46974083 </v>
    <v>       0.42871007       0.85778256       0.48047239 </v>
    <v>       0.57125328       0.00074268       0.49221220 </v>
    <v>       0.57124704       0.14386722       0.49178933 </v>
    <v>       0.57189967       0.28807311       0.49746534 </v>
    <v>       0.57186808       0.85753885       0.49813916 </v>
    <v>       0.71394328       0.00014252       0.50432096 </v>
    <v>       0.71397571       0.14343079       0.49871726 </v>
    <v>       0.71390751       0.28662245       0.50409542 </v>
    <v>       0.71377437       0.42829182       0.52447222 </v>
    <v>       0.72890848       0.57698668       0.56803964 </v>
    <v>       0.72682546       0.72181879       0.56157382 </v>
    <v>       0.71343663       0.85768035       0.52277391 </v>
    <v>       0.85720494       0.00062238       0.50725401 </v>
    <v>       0.85659082       0.14313726       0.49868111 </v>
    <v>       0.85663329       0.28607590       0.49840982 </v>
    <v>       0.85741263       0.42913920       0.50676857 </v>
    <v>       0.85944055       0.57295841       0.51898228 </v>
    <v>       0.86209973       0.71709539       0.52846579 </v>
    <v>       0.85901130       0.85856527       0.51963332 </v>
    <v>       0.04701757       0.09533678       0.48565363 </v>
    <v>       0.04583937       0.23751754       0.47995219 </v>
    <v>       0.04607960       0.38080465       0.47993899 </v>
    <v>       0.04742257       0.52417516       0.48524990 </v>
    <v>       0.04826846       0.66740699       0.49121531 </v>
    <v>       0.04866219       0.81056199       0.49484417 </v>
    <v>       0.04796422       0.95307369       0.49137904 </v>
    <v>       0.18982614       0.09525263       0.47187728 </v>
    <v>       0.18798718       0.23718109       0.46194560 </v>
    <v>       0.18579460       0.37894221       0.45421735 </v>
    <v>       0.18861995       0.52328436       0.46256340 </v>
    <v>       0.19019870       0.66710286       0.47270972 </v>
    <v>       0.19083546       0.81024682       0.47973037 </v>
    <v>       0.19073918       0.95307695       0.47941159 </v>
    <v>       0.33349526       0.09633935       0.47312379 </v>
    <v>       0.33353974       0.23819168       0.45596525 </v>
    <v>       0.31922635       0.37247837       0.41575341 </v>
    <v>       0.32152200       0.51915615       0.42216245 </v>
    <v>       0.33403957       0.66787752       0.45951176 </v>
    <v>       0.33353429       0.80993409       0.47454560 </v>
    <v>       0.33345875       0.95315380       0.47818123 </v>
    <v>       0.47623444       0.09632370       0.48466721 </v>
    <v>       0.47551466       0.23982563       0.48115904 </v>
    <v>       0.47554803       0.80930304       0.48326042 </v>
    <v>       0.47624623       0.95322938       0.48530899 </v>
    <v>       0.61861347       0.09595142       0.49458400 </v>
    <v>       0.61872946       0.23931325       0.49810861 </v>
    <v>       0.62039880       0.38073379       0.51439409 </v>
    <v>       0.62018862       0.81322793       0.51364619 </v>
    <v>       0.61879847       0.95287497       0.49854383 </v>
    <v>       0.76154412       0.09571275       0.50091723 </v>
    <v>       0.76154204       0.23864235       0.50063288 </v>
    <v>       0.76207003       0.38162394       0.51256368 </v>
    <v>       0.76517591       0.52534982       0.53796042 </v>
    <v>       0.77035908       0.67094565       0.55580778 </v>
    <v>       0.76403903       0.81110283       0.53590658 </v>
    <v>       0.76187974       0.95292118       0.51228223 </v>
    <v>       0.90423399       0.09529427       0.49854214 </v>
    <v>       0.90401871       0.23830397       0.49442026 </v>
    <v>       0.90442599       0.38153419       0.49798434 </v>
    <v>       0.90560183       0.52476227       0.50586228 </v>
    <v>       0.90761770       0.66825605       0.51661549 </v>
    <v>       0.90722486       0.81145187       0.51661367 </v>
    <v>       0.90524788       0.95297993       0.50684086 </v>
    <v>       0.46267046       0.35656764       0.46483263 </v>
    <v>       0.58439332       0.41736548       0.51803564 </v>
    <v>       0.58322927       0.74098482       0.51812832 </v>
    <v>       0.46364692       0.68058475       0.46774559 </v>
    <v>       0.49739938       0.52458971       0.44724775 </v>
    <v>       0.55794238       0.56457033       0.53081335 </v>
    <v>       0.40040942       0.41144858       0.37456303 </v>
    <v>       0.40837254       0.56226733       0.39288200 </v>
    <v>       0.63956929       0.67754187       0.59037290 </v>
    <v>       0.64881809       0.53495148       0.61088148 </v>
    <v>       0.51919589       0.50883548       0.50000005 </v>
   </varray>
  </structure>
  <varray name="forces" >
   <v>       0.00045446       0.00046238      -0.00380879 </v>
   <v>      -0.00017541       0.00207714      -0.00055908 </v>
   <v>      -0.00254098       0.00636953       0.00066118 </v>
   <v>      -0.00199689       0.00383897      -0.00062274 </v>
   <v>       0.00191920      -0.00126078      -0.00096815 </v>
   <v>       0.00277306      -0.00377956      -0.00231110 </v>
   <v>       0.00229120      -0.00194256      -0.00353457 </v>
   <v>       0.00377998      -0.00002525       0.00188763 </v>
   <v>       0.00197939       0.00067924       0.00595741 </v>
   <v>       0.00065886       0.00514731       0.00420815 </v>
   <v>      -0.00216220       0.00437008       0.00146822 </v>
   <v>      -0.00049757       0.00080250       0.00120996 </v>
   <v>       0.00262788      -0.00076701       0.00183503 </v>
   <v>       0.00997779      -0.00232504       0.00207640 </v>
   <v>       0.00345977      -0.00346062       0.00815763 </v>
   <v>       0.00171691       0.00111587       0.01018247 </v>
   <v>       0.00246587       0.00239941       0.00929588 </v>
   <v>       0.00179612       0.00355326       0.00436670 </v>
   <v>      -0.00111823       0.00059956       0.00231064 </v>
   <v>      -0.00539550       0.00031292       0.00417877 </v>
   <v>      -0.00192629      -0.00039789       0.00574214 </v>
   <v>       0.00005198      -0.00399094       0.00567186 </v>
   <v>       0.00042382      -0.00076595       0.00854329 </v>
   <v>      -0.00068905       0.00151399       0.01140231 </v>
   <v>      -0.00302743       0.00171854       0.00153411 </v>
   <v>      -0.00814677      -0.00023141       0.00423138 </v>
   <v>       0.00009083       0.00070994       0.00445189 </v>
   <v>       0.00462473       0.00053363       0.00690138 </v>
   <v>       0.00307256       0.00141361       0.00285031 </v>
   <v>      -0.00080472       0.00171748       0.00219416 </v>
   <v>      -0.00112465       0.00107043      -0.00072783 </v>
   <v>       0.00320766       0.00460055       0.00310503 </v>
   <v>       0.00556932       0.00726088       0.00136475 </v>
   <v>       0.00840762       0.00336650      -0.00388620 </v>
   <v>       0.00288035      -0.00146112      -0.01678069 </v>
   <v>       0.00063951      -0.00343733      -0.02140190 </v>
   <v>      -0.00038685       0.00151956      -0.00942540 </v>
   <v>      -0.00053976      -0.00077286      -0.00452551 </v>
   <v>      -0.00245522       0.00538837      -0.00113700 </v>
   <v>      -0.00352700       0.00627732      -0.00106416 </v>
   <v>       0.00663877       0.00179621      -0.00166780 </v>
   <v>       0.00457924      -0.00133251      -0.00795692 </v>
   <v>       0.00516831      -0.00749654      -0.00920180 </v>
   <v>       0.00189804      -0.00184970      -0.00827932 </v>
   <v>       0.00003852      -0.00008451       0.00112014 </v>
   <v>       0.00348621      -0.00508926      -0.00051956 </v>
   <v>       0.00568907      -0.00458392      -0.00015501 </v>
   <v>       0.00207137       0.00051834      -0.00001386 </v>
   <v>      -0.00149018       0.00291850      -0.00047752 </v>
   <v>      -0.00343734       0.00223703      -0.00062257 </v>
   <v>      -0.00024714       0.00114195      -0.00163237 </v>
   <v>       0.00014733       0.00201634       0.00682384 </v>
   <v>       0.00110252      -0.00068877       0.00858612 </v>
   <v>       0.00459942      -0.00375030       0.00262612 </v>
   <v>       0.00511858      -0.00148590       0.00065023 </v>
   <v>       0.00260857       0.00114091       0.00250723 </v>
   <v>      -0.00397399       0.00279856       0.00367943 </v>
   <v>      -0.00383362       0.00223204       0.00472410 </v>
   <v>       0.00028109       0.00207244       0.01012627 </v>
   <v>       0.00066085       0.00122067       0.01236920 </v>
   <v>       0.00382944      -0.00129064       0.00806580 </v>
   <v>       0.00463963       0.00237031       0.00004469 </v>
   <v>       0.00538854       0.00127581       0.00212614 </v>
   <v>       0.01283997       0.00198312       0.00404908 </v>
   <v>       0.00034993       0.00467020       0.00797674 </v>
   <v>       0.00087616       0.00259657       0.00933333 </v>
   <v>       0.00223585      -0.00161950       0.00790038 </v>
   <v>       0.00311276      -0.00244601       0.00342779 </v>
   <v>       0.00357675       0.00168585       0.00548433 </v>
   <v>      -0.00483376       0.00019223       0.00557179 </v>
   <v>      -0.00278159      -0.00295926       0.00376754 </v>
   <v>      -0.00019740      -0.00524589      -0.00408273 </v>
   <v>       0.00011938      -0.00049660      -0.00470576 </v>
   <v>       0.00097884       0.00085833       0.00071014 </v>
   <v>       0.00383473      -0.00364101      -0.00130454 </v>
   <v>      -0.00020062      -0.00397586       0.00177242 </v>
   <v>      -0.00203523      -0.00514983      -0.00007600 </v>
   <v>      -0.00375074      -0.00001985      -0.00899024 </v>
   <v>      -0.00336213       0.00162909      -0.01656750 </v>
   <v>       0.00038579       0.00084783      -0.01477386 </v>
   <v>       0.00284116       0.00031794      -0.00442604 </v>
   <v>       0.00335253      -0.00152957      -0.00304939 </v>
   <v>       0.00492577      -0.00675976      -0.00035004 </v>
   <v>       0.00343518      -0.00327582       0.00069073 </v>
   <v>       0.00038346       0.00231134      -0.00209726 </v>
   <v>      -0.00261774       0.00536381      -0.00639920 </v>
   <v>      -0.00157908       0.00599342      -0.00881741 </v>
   <v>       0.00033283       0.00094365      -0.00533781 </v>
   <v>      -0.00013399       0.00077773       0.01630334 </v>
   <v>       0.00344457      -0.00129694      -0.00654404 </v>
   <v>      -0.00076113       0.00127281      -0.00734337 </v>
   <v>       0.00036938       0.00024758       0.00413228 </v>
   <v>      -0.01647342       0.01491594       0.04150065 </v>
   <v>      -0.03172917      -0.02691528       0.05463042 </v>
   <v>       0.00267237      -0.00294583       0.00619130 </v>
   <v>       0.00074539       0.00069413       0.00495074 </v>
   <v>      -0.00404312      -0.00558133      -0.03395286 </v>
   <v>      -0.00356164       0.00020454      -0.01672047 </v>
   <v>      -0.04606960      -0.01393546      -0.11081264 </v>
  </varray>
  <varray name="stress" >
   <v>      -3.66955141       0.47324507      -0.02078523 </v>
   <v>       0.47324494      -4.22779016      -0.04701088 </v>
   <v>      -0.02078493      -0.04701103      -0.46698117 </v>
  </varray>
  <energy>
   <i name="e_fr_energy">   -859.35768563 </i>
   <i name="e_wo_entrp">   -859.35768563 </i>
   <i name="e_0_energy">   -859.35768563 </i>
  </energy>
  <time name="totalsc"> 2010.54 2024.75</time>
 </calculation>
 <calculation>
  <scstep>
   <time name="dav">   81.01   81.58</time>
   <time name="total">   92.81   93.48</time>
   <energy>
    <i name="alphaZ">    196.80145815 </i>
    <i name="ewald">  38366.00391249 </i>
    <i name="hartreedc"> -52209.68270911 </i>
    <i name="XCdc">   1404.93883540 </i>
    <i name="pawpsdc">  39272.21556892 </i>
    <i name="pawaedc"> -39355.37103146 </i>
    <i name="eentropy">     -0.00000000 </i>
    <i name="bandstr">  -4621.20884437 </i>
    <i name="atom">  16094.84310894 </i>
    <i name="e_fr_energy">   -851.45970104 </i>
    <i name="e_wo_entrp">   -851.45970104 </i>
    <i name="e_0_energy">   -851.45970104 </i>
   </energy>
  </scstep>
  <scstep>
   <time name="dav">   84.06   84.64</time>
   <time name="total">   95.60   96.28</time>
   <energy>
    <i name="e_fr_energy">   -851.45971983 </i>
    <i name="e_wo_entrp">   -851.45971983 </i>
    <i name="e_0_energy">   -851.45971983 </i>
   </energy>
  </scstep>
  <scstep>
   <time name="dav">   81.65   82.17</time>
   <time name="total">   93.18   93.81</time>
   <energy>
    <i name="e_fr_energy">   -851.45971570 </i>
    <i name="e_wo_entrp">   -851.45971569 </i>
    <i name="e_0_energy">   -851.45971569 </i>
   </energy>
  </scstep>
  <scstep>
   <time name="dav">   77.85   78.38</time>
   <time name="total">   89.20   89.84</time>
   <energy>
    <i name="e_fr_energy">   -851.45971680 </i>
    <i name="e_wo_entrp">   -851.45971680 </i>
    <i name="e_0_energy">   -851.45971680 </i>
   </energy>
  </scstep>
  <scstep>
   <time name="dav">   58.68   59.01</time>
   <time name="total">   64.20   64.61</time>
   <energy>
    <i name="alphaZ">    196.80145815 </i>
    <i name="ewald">  38366.00391249 </i>
    <i name="hartreedc"> -52209.70047385 </i>
    <i name="XCdc">   1404.93984968 </i>
    <i name="pawpsdc">  39272.29692754 </i>
    <i name="pawaedc"> -39355.45268591 </i>
    <i name="eentropy">     -0.00000000 </i>
    <i name="bandstr">  -4621.19181458 </i>
    <i name="atom">  16094.84310894 </i>
    <i name="e_fr_energy">   -851.45971753 </i>
    <i name="e_wo_entrp">   -851.45971753 </i>
    <i name="e_0_energy">   -851.45971753 </i>
   </energy>
  </scstep>
  <structure>
   <crystal>
    <varray name="basis" >
     <v>      17.27103806       0.00000000       0.00000000 </v>
     <v>      -8.63551903      14.95715771       0.00000000 </v>
     <v>       0.00000000       0.00000000      15.00000000 </v>
    </varray>
    <i name="volume">   3874.88459904 </i>
    <varray name="rec_basis" >
     <v>       0.05790040       0.03342881       0.00000000 </v>
     <v>       0.00000000       0.06685762       0.00000000 </v>
     <v>       0.00000000       0.00000000       0.06666667 </v>
    </varray>
   </crystal>
   <varray name="positions" >
    <v>       0.99989530       0.00030685       0.49449639 </v>
    <v>       0.99912381       0.14277567       0.48857783 </v>
    <v>       0.99884242       0.28565149       0.48508903 </v>
    <v>       0.99937659       0.42885663       0.48811739 </v>
    <v>       0.00026554       0.57208318       0.49397398 </v>
    <v>       0.00167743       0.71545533       0.50054357 </v>
    <v>       0.00141142       0.85845269       0.50056218 </v>
    <v>       0.14282778       0.00064747       0.48043961 </v>
    <v>       0.14165866       0.14268157       0.47373741 </v>
    <v>       0.14005191       0.28447425       0.46498223 </v>
    <v>       0.14046347       0.42801108       0.46547339 </v>
    <v>       0.14216655       0.57145119       0.47389526 </v>
    <v>       0.14312421       0.71473965       0.48072319 </v>
    <v>       0.14339167       0.85796593       0.48411329 </v>
    <v>       0.28586714       0.00075304       0.47635153 </v>
    <v>       0.28520726       0.14309827       0.46599217 </v>
    <v>       0.28238565       0.28405747       0.44386284 </v>
    <v>       0.27778508       0.42478926       0.42786416 </v>
    <v>       0.28368593       0.57078759       0.44722201 </v>
    <v>       0.28553571       0.71472774       0.46800426 </v>
    <v>       0.28590548       0.85788753       0.47689421 </v>
    <v>       0.42887721       0.00104826       0.48205531 </v>
    <v>       0.42874421       0.14425267       0.47897576 </v>
    <v>       0.42680824       0.28398197       0.46629820 </v>
    <v>       0.42712282       0.71642509       0.46974587 </v>
    <v>       0.42870470       0.85778209       0.48047794 </v>
    <v>       0.57125294       0.00074279       0.49221813 </v>
    <v>       0.57124926       0.14386738       0.49179756 </v>
    <v>       0.57190126       0.28807408       0.49747411 </v>
    <v>       0.57186756       0.85753942       0.49814581 </v>
    <v>       0.71394232       0.00014282       0.50432440 </v>
    <v>       0.71397842       0.14343355       0.49872233 </v>
    <v>       0.71391249       0.28662710       0.50410100 </v>
    <v>       0.71377984       0.42829388       0.52447811 </v>
    <v>       0.72891052       0.57698587       0.56804094 </v>
    <v>       0.72682537       0.72181711       0.56157167 </v>
    <v>       0.71343636       0.85768101       0.52277510 </v>
    <v>       0.85720370       0.00062150       0.50725494 </v>
    <v>       0.85659046       0.14314050       0.49868290 </v>
    <v>       0.85663262       0.28607979       0.49841176 </v>
    <v>       0.85741642       0.42914013       0.50677166 </v>
    <v>       0.85944224       0.57295730       0.51898324 </v>
    <v>       0.86209988       0.71709022       0.52846688 </v>
    <v>       0.85901128       0.85856378       0.51963382 </v>
    <v>       0.04701674       0.09533625       0.48565669 </v>
    <v>       0.04583886       0.23751371       0.47995373 </v>
    <v>       0.04608056       0.38080124       0.47994052 </v>
    <v>       0.04742314       0.52417518       0.48525164 </v>
    <v>       0.04826783       0.66740861       0.49121730 </v>
    <v>       0.04866024       0.81056313       0.49484646 </v>
    <v>       0.04796370       0.95307403       0.49138062 </v>
    <v>       0.18982615       0.09525357       0.47188427 </v>
    <v>       0.18798681       0.23718017       0.46195414 </v>
    <v>       0.18579530       0.37893932       0.45422171 </v>
    <v>       0.18862168       0.52328305       0.46256576 </v>
    <v>       0.19019985       0.66710330       0.47271291 </v>
    <v>       0.19083339       0.81024835       0.47973419 </v>
    <v>       0.19073700       0.95307808       0.47941651 </v>
    <v>       0.33349551       0.09634046       0.47313352 </v>
    <v>       0.33354000       0.23819227       0.45597784 </v>
    <v>       0.31922782       0.37247725       0.41576322 </v>
    <v>       0.32152531       0.51915746       0.42216688 </v>
    <v>       0.33404255       0.66787807       0.45951620 </v>
    <v>       0.33354179       0.80993512       0.47455022 </v>
    <v>       0.33345990       0.95315662       0.47818836 </v>
    <v>       0.47623518       0.09632520       0.48467675 </v>
    <v>       0.47551480       0.23982448       0.48117011 </v>
    <v>       0.47554844       0.80930102       0.48326674 </v>
    <v>       0.47624826       0.95323020       0.48531525 </v>
    <v>       0.61861006       0.09595124       0.49459075 </v>
    <v>       0.61872618       0.23931113       0.49811612 </v>
    <v>       0.62039622       0.38073022       0.51440068 </v>
    <v>       0.62018785       0.81322706       0.51365074 </v>
    <v>       0.61879867       0.95287508       0.49854818 </v>
    <v>       0.76154441       0.09570993       0.50091934 </v>
    <v>       0.76153988       0.23863942       0.50063734 </v>
    <v>       0.76206650       0.38162029       0.51256938 </v>
    <v>       0.76517359       0.52534970       0.53796369 </v>
    <v>       0.77035806       0.67094694       0.55580765 </v>
    <v>       0.76403932       0.81110334       0.53590547 </v>
    <v>       0.76188083       0.95292098       0.51228433 </v>
    <v>       0.90423466       0.09529284       0.49854282 </v>
    <v>       0.90401854       0.23829909       0.49442216 </v>
    <v>       0.90442615       0.38153170       0.49798752 </v>
    <v>       0.90560215       0.52476355       0.50586511 </v>
    <v>       0.90761748       0.66825941       0.51661680 </v>
    <v>       0.90722543       0.81145560       0.51661332 </v>
    <v>       0.90524771       0.95298018       0.50684142 </v>
    <v>       0.46267024       0.35656817       0.46485019 </v>
    <v>       0.58439433       0.41736484       0.51804246 </v>
    <v>       0.58322861       0.74098501       0.51813308 </v>
    <v>       0.46364674       0.68058468       0.46775298 </v>
    <v>       0.49739992       0.52459913       0.44726103 </v>
    <v>       0.55793282       0.56456714       0.53083203 </v>
    <v>       0.40041018       0.41144648       0.37457251 </v>
    <v>       0.40837392       0.56226752       0.39289189 </v>
    <v>       0.63956682       0.67754007       0.59036701 </v>
    <v>       0.64881901       0.53495221       0.61088763 </v>
    <v>       0.51919138       0.50883604       0.49991017 </v>
   </varray>
  </structure>
  <varray name="forces" >
   <v>       0.00011624       0.00040451      -0.00346014 </v>
   <v>       0.00071016      -0.00033372      -0.00041721 </v>
   <v>       0.00139278      -0.00029290       0.00058952 </v>
   <v>       0.00176288       0.00042422      -0.00069370 </v>
   <v>       0.00137453       0.00091077      -0.00084192 </v>
   <v>       0.00014301       0.00080140      -0.00216730 </v>
   <v>       0.00030250       0.00081562      -0.00349554 </v>
   <v>       0.00046505       0.00090586       0.00232810 </v>
   <v>       0.00065572       0.00039147       0.00626848 </v>
   <v>       0.00143531       0.00055864       0.00463882 </v>
   <v>       0.00183209       0.00017441       0.00106279 </v>
   <v>       0.00189044       0.00023232       0.00103827 </v>
   <v>       0.00059114       0.00030927       0.00211107 </v>
   <v>       0.00135512       0.00045079       0.00273863 </v>
   <v>      -0.00152916       0.00022436       0.00647309 </v>
   <v>       0.00089296       0.00115025       0.01041398 </v>
   <v>       0.00154566       0.00045020       0.01038890 </v>
   <v>       0.00265529       0.00136824       0.00450016 </v>
   <v>       0.00182988       0.00077391       0.00176543 </v>
   <v>       0.00102053       0.00050260       0.00386551 </v>
   <v>       0.00108031       0.00069533       0.00579666 </v>
   <v>       0.00156563       0.00042667       0.00639813 </v>
   <v>       0.00087537      -0.00003048       0.00899026 </v>
   <v>       0.00071259       0.00044794       0.01209679 </v>
   <v>       0.00082088       0.00105638       0.00200922 </v>
   <v>       0.00078032       0.00081511       0.00486540 </v>
   <v>       0.00045962       0.00088693       0.00465339 </v>
   <v>       0.00089942       0.00044810       0.00699623 </v>
   <v>       0.00147779      -0.00146007       0.00263600 </v>
   <v>      -0.00041022       0.00067661       0.00217264 </v>
   <v>       0.00067127      -0.00023207      -0.00060063 </v>
   <v>       0.00126062      -0.00033788       0.00305470 </v>
   <v>       0.00065179       0.00038435       0.00119249 </v>
   <v>       0.00222394      -0.00009751      -0.00402128 </v>
   <v>      -0.00059336       0.00045325      -0.01550924 </v>
   <v>      -0.00089497      -0.00137300      -0.02179427 </v>
   <v>       0.00035261       0.00080041      -0.00913981 </v>
   <v>       0.00074275      -0.00016579      -0.00450861 </v>
   <v>       0.00121674      -0.00012009      -0.00102328 </v>
   <v>       0.00166513      -0.00028266      -0.00232412 </v>
   <v>       0.00287112       0.00049688      -0.00259522 </v>
   <v>       0.00086189       0.00092215      -0.00705014 </v>
   <v>      -0.00093225       0.00188803      -0.00988180 </v>
   <v>       0.00056725       0.00028213      -0.00849360 </v>
   <v>       0.00052655       0.00043994       0.00106136 </v>
   <v>       0.00059870       0.00035511      -0.00023877 </v>
   <v>       0.00090717       0.00105103       0.00028054 </v>
   <v>       0.00100880       0.00073876       0.00016076 </v>
   <v>       0.00118450       0.00003171      -0.00057956 </v>
   <v>       0.00152521      -0.00041542      -0.00088185 </v>
   <v>       0.00100587       0.00056859      -0.00169292 </v>
   <v>       0.00138960       0.00125828       0.00695487 </v>
   <v>       0.00131673       0.00111168       0.00839722 </v>
   <v>       0.00282783       0.00233872       0.00155920 </v>
   <v>       0.00134108       0.00065728       0.00133423 </v>
   <v>       0.00031111       0.00040582       0.00282880 </v>
   <v>       0.00117825      -0.00009406       0.00361596 </v>
   <v>       0.00090183      -0.00018370       0.00479735 </v>
   <v>       0.00044933      -0.00022910       0.01034751 </v>
   <v>       0.00077790       0.00130563       0.01246579 </v>
   <v>       0.00353399       0.00093130       0.00753820 </v>
   <v>       0.00240706       0.00240458       0.00120953 </v>
   <v>      -0.00068516       0.00045088       0.00233932 </v>
   <v>       0.00200177       0.00064472       0.00416721 </v>
   <v>       0.00430922      -0.00180827       0.00735290 </v>
   <v>       0.00102997      -0.00021793       0.00921053 </v>
   <v>       0.00068654      -0.00045964       0.00796362 </v>
   <v>      -0.00066804      -0.00122152       0.00242305 </v>
   <v>       0.00072214       0.00021181       0.00541711 </v>
   <v>       0.00285191       0.00078076       0.00568997 </v>
   <v>       0.00195290       0.00041886       0.00435253 </v>
   <v>       0.00362137      -0.00078514      -0.00286986 </v>
   <v>      -0.00036758       0.00071857      -0.00465427 </v>
   <v>       0.00008693       0.00118584       0.00106016 </v>
   <v>       0.00115200      -0.00027216      -0.00104106 </v>
   <v>       0.00097867       0.00084266       0.00186629 </v>
   <v>       0.00320139       0.00047898      -0.00009499 </v>
   <v>       0.00105906      -0.00031973      -0.01009564 </v>
   <v>      -0.00059763      -0.00131519      -0.01660617 </v>
   <v>       0.00002704      -0.00050777      -0.01423197 </v>
   <v>       0.00047207       0.00043563      -0.00446124 </v>
   <v>       0.00044042       0.00021335      -0.00283930 </v>
   <v>       0.00117584       0.00268451      -0.00139659 </v>
   <v>       0.00221251       0.00054173       0.00060079 </v>
   <v>       0.00198992       0.00043803      -0.00231365 </v>
   <v>       0.00090156      -0.00028915      -0.00664633 </v>
   <v>       0.00038434      -0.00019548      -0.00806054 </v>
   <v>       0.00028101       0.00008509      -0.00522151 </v>
   <v>      -0.00037513       0.00126979       0.01616438 </v>
   <v>       0.00304428      -0.00148103      -0.00667097 </v>
   <v>      -0.00086092       0.00076460      -0.00729592 </v>
   <v>      -0.00059602       0.00066536       0.00411013 </v>
   <v>      -0.04808508       0.03123773      -0.00722547 </v>
   <v>      -0.03958117      -0.05720625       0.03585389 </v>
   <v>       0.00168057      -0.00283773       0.00262382 </v>
   <v>       0.00123515       0.00113639       0.00485973 </v>
   <v>      -0.00416199      -0.00617040      -0.03399085 </v>
   <v>      -0.00270685      -0.00071072      -0.02161176 </v>
   <v>      -0.00137287       0.00111377      -0.03891243 </v>
[...]
       <r>   -17.2175    12.1960    38.8495 </r>
       <r>   -17.0926     3.3003    39.2616 </r>
       <r>   -16.9677     6.2764    40.0455 </r>
       <r>   -16.8428     9.6894    41.2556 </r>
       <r>   -16.7179     7.0375    42.1345 </r>
       <r>   -16.5930     6.8019    42.9840 </r>
       <r>   -16.4681     3.5471    43.4270 </r>
       <r>   -16.3432    14.8893    45.2865 </r>
       <r>   -16.2183    11.4121    46.7118 </r>
       <r>   -16.0935     3.4318    47.1404 </r>
       <r>   -15.9686     4.1139    47.6541 </r>
       <r>   -15.8437     0.7712    47.7505 </r>
       <r>   -15.7188     2.6581    48.0824 </r>
       <r>   -15.5939     1.5028    48.2701 </r>
       <r>   -15.4690     6.4194    49.0718 </r>
       <r>   -15.3441     7.6499    50.0272 </r>
       <r>   -15.2192     7.6498    50.9826 </r>
       <r>   -15.0943     8.5317    52.0481 </r>
       <r>   -14.9694    11.2405    53.4519 </r>
       <r>   -14.8446     9.9718    54.6973 </r>
       <r>   -14.7197     4.1842    55.2199 </r>
       <r>   -14.5948     9.9311    56.4601 </r>
       <r>   -14.4699     9.4415    57.6393 </r>
       <r>   -14.3450    12.0583    59.1452 </r>
       <r>   -14.2201    11.7897    60.6177 </r>
       <r>   -14.0952     8.1257    61.6325 </r>
       <r>   -13.9703     4.4780    62.1917 </r>
       <r>   -13.8454     5.2342    62.8454 </r>
       <r>   -13.7206     7.9486    63.8381 </r>
       <r>   -13.5957     7.7858    64.8105 </r>
       <r>   -13.4708     7.9094    65.7983 </r>
       <r>   -13.3459     9.4627    66.9801 </r>
       <r>   -13.2210     5.4861    67.6652 </r>
       <r>   -13.0961     7.2530    68.5711 </r>
       <r>   -12.9712     5.4440    69.2510 </r>
       <r>   -12.8463     9.3917    70.4239 </r>
       <r>   -12.7214     3.8720    70.9075 </r>
       <r>   -12.5966    13.1873    72.5544 </r>
       <r>   -12.4717    10.9425    73.9210 </r>
       <r>   -12.3468    10.4585    75.2272 </r>
       <r>   -12.2219    13.7041    76.9387 </r>
       <r>   -12.0970     5.0736    77.5723 </r>
       <r>   -11.9721     9.3188    78.7361 </r>
       <r>   -11.8472     7.1712    79.6318 </r>
       <r>   -11.7223     8.8119    80.7323 </r>
       <r>   -11.5974     8.3739    81.7781 </r>
       <r>   -11.4725    16.7509    83.8701 </r>
       <r>   -11.3477     7.7973    84.8439 </r>
       <r>   -11.2228    14.6682    86.6758 </r>
       <r>   -11.0979    10.3678    87.9706 </r>
       <r>   -10.9730    17.7088    90.1822 </r>
       <r>   -10.8481     6.9741    91.0532 </r>
       <r>   -10.7232     8.5500    92.1210 </r>
       <r>   -10.5983     8.7504    93.2139 </r>
       <r>   -10.4734    10.6971    94.5498 </r>
       <r>   -10.3485    14.9073    96.4116 </r>
       <r>   -10.2237     8.4954    97.4726 </r>
       <r>   -10.0988    16.2080    99.4968 </r>
       <r>    -9.9739    19.6005   101.9447 </r>
       <r>    -9.8490    17.9380   104.1849 </r>
       <r>    -9.7241    20.8839   106.7931 </r>
       <r>    -9.5992    17.6368   108.9958 </r>
       <r>    -9.4743    20.7377   111.5857 </r>
       <r>    -9.3494    18.4788   113.8935 </r>
       <r>    -9.2245    17.0202   116.0191 </r>
       <r>    -9.0996    18.9787   118.3894 </r>
       <r>    -8.9748    19.9591   120.8821 </r>
       <r>    -8.8499    25.2325   124.0333 </r>
       <r>    -8.7250    26.2080   127.3064 </r>
       <r>    -8.6001    21.6759   130.0135 </r>
       <r>    -8.4752    21.9745   132.7579 </r>
       <r>    -8.3503    15.5797   134.7037 </r>
       <r>    -8.2254    17.7760   136.9237 </r>
       <r>    -8.1005    21.3062   139.5846 </r>
       <r>    -7.9756    20.9532   142.2014 </r>
       <r>    -7.8508    16.8377   144.3043 </r>
       <r>    -7.7259    20.6900   146.8883 </r>
       <r>    -7.6010    16.8961   148.9984 </r>
       <r>    -7.4761     9.3577   150.1671 </r>
       <r>    -7.3512     9.0481   151.2971 </r>
       <r>    -7.2263    17.4408   153.4753 </r>
       <r>    -7.1014    22.6604   156.3053 </r>
       <r>    -6.9765    24.9542   159.4218 </r>
       <r>    -6.8516    14.5699   161.2415 </r>
       <r>    -6.7267    10.3051   162.5284 </r>
       <r>    -6.6019    14.3155   164.3163 </r>
       <r>    -6.4770     7.5925   165.2645 </r>
       <r>    -6.3521    11.7707   166.7346 </r>
       <r>    -6.2272    13.2199   168.3856 </r>
       <r>    -6.1023    16.5040   170.4468 </r>
       <r>    -5.9774    20.3373   172.9867 </r>
       <r>    -5.8525     7.7154   173.9503 </r>
       <r>    -5.7276    16.1772   175.9706 </r>
       <r>    -5.6027    10.4214   177.2721 </r>
       <r>    -5.4779    10.2976   178.5582 </r>
       <r>    -5.3530     6.2672   179.3409 </r>
       <r>    -5.2281     7.0197   180.2176 </r>
       <r>    -5.1032     7.6315   181.1707 </r>
       <r>    -4.9783    17.7441   183.3867 </r>
       <r>    -4.8534    20.3133   185.9237 </r>
       <r>    -4.7285    11.5902   187.3712 </r>
       <r>    -4.6036     4.9140   187.9849 </r>
       <r>    -4.4787     8.1196   188.9989 </r>
       <r>    -4.3538     2.6752   189.3330 </r>
       <r>    -4.2290     5.0628   189.9653 </r>
       <r>    -4.1041     6.6470   190.7954 </r>
       <r>    -3.9792     9.4906   191.9807 </r>
       <r>    -3.8543     4.3639   192.5257 </r>
       <r>    -3.7294     8.3317   193.5663 </r>
       <r>    -3.6045     3.4689   193.9995 </r>
       <r>    -3.4796     0.0040   194.0000 </r>
       <r>    -3.3547     0.5680   194.0709 </r>
       <r>    -3.2298     5.1859   194.7186 </r>
       <r>    -3.1050     4.0926   195.2297 </r>
       <r>    -2.9801     1.7064   195.4428 </r>
       <r>    -2.8552     0.4577   195.5000 </r>
       <r>    -2.7303     0.0026   195.5003 </r>
       <r>    -2.6054     2.4978   195.8123 </r>
       <r>    -2.4805     1.5028   196.0000 </r>
       <r>    -2.3556     0.0003   196.0000 </r>
       <r>    -2.2307     1.1578   196.1446 </r>
       <r>    -2.1058     2.8398   196.4993 </r>
       <r>    -1.9810     0.0058   196.5000 </r>
       <r>    -1.8561     0.3364   196.5420 </r>
       <r>    -1.7312     2.0339   196.7960 </r>
       <r>    -1.6063     4.3290   197.3367 </r>
       <r>    -1.4814     5.2201   197.9886 </r>
       <r>    -1.3565     0.0940   198.0003 </r>
       <r>    -1.2316     2.7040   198.3380 </r>
       <r>    -1.1067     4.5779   198.9098 </r>
       <r>    -0.9818     8.1790   199.9312 </r>
       <r>    -0.8569    12.2864   201.4657 </r>
       <r>    -0.7321    10.6230   202.7924 </r>
       <r>    -0.6072     4.3273   203.3328 </r>
       <r>    -0.4823    13.2001   204.9814 </r>
       <r>    -0.3574     9.3456   206.1485 </r>
       <r>    -0.2325     5.5385   206.8402 </r>
       <r>    -0.1076     4.8505   207.4460 </r>
       <r>     0.0173     7.4404   208.3752 </r>
       <r>     0.1422    11.5533   209.8181 </r>
       <r>     0.2671    13.5728   211.5132 </r>
       <r>     0.3919     3.8811   211.9979 </r>
       <r>     0.5168     0.6769   212.0825 </r>
       <r>     0.6417     8.7370   213.1736 </r>
       <r>     0.7666     6.7121   214.0119 </r>
       <r>     0.8915     8.8166   215.1130 </r>
       <r>     1.0164     9.8200   216.3394 </r>
       <r>     1.1413     8.8551   217.4453 </r>
       <r>     1.2662     5.4108   218.1211 </r>
       <r>     1.3911    11.6291   219.5734 </r>
       <r>     1.5160    18.5592   221.8913 </r>
       <r>     1.6408    12.5877   223.4633 </r>
       <r>     1.7657    11.7649   224.9326 </r>
       <r>     1.8906    13.4973   226.6183 </r>
       <r>     2.0155    14.2213   228.3944 </r>
       <r>     2.1404    19.9032   230.8801 </r>
       <r>     2.2653    18.1659   233.1488 </r>
       <r>     2.3902    15.6814   235.1073 </r>
       <r>     2.5151    22.9805   237.9773 </r>
       <r>     2.6400     9.8814   239.2114 </r>
       <r>     2.7648    20.0084   241.7102 </r>
       <r>     2.8897    23.6515   244.6640 </r>
       <r>     3.0146    35.7869   249.1334 </r>
       <r>     3.1395    28.0552   252.6373 </r>
       <r>     3.2644    20.1292   255.1512 </r>
       <r>     3.3893    16.9011   257.2619 </r>
       <r>     3.5142    23.1372   260.1515 </r>
       <r>     3.6391    18.3307   262.4408 </r>
       <r>     3.7640    12.2044   263.9650 </r>
       <r>     3.8889    25.0869   267.0981 </r>
       <r>     4.0137    28.9798   270.7174 </r>
       <r>     4.1386    19.5283   273.1563 </r>
       <r>     4.2635    16.3873   275.2029 </r>
       <r>     4.3884    26.9090   278.5635 </r>
       <r>     4.5133    11.4500   279.9935 </r>
       <r>     4.6382     0.0519   280.0000 </r>
       <r>     4.7631     0.0000   280.0000 </r>
       <r>     4.8880     0.0000   280.0000 </r>
       <r>     5.0129     0.0000   280.0000 </r>
       <r>     5.1377     0.0000   280.0000 </r>
       <r>     5.2626     0.0000   280.0000 </r>
       <r>     5.3875     0.0000   280.0000 </r>
       <r>     5.5124     0.0000   280.0000 </r>
       <r>     5.6373     0.0000   280.0000 </r>
       <r>     5.7622     0.0000   280.0000 </r>
       <r>     5.8871     0.0000   280.0000 </r>
       <r>     6.0120     0.0000   280.0000 </r>
       <r>     6.1369     0.0000   280.0000 </r>
      </set>
     </set>
    </array>
   </total>
  </dos>
 </calculation>
 <structure name="finalpos" >
  <crystal>
   <varray name="basis" >
    <v>      17.27103806       0.00000000       0.00000000 </v>
    <v>      -8.63551903      14.95715771       0.00000000 </v>
    <v>       0.00000000       0.00000000      15.00000000 </v>
   </varray>
   <i name="volume">   3874.88459904 </i>
   <varray name="rec_basis" >
    <v>       0.05790040       0.03342881       0.00000000 </v>
    <v>       0.00000000       0.06685762       0.00000000 </v>
    <v>       0.00000000       0.00000000       0.06666667 </v>
   </varray>
  </crystal>
  <varray name="positions" >
   <v>       0.99984204       0.00022877       0.49478322 </v>
   <v>       0.99914244       0.14274094       0.48975903 </v>
   <v>       0.99889000       0.28563050       0.48623063 </v>
   <v>       0.99943758       0.42882350       0.48890990 </v>
   <v>       0.00027831       0.57202801       0.49412873 </v>
   <v>       0.00156693       0.71534602       0.50012249 </v>
   <v>       0.00128849       0.85830619       0.50021440 </v>
   <v>       0.14292608       0.00063649       0.48258108 </v>
   <v>       0.14179874       0.14272018       0.47644047 </v>
   <v>       0.14017711       0.28448902       0.46744376 </v>
   <v>       0.14058283       0.42800604       0.46713430 </v>
   <v>       0.14225912       0.57142835       0.47516471 </v>
   <v>       0.14318533       0.71470953       0.48197495 </v>
   <v>       0.14344608       0.85792428       0.48570256 </v>
   <v>       0.28592057       0.00072425       0.47934811 </v>
   <v>       0.28527736       0.14310382       0.46929946 </v>
   <v>       0.28249285       0.28401084       0.44699419 </v>
   <v>       0.27790242       0.42460629       0.43019268 </v>
   <v>       0.28382201       0.57074957       0.44889315 </v>
   <v>       0.28557582       0.71470703       0.46965974 </v>
   <v>       0.28594277       0.85785661       0.47919437 </v>
   <v>       0.42891116       0.00104630       0.48452050 </v>
   <v>       0.42871929       0.14421363       0.48203998 </v>
   <v>       0.42681941       0.28400761       0.46944595 </v>
   <v>       0.42717116       0.71654732       0.47061835 </v>
   <v>       0.42868406       0.85781486       0.48210107 </v>
   <v>       0.57128382       0.00074308       0.49374955 </v>
   <v>       0.57128969       0.14379639       0.49396240 </v>
   <v>       0.57193785       0.28789503       0.49912458 </v>
   <v>       0.57189311       0.85758341       0.49807385 </v>
   <v>       0.71396297       0.00013108       0.50439991 </v>
   <v>       0.71403802       0.14341092       0.49988875 </v>
   <v>       0.71399329       0.28655634       0.50509368 </v>
   <v>       0.71388820       0.42829847       0.52384938 </v>
   <v>       0.72839593       0.57684085       0.56543107 </v>
   <v>       0.72630037       0.72148770       0.55898561 </v>
   <v>       0.71339544       0.85757186       0.52105579 </v>
   <v>       0.85712710       0.00050041       0.50664492 </v>
   <v>       0.85660489       0.14310678       0.49922525 </v>
   <v>       0.85669028       0.28604569       0.49917935 </v>
   <v>       0.85745875       0.42909893       0.50682326 </v>
   <v>       0.85929103       0.57287002       0.51756612 </v>
   <v>       0.86161924       0.71677113       0.52617014 </v>
   <v>       0.85872937       0.85825573       0.51756788 </v>
   <v>       0.04706000       0.09533580       0.48713523 </v>
   <v>       0.04588764       0.23749073       0.48159251 </v>
   <v>       0.04614874       0.38077279       0.48114791 </v>
   <v>       0.04748470       0.52413174       0.48604739 </v>
   <v>       0.04825882       0.66734719       0.49154409 </v>
   <v>       0.04860686       0.81046478       0.49508991 </v>
   <v>       0.04794141       0.95300429       0.49208368 </v>
   <v>       0.18995542       0.09529186       0.47477567 </v>
   <v>       0.18815117       0.23724385       0.46505443 </v>
   <v>       0.18592421       0.37890488       0.45648830 </v>
   <v>       0.18873724       0.52326525       0.46413587 </v>
   <v>       0.19027203       0.66708161       0.47418853 </v>
   <v>       0.19088432       0.81021306       0.48155182 </v>
   <v>       0.19081379       0.95306720       0.48181645 </v>
   <v>       0.33350682       0.09630499       0.47645321 </v>
   <v>       0.33358740       0.23816639       0.45923106 </v>
   <v>       0.31928155       0.37219340       0.41809040 </v>
   <v>       0.32149832       0.51889505       0.42412599 </v>
   <v>       0.33408948       0.66787227       0.46093037 </v>
   <v>       0.33353224       0.80989933       0.47648159 </v>
   <v>       0.33349963       0.95312029       0.48085173 </v>
   <v>       0.47626001       0.09629296       0.48730953 </v>
   <v>       0.47547016       0.23974207       0.48393556 </v>
   <v>       0.47554090       0.80939731       0.48401954 </v>
   <v>       0.47627079       0.95323818       0.48725484 </v>
   <v>       0.61865470       0.09591651       0.49631026 </v>
   <v>       0.61877440       0.23919608       0.49986714 </v>
   <v>       0.62055335       0.38071773       0.51435251 </v>
   <v>       0.62022248       0.81312315       0.51211620 </v>
   <v>       0.61882463       0.95287955       0.49910479 </v>
   <v>       0.76157349       0.09568478       0.50150785 </v>
   <v>       0.76160745       0.23859750       0.50166875 </v>
   <v>       0.76215214       0.38157209       0.51272476 </v>
   <v>       0.76502464       0.52531840       0.53627141 </v>
   <v>       0.76976303       0.67063751       0.55300206 </v>
   <v>       0.76376827       0.81080267       0.53343525 </v>
   <v>       0.76184575       0.95284496       0.51145594 </v>
   <v>       0.90420590       0.09522775       0.49888290 </v>
   <v>       0.90405596       0.23826590       0.49521304 </v>
   <v>       0.90448523       0.38148435       0.49854760 </v>
   <v>       0.90556451       0.52468962       0.50540633 </v>
   <v>       0.90736193       0.66809999       0.51505153 </v>
   <v>       0.90691805       0.81115702       0.51482959 </v>
   <v>       0.90507494       0.95279479       0.50580837 </v>
   <v>       0.46255604       0.35664885       0.46791772 </v>
   <v>       0.58475209       0.41752329       0.51675862 </v>
   <v>       0.58348611       0.74083690       0.51549161 </v>
   <v>       0.46385054       0.68090194       0.46823683 </v>
   <v>       0.49537945       0.53072393       0.44757391 </v>
   <v>       0.55373044       0.56061543       0.53342110 </v>
   <v>       0.39969295       0.41046318       0.37576315 </v>
   <v>       0.40860069       0.56187869       0.39505939 </v>
   <v>       0.63951566       0.67777750       0.58897806 </v>
   <v>       0.64819413       0.53488477       0.60816213 </v>
   <v>       0.52650566       0.51302537       0.48954772 </v>
  </varray>
  <varray name="selective"  type="logical" >
   <v type="logical" >  T  T  T </v>
   <v type="logical" >  T  T  T </v>
   <v type="logical" >  T  T  T </v>
   <v type="logical" >  T  T  T </v>
   <v type="logical" >  T  T  T </v>
   <v type="logical" >  T  T  T </v>
   <v type="logical" >  T  T  T </v>
   <v type="logical" >  T  T  T </v>
   <v type="logical" >  T  T  T </v>
   <v type="logical" >  T  T  T </v>
   <v type="logical" >  T  T  T </v>
   <v type="logical" >  T  T  T </v>
   <v type="logical" >  T  T  T </v>
   <v type="logical" >  T  T  T </v>
   <v type="logical" >  T  T  T </v>
   <v type="logical" >  T  T  T </v>
   <v type="logical" >  T  T  T </v>
   <v type="logical" >  T  T  T </v>
   <v type="logical" >  T  T  T </v>
   <v type="logical" >  T  T  T </v>
   <v type="logical" >  T  T  T </v>
   <v type="logical" >  T  T  T </v>
   <v type="logical" >  T  T  T </v>
   <v type="logical" >  T  T  T </v>
   <v type="logical" >  T  T  T </v>
   <v type="logical" >  T  T  T </v>
   <v type="logical" >  T  T  T </v>
   <v type="logical" >  T  T  T </v>
   <v type="logical" >  T  T  T </v>
   <v type="logical" >  T  T  T </v>
   <v type="logical" >  T  T  T </v>
   <v type="logical" >  T  T  T </v>
   <v type="logical" >  T  T  T </v>
   <v type="logical" >  T  T  T </v>
   <v type="logical" >  T  T  T </v>
   <v type="logical" >  T  T  T </v>
   <v type="logical" >  T  T  T </v>
   <v type="logical" >  T  T  T </v>
   <v type="logical" >  T  T  T </v>
   <v type="logical" >  T  T  T </v>
   <v type="logical" >  T  T  T </v>
   <v type="logical" >  T  T  T </v>
   <v type="logical" >  T  T  T </v>
   <v type="logical" >  T  T  T </v>
   <v type="logical" >  T  T  T </v>
   <v type="logical" >  T  T  T </v>
   <v type="logical" >  T  T  T </v>
   <v type="logical" >  T  T  T </v>
   <v type="logical" >  T  T  T </v>
   <v type="logical" >  T  T  T </v>
   <v type="logical" >  T  T  T </v>
   <v type="logical" >  T  T  T </v>
   <v type="logical" >  T  T  T </v>
   <v type="logical" >  T  T  T </v>
   <v type="logical" >  T  T  T </v>
   <v type="logical" >  T  T  T </v>
   <v type="logical" >  T  T  T </v>
   <v type="logical" >  T  T  T </v>
   <v type="logical" >  T  T  T </v>
   <v type="logical" >  T  T  T </v>
   <v type="logical" >  T  T  T </v>
   <v type="logical" >  T  T  T </v>
   <v type="logical" >  T  T  T </v>
   <v type="logical" >  T  T  T </v>
   <v type="logical" >  T  T  T </v>
   <v type="logical" >  T  T  T </v>
   <v type="logical" >  T  T  T </v>
   <v type="logical" >  T  T  T </v>
   <v type="logical" >  T  T  T </v>
   <v type="logical" >  T  T  T </v>
   <v type="logical" >  T  T  T </v>
   <v type="logical" >  T  T  T </v>
   <v type="logical" >  T  T  T </v>
   <v type="logical" >  T  T  T </v>
   <v type="logical" >  T  T  T </v>
   <v type="logical" >  T  T  T </v>
   <v type="logical" >  T  T  T </v>
   <v type="logical" >  T  T  T </v>
   <v type="logical" >  T  T  T </v>
   <v type="logical" >  T  T  T </v>
   <v type="logical" >  T  T  T </v>
   <v type="logical" >  T  T  T </v>
   <v type="logical" >  T  T  T </v>
   <v type="logical" >  T  T  T </v>
   <v type="logical" >  T  T  T </v>
   <v type="logical" >  T  T  T </v>
   <v type="logical" >  T  T  T </v>
   <v type="logical" >  T  T  T </v>
   <v type="logical" >  T  T  T </v>
   <v type="logical" >  T  T  T </v>
   <v type="logical" >  T  T  T </v>
   <v type="logical" >  T  T  T </v>
   <v type="logical" >  T  T  T </v>
   <v type="logical" >  T  T  T </v>
   <v type="logical" >  T  T  T </v>
   <v type="logical" >  T  T  T </v>
   <v type="logical" >  T  T  T </v>
   <v type="logical" >  T  T  T </v>
   <v type="logical" >  T  T  T </v>
  </varray>
  <nose>
   <v>      -3.00000000       0.00000000       0.00010000       0.00010000 </v>
  </nose>
 </structure>
</modeling>
