unknown system                          
           1
    17.271038    0.000000    0.000000
    -8.635519   14.957158    0.000000
     0.000000    0.000000   15.000000
   C    H    F    O 
    88     6     4     1
Direct configuration=     1
   0.99989530  0.00030685  0.49449639
   0.99912381  0.14277567  0.48857783
   0.99884242  0.28565149  0.48508903
   0.99937659  0.42885663  0.48811739
   0.00026554  0.57208318  0.49397398
   0.00167743  0.71545533  0.50054357
   0.00141142  0.85845269  0.50056218
   0.14282778  0.00064747  0.48043961
   0.14165866  0.14268157  0.47373741
   0.14005191  0.28447425  0.46498223
   0.14046347  0.42801108  0.46547339
   0.14216655  0.57145119  0.47389526
   0.14312421  0.71473965  0.48072319
   0.14339167  0.85796593  0.48411329
   0.28586714  0.00075304  0.47635153
   0.28520726  0.14309827  0.46599217
   0.28238565  0.28405747  0.44386284
   0.27778508  0.42478926  0.42786416
   0.28368593  0.57078759  0.44722201
   0.28553571  0.71472774  0.46800426
   0.28590548  0.85788753  0.47689421
   0.42887721  0.00104826  0.48205531
   0.42874421  0.14425267  0.47897576
   0.42680824  0.28398197  0.46629820
   0.42712282  0.71642509  0.46974587
   0.42870470  0.85778209  0.48047794
   0.57125294  0.00074279  0.49221813
   0.57124926  0.14386738  0.49179756
   0.57190126  0.28807408  0.49747411
   0.57186756  0.85753942  0.49814581
   0.71394232  0.00014282  0.50432440
   0.71397842  0.14343355  0.49872233
   0.71391249  0.28662710  0.50410100
   0.71377984  0.42829388  0.52447811
   0.72891052  0.57698587  0.56804094
   0.72682537  0.72181711  0.56157167
   0.71343636  0.85768101  0.52277510
   0.85720370  0.00062150  0.50725494
   0.85659046  0.14314050  0.49868290
   0.85663262  0.28607979  0.49841176
   0.85741642  0.42914013  0.50677166
   0.85944224  0.57295730  0.51898324
   0.86209988  0.71709022  0.52846688
   0.85901128  0.85856378  0.51963382
   0.04701674  0.09533625  0.48565669
   0.04583886  0.23751371  0.47995373
   0.04608056  0.38080124  0.47994052
   0.04742314  0.52417518  0.48525164
   0.04826783  0.66740861  0.49121730
   0.04866024  0.81056313  0.49484646
   0.04796370  0.95307403  0.49138062
   0.18982615  0.09525357  0.47188427
   0.18798681  0.23718017  0.46195414
   0.18579530  0.37893932  0.45422171
   0.18862168  0.52328305  0.46256576
   0.19019985  0.66710330  0.47271291
   0.19083339  0.81024835  0.47973419
   0.19073700  0.95307808  0.47941651
   0.33349551  0.09634046  0.47313352
   0.33354000  0.23819227  0.45597784
   0.31922782  0.37247725  0.41576322
   0.32152531  0.51915746  0.42216688
   0.33404255  0.66787807  0.45951620
   0.33354179  0.80993512  0.47455022
   0.33345990  0.95315662  0.47818836
   0.47623518  0.09632520  0.48467675
   0.47551480  0.23982448  0.48117011
   0.47554844  0.80930102  0.48326674
   0.47624826  0.95323020  0.48531525
   0.61861006  0.09595124  0.49459075
   0.61872618  0.23931113  0.49811612
   0.62039622  0.38073022  0.51440068
   0.62018785  0.81322706  0.51365074
   0.61879867  0.95287508  0.49854818
   0.76154441  0.09570993  0.50091934
   0.76153988  0.23863942  0.50063734
   0.76206650  0.38162029  0.51256938
   0.76517359  0.52534970  0.53796369
   0.77035806  0.67094694  0.55580765
   0.76403932  0.81110334  0.53590547
   0.76188083  0.95292098  0.51228433
   0.90423466  0.09529284  0.49854282
   0.90401854  0.23829909  0.49442216
   0.90442615  0.38153170  0.49798752
   0.90560215  0.52476355  0.50586511
   0.90761748  0.66825941  0.51661680
   0.90722543  0.81145560  0.51661332
   0.90524771  0.95298018  0.50684142
   0.46267024  0.35656817  0.46485019
   0.58439433  0.41736484  0.51804246
   0.58322861  0.74098501  0.51813308
   0.46364674  0.68058468  0.46775298
   0.49739992  0.52459913  0.44726103
   0.55793282  0.56456714  0.53083203
   0.40041018  0.41144648  0.37457251
   0.40837392  0.56226752  0.39289189
   0.63956682  0.67754007  0.59036701
   0.64881901  0.53495221  0.61088763
   0.51919138  0.50883604  0.49991017
Direct configuration=     2
   0.99989442  0.00030659  0.49449701
   0.99912313  0.14277585  0.48858136
   0.99884230  0.28565439  0.48509327
   0.99937650  0.42885862  0.48812007
   0.00026592  0.57208249  0.49397773
   0.00167679  0.71545301  0.50054696
   0.00141118  0.85845141  0.50056404
   0.14282889  0.00064733  0.48044659
   0.14165890  0.14268137  0.47375039
   0.14005346  0.28447698  0.46499269
   0.14046348  0.42801319  0.46547877
   0.14216632  0.57145121  0.47389966
   0.14312438  0.71473877  0.48072880
   0.14339581  0.85796415  0.48411988
   0.28586573  0.00075049  0.47636512
   0.28520824  0.14309917  0.46601227
   0.28238772  0.28405855  0.44388378
   0.27778870  0.42479193  0.42787764
   0.28368601  0.57078800  0.44723056
   0.28553259  0.71472772  0.46801361
   0.28590410  0.85788722  0.47690480
   0.42887605  0.00104565  0.48206818
   0.42874362  0.14425186  0.47899531
   0.42680783  0.28398312  0.46632542
   0.42712155  0.71642624  0.46975603
   0.42870010  0.85778196  0.48048942
   0.57125265  0.00074318  0.49223002
   0.57125136  0.14386766  0.49181397
   0.57190244  0.28807387  0.49749099
   0.57186643  0.85753986  0.49815874
   0.71394113  0.00014248  0.50433105
   0.71398086  0.14343545  0.49873225
   0.71391688  0.28663138  0.50411169
   0.71378563  0.42829545  0.52448901
   0.72891302  0.57698566  0.56804311
   0.72682489  0.72181519  0.56156562
   0.71343607  0.85768185  0.52277687
   0.85720231  0.00062020  0.50725642
   0.85659015  0.14314294  0.49868634
   0.85663226  0.28608275  0.49841445
   0.85742122  0.42914107  0.50677678
   0.85944416  0.57295676  0.51898517
   0.86209979  0.71708683  0.52846775
   0.85901125  0.85856241  0.51963399
   0.04701565  0.09533564  0.48566262
   0.04583807  0.23751010  0.47995688
   0.04608160  0.38079860  0.47994380
   0.04742378  0.52417542  0.48525513
   0.04826729  0.66740976  0.49122103
   0.04865860  0.81056347  0.49485063
   0.04796332  0.95307433  0.49138348
   0.18982678  0.09525495  0.47189832
   0.18798695  0.23717974  0.46197105
   0.18579794  0.37893811  0.45422950
   0.18862360  0.52328205  0.46257088
   0.19020050  0.66710369  0.47271948
   0.19083157  0.81024932  0.47974179
   0.19073484  0.95307859  0.47942637
   0.33349532  0.09634101  0.47315314
   0.33354069  0.23819357  0.45600302
   0.31923149  0.37247668  0.41578226
   0.32153060  0.51916016  0.42217627
   0.33404439  0.66787860  0.45952505
   0.33354948  0.80993624  0.47455950
   0.33346244  0.95315748  0.47820218
   0.47623580  0.09632613  0.48469567
   0.47551459  0.23982303  0.48119199
   0.47554731  0.80929788  0.48327840
   0.47625001  0.95323078  0.48532765
   0.61860848  0.09595136  0.49460422
   0.61872398  0.23930939  0.49813127
   0.62039523  0.38072633  0.51441392
   0.62018652  0.81322627  0.51365913
   0.61879869  0.95287562  0.49855687
   0.76154459  0.09570680  0.50092352
   0.76153817  0.23863713  0.50064611
   0.76206494  0.38161715  0.51258030
   0.76517191  0.52534925  0.53796846
   0.77035664  0.67094731  0.55580612
   0.76403919  0.81110335  0.53590263
   0.76188161  0.95292073  0.51228800
   0.90423486  0.09529130  0.49854406
   0.90401939  0.23829637  0.49442500
   0.90442719  0.38152957  0.49799362
   0.90560323  0.52476476  0.50587023
   0.90761726  0.66826198  0.51661865
   0.90722559  0.81145853  0.51661256
   0.90524709  0.95298008  0.50684219
   0.46266986  0.35656964  0.46488500
   0.58439611  0.41736339  0.51805493
   0.58322707  0.74098511  0.51814168
   0.46364596  0.68058486  0.46776746
   0.49738592  0.52463068  0.44725288
   0.55789478  0.56453605  0.53085784
   0.40041108  0.41144231  0.37458849
   0.40837714  0.56226826  0.39291120
   0.63956130  0.67753573  0.59035309
   0.64882075  0.53495293  0.61089446
   0.51921417  0.50884745  0.49978356
Direct configuration=     3
   0.99989305  0.00030609  0.49449788
   0.99912202  0.14277401  0.48858624
   0.99884274  0.28565257  0.48509893
   0.99937815  0.42885824  0.48812375
   0.00026884  0.57208480  0.49398167
   0.00167615  0.71545389  0.50055144
   0.00141085  0.85845214  0.50056611
   0.14282843  0.00064805  0.48045715
   0.14165876  0.14268084  0.47376836
   0.14005457  0.28447681  0.46500803
   0.14046523  0.42801236  0.46548592
   0.14216787  0.57145093  0.47390581
   0.14312370  0.71473864  0.48073711
   0.14339558  0.85796407  0.48413006
   0.28586374  0.00075015  0.47638475
   0.28520925  0.14310060  0.46604188
   0.28238940  0.28405875  0.44391534
   0.27779440  0.42479400  0.42789685
   0.28368892  0.57078889  0.44724210
   0.28553391  0.71472800  0.46802674
   0.28590563  0.85788732  0.47692029
   0.42887811  0.00104617  0.48208789
   0.42874472  0.14425131  0.47902339
   0.42680769  0.28398268  0.46636382
   0.42712203  0.71642672  0.46977090
   0.42870333  0.85778321  0.48050544
   0.57125291  0.00074399  0.49224736
   0.57125127  0.14386775  0.49183669
   0.57190086  0.28807145  0.49751433
   0.57186471  0.85753960  0.49817672
   0.71394058  0.00014096  0.50434021
   0.71398087  0.14343373  0.49874633
   0.71391571  0.28663039  0.50412550
   0.71378367  0.42829244  0.52450275
   0.72891431  0.57698690  0.56804509
   0.72682269  0.72181343  0.56155419
   0.71343588  0.85768207  0.52277846
   0.85720181  0.00061908  0.50725784
   0.85659042  0.14314145  0.49869089
   0.85663223  0.28608087  0.49841800
   0.85742411  0.42914086  0.50678402
   0.85944481  0.57295788  0.51898785
   0.86209931  0.71708900  0.52846735
   0.85901100  0.85856252  0.51963279
   0.04701544  0.09533502  0.48566972
   0.04583750  0.23751033  0.47996173
   0.04608217  0.38080021  0.47994876
   0.04742428  0.52417599  0.48526009
   0.04826746  0.66740885  0.49122609
   0.04865936  0.81056187  0.49485602
   0.04796349  0.95307428  0.49138714
   0.18982832  0.09525610  0.47191891
   0.18798838  0.23718092  0.46199549
   0.18580183  0.37894120  0.45424083
   0.18862449  0.52328266  0.46257878
   0.19019949  0.66710353  0.47272923
   0.19083228  0.81024810  0.47975279
   0.19073469  0.95307715  0.47944070
   0.33349510  0.09633969  0.47318084
   0.33354225  0.23819666  0.45603888
   0.31923741  0.37247782  0.41580925
   0.32153514  0.51916323  0.42219124
   0.33404207  0.66787873  0.45953794
   0.33354785  0.80993699  0.47457328
   0.33346363  0.95315454  0.47822206
   0.47623679  0.09632492  0.48472196
   0.47551229  0.23982201  0.48122247
   0.47554457  0.80929662  0.48329500
   0.47624982  0.95323039  0.48534561
   0.61861094  0.09595208  0.49462395
   0.61872732  0.23931022  0.49815240
   0.62039928  0.38072516  0.51443317
   0.62018499  0.81322650  0.51367023
   0.61879806  0.95287632  0.49856961
   0.76154486  0.09570746  0.50093021
   0.76153933  0.23863843  0.50065846
   0.76206931  0.38161713  0.51259396
   0.76517386  0.52534880  0.53797286
   0.77035561  0.67094531  0.55580171
   0.76403824  0.81110214  0.53589729
   0.76188089  0.95292039  0.51229241
   0.90423363  0.09529074  0.49854568
   0.90402175  0.23830110  0.49442840
   0.90442971  0.38153024  0.49800172
   0.90560542  0.52476476  0.50587668
   0.90761717  0.66826058  0.51662014
   0.90722472  0.81145704  0.51661112
   0.90524593  0.95297911  0.50684258
   0.46266937  0.35657209  0.46493496
   0.58439864  0.41736101  0.51807109
   0.58322477  0.74098499  0.51815258
   0.46364444  0.68058559  0.46778793
   0.49734703  0.52469379  0.44719800
   0.55781756  0.56446354  0.53088244
   0.40041155  0.41143558  0.37461028
   0.40838372  0.56227047  0.39293840
   0.63955343  0.67752842  0.59033304
   0.64882268  0.53495363  0.61089924
   0.51928307  0.50887119  0.49966403
Direct configuration=     4
   0.99989141  0.00030486  0.49449981
   0.99912085  0.14277127  0.48859265
   0.99884418  0.28564892  0.48510601
   0.99938101  0.42885645  0.48812929
   0.00027260  0.57208815  0.49398668
   0.00167582  0.71545612  0.50055734
   0.00141080  0.85845348  0.50056885
   0.14282714  0.00064888  0.48047224
   0.14165943  0.14268437  0.47378987
   0.14005575  0.28447534  0.46502848
   0.14046832  0.42801003  0.46549541
   0.14216888  0.57144901  0.47391331
   0.14312261  0.71473903  0.48074858
   0.14339278  0.85796552  0.48414178
   0.28586299  0.00075058  0.47641162
   0.28520929  0.14309982  0.46608117
   0.28239127  0.28405941  0.44395870
   0.27780226  0.42479580  0.42792259
   0.28369341  0.57079044  0.44725754
   0.28553764  0.71472880  0.46804427
   0.28590870  0.85788694  0.47694124
   0.42888172  0.00104832  0.48211577
   0.42874894  0.14425087  0.47906044
   0.42680879  0.28398317  0.46641242
   0.42712185  0.71642597  0.46979151
   0.42871057  0.85778465  0.48052657
   0.57125374  0.00074516  0.49227102
   0.57125054  0.14386758  0.49186704
   0.57189994  0.28806916  0.49754366
   0.57186220  0.85753897  0.49820006
   0.71394071  0.00013953  0.50435228
   0.71397898  0.14343298  0.49876461
   0.71391230  0.28662577  0.50414392
   0.71377883  0.42828664  0.52452037
   0.72891441  0.57698825  0.56804737
   0.72681693  0.72180975  0.56153879
   0.71343604  0.85768134  0.52277962
   0.85720166  0.00061821  0.50725976
   0.85659153  0.14313869  0.49869665
   0.85663308  0.28607681  0.49842368
   0.85742516  0.42914004  0.50679455
   0.85944438  0.57295891  0.51899199
   0.86209845  0.71709385  0.52846618
   0.85901009  0.85856318  0.51963075
   0.04701595  0.09533271  0.48567731
   0.04583732  0.23751283  0.47996939
   0.04608297  0.38080398  0.47995579
   0.04742542  0.52417658  0.48526676
   0.04826813  0.66740748  0.49123308
   0.04866145  0.81055982  0.49486328
   0.04796332  0.95307389  0.49139210
   0.18983051  0.09525547  0.47194445
   0.18799169  0.23718455  0.46202786
   0.18580605  0.37894614  0.45425709
   0.18862404  0.52328411  0.46258868
   0.19019896  0.66710239  0.47274175
   0.19083503  0.81024568  0.47976797
   0.19073578  0.95307481  0.47945999
   0.33349683  0.09634011  0.47321419
   0.33354538  0.23819972  0.45608599
   0.31924467  0.37247959  0.41584560
   0.32153724  0.51916472  0.42221374
   0.33403804  0.66787983  0.45955477
   0.33354208  0.80993516  0.47459146
   0.33346156  0.95315238  0.47824778
   0.47623812  0.09632261  0.48475627
   0.47550911  0.23982075  0.48126327
   0.47554192  0.80929739  0.48331635
   0.47624899  0.95322960  0.48537003
   0.61861590  0.09595241  0.49464804
   0.61873257  0.23931208  0.49818023
   0.62040472  0.38072509  0.51445942
   0.62018518  0.81322803  0.51368246
   0.61879671  0.95287629  0.49858769
   0.76154515  0.09570865  0.50093979
   0.76154216  0.23864113  0.50067464
   0.76207720  0.38161965  0.51261097
   0.76517804  0.52534845  0.53797857
   0.77035476  0.67094242  0.55579536
   0.76403649  0.81110002  0.53589016
   0.76187899  0.95291967  0.51229809
   0.90423130  0.09529038  0.49854834
   0.90402217  0.23830617  0.49443321
   0.90443303  0.38153238  0.49801167
   0.90560859  0.52476421  0.50588485
   0.90761683  0.66825720  0.51662209
   0.90722319  0.81145287  0.51660956
   0.90524441  0.95297746  0.50684292
   0.46266830  0.35657457  0.46500080
   0.58440221  0.41735769  0.51809186
   0.58322190  0.74098485  0.51816664
   0.46364270  0.68058649  0.46781490
   0.49729284  0.52478507  0.44711533
   0.55771447  0.56436939  0.53091263
   0.40041093  0.41143033  0.37463720
   0.40839021  0.56227334  0.39297367
   0.63954421  0.67751854  0.59030703
   0.64882455  0.53495442  0.61090330
   0.51937929  0.50889470  0.49952420
Direct configuration=     5
   0.99988985  0.00030235  0.49450331
   0.99912019  0.14276949  0.48860052
   0.99884757  0.28565340  0.48511406
   0.99938342  0.42885627  0.48813757
   0.00027405  0.57208853  0.49399244
   0.00167581  0.71545572  0.50056493
   0.00141106  0.85845274  0.50057270
   0.14282685  0.00064830  0.48049237
   0.14166212  0.14268933  0.47381584
   0.14005816  0.28447716  0.46505392
   0.14047129  0.42801020  0.46550800
   0.14216846  0.57144727  0.47392295
   0.14312542  0.71473948  0.48076197
   0.14339171  0.85796535  0.48415562
   0.28586360  0.00074989  0.47644383
   0.28521066  0.14309868  0.46613032
   0.28239585  0.28406278  0.44401418
   0.27780988  0.42479731  0.42795331
   0.28369568  0.57079265  0.44727815
   0.28553803  0.71472947  0.46806655
   0.28590657  0.85788423  0.47696730
   0.42888330  0.00104871  0.48215120
   0.42875290  0.14424979  0.47910720
   0.42681018  0.28398494  0.46647172
   0.42711809  0.71642487  0.46981869
   0.42871285  0.85778459  0.48055292
   0.57125482  0.00074607  0.49230148
   0.57125229  0.14386714  0.49190599
   0.57190128  0.28806802  0.49758103
   0.57186098  0.85754089  0.49822859
   0.71394081  0.00014081  0.50436618
   0.71397944  0.14343563  0.49878749
   0.71391417  0.28662382  0.50416859
   0.71378175  0.42828387  0.52454214
   0.72891456  0.57698776  0.56804967
   0.72680630  0.72180322  0.56152240
   0.71343606  0.85767981  0.52278134
   0.85720023  0.00061716  0.50726267
   0.85659215  0.14313880  0.49870370
   0.85663529  0.28607674  0.49843278
   0.85742737  0.42914041  0.50680902
   0.85944506  0.57295858  0.51899641
   0.86209755  0.71709274  0.52846532
   0.85900823  0.85856203  0.51962846
   0.04701602  0.09533024  0.48568614
   0.04583765  0.23751287  0.47998087
   0.04608519  0.38080446  0.47996494
   0.04742558  0.52417664  0.48527473
   0.04826861  0.66740851  0.49124253
   0.04866206  0.81056002  0.49487289
   0.04796153  0.95307231  0.49139757
   0.18983144  0.09525483  0.47197578
   0.18799551  0.23718901  0.46206883
   0.18581022  0.37894790  0.45427939
   0.18862452  0.52328420  0.46260050
   0.19020002  0.66710108  0.47275736
   0.19083729  0.81024498  0.47978786
   0.19073597  0.95307426  0.47948448
   0.33350265  0.09634238  0.47325202
   0.33354752  0.23819860  0.45614369
   0.31925305  0.37248033  0.41589059
   0.32153655  0.51916314  0.42224492
   0.33403946  0.66788286  0.45957501
   0.33354124  0.80993349  0.47461513
   0.33346223  0.95315257  0.47827944
   0.47624134  0.09632169  0.48479784
   0.47550810  0.23981883  0.48131566
   0.47554098  0.80929860  0.48334222
   0.47624999  0.95322977  0.48540172
   0.61861858  0.09595224  0.49467723
   0.61873351  0.23931159  0.49821495
   0.62040580  0.38072233  0.51449275
   0.62018535  0.81322757  0.51369596
   0.61879509  0.95287512  0.49861217
   0.76154554  0.09570865  0.50095312
   0.76154371  0.23864137  0.50069468
   0.76207956  0.38162183  0.51263125
   0.76518018  0.52534774  0.53798801
   0.77035284  0.67094134  0.55578830
   0.76403412  0.81109749  0.53588190
   0.76187779  0.95291857  0.51230542
   0.90422981  0.09528900  0.49855254
   0.90402142  0.23830487  0.49443977
   0.90443577  0.38153246  0.49802325
   0.90561241  0.52476481  0.50589372
   0.90761544  0.66825717  0.51662422
   0.90722209  0.81145145  0.51660802
   0.90524487  0.95297826  0.50684233
   0.46266652  0.35657672  0.46508199
   0.58440688  0.41735410  0.51811801
   0.58321915  0.74098562  0.51818439
   0.46364139  0.68058705  0.46784843
   0.49724518  0.52489096  0.44705168
   0.55760732  0.56428423  0.53095986
   0.40040687  0.41142208  0.37466788
   0.40839760  0.56227755  0.39301328
   0.63953382  0.67750662  0.59027936
   0.64882608  0.53495547  0.61090834
   0.51946619  0.50890245  0.49930288
Direct configuration=     6
   0.99988904  0.00030044  0.49450665
   0.99912023  0.14276906  0.48860977
   0.99884829  0.28565523  0.48512320
   0.99938493  0.42885836  0.48814881
   0.00027375  0.57208689  0.49399949
   0.00167614  0.71545333  0.50057409
   0.00141071  0.85844985  0.50057763
   0.14282771  0.00064847  0.48051608
   0.14166638  0.14269257  0.47384744
   0.14006088  0.28448332  0.46508340
   0.14047422  0.42801350  0.46552395
   0.14216720  0.57144672  0.47393512
   0.14313048  0.71473919  0.48077802
   0.14339394  0.85796339  0.48417270
   0.28586473  0.00074807  0.47648066
   0.28521320  0.14309495  0.46618805
   0.28240432  0.28406854  0.44408251
   0.27781558  0.42479764  0.42799062
   0.28369407  0.57079403  0.44730271
   0.28553518  0.71472983  0.46809335
   0.28590179  0.85788127  0.47699718
   0.42888030  0.00104411  0.48219229
   0.42875604  0.14424895  0.47916409
   0.42681161  0.28398708  0.46654393
   0.42711353  0.71642625  0.46985187
   0.42870832  0.85778367  0.48058495
   0.57125606  0.00074373  0.49233490
   0.57125689  0.14386619  0.49195241
   0.57190502  0.28806801  0.49762660
   0.57186151  0.85754256  0.49825902
   0.71394062  0.00014366  0.50438251
   0.71398245  0.14343934  0.49881353
   0.71392136  0.28662681  0.50420009
   0.71379012  0.42828456  0.52456686
   0.72891543  0.57698654  0.56805041
   0.72679476  0.72179552  0.56150314
   0.71343573  0.85767810  0.52278331
   0.85719787  0.00061616  0.50726633
   0.85659178  0.14314112  0.49871208
   0.85663830  0.28608058  0.49844602
   0.85743148  0.42914234  0.50682729
   0.85944737  0.57295726  0.51900119
   0.86209599  0.71708652  0.52846418
   0.85900624  0.85855917  0.51962522
   0.04701590  0.09532954  0.48569671
   0.04583873  0.23751112  0.47999660
   0.04608966  0.38080309  0.47997631
   0.04742543  0.52417592  0.48528393
   0.04826995  0.66741171  0.49125416
   0.04866086  0.81056187  0.49488464
   0.04795886  0.95306961  0.49140404
   0.18983194  0.09525632  0.47201242
   0.18800038  0.23719346  0.46211766
   0.18581460  0.37894645  0.45430839
   0.18862639  0.52328326  0.46261478
   0.19020232  0.66709998  0.47277635
   0.19083560  0.81024886  0.47981239
   0.19073800  0.95307857  0.47951231
   0.33351001  0.09634403  0.47329673
   0.33354871  0.23819499  0.45621152
   0.31926249  0.37248023  0.41594407
   0.32153526  0.51916014  0.42228450
   0.33404466  0.66788646  0.45959806
   0.33354644  0.80993365  0.47464520
   0.33346532  0.95315410  0.47831774
   0.47624610  0.09632234  0.48484753
   0.47551126  0.23981804  0.48137873
   0.47554171  0.80929821  0.48337245
   0.47625393  0.95323308  0.48543990
   0.61861783  0.09595371  0.49471186
   0.61873305  0.23930939  0.49825438
   0.62040364  0.38071683  0.51453132
   0.62018469  0.81322606  0.51371094
   0.61879468  0.95287482  0.49864349
   0.76154609  0.09571038  0.50096924
   0.76154476  0.23864007  0.50071863
   0.76207716  0.38162096  0.51265456
   0.76518025  0.52534669  0.53800083
   0.77034839  0.67094154  0.55578001
   0.76403017  0.81109545  0.53587387
   0.76187770  0.95291782  0.51231379
   0.90422990  0.09528715  0.49855825
   0.90402212  0.23829967  0.49444799
   0.90443765  0.38153063  0.49803639
   0.90561535  0.52476637  0.50590338
   0.90761385  0.66825967  0.51662629
   0.90722134  0.81145322  0.51660622
   0.90524333  0.95297738  0.50684225
   0.46266423  0.35657921  0.46517709
   0.58441218  0.41735129  0.51814871
   0.58321675  0.74098733  0.51820479
   0.46364036  0.68058766  0.46788802
   0.49720706  0.52501115  0.44701246
   0.55748722  0.56419578  0.53101556
   0.40039918  0.41140977  0.37470281
   0.40840444  0.56227944  0.39305731
   0.63952172  0.67748941  0.59024958
   0.64882546  0.53495309  0.61091190
   0.51955096  0.50890748  0.49900372
Direct configuration=     7
   0.99988834  0.00029948  0.49450943
   0.99912107  0.14276876  0.48862142
   0.99884686  0.28564969  0.48513469
   0.99938500  0.42886141  0.48816247
   0.00027402  0.57208685  0.49400872
   0.00167699  0.71545366  0.50058528
   0.00140815  0.85844700  0.50058349
   0.14282826  0.00065012  0.48054662
   0.14167038  0.14269252  0.47388845
   0.14006388  0.28448880  0.46512232
   0.14047840  0.42801636  0.46554544
   0.14216688  0.57144664  0.47395134
   0.14313476  0.71474024  0.48079822
   0.14339654  0.85796501  0.48419703
   0.28586923  0.00074901  0.47652769
   0.28521912  0.14309088  0.46625972
   0.28241703  0.28407445  0.44417271
   0.27781852  0.42479283  0.42803978
   0.28369257  0.57079569  0.44733215
   0.28553529  0.71473004  0.46812740
   0.28590254  0.85788358  0.47703223
   0.42887986  0.00104270  0.48224100
   0.42876265  0.14425364  0.47923696
   0.42681430  0.28398600  0.46664061
   0.42711545  0.71643138  0.46989013
   0.42870444  0.85778492  0.48062834
   0.57125969  0.00074094  0.49237312
   0.57126019  0.14386391  0.49201055
   0.57190962  0.28806595  0.49768735
   0.57186589  0.85754486  0.49829321
   0.71394155  0.00014506  0.50440057
   0.71398529  0.14344091  0.49884590
   0.71392690  0.28662976  0.50424007
   0.71379564  0.42828646  0.52459648
   0.72891566  0.57698729  0.56804643
   0.72678284  0.72178738  0.56147552
   0.71343490  0.85767715  0.52278406
   0.85719599  0.00061498  0.50727010
   0.85659102  0.14314114  0.49872269
   0.85664145  0.28608154  0.49846359
   0.85743585  0.42914407  0.50684883
   0.85944826  0.57295738  0.51900529
   0.86209196  0.71708451  0.52845963
   0.85900333  0.85855543  0.51961866
   0.04701666  0.09533119  0.48571068
   0.04584052  0.23751086  0.48001869
   0.04609440  0.38080354  0.47999189
   0.04742312  0.52417356  0.48529424
   0.04827402  0.66741341  0.49126857
   0.04865999  0.81056162  0.49489914
   0.04795708  0.95306606  0.49141230
   0.18983557  0.09525963  0.47205873
   0.18800463  0.23719757  0.46218090
   0.18581893  0.37894574  0.45434706
   0.18862728  0.52328394  0.46263473
   0.19020407  0.66709887  0.47279967
   0.19083344  0.81024886  0.47984465
   0.19074026  0.95307893  0.47954793
   0.33351570  0.09633911  0.47335603
   0.33355062  0.23819270  0.45629896
   0.31927424  0.37248049  0.41601278
   0.32153240  0.51915643  0.42233465
   0.33404702  0.66788558  0.45962627
   0.33354929  0.80993484  0.47468651
   0.33346586  0.95315118  0.47836819
   0.47625103  0.09631986  0.48491117
   0.47551805  0.23982104  0.48145991
   0.47554268  0.80929889  0.48341212
   0.47625689  0.95323678  0.48548611
   0.61861810  0.09595376  0.49475594
   0.61873637  0.23930520  0.49830175
   0.62040721  0.38071269  0.51457967
   0.62018350  0.81322546  0.51372816
   0.61879696  0.95287642  0.49868520
   0.76154684  0.09571481  0.50099004
   0.76154873  0.23864108  0.50074788
   0.76207879  0.38161971  0.51268328
   0.76518277  0.52534585  0.53801519
   0.77034011  0.67093896  0.55576607
   0.76402348  0.81109116  0.53586301
   0.76187717  0.95291829  0.51232243
   0.90423044  0.09528651  0.49856563
   0.90402498  0.23829782  0.49445876
   0.90443963  0.38153075  0.49805288
   0.90561659  0.52476703  0.50591429
   0.90761319  0.66825882  0.51662684
   0.90721906  0.81145234  0.51660295
   0.90524155  0.95297663  0.50684013
   0.46266106  0.35658318  0.46529653
   0.58441769  0.41734967  0.51818509
   0.58321414  0.74098912  0.51822757
   0.46363825  0.68058964  0.46793780
   0.49715423  0.52517864  0.44695064
   0.55730181  0.56404289  0.53106187
   0.40038253  0.41139038  0.37474283
   0.40841003  0.56227834  0.39311321
   0.63950689  0.67746716  0.59022431
   0.64881917  0.53495008  0.61091048
   0.51969601  0.50894385  0.49867174
Direct configuration=     8
   0.99988716  0.00029933  0.49451172
   0.99912264  0.14276895  0.48863355
   0.99885139  0.28564923  0.48514913
   0.99938574  0.42885927  0.48817852
   0.00027607  0.57209008  0.49402106
   0.00167931  0.71545685  0.50059843
   0.00140395  0.85844503  0.50058999
   0.14282880  0.00065112  0.48058367
   0.14167367  0.14269285  0.47394266
   0.14006844  0.28448774  0.46517295
   0.14048127  0.42801279  0.46557287
   0.14216712  0.57144554  0.47397289
   0.14313532  0.71474026  0.48082321
   0.14339516  0.85796983  0.48423026
   0.28587285  0.00074993  0.47658740
   0.28522550  0.14309110  0.46634600
   0.28242686  0.28407476  0.44428550
   0.27782082  0.42478527  0.42810620
   0.28369426  0.57079704  0.44736858
   0.28553937  0.71472608  0.46816631
   0.28590824  0.85788736  0.47707732
   0.42888600  0.00104689  0.48230321
   0.42877351  0.14425865  0.47933094
   0.42681853  0.28398560  0.46677007
   0.42712590  0.71643837  0.46993422
   0.42870736  0.85778697  0.48068679
   0.57126423  0.00074258  0.49242092
   0.57126079  0.14385936  0.49208350
   0.57191913  0.28806232  0.49776720
   0.57186606  0.85754237  0.49833022
   0.71394599  0.00014669  0.50442114
   0.71398540  0.14344036  0.49888670
   0.71392740  0.28662695  0.50428951
   0.71379594  0.42828636  0.52463200
   0.72890995  0.57698870  0.56803641
   0.72676546  0.72177405  0.56143821
   0.71343375  0.85767784  0.52278313
   0.85719651  0.00061346  0.50727105
   0.85659435  0.14314323  0.49873456
   0.85664534  0.28607726  0.49848700
   0.85744083  0.42914502  0.50687134
   0.85944796  0.57296063  0.51900688
   0.86208487  0.71708715  0.52844934
   0.85899605  0.85855304  0.51960839
   0.04701992  0.09533304  0.48572748
   0.04584242  0.23751210  0.48004827
   0.04609409  0.38080506  0.48001353
   0.04742100  0.52417333  0.48530672
   0.04827914  0.66741146  0.49128646
   0.04866093  0.81055959  0.49491463
   0.04795687  0.95306395  0.49142365
   0.18984602  0.09526071  0.47211772
   0.18801109  0.23720634  0.46225912
   0.18582541  0.37895398  0.45439648
   0.18862261  0.52328540  0.46266150
   0.19020496  0.66709887  0.47282917
   0.19083646  0.81024541  0.47988547
   0.19074621  0.95308540  0.47958670
   0.33352168  0.09633249  0.47343740
   0.33355406  0.23819381  0.45640869
   0.31928492  0.37247789  0.41610204
   0.32153105  0.51914990  0.42238972
   0.33404505  0.66788410  0.45966181
   0.33353927  0.80993687  0.47474208
   0.33345985  0.95314490  0.47842834
   0.47625192  0.09631543  0.48499053
   0.47552365  0.23982589  0.48156110
   0.47554210  0.80930556  0.48346038
   0.47625647  0.95323547  0.48553879
   0.61862373  0.09594860  0.49481066
   0.61874660  0.23930274  0.49836271
   0.62042186  0.38071791  0.51463678
   0.62018548  0.81322569  0.51374437
   0.61880347  0.95287895  0.49873230
   0.76154814  0.09571765  0.50101658
   0.76155703  0.23864622  0.50078470
   0.76209008  0.38162265  0.51271972
   0.76518984  0.52534740  0.53802929
   0.77033420  0.67092975  0.55574491
   0.76401724  0.81108318  0.53584552
   0.76187574  0.95291920  0.51233024
   0.90422979  0.09528699  0.49857485
   0.90403002  0.23830439  0.49447293
   0.90444160  0.38153400  0.49807430