  99  99   0   0
  0.3914025E+02  0.1727104E-08  0.1727104E-08  0.1500000E-08  0.0000000E+00
  1.000000000000000E-004
  CAR 
 unknown system                          
      6.35954498    -26.23923275  301     -2.34467090      1.00000000
    -26.239  0.0000E+00  0.0000E+00  0.0000E+00  0.0000E+00
    -26.131  0.0000E+00  0.0000E+00  0.0000E+00  0.0000E+00
    -26.022  0.0000E+00  0.0000E+00  0.0000E+00  0.0000E+00
    -25.913  0.0000E+00  0.0000E+00  0.0000E+00  0.0000E+00
    -25.805  0.0000E+00  0.0000E+00  0.0000E+00  0.0000E+00
    -25.696  0.0000E+00  0.0000E+00  0.0000E+00  0.0000E+00
    -25.587  0.0000E+00  0.0000E+00  0.0000E+00  0.0000E+00
    -25.479  0.0000E+00  0.0000E+00  0.0000E+00  0.0000E+00
    -25.370  0.0000E+00  0.0000E+00  0.0000E+00  0.0000E+00
    -25.261  0.0000E+00  0.0000E+00  0.0000E+00  0.0000E+00
    -25.153  0.0000E+00  0.0000E+00  0.0000E+00  0.0000E+00
    -25.044  0.2554E-17  0.2554E-17  0.2776E-18  0.2776E-18
    -24.935  0.2258E-08  0.2258E-08  0.2453E-09  0.2453E-09
    -24.827  0.2319E-03  0.2319E-03  0.2520E-04  0.2520E-04
    -24.718  0.7756E-02  0.7756E-02  0.8680E-03  0.8680E-03
    -24.609  0.1215E-02  0.1215E-02  0.1000E-02  0.1000E-02
    -24.501  0.1281E-06  0.1281E-06  0.1000E-02  0.1000E-02
    -24.392  0.1731E-14  0.1731E-14  0.1000E-02  0.1000E-02
    -24.283  0.0000E+00  0.0000E+00  0.1000E-02  0.1000E-02
    -24.175  0.0000E+00  0.0000E+00  0.1000E-02  0.1000E-02
    -24.066  0.0000E+00  0.0000E+00  0.1000E-02  0.1000E-02
    -23.957  0.0000E+00  0.0000E+00  0.1000E-02  0.1000E-02
    -23.849  0.0000E+00  0.0000E+00  0.1000E-02  0.1000E-02
    -23.740  0.0000E+00  0.0000E+00  0.1000E-02  0.1000E-02
    -23.631  0.0000E+00  0.0000E+00  0.1000E-02  0.1000E-02
    -23.523  0.0000E+00  0.0000E+00  0.1000E-02  0.1000E-02
    -23.414  0.0000E+00  0.0000E+00  0.1000E-02  0.1000E-02
    -23.305  0.0000E+00  0.0000E+00  0.1000E-02  0.1000E-02
    -23.197  0.0000E+00  0.0000E+00  0.1000E-02  0.1000E-02
    -23.088  0.0000E+00  0.0000E+00  0.1000E-02  0.1000E-02
    -22.979  0.0000E+00  0.0000E+00  0.1000E-02  0.1000E-02
    -22.871  0.0000E+00  0.0000E+00  0.1000E-02  0.1000E-02
    -22.762  0.0000E+00  0.0000E+00  0.1000E-02  0.1000E-02
    -22.653  0.0000E+00  0.0000E+00  0.1000E-02  0.1000E-02
    -22.545  0.0000E+00  0.0000E+00  0.1000E-02  0.1000E-02
    -22.436  0.0000E+00  0.0000E+00  0.1000E-02  0.1000E-02
    -22.327  0.0000E+00  0.0000E+00  0.1000E-02  0.1000E-02
    -22.219  0.0000E+00  0.0000E+00  0.1000E-02  0.1000E-02
    -22.110  0.0000E+00  0.0000E+00  0.1000E-02  0.1000E-02
    -22.001  0.1895E-14  0.1895E-14  0.1000E-02  0.1000E-02
    -21.893  0.7668E-07  0.7668E-07  0.1000E-02  0.1000E-02
    -21.784  0.4346E-03  0.4346E-03  0.1047E-02  0.1047E-02
    -21.675  0.6076E-02  0.6076E-02  0.1707E-02  0.1707E-02
    -21.567  0.8385E-02  0.8385E-02  0.2619E-02  0.2619E-02
    -21.458  0.1409E-02  0.1409E-02  0.2772E-02  0.2772E-02
    -21.349  0.8690E-02  0.8690E-02  0.3716E-02  0.3716E-02
    -21.241  0.8645E-02  0.8645E-02  0.4655E-02  0.4655E-02
    -21.132  0.6098E-02  0.6098E-02  0.5318E-02  0.5318E-02
    -21.023  0.1716E-02  0.1716E-02  0.5504E-02  0.5504E-02
    -20.915  0.7530E-02  0.7530E-02  0.6323E-02  0.6323E-02
    -20.806  0.1314E-01  0.1314E-01  0.7750E-02  0.7750E-02
    -20.697  0.7590E-02  0.7590E-02  0.8575E-02  0.8575E-02
    -20.589  0.1617E-02  0.1617E-02  0.8750E-02  0.8750E-02
    -20.480  0.2737E-02  0.2737E-02  0.9048E-02  0.9048E-02
    -20.371  0.5838E-02  0.5838E-02  0.9682E-02  0.9682E-02
    -20.263  0.1214E-01  0.1214E-01  0.1100E-01  0.1100E-01
    -20.154  0.1508E-01  0.1508E-01  0.1264E-01  0.1264E-01
    -20.045  0.4501E-02  0.4501E-02  0.1313E-01  0.1313E-01
    -19.937  0.1219E-02  0.1219E-02  0.1326E-01  0.1326E-01
    -19.828  0.4265E-02  0.4265E-02  0.1373E-01  0.1373E-01
    -19.719  0.7830E-02  0.7830E-02  0.1458E-01  0.1458E-01
    -19.611  0.3939E-02  0.3939E-02  0.1500E-01  0.1500E-01
    -19.502  0.9050E-02  0.9050E-02  0.1599E-01  0.1599E-01
    -19.393  0.1578E-01  0.1578E-01  0.1770E-01  0.1770E-01
    -19.285  0.8588E-02  0.8588E-02  0.1864E-01  0.1864E-01
    -19.176  0.1245E-02  0.1245E-02  0.1877E-01  0.1877E-01
    -19.068  0.5197E-02  0.5197E-02  0.1934E-01  0.1934E-01
    -18.959  0.8059E-02  0.8059E-02  0.2021E-01  0.2021E-01
    -18.850  0.6707E-02  0.6707E-02  0.2094E-01  0.2094E-01
    -18.742  0.3044E-02  0.3044E-02  0.2127E-01  0.2127E-01
    -18.633  0.6325E-02  0.6325E-02  0.2196E-01  0.2196E-01
    -18.524  0.9406E-02  0.9406E-02  0.2298E-01  0.2298E-01
    -18.416  0.1757E-01  0.1757E-01  0.2489E-01  0.2489E-01
    -18.307  0.3283E-02  0.3283E-02  0.2525E-01  0.2525E-01
    -18.198  0.6038E-02  0.6038E-02  0.2590E-01  0.2590E-01
    -18.090  0.5925E-02  0.5925E-02  0.2655E-01  0.2655E-01
    -17.981  0.1008E-01  0.1008E-01  0.2764E-01  0.2764E-01
    -17.872  0.6902E-02  0.6902E-02  0.2839E-01  0.2839E-01
    -17.764  0.4974E-02  0.4974E-02  0.2893E-01  0.2893E-01
    -17.655  0.3087E-02  0.3087E-02  0.2927E-01  0.2927E-01
    -17.546  0.3789E-02  0.3789E-02  0.2968E-01  0.2968E-01
    -17.438  0.9518E-02  0.9518E-02  0.3071E-01  0.3071E-01
    -17.329  0.1864E-01  0.1864E-01  0.3274E-01  0.3274E-01
    -17.220  0.6172E-02  0.6172E-02  0.3341E-01  0.3341E-01
    -17.112  0.1119E-01  0.1119E-01  0.3463E-01  0.3463E-01
    -17.003  0.6480E-02  0.6480E-02  0.3533E-01  0.3533E-01
    -16.894  0.7258E-02  0.7258E-02  0.3612E-01  0.3612E-01
    -16.786  0.8899E-02  0.8899E-02  0.3709E-01  0.3709E-01
    -16.677  0.8141E-02  0.8141E-02  0.3797E-01  0.3797E-01
    -16.568  0.1586E-02  0.1586E-02  0.3814E-01  0.3814E-01
    -16.460  0.6321E-02  0.6321E-02  0.3883E-01  0.3883E-01
    -16.351  0.7521E-02  0.7521E-02  0.3965E-01  0.3965E-01
    -16.242  0.1666E-01  0.1666E-01  0.4146E-01  0.4146E-01
    -16.134  0.9053E-02  0.9053E-02  0.4244E-01  0.4244E-01
    -16.025  0.4726E-02  0.4726E-02  0.4295E-01  0.4295E-01
    -15.916  0.6456E-03  0.6456E-03  0.4302E-01  0.4302E-01
    -15.808  0.4526E-02  0.4526E-02  0.4352E-01  0.4352E-01
    -15.699  0.2301E-02  0.2301E-02  0.4377E-01  0.4377E-01
    -15.590  0.3956E-02  0.3956E-02  0.4420E-01  0.4420E-01
    -15.482  0.9575E-03  0.9575E-03  0.4430E-01  0.4430E-01
    -15.373  0.7624E-02  0.7624E-02  0.4513E-01  0.4513E-01
    -15.264  0.6395E-02  0.6395E-02  0.4582E-01  0.4582E-01
    -15.156  0.9598E-02  0.9598E-02  0.4687E-01  0.4687E-01
    -15.047  0.6778E-02  0.6778E-02  0.4760E-01  0.4760E-01
    -14.938  0.6068E-02  0.6068E-02  0.4826E-01  0.4826E-01
    -14.830  0.1392E-01  0.1392E-01  0.4977E-01  0.4977E-01
    -14.721  0.1122E-01  0.1122E-01  0.5099E-01  0.5099E-01
    -14.612  0.1616E-02  0.1616E-02  0.5117E-01  0.5117E-01
    -14.504  0.9948E-02  0.9948E-02  0.5225E-01  0.5225E-01
    -14.395  0.1325E-01  0.1325E-01  0.5369E-01  0.5369E-01
    -14.286  0.6642E-02  0.6642E-02  0.5441E-01  0.5441E-01
    -14.178  0.7164E-02  0.7164E-02  0.5519E-01  0.5519E-01
    -14.069  0.1012E-01  0.1012E-01  0.5629E-01  0.5629E-01
    -13.960  0.1211E-01  0.1211E-01  0.5760E-01  0.5760E-01
    -13.852  0.5054E-02  0.5054E-02  0.5815E-01  0.5815E-01
    -13.743  0.5611E-02  0.5611E-02  0.5876E-01  0.5876E-01
    -13.634  0.4469E-02  0.4469E-02  0.5925E-01  0.5925E-01
    -13.526  0.5471E-02  0.5471E-02  0.5984E-01  0.5984E-01
    -13.417  0.8843E-02  0.8843E-02  0.6080E-01  0.6080E-01
    -13.308  0.8585E-02  0.8585E-02  0.6174E-01  0.6174E-01
    -13.200  0.7856E-02  0.7856E-02  0.6259E-01  0.6259E-01
    -13.091  0.7553E-02  0.7553E-02  0.6341E-01  0.6341E-01
    -12.982  0.3971E-02  0.3971E-02  0.6384E-01  0.6384E-01
    -12.874  0.5900E-02  0.5900E-02  0.6448E-01  0.6448E-01
    -12.765  0.2227E-02  0.2227E-02  0.6473E-01  0.6473E-01
    -12.656  0.9616E-02  0.9616E-02  0.6577E-01  0.6577E-01
    -12.548  0.1140E-01  0.1140E-01  0.6701E-01  0.6701E-01
    -12.439  0.1606E-01  0.1606E-01  0.6876E-01  0.6876E-01
    -12.330  0.1277E-01  0.1277E-01  0.7014E-01  0.7014E-01
    -12.222  0.1365E-01  0.1365E-01  0.7163E-01  0.7163E-01
    -12.113  0.7429E-02  0.7429E-02  0.7243E-01  0.7243E-01
    -12.004  0.3682E-02  0.3682E-02  0.7283E-01  0.7283E-01
    -11.896  0.3662E-02  0.3662E-02  0.7323E-01  0.7323E-01
    -11.787  0.7515E-02  0.7515E-02  0.7405E-01  0.7405E-01
    -11.678  0.6791E-02  0.6791E-02  0.7479E-01  0.7479E-01
    -11.570  0.8573E-02  0.8573E-02  0.7572E-01  0.7572E-01
    -11.461  0.7616E-02  0.7616E-02  0.7655E-01  0.7655E-01
    -11.352  0.1422E-01  0.1422E-01  0.7809E-01  0.7809E-01
    -11.244  0.7566E-02  0.7566E-02  0.7891E-01  0.7891E-01
    -11.135  0.1590E-01  0.1590E-01  0.8064E-01  0.8064E-01
    -11.026  0.1011E-01  0.1011E-01  0.8174E-01  0.8174E-01
    -10.918  0.4935E-02  0.4935E-02  0.8228E-01  0.8228E-01
    -10.809  0.1257E-01  0.1257E-01  0.8364E-01  0.8364E-01
    -10.700  0.1382E-01  0.1382E-01  0.8515E-01  0.8515E-01
    -10.592  0.8578E-02  0.8578E-02  0.8608E-01  0.8608E-01
    -10.483  0.5245E-02  0.5245E-02  0.8665E-01  0.8665E-01
    -10.374  0.4197E-02  0.4197E-02  0.8710E-01  0.8710E-01
    -10.266  0.1816E-02  0.1816E-02  0.8730E-01  0.8730E-01
    -10.157  0.1004E-01  0.1004E-01  0.8839E-01  0.8839E-01
    -10.049  0.1539E-01  0.1539E-01  0.9006E-01  0.9006E-01
     -9.940  0.1554E-01  0.1554E-01  0.9175E-01  0.9175E-01
     -9.831  0.1884E-01  0.1884E-01  0.9380E-01  0.9380E-01
     -9.723  0.2287E-01  0.2287E-01  0.9629E-01  0.9629E-01
     -9.614  0.1640E-01  0.1640E-01  0.9807E-01  0.9807E-01
     -9.505  0.1125E-01  0.1125E-01  0.9929E-01  0.9929E-01
     -9.397  0.1207E-01  0.1207E-01  0.1006E+00  0.1006E+00
     -9.288  0.2113E-01  0.2113E-01  0.1029E+00  0.1029E+00
     -9.179  0.1383E-01  0.1383E-01  0.1044E+00  0.1044E+00
     -9.071  0.1912E-01  0.1912E-01  0.1065E+00  0.1065E+00
     -8.962  0.1879E-01  0.1879E-01  0.1085E+00  0.1085E+00
     -8.853  0.2971E-01  0.2971E-01  0.1117E+00  0.1117E+00
     -8.745  0.3085E-01  0.3085E-01  0.1151E+00  0.1151E+00
     -8.636  0.2478E-01  0.2478E-01  0.1178E+00  0.1178E+00
     -8.527  0.1774E-01  0.1774E-01  0.1197E+00  0.1197E+00
     -8.419  0.1833E-01  0.1833E-01  0.1217E+00  0.1217E+00
     -8.310  0.1706E-01  0.1706E-01  0.1236E+00  0.1236E+00
     -8.201  0.2229E-01  0.2229E-01  0.1260E+00  0.1260E+00
     -8.093  0.2364E-01  0.2364E-01  0.1286E+00  0.1286E+00
     -7.984  0.2004E-01  0.2004E-01  0.1307E+00  0.1307E+00
     -7.875  0.1453E-01  0.1453E-01  0.1323E+00  0.1323E+00
     -7.767  0.1721E-01  0.1721E-01  0.1342E+00  0.1342E+00
     -7.658  0.1620E-01  0.1620E-01  0.1359E+00  0.1359E+00
     -7.549  0.1609E-01  0.1609E-01  0.1377E+00  0.1377E+00
     -7.441  0.1388E-01  0.1388E-01  0.1392E+00  0.1392E+00
     -7.332  0.2842E-02  0.2842E-02  0.1395E+00  0.1395E+00
     -7.223  0.1575E-01  0.1575E-01  0.1412E+00  0.1412E+00
     -7.115  0.2752E-01  0.2752E-01  0.1442E+00  0.1442E+00
     -7.006  0.1691E-01  0.1691E-01  0.1460E+00  0.1460E+00
     -6.897  0.1809E-01  0.1809E-01  0.1480E+00  0.1480E+00
     -6.789  0.1118E-01  0.1118E-01  0.1492E+00  0.1492E+00
     -6.680  0.1110E-01  0.1110E-01  0.1504E+00  0.1504E+00
     -6.571  0.1256E-01  0.1256E-01  0.1518E+00  0.1518E+00
     -6.463  0.1429E-01  0.1429E-01  0.1534E+00  0.1534E+00
     -6.354  0.1571E-01  0.1571E-01  0.1551E+00  0.1551E+00
     -6.245  0.1243E-01  0.1243E-01  0.1564E+00  0.1564E+00
     -6.137  0.1329E-01  0.1329E-01  0.1579E+00  0.1579E+00
     -6.028  0.2361E-01  0.2361E-01  0.1604E+00  0.1604E+00
     -5.919  0.1053E-01  0.1053E-01  0.1616E+00  0.1616E+00
     -5.811  0.1078E-01  0.1078E-01  0.1627E+00  0.1627E+00
     -5.702  0.1560E-01  0.1560E-01  0.1644E+00  0.1644E+00
     -5.593  0.1621E-01  0.1621E-01  0.1662E+00  0.1662E+00
     -5.485  0.9681E-02  0.9681E-02  0.1672E+00  0.1672E+00
     -5.376  0.8814E-02  0.8814E-02  0.1682E+00  0.1682E+00
     -5.267  0.3946E-02  0.3946E-02  0.1686E+00  0.1686E+00
     -5.159  0.2196E-02  0.2196E-02  0.1689E+00  0.1689E+00
     -5.050  0.2752E-02  0.2752E-02  0.1692E+00  0.1692E+00
     -4.941  0.1975E-01  0.1975E-01  0.1713E+00  0.1713E+00
     -4.833  0.1889E-01  0.1889E-01  0.1734E+00  0.1734E+00
     -4.724  0.1595E-01  0.1595E-01  0.1751E+00  0.1751E+00
     -4.615  0.5498E-02  0.5498E-02  0.1757E+00  0.1757E+00
     -4.507  0.9009E-02  0.9009E-02  0.1767E+00  0.1767E+00
     -4.398  0.5245E-02  0.5245E-02  0.1772E+00  0.1772E+00
     -4.289  0.1298E-03  0.1298E-03  0.1773E+00  0.1773E+00
     -4.181  0.5475E-02  0.5475E-02  0.1779E+00  0.1779E+00
     -4.072  0.8033E-02  0.8033E-02  0.1787E+00  0.1787E+00
     -3.963  0.7138E-02  0.7138E-02  0.1795E+00  0.1795E+00
     -3.855  0.6795E-02  0.6795E-02  0.1802E+00  0.1802E+00
     -3.746  0.8229E-02  0.8229E-02  0.1811E+00  0.1811E+00
     -3.637  0.6505E-02  0.6505E-02  0.1818E+00  0.1818E+00
     -3.529  0.1455E-02  0.1455E-02  0.1820E+00  0.1820E+00
     -3.420  0.1141E-05  0.1141E-05  0.1820E+00  0.1820E+00
     -3.311  0.7530E-03  0.7530E-03  0.1821E+00  0.1821E+00
     -3.203  0.3373E-02  0.3373E-02  0.1824E+00  0.1824E+00
     -3.094  0.6307E-02  0.6307E-02  0.1831E+00  0.1831E+00
     -2.985  0.1392E-02  0.1392E-02  0.1833E+00  0.1833E+00
     -2.877  0.1927E-02  0.1927E-02  0.1835E+00  0.1835E+00
     -2.768  0.5312E-04  0.5312E-04  0.1835E+00  0.1835E+00
     -2.659  0.1069E-05  0.1069E-05  0.1835E+00  0.1835E+00
     -2.551  0.1539E-02  0.1539E-02  0.1837E+00  0.1837E+00
     -2.442  0.3043E-02  0.3043E-02  0.1840E+00  0.1840E+00
     -2.333  0.1872E-04  0.1872E-04  0.1840E+00  0.1840E+00
     -2.225  0.1016E-03  0.1016E-03  0.1840E+00  0.1840E+00
     -2.116  0.3836E-02  0.3836E-02  0.1844E+00  0.1844E+00
     -2.007  0.6642E-03  0.6642E-03  0.1845E+00  0.1845E+00
     -1.899  0.8279E-07  0.8279E-07  0.1845E+00  0.1845E+00
     -1.790  0.7160E-04  0.7160E-04  0.1845E+00  0.1845E+00
     -1.681  0.2561E-02  0.2561E-02  0.1848E+00  0.1848E+00
     -1.573  0.3096E-02  0.3096E-02  0.1851E+00  0.1851E+00
     -1.464  0.6435E-02  0.6435E-02  0.1858E+00  0.1858E+00
     -1.355  0.1639E-02  0.1639E-02  0.1860E+00  0.1860E+00
     -1.247  0.1069E-03  0.1069E-03  0.1860E+00  0.1860E+00
     -1.138  0.6513E-02  0.6513E-02  0.1867E+00  0.1867E+00
     -1.030  0.6940E-02  0.6940E-02  0.1875E+00  0.1875E+00
     -0.921  0.5245E-03  0.5245E-03  0.1875E+00  0.1875E+00
     -0.812  0.5815E-02  0.5815E-02  0.1882E+00  0.1882E+00
     -0.704  0.1841E-01  0.1841E-01  0.1902E+00  0.1902E+00
     -0.595  0.7549E-02  0.7549E-02  0.1910E+00  0.1910E+00
     -0.486  0.8925E-02  0.8925E-02  0.1920E+00  0.1920E+00
     -0.378  0.1018E-01  0.1018E-01  0.1931E+00  0.1931E+00
     -0.269  0.7461E-02  0.7461E-02  0.1939E+00  0.1939E+00
     -0.160  0.3647E-02  0.3647E-02  0.1943E+00  0.1943E+00
     -0.052  0.7805E-02  0.7805E-02  0.1951E+00  0.1951E+00
      0.057  0.9319E-02  0.9319E-02  0.1961E+00  0.1961E+00
      0.166  0.9364E-02  0.9364E-02  0.1971E+00  0.1971E+00
      0.274  0.1051E-01  0.1051E-01  0.1983E+00  0.1983E+00
      0.383  0.1009E-01  0.1009E-01  0.1994E+00  0.1994E+00
      0.492  0.4721E-02  0.4721E-02  0.1999E+00  0.1999E+00
      0.600  0.9309E-02  0.9309E-02  0.2009E+00  0.2009E+00
      0.709  0.7099E-02  0.7099E-02  0.2017E+00  0.2017E+00
      0.818  0.6707E-02  0.6707E-02  0.2024E+00  0.2024E+00
      0.926  0.9270E-02  0.9270E-02  0.2034E+00  0.2034E+00
      1.035  0.5609E-02  0.5609E-02  0.2040E+00  0.2040E+00
      1.144  0.1146E-01  0.1146E-01  0.2053E+00  0.2053E+00
      1.252  0.7559E-02  0.7559E-02  0.2061E+00  0.2061E+00
      1.361  0.7245E-02  0.7245E-02  0.2069E+00  0.2069E+00
      1.470  0.1268E-01  0.1268E-01  0.2083E+00  0.2083E+00
      1.578  0.1284E-01  0.1284E-01  0.2097E+00  0.2097E+00
      1.687  0.2166E-01  0.2166E-01  0.2120E+00  0.2120E+00
      1.796  0.9876E-02  0.9876E-02  0.2131E+00  0.2131E+00
      1.904  0.1005E-01  0.1005E-01  0.2142E+00  0.2142E+00
      2.013  0.9350E-02  0.9351E-02  0.2152E+00  0.2152E+00
      2.122  0.2931E-01  0.2931E-01  0.2184E+00  0.2184E+00
      2.230  0.1404E-01  0.1404E-01  0.2199E+00  0.2199E+00
      2.339  0.1312E-01  0.1312E-01  0.2213E+00  0.2213E+00
      2.448  0.3094E-01  0.3094E-01  0.2247E+00  0.2247E+00
      2.556  0.1221E-01  0.1221E-01  0.2260E+00  0.2260E+00
      2.665  0.9389E-02  0.9389E-02  0.2270E+00  0.2270E+00
      2.774  0.1513E-01  0.1513E-01  0.2287E+00  0.2287E+00
      2.882  0.3272E-01  0.3272E-01  0.2322E+00  0.2322E+00
      2.991  0.3358E-01  0.3358E-01  0.2359E+00  0.2359E+00
      3.100  0.2163E-01  0.2163E-01  0.2382E+00  0.2382E+00
      3.208  0.2067E-01  0.2067E-01  0.2405E+00  0.2405E+00
      3.317  0.2264E-01  0.2264E-01  0.2429E+00  0.2429E+00
      3.426  0.1775E-01  0.1775E-01  0.2449E+00  0.2449E+00
      3.534  0.3006E-01  0.3006E-01  0.2481E+00  0.2481E+00
      3.643  0.1650E-01  0.1650E-01  0.2499E+00  0.2499E+00
      3.752  0.1706E-01  0.1706E-01  0.2518E+00  0.2518E+00
      3.860  0.2655E-01  0.2655E-01  0.2547E+00  0.2547E+00
      3.969  0.1593E-01  0.1593E-01  0.2564E+00  0.2564E+00
      4.078  0.2728E-01  0.2728E-01  0.2594E+00  0.2594E+00
      4.186  0.1548E-01  0.1548E-01  0.2610E+00  0.2610E+00
      4.295  0.2024E-01  0.2024E-01  0.2632E+00  0.2632E+00
      4.404  0.3484E-01  0.3484E-01  0.2670E+00  0.2670E+00
      4.512  0.3509E-01  0.3509E-01  0.2708E+00  0.2708E+00
      4.621  0.2619E-01  0.2619E-01  0.2737E+00  0.2737E+00
      4.730  0.2457E-01  0.2457E-01  0.2764E+00  0.2764E+00
      4.838  0.2355E-01  0.2355E-01  0.2789E+00  0.2789E+00
      4.947  0.9884E-02  0.9884E-02  0.2800E+00  0.2800E+00
      5.056  0.1191E-03  0.1191E-03  0.2800E+00  0.2800E+00
      5.164  0.1092E-08  0.1092E-08  0.2800E+00  0.2800E+00
      5.273  0.1022E-17  0.1022E-17  0.2800E+00  0.2800E+00
      5.382  0.0000E+00  0.0000E+00  0.2800E+00  0.2800E+00
      5.490  0.0000E+00  0.0000E+00  0.2800E+00  0.2800E+00
      5.599  0.0000E+00  0.0000E+00  0.2800E+00  0.2800E+00
      5.708  0.0000E+00  0.0000E+00  0.2800E+00  0.2800E+00
      5.816  0.0000E+00  0.0000E+00  0.2800E+00  0.2800E+00
      5.925  0.0000E+00  0.0000E+00  0.2800E+00  0.2800E+00
      6.034  0.0000E+00  0.0000E+00  0.2800E+00  0.2800E+00
      6.142  0.0000E+00  0.0000E+00  0.2800E+00  0.2800E+00
      6.251  0.0000E+00  0.0000E+00  0.2800E+00  0.2800E+00
      6.360  0.0000E+00  0.0000E+00  0.2800E+00  0.2800E+00
