       N       E                     dE             d eps       ncg     rms          rms(c)
DAV:   1     0.319335299690E+04    0.31934E+04   -0.13427E+05  4720   0.963E+02
DAV:   2    -0.299924227990E+03   -0.34933E+04   -0.32939E+04  6920   0.244E+02
DAV:   3    -0.877635764847E+03   -0.57771E+03   -0.57512E+03  5520   0.103E+02
DAV:   4    -0.897620343574E+03   -0.19985E+02   -0.19913E+02  5660   0.244E+01
DAV:   5    -0.898216558811E+03   -0.59622E+00   -0.59547E+00  6560   0.375E+00    0.524E+01
DAV:   6    -0.737663030329E+03    0.16055E+03   -0.17054E+02  5340   0.187E+01    0.292E+01
DAV:   7    -0.780432783167E+03   -0.42770E+02   -0.64479E+01  5120   0.117E+01    0.142E+01
DAV:   8    -0.810426005602E+03   -0.29993E+02   -0.21252E+01  5440   0.664E+00    0.739E+00
DAV:   9    -0.826987523390E+03   -0.16562E+02   -0.63092E+00  5140   0.338E+00    0.433E+00
DAV:  10    -0.840312400706E+03   -0.13325E+02   -0.49219E+00  5060   0.257E+00    0.227E+00
DAV:  11    -0.846508840765E+03   -0.61964E+01   -0.23612E+00  4780   0.164E+00    0.138E+00
DAV:  12    -0.849558460780E+03   -0.30496E+01   -0.12482E+00  4860   0.119E+00    0.691E-01
DAV:  13    -0.850999057676E+03   -0.14406E+01   -0.37091E-01  5260   0.658E-01    0.223E-01
DAV:  14    -0.851249609464E+03   -0.25055E+00   -0.50646E-02  5020   0.244E-01    0.114E-01
DAV:  15    -0.851257499215E+03   -0.78898E-02   -0.79002E-03  5200   0.104E-01    0.777E-02
DAV:  16    -0.851272375872E+03   -0.14877E-01   -0.24908E-03  4860   0.722E-02    0.603E-02
DAV:  17    -0.851298767066E+03   -0.26391E-01   -0.27752E-03  5080   0.614E-02    0.413E-02
DAV:  18    -0.851307730250E+03   -0.89632E-02   -0.80326E-04  5080   0.360E-02    0.295E-02
DAV:  19    -0.851312010732E+03   -0.42805E-02   -0.26914E-04  5180   0.250E-02    0.172E-02
DAV:  20    -0.851314073869E+03   -0.20631E-02   -0.91331E-05  4940   0.149E-02    0.905E-03
DAV:  21    -0.851315116991E+03   -0.10431E-02   -0.22504E-05  4840   0.874E-03    0.420E-03
DAV:  22    -0.851315477915E+03   -0.36092E-03   -0.58718E-06  4640   0.483E-03    0.233E-03
DAV:  23    -0.851315633678E+03   -0.15576E-03   -0.17720E-06  4460   0.291E-03    0.136E-03
DAV:  24    -0.851315726191E+03   -0.92514E-04   -0.12842E-06  4340   0.217E-03    0.762E-04
DAV:  25    -0.851315757435E+03   -0.31244E-04   -0.71195E-07  3780   0.133E-03    0.507E-04
DAV:  26    -0.851315765379E+03   -0.79441E-05   -0.16900E-07  3520   0.735E-04    0.347E-04
DAV:  27    -0.851315771809E+03   -0.64301E-05   -0.15298E-07  3620   0.566E-04    0.259E-04
DAV:  28    -0.851315772782E+03   -0.97296E-06   -0.52609E-08  3700   0.343E-04
   1 F= -.85921864E+03 E0= -.85921864E+03  d E =-.859219E+03  mag=     0.0001
       N       E                     dE             d eps       ncg     rms          rms(c)
DAV:   1    -0.851316391551E+03   -0.61974E-03   -0.20031E-02  4980   0.284E-01    0.306E-02
DAV:   2    -0.851316419970E+03   -0.28419E-04   -0.41902E-04  5100   0.386E-02    0.199E-02
DAV:   3    -0.851316414609E+03    0.53611E-05   -0.28676E-05  5380   0.114E-02    0.104E-02
DAV:   4    -0.851316414108E+03    0.50056E-06   -0.87330E-06  4840   0.541E-03    0.484E-03
DAV:   5    -0.851316414137E+03   -0.28871E-07   -0.66232E-07  3300   0.173E-03    0.204E-03
DAV:   6    -0.851316414111E+03    0.25757E-07   -0.26312E-07  3400   0.135E-03
   2 F= -.85921928E+03 E0= -.85921928E+03  d E =-.635373E-03  mag=     0.0000
       N       E                     dE             d eps       ncg     rms          rms(c)
DAV:   1    -0.851316617903E+03   -0.20377E-03   -0.39470E-02  4720   0.396E-01    0.413E-02
DAV:   2    -0.851316672788E+03   -0.54885E-04   -0.75203E-04  5140   0.523E-02    0.277E-02
DAV:   3    -0.851316662623E+03    0.10165E-04   -0.47405E-05  5240   0.156E-02    0.147E-02
DAV:   4    -0.851316661698E+03    0.92459E-06   -0.20568E-05  4840   0.838E-03    0.641E-03
DAV:   5    -0.851316661700E+03   -0.16153E-08   -0.11979E-06  3480   0.224E-03    0.341E-03
DAV:   6    -0.851316661624E+03    0.75503E-07   -0.47258E-07  3280   0.190E-03
   3 F= -.85921951E+03 E0= -.85921951E+03  d E =-.233102E-03  mag=     0.0000
       N       E                     dE             d eps       ncg     rms          rms(c)
DAV:   1    -0.851316748036E+03   -0.86336E-04   -0.64375E-04  4860   0.494E-02    0.585E-03
DAV:   2    -0.851316748752E+03   -0.71619E-06   -0.14761E-05  5000   0.716E-03    0.389E-03
DAV:   3    -0.851316748566E+03    0.18594E-06   -0.13653E-06  3400   0.236E-03    0.173E-03
DAV:   4    -0.851316748616E+03   -0.49906E-07   -0.32799E-07  3280   0.117E-03    0.831E-04
DAV:   5    -0.851316748675E+03   -0.58571E-07   -0.95625E-08  3280   0.704E-04    0.350E-04
DAV:   6    -0.851316748691E+03   -0.16167E-07   -0.29527E-08  3260   0.442E-04
   4 F= -.85921960E+03 E0= -.85921960E+03  d E =-.869054E-04  mag=     0.0000
       N       E                     dE             d eps       ncg     rms          rms(c)
DAV:   1    -0.851316851939E+03   -0.10326E-03   -0.20614E-03  4680   0.883E-02    0.103E-02
DAV:   2    -0.851316854198E+03   -0.22586E-05   -0.47082E-05  4920   0.128E-02    0.686E-03
DAV:   3    -0.851316853519E+03    0.67864E-06   -0.48049E-06  4840   0.408E-03    0.327E-03
DAV:   4    -0.851316853473E+03    0.46726E-07   -0.56180E-07  3280   0.141E-03    0.164E-03
DAV:   5    -0.851316853486E+03   -0.13824E-07   -0.16205E-07  3280   0.825E-04    0.431E-04
DAV:   6    -0.851316853489E+03   -0.29686E-08   -0.46527E-08  3320   0.433E-04
   5 F= -.85921970E+03 E0= -.85921970E+03  d E =-.104459E-03  mag=     0.0000
       N       E                     dE             d eps       ncg     rms          rms(c)
DAV:   1    -0.851316904254E+03   -0.50768E-04   -0.30776E-03  4600   0.108E-01    0.123E-02
DAV:   2    -0.851316907480E+03   -0.32253E-05   -0.66839E-05  4880   0.152E-02    0.824E-03
DAV:   3    -0.851316906513E+03    0.96661E-06   -0.64948E-06  4740   0.482E-03    0.388E-03
DAV:   4    -0.851316906460E+03    0.53260E-07   -0.82869E-07  3160   0.172E-03    0.187E-03
DAV:   5    -0.851316906477E+03   -0.17535E-07   -0.21940E-07  3160   0.958E-04    0.515E-04
DAV:   6    -0.851316906479E+03   -0.18554E-08   -0.64521E-08  3200   0.517E-04
   6 F= -.85921975E+03 E0= -.85921975E+03  d E =-.522855E-04  mag=     0.0000
       N       E                     dE             d eps       ncg     rms          rms(c)
DAV:   1    -0.851316914563E+03   -0.80861E-05   -0.28479E-03  4560   0.103E-01    0.111E-02
DAV:   2    -0.851316917392E+03   -0.28287E-05   -0.54513E-05  4800   0.136E-02    0.756E-03
DAV:   3    -0.851316916691E+03    0.70117E-06   -0.45967E-06  4520   0.421E-03    0.346E-03
DAV:   4    -0.851316916692E+03   -0.96770E-09   -0.73763E-07  3200   0.165E-03    0.149E-03
DAV:   5    -0.851316916718E+03   -0.26113E-07   -0.16602E-07  3080   0.832E-04    0.518E-04
DAV:   6    -0.851316916721E+03   -0.34270E-08   -0.48893E-08  3220   0.502E-04
   7 F= -.85921976E+03 E0= -.85921976E+03  d E =-.939397E-05  mag=     0.0000
       N       E                     dE             d eps       ncg     rms          rms(c)
DAV:   1    -0.851316925763E+03   -0.90455E-05   -0.14826E-05  4560   0.755E-03    0.837E-04
DAV:   2    -0.851316925780E+03   -0.16407E-07   -0.32094E-07  3240   0.113E-03    0.594E-04
DAV:   3    -0.851316925779E+03    0.32742E-09   -0.66243E-08  3180   0.566E-04    0.313E-04
DAV:   4    -0.851316925783E+03   -0.31650E-08   -0.18293E-08  3180   0.372E-04    0.244E-04
DAV:   5    -0.851316925784E+03   -0.16007E-08   -0.83359E-09  3120   0.294E-04    0.218E-04
DAV:   6    -0.851316925785E+03   -0.43656E-09   -0.51376E-10  3020   0.159E-04
   8 F= -.85921977E+03 E0= -.85921977E+03  d E =-.900793E-05  mag=     0.0000
       N       E                     dE             d eps       ncg     rms          rms(c)
DAV:   1    -0.851316942080E+03   -0.16296E-04   -0.56783E-05  4640   0.148E-02    0.166E-03
DAV:   2    -0.851316942128E+03   -0.48116E-07   -0.10884E-06  3240   0.205E-03    0.109E-03
DAV:   3    -0.851316942121E+03    0.77780E-08   -0.22472E-07  3200   0.934E-04    0.470E-04
DAV:   4    -0.851316942123E+03   -0.29249E-08   -0.42994E-08  2920   0.425E-04    0.314E-04
DAV:   5    -0.851316942124E+03   -0.83674E-09   -0.97460E-09  2920   0.225E-04    0.215E-04
DAV:   6    -0.851316942126E+03   -0.13169E-08   -0.13992E-09  2880   0.130E-04
   9 F= -.85921979E+03 E0= -.85921979E+03  d E =-.162205E-04  mag=     0.0000
       N       E                     dE             d eps       ncg     rms          rms(c)
DAV:   1    -0.851316962259E+03   -0.20135E-04   -0.11630E-04  4560   0.211E-02    0.235E-03
DAV:   2    -0.851316962375E+03   -0.11594E-06   -0.23805E-06  3820   0.291E-03    0.157E-03
DAV:   3    -0.851316962347E+03    0.27860E-07   -0.29594E-07  3060   0.108E-03    0.686E-04
DAV:   4    -0.851316962350E+03   -0.34051E-08   -0.64864E-08  2800   0.497E-04    0.368E-04
DAV:   5    -0.851316962352E+03   -0.13897E-08   -0.14182E-08  2840   0.257E-04    0.225E-04
DAV:   6    -0.851316962352E+03   -0.94587E-10   -0.19080E-09  2620   0.139E-04
  10 F= -.85921981E+03 E0= -.85921981E+03  d E =-.200761E-04  mag=     0.0000
       N       E                     dE             d eps       ncg     rms          rms(c)
DAV:   1    -0.851316983032E+03   -0.20680E-04   -0.18295E-04  4480   0.264E-02    0.291E-03
DAV:   2    -0.851316983224E+03   -0.19272E-06   -0.37844E-06  4400   0.361E-03    0.195E-03
DAV:   3    -0.851316983174E+03    0.50204E-07   -0.35689E-07  3040   0.121E-03    0.865E-04
DAV:   4    -0.851316983178E+03   -0.37326E-08   -0.82338E-08  2920   0.573E-04    0.418E-04
DAV:   5    -0.851316983179E+03   -0.83674E-09   -0.18517E-08  2920   0.295E-04    0.235E-04
DAV:   6    -0.851316983179E+03   -0.54570E-09   -0.30220E-09  2920   0.172E-04
  11 F= -.85921983E+03 E0= -.85921983E+03  d E =-.207564E-04  mag=     0.0000
       N       E                     dE             d eps       ncg     rms          rms(c)
DAV:   1    -0.851317001687E+03   -0.18509E-04   -0.24482E-04  4480   0.305E-02    0.330E-03
DAV:   2    -0.851317001953E+03   -0.26583E-06   -0.50030E-06  4960   0.409E-03    0.224E-03
DAV:   3    -0.851317001884E+03    0.69449E-07   -0.37220E-07  2980   0.125E-03    0.101E-03
DAV:   4    -0.851317001887E+03   -0.30923E-08   -0.94769E-08  2920   0.628E-04    0.459E-04
DAV:   5    -0.851317001888E+03   -0.14115E-08   -0.22900E-08  2940   0.331E-04    0.246E-04
DAV:   6    -0.851317001888E+03   -0.32014E-09   -0.51571E-09  2880   0.215E-04
  12 F= -.85921985E+03 E0= -.85921985E+03  d E =-.186205E-04  mag=    -0.0000
       N       E                     dE             d eps       ncg     rms          rms(c)
DAV:   1    -0.851317017359E+03   -0.15471E-04   -0.29111E-04  4480   0.330E-02    0.350E-03
DAV:   2    -0.851317017669E+03   -0.30962E-06   -0.56387E-06  5040   0.432E-03    0.238E-03
DAV:   3    -0.851317017595E+03    0.73625E-07   -0.39275E-07  2960   0.130E-03    0.107E-03
DAV:   4    -0.851317017599E+03   -0.39217E-08   -0.10707E-07  2920   0.670E-04    0.458E-04
DAV:   5    -0.851317017601E+03   -0.21028E-08   -0.26387E-08  2980   0.361E-04    0.251E-04
DAV:   6    -0.851317017602E+03   -0.97498E-09   -0.74418E-09  2920   0.252E-04
  13 F= -.85921986E+03 E0= -.85921986E+03  d E =-.156296E-04  mag=     0.0000
       N       E                     dE             d eps       ncg     rms          rms(c)
DAV:   1    -0.851317031531E+03   -0.13929E-04   -0.39298E-04  4480   0.379E-02    0.390E-03
DAV:   2    -0.851317031928E+03   -0.39762E-06   -0.69963E-06  5000   0.477E-03    0.268E-03
DAV:   3    -0.851317031843E+03    0.85201E-07   -0.43740E-07  2960   0.140E-03    0.117E-03
DAV:   4    -0.851317031852E+03   -0.91750E-08   -0.13261E-07  3180   0.741E-04    0.459E-04
DAV:   5    -0.851317031855E+03   -0.31068E-08   -0.31840E-08  2960   0.389E-04    0.259E-04
DAV:   6    -0.851317031856E+03   -0.10041E-08   -0.88609E-09  2920   0.264E-04
  14 F= -.85921988E+03 E0= -.85921988E+03  d E =-.141272E-04  mag=     0.0000
       N       E                     dE             d eps       ncg     rms          rms(c)
DAV:   1    -0.851317047510E+03   -0.15655E-04   -0.50458E-04  4480   0.421E-02    0.421E-03
DAV:   2    -0.851317047980E+03   -0.47010E-06   -0.80485E-06  4880   0.503E-03    0.292E-03
DAV:   3    -0.851317047898E+03    0.82633E-07   -0.41629E-07  3000   0.144E-03    0.121E-03
DAV:   4    -0.851317047913E+03   -0.15665E-07   -0.15007E-07  2960   0.781E-04    0.428E-04
DAV:   5    -0.851317047918E+03   -0.49986E-08   -0.35988E-08  3000   0.429E-04    0.262E-04
DAV:   6    -0.851317047919E+03   -0.12151E-08   -0.11642E-08  2920   0.305E-04
  15 F= -.85921989E+03 E0= -.85921989E+03  d E =-.158168E-04  mag=     0.0000
       N       E                     dE             d eps       ncg     rms          rms(c)
DAV:   1    -0.851317069721E+03   -0.21803E-04   -0.67832E-04  4480   0.480E-02    0.470E-03
DAV:   2    -0.851317070302E+03   -0.58010E-06   -0.99310E-06  4960   0.549E-03    0.328E-03
DAV:   3    -0.851317070213E+03    0.88803E-07   -0.42277E-07  3000   0.153E-03    0.128E-03
DAV:   4    -0.851317070238E+03   -0.25648E-07   -0.18527E-07  3000   0.842E-04    0.419E-04
DAV:   5    -0.851317070244E+03   -0.57917E-08   -0.41322E-08  3000   0.463E-04    0.269E-04
DAV:   6    -0.851317070246E+03   -0.19645E-08   -0.12795E-08  3000   0.311E-04
  16 F= -.85921991E+03 E0= -.85921991E+03  d E =-.222950E-04  mag=     0.0000
       N       E                     dE             d eps       ncg     rms          rms(c)
DAV:   1    -0.851317100644E+03   -0.30400E-04   -0.98376E-04  4480   0.574E-02    0.566E-03
DAV:   2    -0.851317101470E+03   -0.82618E-06   -0.14314E-05  4960   0.656E-03    0.395E-03
DAV:   3    -0.851317101345E+03    0.12536E-06   -0.59270E-07  3000   0.181E-03    0.153E-03
DAV:   4    -0.851317101386E+03   -0.41415E-07   -0.26925E-07  3080   0.101E-03    0.476E-04
DAV:   5    -0.851317101393E+03   -0.71013E-08   -0.60974E-08  3000   0.556E-04    0.290E-04
DAV:   6    -0.851317101396E+03   -0.30632E-08   -0.19180E-08  3020   0.366E-04
  17 F= -.85921995E+03 E0= -.85921995E+03  d E =-.312937E-04  mag=     0.0000
       N       E                     dE             d eps       ncg     rms          rms(c)
DAV:   1    -0.851317138827E+03   -0.37434E-04   -0.14938E-03  4480   0.708E-02    0.708E-03
DAV:   2    -0.851317140125E+03   -0.12978E-05   -0.22634E-05  4880   0.827E-03    0.494E-03
DAV:   3    -0.851317139918E+03    0.20762E-06   -0.10119E-06  3040   0.229E-03    0.198E-03
DAV:   4    -0.851317139980E+03   -0.62733E-07   -0.41447E-07  3080   0.126E-03    0.600E-04
DAV:   5    -0.851317139992E+03   -0.12180E-07   -0.97749E-08  3000   0.681E-04    0.319E-04
DAV:   6    -0.851317139998E+03   -0.50713E-08   -0.30323E-08  3100   0.441E-04
  18 F= -.85921998E+03 E0= -.85921998E+03  d E =-.384683E-04  mag=     0.0000
       N       E                     dE             d eps       ncg     rms          rms(c)
DAV:   1    -0.851317177184E+03   -0.37192E-04   -0.22132E-03  4480   0.864E-02    0.874E-03
DAV:   2    -0.851317179114E+03   -0.19295E-05   -0.34313E-05  4880   0.102E-02    0.609E-03
DAV:   3    -0.851317178788E+03    0.32629E-06   -0.17772E-06  3560   0.288E-03    0.244E-03
DAV:   4    -0.851317178873E+03   -0.85078E-07   -0.56024E-07  3060   0.142E-03    0.780E-04
DAV:   5    -0.851317178891E+03   -0.18073E-07   -0.10428E-07  3000   0.706E-04    0.374E-04
DAV:   6    -0.851317178896E+03   -0.56098E-08   -0.33905E-08  3100   0.473E-04
  19 F= -.85922002E+03 E0= -.85922002E+03  d E =-.387781E-04  mag=     0.0000
       N       E                     dE             d eps       ncg     rms          rms(c)
DAV:   1    -0.851317213845E+03   -0.34954E-04   -0.31341E-03  4480   0.102E-01    0.104E-02
DAV:   2    -0.851317216479E+03   -0.26345E-05   -0.47544E-05  4840   0.120E-02    0.724E-03
DAV:   3    -0.851317216026E+03    0.45264E-06   -0.24233E-06  3800   0.339E-03    0.280E-03
DAV:   4    -0.851317216154E+03   -0.12762E-06   -0.77123E-07  3120   0.163E-03    0.885E-04
DAV:   5    -0.851317216178E+03   -0.23749E-07   -0.13020E-07  3000   0.795E-04    0.419E-04
DAV:   6    -0.851317216185E+03   -0.77198E-08   -0.44876E-08  3140   0.542E-04
  20 F= -.85922006E+03 E0= -.85922006E+03  d E =-.366872E-04  mag=     0.0000
       N       E                     dE             d eps       ncg     rms          rms(c)
DAV:   1    -0.851317253891E+03   -0.37714E-04   -0.42450E-03  4480   0.118E-01    0.120E-02
DAV:   2    -0.851317257295E+03   -0.34035E-05   -0.62013E-05  4800   0.136E-02    0.835E-03
DAV:   3    -0.851317256749E+03    0.54560E-06   -0.29923E-06  4240   0.378E-03    0.306E-03
DAV:   4    -0.851317256934E+03   -0.18456E-06   -0.94002E-07  3320   0.172E-03    0.956E-04
DAV:   5    -0.851317256961E+03   -0.27248E-07   -0.11374E-07  3000   0.786E-04    0.464E-04
DAV:   6    -0.851317256971E+03   -0.95388E-08   -0.45339E-08  3120   0.552E-04
  21 F= -.85922010E+03 E0= -.85922010E+03  d E =-.400467E-04  mag=     0.0000
       N       E                     dE             d eps       ncg     rms          rms(c)
DAV:   1    -0.851317307770E+03   -0.50809E-04   -0.59014E-03  4480   0.138E-01    0.142E-02
DAV:   2    -0.851317312378E+03   -0.46082E-05   -0.84990E-05  4800   0.158E-02    0.981E-03
DAV:   3    -0.851317311658E+03    0.72007E-06   -0.40366E-06  4520   0.437E-03    0.356E-03
DAV:   4    -0.851317311926E+03   -0.26818E-06   -0.12671E-06  3480   0.195E-03    0.111E-03
DAV:   5    -0.851317311961E+03   -0.34626E-07   -0.11921E-07  3000   0.845E-04    0.527E-04
DAV:   6    -0.851317311973E+03   -0.12631E-07   -0.56244E-08  3120   0.614E-04
  22 F= -.85922015E+03 E0= -.85922015E+03  d E =-.537330E-04  mag=     0.0000
       N       E                     dE             d eps       ncg     rms          rms(c)
DAV:   1    -0.851317367984E+03   -0.56023E-04   -0.84532E-03  4480   0.164E-01    0.171E-02
DAV:   2    -0.851317374652E+03   -0.66683E-05   -0.12345E-04  4760   0.190E-02    0.118E-02
DAV:   3    -0.851317373621E+03    0.10317E-05   -0.61507E-06  4600   0.525E-03    0.440E-03
DAV:   4    -0.851317374010E+03   -0.38971E-06   -0.17618E-06  3680   0.228E-03    0.138E-03
DAV:   5    -0.851317374065E+03   -0.55035E-07   -0.15555E-07  3000   0.951E-04    0.597E-04
DAV:   6    -0.851317374083E+03   -0.17993E-07   -0.72793E-08  3160   0.694E-04
  23 F= -.85922021E+03 E0= -.85922021E+03  d E =-.595914E-04  mag=     0.0000
       N       E                     dE             d eps       ncg     rms          rms(c)
DAV:   1    -0.851317429785E+03   -0.55720E-04   -0.11948E-02  4480   0.193E-01    0.204E-02
DAV:   2    -0.851317439212E+03   -0.94270E-05   -0.17476E-04  4760   0.224E-02    0.140E-02
DAV:   3    -0.851317437796E+03    0.14166E-05   -0.83513E-06  4720   0.607E-03    0.531E-03
DAV:   4    -0.851317438397E+03   -0.60158E-06   -0.24661E-06  3920   0.269E-03    0.158E-03
DAV:   5    -0.851317438472E+03   -0.75001E-07   -0.21648E-07  3000   0.112E-03    0.670E-04
DAV:   6    -0.851317438500E+03   -0.27911E-07   -0.10278E-07  3240   0.823E-04
  24 F= -.85922027E+03 E0= -.85922027E+03  d E =-.604501E-04  mag=     0.0000
       N       E                     dE             d eps       ncg     rms          rms(c)
DAV:   1    -0.851317500781E+03   -0.62308E-04   -0.16158E-02  4480   0.223E-01    0.238E-02
DAV:   2    -0.851317513236E+03   -0.12455E-04   -0.23347E-04  4760   0.257E-02    0.163E-02
DAV:   3    -0.851317511398E+03    0.18383E-05   -0.10800E-05  4680   0.689E-03    0.609E-03
DAV:   4    -0.851317512270E+03   -0.87196E-06   -0.33331E-06  4140   0.308E-03    0.176E-03
DAV:   5    -0.851317512367E+03   -0.96901E-07   -0.29183E-07  3000   0.130E-03    0.728E-04
DAV:   6    -0.851317512408E+03   -0.41051E-07   -0.13363E-07  3200   0.933E-04
  25 F= -.85922034E+03 E0= -.85922034E+03  d E =-.688685E-04  mag=     0.0000
       N       E                     dE             d eps       ncg     rms          rms(c)
DAV:   1    -0.851317590701E+03   -0.78335E-04   -0.21946E-02  4480   0.259E-01    0.281E-02
DAV:   2    -0.851317607700E+03   -0.16999E-04   -0.31977E-04  4800   0.301E-02    0.191E-02
DAV:   3    -0.851317605217E+03    0.24833E-05   -0.15145E-05  4720   0.807E-03    0.723E-03
DAV:   4    -0.851317606411E+03   -0.11939E-05   -0.43895E-06  4220   0.353E-03    0.206E-03
DAV:   5    -0.851317606555E+03   -0.14427E-06   -0.38365E-07  3200   0.146E-03    0.809E-04
DAV:   6    -0.851317606615E+03   -0.59634E-07   -0.16698E-07  3300   0.106E-03
  26 F= -.85922043E+03 E0= -.85922043E+03  d E =-.863776E-04  mag=     0.0000
       N       E                     dE             d eps       ncg     rms          rms(c)
DAV:   1    -0.851317690581E+03   -0.84026E-04   -0.30573E-02  4480   0.301E-01    0.333E-02
DAV:   2    -0.851317714446E+03   -0.23864E-04   -0.44588E-04  4800   0.349E-02    0.225E-02
DAV:   3    -0.851317711450E+03    0.29959E-05   -0.19165E-05  4740   0.896E-03    0.876E-03
DAV:   4    -0.851317713334E+03   -0.18838E-05   -0.60172E-06  4700   0.409E-03    0.226E-03
DAV:   5    -0.851317713510E+03   -0.17617E-06   -0.63271E-07  3660   0.180E-03    0.838E-04
DAV:   6    -0.851317713586E+03   -0.75983E-07   -0.20303E-07  3340   0.123E-03
  27 F= -.85922052E+03 E0= -.85922052E+03  d E =-.955523E-04  mag=     0.0000
       N       E                     dE             d eps       ncg     rms          rms(c)
DAV:   1    -0.851317809315E+03   -0.95805E-04   -0.43083E-02  4480   0.352E-01    0.398E-02
DAV:   2    -0.851317843800E+03   -0.34485E-04   -0.64470E-04  4840   0.411E-02    0.270E-02
DAV:   3    -0.851317840031E+03    0.37696E-05   -0.26613E-05  4760   0.104E-02    0.109E-02
DAV:   4    -0.851317843241E+03   -0.32105E-05   -0.87778E-06  4800   0.492E-03    0.270E-03
DAV:   5    -0.851317843495E+03   -0.25428E-06   -0.10015E-06  3660   0.215E-03    0.102E-03
DAV:   6    -0.851317843595E+03   -0.99644E-07   -0.27064E-07  3420   0.142E-03
  28 F= -.85922064E+03 E0= -.85922064E+03  d E =-.116224E-03  mag=     0.0000
       N       E                     dE             d eps       ncg     rms          rms(c)
DAV:   1    -0.851317900127E+03   -0.56632E-04   -0.54108E-02  4480   0.397E-01    0.452E-02
DAV:   2    -0.851317941642E+03   -0.41515E-04   -0.78744E-04  4920   0.462E-02    0.306E-02
DAV:   3    -0.851317937193E+03    0.44492E-05   -0.34616E-05  4840   0.121E-02    0.116E-02
DAV:   4    -0.851317940671E+03   -0.34778E-05   -0.10644E-05  4840   0.543E-03    0.309E-03
DAV:   5    -0.851317940942E+03   -0.27084E-06   -0.11126E-06  3660   0.244E-03    0.118E-03
DAV:   6    -0.851317941084E+03   -0.14203E-06   -0.43154E-07  3560   0.180E-03
  29 F= -.85922072E+03 E0= -.85922072E+03  d E =-.839380E-04  mag=     0.0000
       N       E                     dE             d eps       ncg     rms          rms(c)
DAV:   1    -0.851318022177E+03   -0.81236E-04   -0.69141E-02  4480   0.451E-01    0.518E-02
DAV:   2    -0.851318072691E+03   -0.50514E-04   -0.10183E-03  4960   0.528E-02    0.353E-02
DAV:   3    -0.851318067970E+03    0.47210E-05   -0.47670E-05  4740   0.142E-02    0.127E-02
DAV:   4    -0.851318072749E+03   -0.47789E-05   -0.14139E-05  4800   0.608E-03    0.355E-03
DAV:   5    -0.851318073163E+03   -0.41377E-06   -0.12397E-06  3680   0.256E-03    0.129E-03
DAV:   6    -0.851318073337E+03   -0.17390E-06   -0.49473E-07  3540   0.192E-03
  30 F= -.85922085E+03 E0= -.85922085E+03  d E =-.122155E-03  mag=     0.0000
       N       E                     dE             d eps       ncg     rms          rms(c)
DAV:   1    -0.851318161742E+03   -0.88579E-04   -0.10114E-01  4480   0.529E-01    0.629E-02
DAV:   2    -0.851318238244E+03   -0.76501E-04   -0.15538E-03  4880   0.624E-02    0.431E-02
DAV:   3    -0.851318231200E+03    0.70437E-05   -0.63374E-05  4720   0.160E-02    0.169E-02
DAV:   4    -0.851318241717E+03   -0.10517E-04   -0.22446E-05  4720   0.750E-03    0.412E-03
DAV:   5    -0.851318242425E+03   -0.70828E-06   -0.23146E-06  3800   0.318E-03    0.149E-03
DAV:   6    -0.851318242605E+03   -0.17941E-06   -0.55778E-07  3680   0.202E-03
  31 F= -.85922100E+03 E0= -.85922100E+03  d E =-.154474E-03  mag=     0.0000
       N       E                     dE             d eps       ncg     rms          rms(c)
DAV:   1    -0.851318309971E+03   -0.67546E-04   -0.10396E-01  4480   0.566E-01    0.668E-02
DAV:   2    -0.851318374661E+03   -0.64690E-04   -0.14735E-03  4740   0.667E-02    0.457E-02
DAV:   3    -0.851318368083E+03    0.65782E-05   -0.91402E-05  4980   0.201E-02    0.126E-02
DAV:   4    -0.851318372967E+03   -0.48839E-05   -0.24017E-05  4780   0.775E-03    0.468E-03
DAV:   5    -0.851318373562E+03   -0.59486E-06   -0.17341E-06  3940   0.318E-03    0.173E-03
DAV:   6    -0.851318373851E+03   -0.28915E-06   -0.96592E-07  3900   0.270E-03
  32 F= -.85922112E+03 E0= -.85922112E+03  d E =-.116310E-03  mag=     0.0000
       N       E                     dE             d eps       ncg     rms          rms(c)
DAV:   1    -0.851318314617E+03    0.58945E-04   -0.18499E-01  4480   0.696E-01    0.859E-02
DAV:   2    -0.851318467392E+03   -0.15278E-03   -0.30183E-03  4760   0.832E-02    0.597E-02
DAV:   3    -0.851318448703E+03    0.18690E-04   -0.11710E-04  5120   0.212E-02    0.248E-02
DAV:   4    -0.851318472691E+03   -0.23988E-04   -0.45019E-05  4560   0.104E-02    0.585E-03
DAV:   5    -0.851318474689E+03   -0.19985E-05   -0.48681E-06  4820   0.432E-03    0.229E-03
DAV:   6    -0.851318475119E+03   -0.43000E-06   -0.10036E-06  4200   0.279E-03
  33 F= -.85922122E+03 E0= -.85922122E+03  d E =-.100719E-03  mag=     0.0000
       N       E                     dE             d eps       ncg     rms          rms(c)
DAV:   1    -0.851318574257E+03   -0.99568E-04   -0.30539E-03  4940   0.997E-02    0.127E-02
DAV:   2    -0.851318578547E+03   -0.42896E-05   -0.81827E-05  4640   0.146E-02    0.923E-03
DAV:   3    -0.851318577315E+03    0.12321E-05   -0.43095E-06  4720   0.402E-03    0.495E-03
DAV:   4    -0.851318577389E+03   -0.74433E-07   -0.13287E-06  3860   0.249E-03    0.152E-03
DAV:   5    -0.851318577531E+03   -0.14187E-06   -0.61823E-07  3800   0.213E-03    0.577E-04
DAV:   6    -0.851318577542E+03   -0.10623E-07   -0.29769E-07  3360   0.152E-03
  34 F= -.85922132E+03 E0= -.85922132E+03  d E =-.106230E-03  mag=     0.0000
       N       E                     dE             d eps       ncg     rms          rms(c)
DAV:   1    -0.851318551667E+03    0.25864E-04   -0.47124E-03  5000   0.128E-01    0.159E-02
DAV:   2    -0.851318558313E+03   -0.66459E-05   -0.12108E-04  4720   0.182E-02    0.113E-02
DAV:   3    -0.851318556470E+03    0.18426E-05   -0.65989E-06  5200   0.484E-03    0.596E-03
DAV:   4    -0.851318556366E+03    0.10418E-06   -0.15510E-06  3780   0.226E-03    0.185E-03
DAV:   5    -0.851318556471E+03   -0.10497E-06   -0.25294E-07  3340   0.980E-04    0.632E-04
DAV:   6    -0.851318556531E+03   -0.59830E-07   -0.54296E-08  3380   0.523E-04
  35 F= -.85922131E+03 E0= -.85922131E+03  d E =0.140303E-04  mag=     0.0000
       N       E                     dE             d eps       ncg     rms          rms(c)
DAV:   1    -0.851318576079E+03   -0.19608E-04   -0.13709E-04  4840   0.195E-02    0.255E-03
DAV:   2    -0.851318576296E+03   -0.21629E-06   -0.33980E-06  4480   0.281E-03    0.184E-03
DAV:   3    -0.851318576295E+03    0.55297E-09   -0.16872E-07  3440   0.842E-04    0.101E-03
DAV:   4    -0.851318576369E+03   -0.73771E-07   -0.89328E-08  3280   0.621E-04    0.349E-04
DAV:   5    -0.851318576408E+03   -0.38934E-07   -0.40065E-08  3300   0.519E-04    0.278E-04
DAV:   6    -0.851318576428E+03   -0.20365E-07   -0.11399E-08  3200   0.301E-04
  36 F= -.85922133E+03 E0= -.85922133E+03  d E =-.201321E-04  mag=     0.0000
       N       E                     dE             d eps       ncg     rms          rms(c)
DAV:   1    -0.851318600754E+03   -0.24346E-04   -0.44177E-04  4760   0.351E-02    0.455E-03
DAV:   2    -0.851318601371E+03   -0.61704E-06   -0.11062E-05  4840   0.500E-03    0.327E-03
DAV:   3    -0.851318601236E+03    0.13515E-06   -0.40254E-07  3520   0.126E-03    0.179E-03
DAV:   4    -0.851318601284E+03   -0.47796E-07   -0.23458E-07  3240   0.869E-04    0.483E-04
DAV:   5    -0.851318601302E+03   -0.17950E-07   -0.46469E-08  3360   0.393E-04    0.309E-04
DAV:   6    -0.851318601310E+03   -0.80909E-08   -0.57256E-09  3000   0.180E-04
  37 F= -.85922136E+03 E0= -.85922136E+03  d E =-.256172E-04  mag=     0.0000
       N       E                     dE             d eps       ncg     rms          rms(c)
DAV:   1    -0.851318613515E+03   -0.12213E-04   -0.71955E-04  4720   0.444E-02    0.575E-03
DAV:   2    -0.851318614466E+03   -0.95083E-06   -0.17644E-05  4800   0.626E-03    0.414E-03
DAV:   3    -0.851318614242E+03    0.22398E-06   -0.67292E-07  4040   0.158E-03    0.227E-03
DAV:   4    -0.851318614304E+03   -0.62399E-07   -0.33180E-07  3480   0.101E-03    0.598E-04
DAV:   5    -0.851318614324E+03   -0.19550E-07   -0.61700E-08  3280   0.444E-04    0.334E-04
DAV:   6    -0.851318614332E+03   -0.81927E-08   -0.86603E-09  3120   0.221E-04
  38 F= -.85922137E+03 E0= -.85922137E+03  d E =-.144902E-04  mag=     0.0000
       N       E                     dE             d eps       ncg     rms          rms(c)
DAV:   1    -0.851318612765E+03    0.15588E-05   -0.72337E-04  4480   0.434E-02    0.560E-03
DAV:   2    -0.851318613666E+03   -0.90050E-06   -0.16707E-05  4800   0.590E-03    0.404E-03
DAV:   3    -0.851318613470E+03    0.19578E-06   -0.53937E-07  3840   0.145E-03    0.220E-03
DAV:   4    -0.851318613566E+03   -0.95824E-07   -0.36078E-07  3560   0.103E-03    0.556E-04
DAV:   5    -0.851318613584E+03   -0.18852E-07   -0.63137E-08  3120   0.470E-04    0.334E-04
DAV:   6    -0.851318613594E+03   -0.99753E-08   -0.11035E-08  3060   0.272E-04
  39 F= -.85922137E+03 E0= -.85922137E+03  d E =-.160516E-05  mag=     0.0000
       N       E                     dE             d eps       ncg     rms          rms(c)
DAV:   1    -0.851318614748E+03   -0.11636E-05   -0.11266E-06  3440   0.207E-03    0.344E-04
DAV:   2    -0.851318614754E+03   -0.61991E-08   -0.47028E-08  3080   0.477E-04    0.312E-04
DAV:   3    -0.851318614757E+03   -0.24738E-08   -0.42400E-09  3200   0.200E-04    0.273E-04
DAV:   4    -0.851318614761E+03   -0.41691E-08   -0.12078E-09  3040   0.173E-04    0.256E-04
DAV:   5    -0.851318614763E+03   -0.15571E-08    0.10492E-09  3160   0.123E-04    0.255E-04
DAV:   6    -0.851318614765E+03   -0.24665E-08    0.30994E-09  3280   0.350E-05
  40 F= -.85922137E+03 E0= -.85922137E+03  d E =-.129803E-05  mag=    -0.0000
       N       E                     dE             d eps       ncg     rms          rms(c)
DAV:   1    -0.851318616920E+03   -0.21577E-05   -0.44608E-06  4560   0.407E-03    0.544E-04
DAV:   2    -0.851318616925E+03   -0.46857E-08   -0.99808E-08  3200   0.600E-04    0.420E-04
DAV:   3    -0.851318616925E+03    0.34925E-09   -0.12717E-08  3080   0.253E-04    0.290E-04
DAV:   4    -0.851318616925E+03   -0.67666E-09   -0.18107E-10  3100   0.120E-04    0.260E-04
DAV:   5    -0.851318616926E+03   -0.11059E-08    0.23535E-09  3000   0.641E-05    0.254E-04
DAV:   6    -0.851318616926E+03    0.14552E-10    0.29671E-09  3200   0.398E-05
  41 F= -.85922138E+03 E0= -.85922138E+03  d E =-.241541E-05  mag=     0.0000
       N       E                     dE             d eps       ncg     rms          rms(c)
DAV:   1    -0.851318619742E+03   -0.28153E-05   -0.93813E-06  4560   0.589E-03    0.751E-04
DAV:   2    -0.851318619749E+03   -0.77562E-08   -0.19872E-07  3040   0.833E-04    0.549E-04
DAV:   3    -0.851318619746E+03    0.32742E-08   -0.29478E-08  3080   0.358E-04    0.323E-04
DAV:   4    -0.851318619746E+03   -0.10914E-09   -0.37251E-09  2920   0.167E-04    0.267E-04
DAV:   5    -0.851318619747E+03   -0.56025E-09    0.14604E-09  2960   0.872E-05    0.255E-04
DAV:   6    -0.851318619747E+03   -0.58208E-09    0.27699E-09  2360   0.498E-05
  42 F= -.85922138E+03 E0= -.85922138E+03  d E =-.322148E-05  mag=     0.0000
       N       E                     dE             d eps       ncg     rms          rms(c)
DAV:   1    -0.851318622915E+03   -0.31687E-05   -0.15246E-05  4560   0.750E-03    0.941E-04
DAV:   2    -0.851318622927E+03   -0.11925E-07   -0.32045E-07  3360   0.103E-03    0.679E-04
DAV:   3    -0.851318622922E+03    0.56243E-08   -0.37748E-08  3120   0.402E-04    0.369E-04
DAV:   4    -0.851318622922E+03   -0.38563E-09   -0.62600E-09  2800   0.191E-04    0.271E-04
DAV:   5    -0.851318622922E+03   -0.32014E-09    0.89444E-10  2760   0.969E-05    0.256E-04
DAV:   6    -0.851318622923E+03   -0.24738E-09    0.26708E-09  2240   0.540E-05
  43 F= -.85922138E+03 E0= -.85922138E+03  d E =-.371977E-05  mag=    -0.0000
       N       E                     dE             d eps       ncg     rms          rms(c)
DAV:   1    -0.851318626075E+03   -0.31530E-05   -0.21288E-05  4480   0.884E-03    0.110E-03
DAV:   2    -0.851318626091E+03   -0.15258E-07   -0.43226E-07  3320   0.120E-03    0.779E-04
DAV:   3    -0.851318626084E+03    0.63592E-08   -0.53118E-08  2880   0.472E-04    0.396E-04
DAV:   4    -0.851318626085E+03   -0.28376E-09   -0.97141E-09  2720   0.223E-04    0.277E-04
DAV:   5    -0.851318626086E+03   -0.93132E-09    0.50793E-12  2660   0.116E-04    0.257E-04
DAV:   6    -0.851318626086E+03    0.10914E-09    0.22695E-09  2240   0.705E-05
  44 F= -.85922139E+03 E0= -.85922139E+03  d E =-.385068E-05  mag=    -0.0000
       N       E                     dE             d eps       ncg     rms          rms(c)
DAV:   1    -0.851318629180E+03   -0.30945E-05   -0.27192E-05  4480   0.995E-03    0.123E-03
DAV:   2    -0.851318629198E+03   -0.17855E-07   -0.52369E-07  3320   0.132E-03    0.859E-04
DAV:   3    -0.851318629192E+03    0.62719E-08   -0.66749E-08  2840   0.526E-04    0.412E-04
DAV:   4    -0.851318629193E+03   -0.12951E-08   -0.12659E-08  2640   0.246E-04    0.282E-04
DAV:   5    -0.851318629194E+03   -0.98953E-09   -0.59179E-10  2720   0.126E-04    0.257E-04
DAV:   6    -0.851318629195E+03   -0.57480E-09    0.20805E-09  2280   0.752E-05
  45 F= -.85922139E+03 E0= -.85922139E+03  d E =-.393799E-05  mag=    -0.0000
       N       E                     dE             d eps       ncg     rms          rms(c)
DAV:   1    -0.851318632167E+03   -0.29725E-05   -0.39488E-05  4480   0.119E-02    0.146E-03
DAV:   2    -0.851318632188E+03   -0.21617E-07   -0.69837E-07  3320   0.153E-03    0.100E-03
DAV:   3    -0.851318632182E+03    0.64247E-08   -0.92564E-08  3040   0.618E-04    0.439E-04
DAV:   4    -0.851318632185E+03   -0.32087E-08   -0.18249E-08  2680   0.284E-04    0.290E-04
DAV:   5    -0.851318632187E+03   -0.17972E-08   -0.19292E-09  2760   0.145E-04    0.258E-04
DAV:   6    -0.851318632187E+03   -0.61118E-09    0.16233E-09  2480   0.853E-05
  46 F= -.85922139E+03 E0= -.85922139E+03  d E =-.402800E-05  mag=    -0.0000
       N       E                     dE             d eps       ncg     rms          rms(c)
DAV:   1    -0.851318635150E+03   -0.29637E-05   -0.55951E-05  4480   0.138E-02    0.170E-03
DAV:   2    -0.851318635179E+03   -0.28624E-07   -0.90305E-07  3480   0.172E-03    0.115E-03
DAV:   3    -0.851318635171E+03    0.80618E-08   -0.10437E-07  2840   0.666E-04    0.478E-04
DAV:   4    -0.851318635177E+03   -0.59372E-08   -0.22022E-08  2880   0.310E-04    0.293E-04
DAV:   5    -0.851318635179E+03   -0.22992E-08   -0.25850E-09  2780   0.156E-04    0.260E-04
DAV:   6    -0.851318635180E+03   -0.77853E-09    0.13525E-09  2760   0.918E-05
  47 F= -.85922140E+03 E0= -.85922140E+03  d E =-.421883E-05  mag=    -0.0000
       N       E                     dE             d eps       ncg     rms          rms(c)
DAV:   1    -0.851318638332E+03   -0.31526E-05   -0.77103E-05  4480   0.155E-02    0.195E-03
DAV:   2    -0.851318638364E+03   -0.32436E-07   -0.11166E-06  3520   0.185E-03    0.130E-03
DAV:   3    -0.851318638363E+03    0.15498E-08   -0.11021E-07  2840   0.688E-04    0.518E-04
DAV:   4    -0.851318638371E+03   -0.81855E-08   -0.25555E-08  2880   0.327E-04    0.291E-04
DAV:   5    -0.851318638374E+03   -0.30559E-08   -0.33783E-09  2800   0.165E-04    0.260E-04
DAV:   6    -0.851318638376E+03   -0.15425E-08    0.10070E-09  2800   0.949E-05
  48 F= -.85922140E+03 E0= -.85922140E+03  d E =-.450378E-05  mag=    -0.0000
       N       E                     dE             d eps       ncg     rms          rms(c)
DAV:   1    -0.851318643606E+03   -0.52323E-05   -0.11791E-04  4480   0.183E-02    0.235E-03
DAV:   2    -0.851318643657E+03   -0.50532E-07   -0.16544E-06  3640   0.212E-03    0.156E-03
DAV:   3    -0.851318643661E+03   -0.45693E-08   -0.12427E-07  2960   0.730E-04    0.627E-04
DAV:   4    -0.851318643677E+03   -0.15265E-07   -0.35189E-08  2840   0.366E-04    0.294E-04
DAV:   5    -0.851318643681E+03   -0.40891E-08   -0.55233E-09  2800   0.184E-04    0.262E-04
DAV:   6    -0.851318643682E+03   -0.90949E-09    0.67027E-10  2980   0.999E-05
  49 F= -.85922141E+03 E0= -.85922141E+03  d E =-.653807E-05  mag=     0.0000
       N       E                     dE             d eps       ncg     rms          rms(c)
DAV:   1    -0.851318652036E+03   -0.83550E-05   -0.19773E-04  4480   0.230E-02    0.299E-03
DAV:   2    -0.851318652155E+03   -0.11966E-06   -0.29877E-06  4000   0.271E-03    0.201E-03
DAV:   3    -0.851318652145E+03    0.10092E-07   -0.14356E-07  3000   0.790E-04    0.859E-04
DAV:   4    -0.851318652178E+03   -0.32203E-07   -0.62035E-08  3060   0.451E-04    0.317E-04
DAV:   5    -0.851318652182E+03   -0.41618E-08   -0.10987E-08  2840   0.227E-04    0.267E-04
DAV:   6    -0.851318652184E+03   -0.19936E-08   -0.81932E-11  3060   0.110E-04
  50 F= -.85922142E+03 E0= -.85922142E+03  d E =-.939998E-05  mag=     0.0000
       N       E                     dE             d eps       ncg     rms          rms(c)
DAV:   1    -0.851318662479E+03   -0.10297E-04   -0.33582E-04  4480   0.294E-02    0.384E-03
DAV:   2    -0.851318662724E+03   -0.24559E-06   -0.54406E-06  4480   0.353E-03    0.262E-03
DAV:   3    -0.851318662697E+03    0.26681E-07   -0.19063E-07  3000   0.911E-04    0.118E-03
DAV:   4    -0.851318662752E+03   -0.54650E-07   -0.10965E-07  3080   0.583E-04    0.359E-04
DAV:   5    -0.851318662756E+03   -0.42201E-08   -0.20356E-08  2960   0.290E-04    0.282E-04
DAV:   6    -0.851318662759E+03   -0.24083E-08   -0.14205E-09  3040   0.135E-04
  51 F= -.85922143E+03 E0= -.85922143E+03  d E =-.111702E-04  mag=    -0.0000
       N       E                     dE             d eps       ncg     rms          rms(c)
DAV:   1    -0.851318674061E+03   -0.11305E-04   -0.53275E-04  4480   0.359E-02    0.478E-03
DAV:   2    -0.851318674476E+03   -0.41449E-06   -0.87749E-06  4560   0.429E-03    0.326E-03
DAV:   3    -0.851318674439E+03    0.36809E-07   -0.26127E-07  3320   0.105E-03    0.151E-03
DAV:   4    -0.851318674531E+03   -0.92208E-07   -0.16073E-07  3280   0.681E-04    0.400E-04
DAV:   5    -0.851318674539E+03   -0.79381E-08   -0.30644E-08  2960   0.335E-04    0.298E-04
DAV:   6    -0.851318674541E+03   -0.18335E-08   -0.26190E-09  3160   0.154E-04
  52 F= -.85922144E+03 E0= -.85922144E+03  d E =-.127763E-04  mag=     0.0000
       N       E                     dE             d eps       ncg     rms          rms(c)
DAV:   1    -0.851318685309E+03   -0.10770E-04   -0.79544E-04  4480   0.430E-02    0.583E-03
DAV:   2    -0.851318685918E+03   -0.60839E-06   -0.12877E-05  4600   0.507E-03    0.396E-03
DAV:   3    -0.851318685879E+03    0.38643E-07   -0.35542E-07  3360   0.121E-03    0.183E-03
DAV:   4    -0.851318686021E+03   -0.14199E-06   -0.24398E-07  3480   0.797E-04    0.463E-04
DAV:   5    -0.851318686032E+03   -0.10834E-07   -0.40259E-08  3000   0.368E-04    0.311E-04
DAV:   6    -0.851318686034E+03   -0.23283E-08   -0.33055E-09  3160   0.162E-04
  53 F= -.85922146E+03 E0= -.85922146E+03  d E =-.132155E-04  mag=     0.0000
       N       E                     dE             d eps       ncg     rms          rms(c)
DAV:   1    -0.851318696838E+03   -0.10806E-04   -0.98813E-04  4480   0.494E-02    0.670E-03
DAV:   2    -0.851318697484E+03   -0.64581E-06   -0.15093E-05  4680   0.576E-03    0.451E-03
DAV:   3    -0.851318697482E+03    0.21319E-08   -0.47706E-07  3320   0.144E-03    0.187E-03
DAV:   4    -0.851318697634E+03   -0.15202E-06   -0.27454E-07  3400   0.855E-04    0.503E-04
DAV:   5    -0.851318697645E+03   -0.10354E-07   -0.41708E-08  3000   0.401E-04    0.313E-04
DAV:   6    -0.851318697647E+03   -0.26703E-08   -0.45186E-09  3200   0.179E-04
  54 F= -.85922147E+03 E0= -.85922147E+03  d E =-.143806E-04  mag=     0.0000
       N       E                     dE             d eps       ncg     rms          rms(c)
DAV:   1    -0.851318712258E+03   -0.14613E-04   -0.11698E-03  4480   0.560E-02    0.763E-03
DAV:   2    -0.851318712907E+03   -0.64867E-06   -0.16837E-05  4800   0.651E-03    0.508E-03
DAV:   3    -0.851318712946E+03   -0.39065E-07   -0.64507E-07  3360   0.171E-03    0.181E-03
DAV:   4    -0.851318713088E+03   -0.14238E-06   -0.28717E-07  3480   0.892E-04    0.534E-04
DAV:   5    -0.851318713097E+03   -0.91604E-08   -0.38235E-08  3000   0.416E-04    0.313E-04
DAV:   6    -0.851318713101E+03   -0.38053E-08   -0.58792E-09  3220   0.198E-04
  55 F= -.85922149E+03 E0= -.85922149E+03  d E =-.180116E-04  mag=    -0.0000
       N       E                     dE             d eps       ncg     rms          rms(c)
DAV:   1    -0.851318731714E+03   -0.18616E-04   -0.15331E-03  4480   0.652E-02    0.902E-03
DAV:   2    -0.851318732490E+03   -0.77586E-06   -0.21475E-05  4800   0.756E-03    0.599E-03
DAV:   3    -0.851318732574E+03   -0.84350E-07   -0.92085E-07  3520   0.205E-03    0.192E-03
DAV:   4    -0.851318732735E+03   -0.16121E-06   -0.34294E-07  3440   0.972E-04    0.591E-04
DAV:   5    -0.851318732745E+03   -0.10135E-07   -0.42273E-08  3000   0.443E-04    0.324E-04
DAV:   6    -0.851318732749E+03   -0.33979E-08   -0.79311E-09  3200   0.218E-04
  56 F= -.85922151E+03 E0= -.85922151E+03  d E =-.212811E-04  mag=     0.0000
       N       E                     dE             d eps       ncg     rms          rms(c)
DAV:   1    -0.851318756085E+03   -0.23340E-04   -0.23169E-03  4480   0.792E-02    0.111E-02
DAV:   2    -0.851318757266E+03   -0.11810E-05   -0.32894E-05  4720   0.922E-03    0.734E-03
DAV:   3    -0.851318757427E+03   -0.16102E-06   -0.14405E-06  3760   0.251E-03    0.241E-03
DAV:   4    -0.851318757677E+03   -0.24967E-06   -0.50321E-07  3300   0.116E-03    0.708E-04
DAV:   5    -0.851318757693E+03   -0.16495E-07   -0.63782E-08  3000   0.528E-04    0.357E-04
DAV:   6    -0.851318757698E+03   -0.46639E-08   -0.13296E-08  3260   0.256E-04
  57 F= -.85922154E+03 E0= -.85922154E+03  d E =-.265108E-04  mag=     0.0000
       N       E                     dE             d eps       ncg     rms          rms(c)
DAV:   1    -0.851318787137E+03   -0.29444E-04   -0.38464E-03  4480   0.976E-02    0.139E-02
DAV:   2    -0.851318789217E+03   -0.20802E-05   -0.56779E-05  4600   0.114E-02    0.926E-03
DAV:   3    -0.851318789549E+03   -0.33157E-06   -0.21973E-06  4160   0.297E-03    0.332E-03
DAV:   4    -0.851318790100E+03   -0.55097E-06   -0.82845E-07  3600   0.139E-03    0.880E-04
DAV:   5    -0.851318790128E+03   -0.28573E-07   -0.10972E-07  3040   0.639E-04    0.404E-04
DAV:   6    -0.851318790135E+03   -0.70650E-08   -0.17679E-08  3300   0.293E-04
  58 F= -.85922157E+03 E0= -.85922157E+03  d E =-.341775E-04  mag=    -0.0000
       N       E                     dE             d eps       ncg     rms          rms(c)
DAV:   1    -0.851318828254E+03   -0.38126E-04   -0.63974E-03  4480   0.122E-01    0.175E-02
DAV:   2    -0.851318832091E+03   -0.38372E-05   -0.98970E-05  4640   0.143E-02    0.118E-02
DAV:   3    -0.851318832506E+03   -0.41470E-06   -0.35016E-06  4420   0.365E-03    0.454E-03
DAV:   4    -0.851318833591E+03   -0.10856E-05   -0.14933E-06  3800   0.179E-03    0.111E-03
DAV:   5    -0.851318833644E+03   -0.53129E-07   -0.18981E-07  3280   0.797E-04    0.504E-04
DAV:   6    -0.851318833656E+03   -0.11678E-07   -0.26188E-08  3300   0.368E-04
  59 F= -.85922161E+03 E0= -.85922161E+03  d E =-.429458E-04  mag=    -0.0000
       N       E                     dE             d eps       ncg     rms          rms(c)
DAV:   1    -0.851318885379E+03   -0.51735E-04   -0.87767E-03  4480   0.143E-01    0.209E-02
DAV:   2    -0.851318890497E+03   -0.51177E-05   -0.13311E-04  4640   0.168E-02    0.140E-02
DAV:   3    -0.851318891191E+03   -0.69414E-06   -0.48711E-06  4600   0.429E-03    0.523E-03
DAV:   4    -0.851318892614E+03   -0.14230E-05   -0.19290E-06  4100   0.203E-03    0.128E-03
DAV:   5    -0.851318892665E+03   -0.50932E-07   -0.24399E-07  3460   0.909E-04    0.565E-04
DAV:   6    -0.851318892684E+03   -0.19165E-07   -0.32149E-08  3200   0.405E-04
  60 F= -.85922167E+03 E0= -.85922167E+03  d E =-.548809E-04  mag=    -0.0000
       N       E                     dE             d eps       ncg     rms          rms(c)
DAV:   1    -0.851318951267E+03   -0.58601E-04   -0.12007E-02  4480   0.170E-01    0.250E-02
DAV:   2    -0.851318957889E+03   -0.66226E-05   -0.17659E-04  4640   0.199E-02    0.165E-02
DAV:   3    -0.851318958996E+03   -0.11069E-05   -0.68272E-06  4560   0.514E-03    0.593E-03
DAV:   4    -0.851318960730E+03   -0.17336E-05   -0.25038E-06  4160   0.234E-03    0.150E-03
DAV:   5    -0.851318960781E+03   -0.51237E-07   -0.27352E-07  3520   0.983E-04    0.620E-04
DAV:   6    -0.851318960798E+03   -0.17135E-07   -0.40580E-08  3180   0.429E-04
  61 F= -.85922173E+03 E0= -.85922173E+03  d E =-.653600E-04  mag=     0.0000
       N       E                     dE             d eps       ncg     rms          rms(c)
DAV:   1    -0.851319035519E+03   -0.74738E-04   -0.15860E-02  4480   0.198E-01    0.291E-02
DAV:   2    -0.851319044451E+03   -0.89320E-05   -0.22757E-04  4720   0.232E-02    0.192E-02
DAV:   3    -0.851319046073E+03   -0.16220E-05   -0.93102E-06  4720   0.619E-03    0.640E-03
DAV:   4    -0.851319047800E+03   -0.17263E-05   -0.30474E-06  4320   0.267E-03    0.171E-03
DAV:   5    -0.851319047838E+03   -0.38293E-07   -0.25927E-07  3360   0.106E-03    0.735E-04
DAV:   6    -0.851319047856E+03   -0.18350E-07   -0.68499E-08  3120   0.560E-04
  62 F= -.85922182E+03 E0= -.85922182E+03  d E =-.829027E-04  mag=    -0.0000
       N       E                     dE             d eps       ncg     rms          rms(c)
DAV:   1    -0.851319139566E+03   -0.91728E-04   -0.31787E-02  4480   0.259E-01    0.382E-02
DAV:   2    -0.851319162736E+03   -0.23170E-04   -0.49496E-04  4800   0.305E-02    0.252E-02
DAV:   3    -0.851319163451E+03   -0.71449E-06   -0.14301E-05  4880   0.724E-03    0.109E-02
DAV:   4    -0.851319169376E+03   -0.59256E-05   -0.73067E-06  4480   0.395E-03    0.232E-03
DAV:   5    -0.851319169543E+03   -0.16715E-06   -0.91034E-07  3740   0.154E-03    0.103E-03
DAV:   6    -0.851319169610E+03   -0.66684E-07   -0.77638E-08  3240   0.568E-04
  63 F= -.85922193E+03 E0= -.85922193E+03  d E =-.113452E-03  mag=     0.0000
       N       E                     dE             d eps       ncg     rms          rms(c)
DAV:   1    -0.851319230433E+03   -0.60890E-04   -0.52241E-02  4480   0.323E-01    0.477E-02
DAV:   2    -0.851319274980E+03   -0.44547E-04   -0.83165E-04  4680   0.380E-02    0.310E-02
DAV:   3    -0.851319273229E+03    0.17502E-05   -0.20387E-05  4960   0.851E-03    0.146E-02
DAV:   4    -0.851319283209E+03   -0.99792E-05   -0.12346E-05  4560   0.518E-03    0.286E-03
DAV:   5    -0.851319283478E+03   -0.26948E-06   -0.17801E-06  3880   0.207E-03    0.139E-03
DAV:   6    -0.851319283596E+03   -0.11788E-06   -0.12387E-07  3280   0.739E-04
  64 F= -.85922204E+03 E0= -.85922204E+03  d E =-.107071E-03  mag=    -0.0000
       N       E                     dE             d eps       ncg     rms          rms(c)
DAV:   1    -0.851319317775E+03   -0.34297E-04   -0.59503E-02  4480   0.366E-01    0.526E-02
DAV:   2    -0.851319365365E+03   -0.47590E-04   -0.90980E-04  4800   0.433E-02    0.342E-02
DAV:   3    -0.851319364905E+03    0.46005E-06   -0.27633E-05  4940   0.105E-02    0.148E-02
DAV:   4    -0.851319372834E+03   -0.79287E-05   -0.12137E-05  4480   0.555E-03    0.325E-03
DAV:   5    -0.851319373063E+03   -0.22924E-06   -0.14492E-06  3880   0.215E-03    0.153E-03
DAV:   6    -0.851319373185E+03   -0.12146E-06   -0.17397E-07  3160   0.886E-04
  65 F= -.85922212E+03 E0= -.85922212E+03  d E =-.806205E-04  mag=    -0.0000
       N       E                     dE             d eps       ncg     rms          rms(c)
DAV:   1    -0.851319370161E+03    0.29025E-05   -0.84718E-02  4480   0.437E-01    0.621E-02
DAV:   2    -0.851319438336E+03   -0.68176E-04   -0.13638E-03  4640   0.529E-02    0.414E-02
DAV:   3    -0.851319436054E+03    0.22826E-05   -0.44489E-05  4960   0.130E-02    0.181E-02
DAV:   4    -0.851319450053E+03   -0.13999E-04   -0.20337E-05  4480   0.692E-03    0.403E-03
DAV:   5    -0.851319450661E+03   -0.60846E-06   -0.23868E-06  4040   0.255E-03    0.181E-03
DAV:   6    -0.851319450873E+03   -0.21184E-06   -0.21246E-07  3240   0.920E-04
  66 F= -.85922219E+03 E0= -.85922219E+03  d E =-.744140E-04  mag=    -0.0000
       N       E                     dE             d eps       ncg     rms          rms(c)
DAV:   1    -0.851319411416E+03    0.39245E-04   -0.11960E-01  4480   0.530E-01    0.737E-02
DAV:   2    -0.851319513543E+03   -0.10213E-03   -0.19910E-03  4720   0.651E-02    0.496E-02
DAV:   3    -0.851319505561E+03    0.79819E-05   -0.68978E-05  4920   0.161E-02    0.221E-02
DAV:   4    -0.851319524102E+03   -0.18540E-04   -0.29582E-05  4480   0.848E-03    0.496E-03
DAV:   5    -0.851319525129E+03   -0.10274E-05   -0.32758E-06  4280   0.297E-03    0.231E-03
DAV:   6    -0.851319525421E+03   -0.29188E-06   -0.28833E-07  3320   0.109E-03
  67 F= -.85922226E+03 E0= -.85922226E+03  d E =-.657331E-04  mag=    -0.0000
       N       E                     dE             d eps       ncg     rms          rms(c)
DAV:   1    -0.851319623171E+03   -0.98042E-04   -0.34312E-03  4720   0.113E-01    0.136E-02
DAV:   2    -0.851319627282E+03   -0.41110E-05   -0.82695E-05  4640   0.164E-02    0.954E-03
DAV:   3    -0.851319625797E+03    0.14844E-05   -0.63769E-06  5080   0.483E-03    0.445E-03
DAV:   4    -0.851319625710E+03    0.87479E-07   -0.99721E-07  3400   0.188E-03    0.176E-03
DAV:   5    -0.851319625775E+03   -0.64538E-07   -0.19949E-07  3320   0.953E-04    0.626E-04
DAV:   6    -0.851319625819E+03   -0.44522E-07   -0.51994E-08  3300   0.507E-04
  68 F= -.85922236E+03 E0= -.85922236E+03  d E =-.102366E-03  mag=     0.0000
       N       E                     dE             d eps       ncg     rms          rms(c)
DAV:   1    -0.851319579790E+03    0.45984E-04   -0.42979E-03  4600   0.128E-01    0.152E-02
DAV:   2    -0.851319584962E+03   -0.51716E-05   -0.10041E-04  4880   0.182E-02    0.106E-02
DAV:   3    -0.851319583147E+03    0.18151E-05   -0.77949E-06  5040   0.538E-03    0.485E-03
DAV:   4    -0.851319583005E+03    0.14203E-06   -0.12510E-06  3560   0.208E-03    0.191E-03
DAV:   5    -0.851319583041E+03   -0.36380E-07   -0.21891E-07  3160   0.949E-04    0.639E-04
DAV:   6    -0.851319583059E+03   -0.17695E-07   -0.53383E-08  3240   0.479E-04
  69 F= -.85922232E+03 E0= -.85922232E+03  d E =0.416047E-04  mag=     0.0000
       N       E                     dE             d eps       ncg     rms          rms(c)
DAV:   1    -0.851319607058E+03   -0.24017E-04   -0.14435E-04  4600   0.227E-02    0.273E-03
DAV:   2    -0.851319607239E+03   -0.18071E-06   -0.34137E-06  4560   0.328E-03    0.193E-03
DAV:   3    -0.851319607198E+03    0.40905E-07   -0.23369E-07  3240   0.995E-04    0.928E-04
DAV:   4    -0.851319607214E+03   -0.16182E-07   -0.71050E-08  3320   0.538E-04    0.421E-04
DAV:   5    -0.851319607227E+03   -0.13380E-07   -0.14913E-08  3200   0.274E-04    0.343E-04
DAV:   6    -0.851319607233E+03   -0.57917E-08   -0.11678E-09  3300   0.138E-04
  70 F= -.85922234E+03 E0= -.85922234E+03  d E =-.240120E-04  mag=     0.0000
       N       E                     dE             d eps       ncg     rms          rms(c)
DAV:   1    -0.851319636942E+03   -0.29715E-04   -0.47639E-04  4600   0.412E-02    0.492E-03
DAV:   2    -0.851319637511E+03   -0.56853E-06   -0.11285E-05  4600   0.591E-03    0.344E-03
DAV:   3    -0.851319637323E+03    0.18786E-06   -0.64298E-07  3480   0.165E-03    0.163E-03
DAV:   4    -0.851319637329E+03   -0.55006E-08   -0.22434E-07  3040   0.934E-04    0.584E-04
DAV:   5    -0.851319637338E+03   -0.89567E-08   -0.50425E-08  3180   0.444E-04    0.371E-04
DAV:   6    -0.851319637340E+03   -0.19572E-08   -0.88087E-09  3000   0.211E-04
  71 F= -.85922237E+03 E0= -.85922237E+03  d E =-.298759E-04  mag=    -0.0000
       N       E                     dE             d eps       ncg     rms          rms(c)
DAV:   1    -0.851319650082E+03   -0.12745E-04   -0.75441E-04  4640   0.515E-02    0.614E-03
DAV:   2    -0.851319650966E+03   -0.88374E-06   -0.17623E-05  4640   0.733E-03    0.430E-03
DAV:   3    -0.851319650675E+03    0.29051E-06   -0.98913E-07  3520   0.205E-03    0.204E-03
DAV:   4    -0.851319650687E+03   -0.11212E-07   -0.35977E-07  3200   0.117E-03    0.682E-04
DAV:   5    -0.851319650699E+03   -0.12602E-07   -0.77126E-08  3040   0.540E-04    0.396E-04
DAV:   6    -0.851319650702E+03   -0.31141E-08   -0.14988E-08  3120   0.258E-04
  72 F= -.85922239E+03 E0= -.85922239E+03  d E =-.134067E-04  mag=    -0.0000
       N       E                     dE             d eps       ncg     rms          rms(c)
DAV:   1    -0.851319642669E+03    0.80300E-05   -0.67751E-04  4560   0.477E-02    0.563E-03
DAV:   2    -0.851319643446E+03   -0.77643E-06   -0.15089E-05  4680   0.660E-03    0.397E-03
DAV:   3    -0.851319643231E+03    0.21508E-06   -0.76461E-07  3400   0.180E-03    0.192E-03
DAV:   4    -0.851319643264E+03   -0.33833E-07   -0.30917E-07  3120   0.107E-03    0.616E-04
DAV:   5    -0.851319643278E+03   -0.13933E-07   -0.64426E-08  3000   0.501E-04    0.390E-04
DAV:   6    -0.851319643281E+03   -0.26339E-08   -0.11788E-08  3080   0.244E-04
  73 F= -.85922238E+03 E0= -.85922238E+03  d E =0.725557E-05  mag=    -0.0000
       N       E                     dE             d eps       ncg     rms          rms(c)
DAV:   1    -0.851319645141E+03   -0.18630E-05   -0.22985E-06  4120   0.294E-03    0.470E-04
DAV:   2    -0.851319645146E+03   -0.47730E-08   -0.58092E-08  2880   0.490E-04    0.409E-04
DAV:   3    -0.851319645146E+03   -0.17462E-09   -0.69270E-09  3080   0.218E-04    0.335E-04
DAV:   4    -0.851319645147E+03   -0.61846E-09    0.95732E-10  3120   0.112E-04    0.325E-04
DAV:   5    -0.851319645148E+03   -0.10914E-08    0.26679E-09  2920   0.615E-05    0.323E-04
DAV:   6    -0.851319645149E+03   -0.77853E-09    0.31323E-09  3000   0.327E-05
  74 F= -.85922238E+03 E0= -.85922238E+03  d E =-.189823E-05  mag=    -0.0000
       N       E                     dE             d eps       ncg     rms          rms(c)
DAV:   1    -0.851319648529E+03   -0.33812E-05   -0.86446E-06  4720   0.570E-03    0.746E-04
DAV:   2    -0.851319648538E+03   -0.91095E-08   -0.17446E-07  2880   0.813E-04    0.558E-04
DAV:   3    -0.851319648537E+03    0.12442E-08   -0.30667E-08  3080   0.367E-04    0.362E-04
DAV:   4    -0.851319648538E+03   -0.65484E-09   -0.32364E-09  2920   0.162E-04    0.332E-04
DAV:   5    -0.851319648538E+03   -0.74215E-09    0.15119E-09  2960   0.856E-05    0.323E-04
DAV:   6    -0.851319648538E+03    0.14552E-09    0.27495E-09  2280   0.480E-05
  75 F= -.85922238E+03 E0= -.85922238E+03  d E =-.342220E-05  mag=     0.0000
       N       E                     dE             d eps       ncg     rms          rms(c)
DAV:   1    -0.851319652843E+03   -0.43043E-05   -0.17953E-05  4600   0.821E-03    0.103E-03
DAV:   2    -0.851319652859E+03   -0.16771E-07   -0.35523E-07  2840   0.115E-03    0.732E-04
DAV:   3    -0.851319652855E+03    0.40673E-08   -0.66465E-08  3040   0.524E-04    0.399E-04
DAV:   4    -0.851319652857E+03   -0.18626E-08   -0.10053E-08  2680   0.230E-04    0.343E-04
DAV:   5    -0.851319652858E+03   -0.34925E-09   -0.35960E-10  2800   0.121E-04    0.324E-04
DAV:   6    -0.851319652858E+03   -0.29831E-09    0.21800E-09  2240   0.679E-05
  76 F= -.85922239E+03 E0= -.85922239E+03  d E =-.433739E-05  mag=    -0.0000
       N       E                     dE             d eps       ncg     rms          rms(c)
DAV:   1    -0.851319657313E+03   -0.44554E-05   -0.28323E-05  4560   0.103E-02    0.126E-03
DAV:   2    -0.851319657338E+03   -0.25175E-07   -0.55517E-07  2880   0.144E-03    0.883E-04
DAV:   3    -0.851319657333E+03    0.56752E-08   -0.10627E-07  3040   0.656E-04    0.436E-04
DAV:   4    -0.851319657334E+03   -0.17099E-08   -0.17883E-08  2560   0.289E-04    0.354E-04
DAV:   5    -0.851319657335E+03   -0.10623E-08   -0.26492E-09  2760   0.153E-04    0.325E-04
DAV:   6    -0.851319657335E+03   -0.58208E-10    0.13034E-09  2300   0.878E-05
  77 F= -.85922239E+03 E0= -.85922239E+03  d E =-.448658E-05  mag=    -0.0000
       N       E                     dE             d eps       ncg     rms          rms(c)
DAV:   1    -0.851319660915E+03   -0.35799E-05   -0.37240E-05  4560   0.118E-02    0.142E-03
DAV:   2    -0.851319660947E+03   -0.31694E-07   -0.71629E-07  3000   0.163E-03    0.992E-04
DAV:   3    -0.851319660941E+03    0.62137E-08   -0.13829E-07  3000   0.747E-04    0.461E-04
DAV:   4    -0.851319660943E+03   -0.20300E-08   -0.24260E-08  2780   0.330E-04    0.363E-04
DAV:   5    -0.851319660944E+03   -0.13169E-08   -0.44316E-09  2780   0.175E-04    0.326E-04
DAV:   6    -0.851319660944E+03   -0.45111E-09    0.58924E-10  2520   0.104E-04
  78 F= -.85922240E+03 E0= -.85922240E+03  d E =-.364648E-05  mag=     0.0000
       N       E                     dE             d eps       ncg     rms          rms(c)
DAV:   1    -0.851319663457E+03   -0.25131E-05   -0.42266E-05  4520   0.125E-02    0.150E-03
DAV:   2    -0.851319663491E+03   -0.34102E-07   -0.78331E-07  3000   0.171E-03    0.104E-03
DAV:   3    -0.851319663486E+03    0.56607E-08   -0.15125E-07  3020   0.783E-04    0.469E-04
DAV:   4    -0.851319663488E+03   -0.26557E-08   -0.27238E-08  2800   0.347E-04    0.365E-04
DAV:   5    -0.851319663489E+03   -0.12296E-08   -0.52736E-09  2800   0.186E-04    0.327E-04
DAV:   6    -0.851319663490E+03   -0.13097E-09    0.10332E-10  2600   0.116E-04
  79 F= -.85922240E+03 E0= -.85922240E+03  d E =-.267832E-05  mag=    -0.0000
       N       E                     dE             d eps       ncg     rms          rms(c)
DAV:   1    -0.851319665110E+03   -0.16209E-05   -0.53803E-05  4480   0.140E-02    0.165E-03
DAV:   2    -0.851319665155E+03   -0.44405E-07   -0.97348E-07  3280   0.185E-03    0.116E-03
DAV:   3    -0.851319665147E+03    0.81127E-08   -0.14512E-07  3080   0.771E-04    0.503E-04
DAV:   4    -0.851319665150E+03   -0.31505E-08   -0.26266E-08  2880   0.337E-04    0.364E-04
DAV:   5    -0.851319665152E+03   -0.17608E-08   -0.42267E-09  2760   0.174E-04    0.327E-04
DAV:   6    -0.851319665152E+03   -0.31287E-09    0.78420E-10  2680   0.108E-04
  80 F= -.85922240E+03 E0= -.85922240E+03  d E =-.188895E-05  mag=    -0.0000
       N       E                     dE             d eps       ncg     rms          rms(c)
DAV:   1    -0.851319666654E+03   -0.15021E-05   -0.63045E-05  4480   0.147E-02    0.173E-03
DAV:   2    -0.851319666701E+03   -0.47759E-07   -0.10365E-06  3400   0.186E-03    0.121E-03
DAV:   3    -0.851319666698E+03    0.37980E-08   -0.12730E-07  3080   0.733E-04    0.510E-04
DAV:   4    -0.851319666702E+03   -0.44456E-08   -0.25099E-08  2840   0.330E-04    0.357E-04
DAV:   5    -0.851319666704E+03   -0.15934E-08   -0.36122E-09  2800   0.168E-04    0.327E-04
DAV:   6    -0.851319666704E+03   -0.61118E-09    0.87886E-10  2780   0.110E-04
  81 F= -.85922240E+03 E0= -.85922240E+03  d E =-.182185E-05  mag=    -0.0000
       N       E                     dE             d eps       ncg     rms          rms(c)
DAV:   1    -0.851319669099E+03   -0.23958E-05   -0.79763E-05  4480   0.158E-02    0.188E-03
DAV:   2    -0.851319669150E+03   -0.50924E-07   -0.11682E-06  3400   0.191E-03    0.129E-03
DAV:   3    -0.851319669153E+03   -0.27285E-08   -0.12426E-07  2840   0.731E-04    0.523E-04
DAV:   4    -0.851319669161E+03   -0.74142E-08   -0.27515E-08  2800   0.337E-04    0.351E-04
DAV:   5    -0.851319669162E+03   -0.16589E-08   -0.39908E-09  2720   0.170E-04    0.326E-04
DAV:   6    -0.851319669162E+03   -0.21828E-09    0.73749E-10  2840   0.109E-04
  82 F= -.85922241E+03 E0= -.85922241E+03  d E =-.273453E-05  mag=    -0.0000
       N       E                     dE             d eps       ncg     rms          rms(c)
DAV:   1    -0.851319673459E+03   -0.42971E-05   -0.11573E-04  4480   0.184E-02    0.222E-03
DAV:   2    -0.851319673529E+03   -0.69769E-07   -0.16417E-06  3560   0.217E-03    0.151E-03
DAV:   3    -0.851319673533E+03   -0.42492E-08   -0.14197E-07  3040   0.781E-04    0.603E-04
DAV:   4    -0.851319673546E+03   -0.12216E-07   -0.36903E-08  2800   0.375E-04    0.355E-04
DAV:   5    -0.851319673548E+03   -0.25102E-08   -0.60368E-09  2800   0.191E-04    0.327E-04
DAV:   6    -0.851319673549E+03   -0.47294E-09    0.15172E-10  2840   0.117E-04
  83 F= -.85922241E+03 E0= -.85922241E+03  d E =-.477259E-05  mag=     0.0000
       N       E                     dE             d eps       ncg     rms          rms(c)
DAV:   1    -0.851319680304E+03   -0.67560E-05   -0.18490E-04  4480   0.230E-02    0.277E-03
DAV:   2    -0.851319680427E+03   -0.12299E-06   -0.27907E-06  4000   0.273E-03    0.191E-03
DAV:   3    -0.851319680425E+03    0.24520E-08   -0.15568E-07  3160   0.818E-04    0.787E-04
DAV:   4    -0.851319680447E+03   -0.22046E-07   -0.58504E-08  2940   0.441E-04    0.371E-04
DAV:   5    -0.851319680450E+03   -0.32087E-08   -0.10833E-08  2880   0.229E-04    0.330E-04
DAV:   6    -0.851319680451E+03   -0.66939E-09   -0.71047E-10  2900   0.127E-04
  84 F= -.85922242E+03 E0= -.85922242E+03  d E =-.720311E-05  mag=     0.0000
       N       E                     dE             d eps       ncg     rms          rms(c)
DAV:   1    -0.851319688703E+03   -0.82528E-05   -0.30468E-04  4480   0.295E-02    0.353E-03
DAV:   2    -0.851319688936E+03   -0.23352E-06   -0.49536E-06  4440   0.357E-03    0.245E-03
DAV:   3    -0.851319688917E+03    0.19274E-07   -0.20400E-07  3100   0.954E-04    0.107E-03
DAV:   4    -0.851319688955E+03   -0.38461E-07   -0.91426E-08  2960   0.557E-04    0.402E-04
DAV:   5    -0.851319688960E+03   -0.48312E-08   -0.17805E-08  2880   0.285E-04    0.338E-04
DAV:   6    -0.851319688961E+03   -0.10696E-08   -0.17502E-09  2880   0.149E-04
  85 F= -.85922243E+03 E0= -.85922243E+03  d E =-.859715E-05  mag=    -0.0000
       N       E                     dE             d eps       ncg     rms          rms(c)
DAV:   1    -0.851319696641E+03   -0.76805E-05   -0.47248E-04  4480   0.361E-02    0.438E-03
DAV:   2    -0.851319697011E+03   -0.37054E-06   -0.77568E-06  4520   0.435E-03    0.304E-03
DAV:   3    -0.851319696980E+03    0.30894E-07   -0.27895E-07  3060   0.111E-03    0.134E-03
DAV:   4    -0.851319697047E+03   -0.66684E-07   -0.14209E-07  3160   0.680E-04    0.435E-04
DAV:   5    -0.851319697053E+03   -0.55661E-08   -0.28942E-08  2960   0.355E-04    0.348E-04
DAV:   6    -0.851319697054E+03   -0.12442E-08   -0.41282E-09  3040   0.190E-04
  86 F= -.85922243E+03 E0= -.85922243E+03  d E =-.852210E-05  mag=    -0.0000
       N       E                     dE             d eps       ncg     rms          rms(c)
DAV:   1    -0.851319705863E+03   -0.88103E-05   -0.67047E-04  4480   0.420E-02    0.520E-03
DAV:   2    -0.851319706367E+03   -0.50389E-06   -0.10707E-05  4520   0.500E-03    0.359E-03
DAV:   3    -0.851319706344E+03    0.22723E-07   -0.36618E-07  3320   0.126E-03    0.156E-03
DAV:   4    -0.851319706444E+03   -0.10029E-06   -0.18310E-07  3320   0.753E-04    0.462E-04
DAV:   5    -0.851319706452E+03   -0.76689E-08   -0.38977E-08  2960   0.405E-04    0.355E-04
DAV:   6    -0.851319706454E+03   -0.24374E-08   -0.64752E-09  3040   0.222E-04
  87 F= -.85922244E+03 E0= -.85922244E+03  d E =-.102140E-04  mag=     0.0000
       N       E                     dE             d eps       ncg     rms          rms(c)
DAV:   1    -0.851319718131E+03   -0.11679E-04   -0.94948E-04  4480   0.497E-02    0.622E-03
DAV:   2    -0.851319718816E+03   -0.68559E-06   -0.14745E-05  4640   0.587E-03    0.426E-03
DAV:   3    -0.851319718797E+03    0.19681E-07   -0.49639E-07  3320   0.150E-03    0.179E-03
DAV:   4    -0.851319718937E+03   -0.14075E-06   -0.25932E-07  3240   0.885E-04    0.508E-04
DAV:   5    -0.851319718948E+03   -0.10637E-07   -0.52073E-08  3000   0.471E-04    0.364E-04
DAV:   6    -0.851319718950E+03   -0.23138E-08   -0.95886E-09  3080   0.259E-04
  88 F= -.85922246E+03 E0= -.85922246E+03  d E =-.137917E-04  mag=     0.0000
       N       E                     dE             d eps       ncg     rms          rms(c)
DAV:   1    -0.851319733456E+03   -0.14508E-04   -0.13674E-03  4480   0.598E-02    0.750E-03
DAV:   2    -0.851319734446E+03   -0.99005E-06   -0.20747E-05  4800   0.704E-03    0.508E-03
DAV:   3    -0.851319734409E+03    0.36227E-07   -0.69519E-07  3360   0.178E-03    0.210E-03
DAV:   4    -0.851319734596E+03   -0.18602E-06   -0.36603E-07  3460   0.103E-03    0.586E-04
DAV:   5    -0.851319734607E+03   -0.11933E-07   -0.58150E-08  3000   0.505E-04    0.377E-04
DAV:   6    -0.851319734610E+03   -0.30195E-08   -0.10850E-08  3100   0.278E-04
  89 F= -.85922248E+03 E0= -.85922248E+03  d E =-.169422E-04  mag=     0.0000
       N       E                     dE             d eps       ncg     rms          rms(c)
DAV:   1    -0.851319746463E+03   -0.11856E-04   -0.17051E-03  4480   0.694E-02    0.862E-03
DAV:   2    -0.851319747621E+03   -0.11576E-05   -0.25023E-05  4760   0.819E-03    0.583E-03
DAV:   3    -0.851319747562E+03    0.58360E-07   -0.10213E-06  3360   0.220E-03    0.212E-03
DAV:   4    -0.851319747716E+03   -0.15394E-06   -0.42121E-07  3540   0.113E-03    0.646E-04
DAV:   5    -0.851319747727E+03   -0.10812E-07   -0.59909E-08  3000   0.535E-04    0.385E-04
DAV:   6    -0.851319747732E+03   -0.45256E-08   -0.15246E-08  3140   0.320E-04
  90 F= -.85922249E+03 E0= -.85922249E+03  d E =-.151998E-04  mag=     0.0000
       N       E                     dE             d eps       ncg     rms          rms(c)
DAV:   1    -0.851319756786E+03   -0.90589E-05   -0.20878E-03  4480   0.790E-02    0.982E-03
DAV:   2    -0.851319758008E+03   -0.12215E-05   -0.29475E-05  4840   0.927E-03    0.670E-03
DAV:   3    -0.851319757965E+03    0.42543E-07   -0.15599E-06  3720   0.272E-03    0.189E-03
DAV:   4    -0.851319758086E+03   -0.12103E-06   -0.45553E-07  3380   0.117E-03    0.679E-04
DAV:   5    -0.851319758101E+03   -0.15149E-07   -0.82972E-08  3040   0.608E-04    0.389E-04
DAV:   6    -0.851319758110E+03   -0.83674E-08   -0.25569E-08  3160   0.410E-04
  91 F= -.85922250E+03 E0= -.85922250E+03  d E =-.124558E-04  mag=     0.0000
       N       E                     dE             d eps       ncg     rms          rms(c)
DAV:   1    -0.851319766638E+03   -0.85371E-05   -0.30679E-03  4480   0.941E-02    0.117E-02
DAV:   2    -0.851319768451E+03   -0.18123E-05   -0.43804E-05  4720   0.111E-02    0.799E-03
DAV:   3    -0.851319768482E+03   -0.31287E-07   -0.22623E-06  4000   0.319E-03    0.240E-03
DAV:   4    -0.851319768714E+03   -0.23223E-06   -0.67679E-07  3340   0.135E-03    0.803E-04
DAV:   5    -0.851319768739E+03   -0.25160E-07   -0.77270E-08  3040   0.606E-04    0.423E-04
DAV:   6    -0.851319768751E+03   -0.11532E-07   -0.24720E-08  3120   0.396E-04
  92 F= -.85922252E+03 E0= -.85922252E+03  d E =-.123440E-04  mag=     0.0000
       N       E                     dE             d eps       ncg     rms          rms(c)
DAV:   1    -0.851319779392E+03   -0.10652E-04   -0.48073E-03  4480   0.113E-01    0.144E-02
DAV:   2    -0.851319782724E+03   -0.33319E-05   -0.72757E-05  4720   0.133E-02    0.976E-03
DAV:   3    -0.851319782680E+03    0.43889E-07   -0.29271E-06  4360   0.348E-03    0.371E-03
DAV:   4    -0.851319783260E+03   -0.57986E-06   -0.10314E-06  3680   0.162E-03    0.960E-04
DAV:   5    -0.851319783299E+03   -0.39290E-07   -0.13296E-07  3000   0.758E-04    0.458E-04
DAV:   6    -0.851319783312E+03   -0.12747E-07   -0.31699E-08  3140   0.453E-04
  93 F= -.85922253E+03 E0= -.85922253E+03  d E =-.150813E-04  mag=    -0.0000
       N       E                     dE             d eps       ncg     rms          rms(c)
DAV:   1    -0.851319794310E+03   -0.11011E-04   -0.74141E-03  4480   0.136E-01    0.177E-02
DAV:   2    -0.851319800146E+03   -0.58362E-05   -0.11893E-04  4840   0.162E-02    0.120E-02
DAV:   3    -0.851319799865E+03    0.28082E-06   -0.40702E-06  4560   0.401E-03    0.517E-03
DAV:   4    -0.851319801016E+03   -0.11505E-05   -0.17835E-06  3860   0.210E-03    0.118E-03
DAV:   5    -0.851319801082E+03   -0.66881E-07   -0.26421E-07  3280   0.100E-03    0.556E-04
DAV:   6    -0.851319801099E+03   -0.16938E-07   -0.45653E-08  3100   0.556E-04
  94 F= -.85922255E+03 E0= -.85922255E+03  d E =-.176848E-04  mag=     0.0000
       N       E                     dE             d eps       ncg     rms          rms(c)
DAV:   1    -0.851319811571E+03   -0.10488E-04   -0.89724E-03  4480   0.154E-01    0.198E-02
DAV:   2    -0.851319817845E+03   -0.62742E-05   -0.13518E-04  4680   0.182E-02    0.135E-02
DAV:   3    -0.851319817796E+03    0.49382E-07   -0.58721E-06  4600   0.496E-03    0.493E-03
DAV:   4    -0.851319818800E+03   -0.10045E-05   -0.19221E-06  3840   0.225E-03    0.134E-03
DAV:   5    -0.851319818877E+03   -0.76303E-07   -0.20880E-07  3140   0.108E-03    0.612E-04
DAV:   6    -0.851319818898E+03   -0.21355E-07   -0.93680E-08  3140   0.821E-04
  95 F= -.85922257E+03 E0= -.85922257E+03  d E =-.187047E-04  mag=     0.0000
       N       E                     dE             d eps       ncg     rms          rms(c)
DAV:   1    -0.851319836879E+03   -0.18002E-04   -0.11441E-02  4480   0.178E-01    0.228E-02
DAV:   2    -0.851319844564E+03   -0.76854E-05   -0.16500E-04  4800   0.210E-02    0.154E-02
DAV:   3    -0.851319844449E+03    0.11541E-06   -0.78871E-06  5000   0.582E-03    0.514E-03
DAV:   4    -0.851319845387E+03   -0.93821E-06   -0.22741E-06  4000   0.242E-03    0.148E-03
DAV:   5    -0.851319845471E+03   -0.84292E-07   -0.18462E-07  3120   0.982E-04    0.636E-04
DAV:   6    -0.851319845514E+03   -0.42979E-07   -0.80719E-08  3120   0.715E-04
  96 F= -.85922259E+03 E0= -.85922259E+03  d E =-.265757E-04  mag=    -0.0000
       N       E                     dE             d eps       ncg     rms          rms(c)
DAV:   1    -0.851319849297E+03   -0.38260E-05   -0.17339E-02  4480   0.218E-01    0.283E-02
DAV:   2    -0.851319862379E+03   -0.13082E-04   -0.26267E-04  4840   0.261E-02    0.188E-02
DAV:   3    -0.851319861443E+03    0.93595E-06   -0.11560E-05  5000   0.700E-03    0.730E-03
DAV:   4    -0.851319863133E+03   -0.16907E-05   -0.37274E-06  4420   0.319E-03    0.192E-03
DAV:   5    -0.851319863260E+03   -0.12646E-06   -0.33211E-07  3320   0.126E-03    0.833E-04
DAV:   6    -0.851319863337E+03   -0.77132E-07   -0.11663E-07  3300   0.846E-04
  97 F= -.85922261E+03 E0= -.85922261E+03  d E =-.170968E-04  mag=    -0.0000
       N       E                     dE             d eps       ncg     rms          rms(c)
DAV:   1    -0.851319866632E+03   -0.33720E-05   -0.31405E-02  4480   0.275E-01    0.371E-02
DAV:   2    -0.851319895456E+03   -0.28824E-04   -0.52326E-04  4880   0.333E-02    0.241E-02
DAV:   3    -0.851319892592E+03    0.28642E-05   -0.16277E-05  4920   0.790E-03    0.116E-02
DAV:   4    -0.851319897100E+03   -0.45085E-05   -0.78115E-06  4480   0.457E-03    0.244E-03
DAV:   5    -0.851319897405E+03   -0.30491E-06   -0.10860E-06  3760   0.195E-03    0.119E-03
DAV:   6    -0.851319897512E+03   -0.10669E-06   -0.16167E-07  3300   0.102E-03
  98 F= -.85922265E+03 E0= -.85922265E+03  d E =-.364222E-04  mag=    -0.0000
       N       E                     dE             d eps       ncg     rms          rms(c)
DAV:   1    -0.851319873142E+03    0.24263E-04   -0.44501E-02  4480   0.320E-01    0.431E-02
DAV:   2    -0.851319915818E+03   -0.42676E-04   -0.72910E-04  4800   0.382E-02    0.286E-02
DAV:   3    -0.851319912088E+03    0.37297E-05   -0.21957E-05  4840   0.920E-03    0.135E-02
DAV:   4    -0.851319918530E+03   -0.64420E-05   -0.10664E-05  4480   0.535E-03    0.291E-03
DAV:   5    -0.851319918957E+03   -0.42669E-06   -0.16317E-06  3720   0.256E-03    0.141E-03
DAV:   6    -0.851319919118E+03   -0.16108E-06   -0.37868E-07  3560   0.169E-03
  99 F= -.85922266E+03 E0= -.85922266E+03  d E =-.147420E-04  mag=    -0.0000
       N       E                     dE             d eps       ncg     rms          rms(c)
DAV:   1    -0.851319851408E+03    0.67548E-04   -0.45571E-02  4480   0.356E-01    0.476E-02
DAV:   2    -0.851319888444E+03   -0.37035E-04   -0.72146E-04  4920   0.438E-02    0.318E-02
DAV:   3    -0.851319884043E+03    0.44006E-05   -0.39994E-05  5160   0.129E-02    0.121E-02
DAV:   4    -0.851319886793E+03   -0.27500E-05   -0.96183E-06  4680   0.548E-03    0.381E-03
DAV:   5    -0.851319887302E+03   -0.50831E-06   -0.94550E-07  3800   0.224E-03    0.157E-03
DAV:   6    -0.851319887556E+03   -0.25459E-06   -0.43501E-07  3480   0.182E-03
 100 F= -.85922263E+03 E0= -.85922263E+03  d E =0.345304E-04  mag=    -0.0000
       N       E                     dE             d eps       ncg     rms          rms(c)
DAV:   1    -0.851319943865E+03   -0.56563E-04   -0.16171E-03  4880   0.749E-02    0.957E-03
DAV:   2    -0.851319945647E+03   -0.17819E-05   -0.38418E-05  5040   0.109E-02    0.634E-03
DAV:   3    -0.851319945201E+03    0.44589E-06   -0.29037E-06  4880   0.331E-03    0.304E-03
DAV:   4    -0.851319945336E+03   -0.13506E-06   -0.56566E-07  3760   0.170E-03    0.124E-03
DAV:   5    -0.851319945508E+03   -0.17240E-06   -0.27517E-07  3540   0.141E-03    0.499E-04
DAV:   6    -0.851319945555E+03   -0.46915E-07   -0.13571E-07  3320   0.102E-03
 101 F= -.85922269E+03 E0= -.85922269E+03  d E =-.593284E-04  mag=     0.0000
       N       E                     dE             d eps       ncg     rms          rms(c)
DAV:   1    -0.851319928407E+03    0.17101E-04   -0.29500E-03  4800   0.100E-01    0.128E-02
DAV:   2    -0.851319931473E+03   -0.30658E-05   -0.67709E-05  4800   0.143E-02    0.840E-03
DAV:   3    -0.851319930489E+03    0.98402E-06   -0.48612E-06  5080   0.418E-03    0.403E-03
DAV:   4    -0.851319930521E+03   -0.32240E-07   -0.80048E-07  3600   0.166E-03    0.160E-03
DAV:   5    -0.851319930598E+03   -0.76696E-07   -0.16947E-07  3280   0.834E-04    0.537E-04
DAV:   6    -0.851319930617E+03   -0.19005E-07   -0.43027E-08  3320   0.434E-04
 102 F= -.85922267E+03 E0= -.85922267E+03  d E =0.136209E-04  mag=    -0.0000
       N       E                     dE             d eps       ncg     rms          rms(c)
DAV:   1    -0.851319939593E+03   -0.89959E-05   -0.44847E-05  4600   0.128E-02    0.162E-03
DAV:   2    -0.851319939633E+03   -0.40061E-07   -0.94573E-07  3560   0.185E-03    0.110E-03
DAV:   3    -0.851319939629E+03    0.45547E-08   -0.15038E-07  3080   0.778E-04    0.535E-04
DAV:   4    -0.851319939637E+03   -0.78217E-08   -0.28301E-08  3120   0.377E-04    0.379E-04
DAV:   5    -0.851319939645E+03   -0.85274E-08   -0.93563E-09  3040   0.271E-04    0.335E-04
DAV:   6    -0.851319939647E+03   -0.15498E-08   -0.23863E-09  3240   0.191E-04
 103 F= -.85922268E+03 E0= -.85922268E+03  d E =-.919557E-05  mag=    -0.0000
       N       E                     dE             d eps       ncg     rms          rms(c)
DAV:   1    -0.851319950860E+03   -0.11215E-04   -0.15380E-04  4720   0.237E-02    0.293E-03
DAV:   2    -0.851319951012E+03   -0.15244E-06   -0.34290E-06  4520   0.338E-03    0.197E-03
DAV:   3    -0.851319950951E+03    0.61176E-07   -0.26398E-07  3120   0.105E-03    0.906E-04
DAV:   4    -0.851319950953E+03   -0.14334E-08   -0.69940E-08  3120   0.532E-04    0.452E-04
DAV:   5    -0.851319950957E+03   -0.43001E-08   -0.14924E-08  2960   0.261E-04    0.347E-04
DAV:   6    -0.851319950959E+03   -0.23065E-08   -0.10916E-09  3180   0.132E-04
 104 F= -.85922269E+03 E0= -.85922269E+03  d E =-.116250E-04  mag=    -0.0000
       N       E                     dE             d eps       ncg     rms          rms(c)
DAV:   1    -0.851319955687E+03   -0.47300E-05   -0.24527E-04  4680   0.299E-02    0.367E-03
DAV:   2    -0.851319955936E+03   -0.24881E-06   -0.54416E-06  4560   0.424E-03    0.247E-03
DAV:   3    -0.851319955838E+03    0.97534E-07   -0.38969E-07  3200   0.128E-03    0.113E-03
DAV:   4    -0.851319955840E+03   -0.18626E-08   -0.10867E-07  3160   0.664E-04    0.509E-04
DAV:   5    -0.851319955845E+03   -0.54351E-08   -0.25616E-08  2920   0.334E-04    0.359E-04
DAV:   6    -0.851319955849E+03   -0.31068E-08   -0.44364E-09  3040   0.188E-04
 105 F= -.85922270E+03 E0= -.85922270E+03  d E =-.510102E-05  mag=    -0.0000
       N       E                     dE             d eps       ncg     rms          rms(c)
DAV:   1    -0.851319949869E+03    0.59764E-05   -0.23368E-04  4600   0.288E-02    0.355E-03
DAV:   2    -0.851319950105E+03   -0.23547E-06   -0.49203E-06  4560   0.399E-03    0.237E-03
DAV:   3    -0.851319950025E+03    0.79504E-07   -0.33526E-07  3180   0.120E-03    0.109E-03
DAV:   4    -0.851319950030E+03   -0.49185E-08   -0.99291E-08  3100   0.648E-04    0.484E-04
DAV:   5    -0.851319950037E+03   -0.73487E-08   -0.25683E-08  3060   0.364E-04    0.358E-04
DAV:   6    -0.851319950040E+03   -0.30050E-08   -0.80451E-09  3000   0.260E-04
 106 F= -.85922269E+03 E0= -.85922269E+03  d E =0.585880E-05  mag=    -0.0000
       N       E                     dE             d eps       ncg     rms          rms(c)
DAV:   1    -0.851319950791E+03   -0.75343E-06   -0.10514E-06  3580   0.194E-03    0.389E-04
DAV:   2    -0.851319950796E+03   -0.51805E-08   -0.35298E-08  3160   0.402E-04    0.364E-04
DAV:   3    -0.851319950797E+03   -0.10914E-08   -0.15119E-09  3080   0.151E-04    0.339E-04
DAV:   4    -0.851319950800E+03   -0.26776E-08    0.14180E-09  3080   0.106E-04    0.329E-04
DAV:   5    -0.851319950800E+03   -0.53842E-09    0.22037E-09  3140   0.844E-05    0.329E-04
DAV:   6    -0.851319950801E+03   -0.97498E-09    0.31112E-09  3060   0.359E-05
 107 F= -.85922269E+03 E0= -.85922269E+03  d E =-.752459E-06  mag=     0.0000
       N       E                     dE             d eps       ncg     rms          rms(c)
DAV:   1    -0.851319952197E+03   -0.13967E-05   -0.42009E-06  4580   0.384E-03    0.556E-04
DAV:   2    -0.851319952202E+03   -0.50204E-08   -0.82418E-08  2980   0.554E-04    0.442E-04
DAV:   3    -0.851319952202E+03   -0.45111E-09   -0.10468E-08  3040   0.236E-04    0.350E-04
DAV:   4    -0.851319952203E+03   -0.74215E-09    0.31298E-10  2940   0.110E-04    0.333E-04
DAV:   5    -0.851319952204E+03   -0.63301E-09    0.25723E-09  3000   0.581E-05    0.329E-04
DAV:   6    -0.851319952204E+03   -0.58208E-10    0.31001E-09  2860   0.367E-05
 108 F= -.85922269E+03 E0= -.85922269E+03  d E =-.138585E-05  mag=    -0.0000
       N       E                     dE             d eps       ncg     rms          rms(c)
DAV:   1    -0.851319953917E+03   -0.17128E-05   -0.89548E-06  4560   0.559E-03    0.740E-04
DAV:   2    -0.851319953925E+03   -0.82655E-08   -0.16764E-07  2520   0.777E-04    0.543E-04
DAV:   3    -0.851319953924E+03    0.59663E-09   -0.25156E-08  2600   0.335E-04    0.372E-04
DAV:   4    -0.851319953926E+03   -0.15061E-08   -0.28273E-09  2240   0.156E-04    0.338E-04
DAV:   5    -0.851319953926E+03    0.14552E-10    0.17439E-09  2360   0.811E-05    0.329E-04
DAV:   6    -0.851319953926E+03    0.14552E-10    0.27878E-09  2360   0.504E-05
 109 F= -.85922270E+03 E0= -.85922270E+03  d E =-.169132E-05  mag=    -0.0000
[...]
DAV:   1    -0.851322435756E+03   -0.26046E-04   -0.45599E-03  4480   0.113E-01    0.143E-02
DAV:   2    -0.851322437532E+03   -0.17760E-05   -0.65205E-05  4820   0.133E-02    0.965E-03
DAV:   3    -0.851322438017E+03   -0.48576E-06   -0.33382E-06  4680   0.372E-03    0.298E-03
DAV:   4    -0.851322438474E+03   -0.45713E-06   -0.96114E-07  3800   0.149E-03    0.979E-04
DAV:   5    -0.851322438522E+03   -0.47468E-07   -0.86332E-08  3120   0.602E-04    0.470E-04
DAV:   6    -0.851322438542E+03   -0.20438E-07   -0.20025E-08  3420   0.322E-04
 250 F= -.85922475E+03 E0= -.85922475E+03  d E =-.210821E-04  mag=     0.0000
       N       E                     dE             d eps       ncg     rms          rms(c)
DAV:   1    -0.851322471657E+03   -0.33135E-04   -0.71077E-03  4480   0.136E-01    0.178E-02
DAV:   2    -0.851322475247E+03   -0.35903E-05   -0.11107E-04  4720   0.164E-02    0.121E-02
DAV:   3    -0.851322475343E+03   -0.95722E-07   -0.48349E-06  4960   0.433E-03    0.466E-03
DAV:   4    -0.851322476555E+03   -0.12123E-05   -0.17164E-06  4240   0.199E-03    0.127E-03
DAV:   5    -0.851322476663E+03   -0.10771E-06   -0.17172E-07  3280   0.756E-04    0.580E-04
DAV:   6    -0.851322476706E+03   -0.42965E-07   -0.26874E-08  3440   0.354E-04
 251 F= -.85922477E+03 E0= -.85922477E+03  d E =-.269071E-04  mag=     0.0000
       N       E                     dE             d eps       ncg     rms          rms(c)
DAV:   1    -0.851322514287E+03   -0.37625E-04   -0.84277E-03  4480   0.152E-01    0.198E-02
DAV:   2    -0.851322518196E+03   -0.39080E-05   -0.12374E-04  4600   0.181E-02    0.133E-02
DAV:   3    -0.851322518493E+03   -0.29758E-06   -0.62708E-06  4760   0.504E-03    0.450E-03
DAV:   4    -0.851322519571E+03   -0.10779E-05   -0.19209E-06  4240   0.213E-03    0.139E-03
DAV:   5    -0.851322519665E+03   -0.94122E-07   -0.15490E-07  3280   0.824E-04    0.633E-04
DAV:   6    -0.851322519720E+03   -0.54555E-07   -0.42093E-08  3360   0.460E-04
 252 F= -.85922481E+03 E0= -.85922481E+03  d E =-.309895E-04  mag=     0.0000
       N       E                     dE             d eps       ncg     rms          rms(c)
DAV:   1    -0.851322570314E+03   -0.50648E-04   -0.10624E-02  4480   0.175E-01    0.228E-02
DAV:   2    -0.851322575342E+03   -0.50284E-05   -0.15104E-04  4640   0.209E-02    0.153E-02
DAV:   3    -0.851322575678E+03   -0.33602E-06   -0.91657E-06  4800   0.632E-03    0.424E-03
DAV:   4    -0.851322576483E+03   -0.80535E-06   -0.24608E-06  4040   0.243E-03    0.159E-03
DAV:   5    -0.851322576577E+03   -0.93998E-07   -0.16201E-07  3280   0.872E-04    0.705E-04
DAV:   6    -0.851322576630E+03   -0.52503E-07   -0.59313E-08  3380   0.518E-04
 253 F= -.85922485E+03 E0= -.85922485E+03  d E =-.474877E-04  mag=     0.0000
       N       E                     dE             d eps       ncg     rms          rms(c)
DAV:   1    -0.851322633080E+03   -0.56503E-04   -0.18889E-02  4480   0.226E-01    0.295E-02
DAV:   2    -0.851322643093E+03   -0.10013E-04   -0.27785E-04  4720   0.271E-02    0.198E-02
DAV:   3    -0.851322643261E+03   -0.16807E-06   -0.13943E-05  5080   0.763E-03    0.657E-03
DAV:   4    -0.851322645270E+03   -0.20095E-05   -0.43143E-06  4680   0.317E-03    0.206E-03
DAV:   5    -0.851322645462E+03   -0.19153E-06   -0.30388E-07  3440   0.112E-03    0.853E-04
DAV:   6    -0.851322645548E+03   -0.85725E-07   -0.78888E-08  3400   0.598E-04
 254 F= -.85922491E+03 E0= -.85922491E+03  d E =-.567401E-04  mag=    -0.0000
       N       E                     dE             d eps       ncg     rms          rms(c)
DAV:   1    -0.851322678282E+03   -0.32820E-04   -0.27983E-02  4480   0.277E-01    0.364E-02
DAV:   2    -0.851322693433E+03   -0.15151E-04   -0.42132E-04  4600   0.337E-02    0.243E-02
DAV:   3    -0.851322692780E+03    0.65262E-06   -0.21742E-05  5120   0.935E-03    0.865E-03
DAV:   4    -0.851322695858E+03   -0.30776E-05   -0.66055E-06  4680   0.398E-03    0.251E-03
DAV:   5    -0.851322696155E+03   -0.29706E-06   -0.49605E-07  3620   0.143E-03    0.107E-03
DAV:   6    -0.851322696284E+03   -0.12890E-06   -0.11960E-07  3420   0.754E-04
 255 F= -.85922495E+03 E0= -.85922495E+03  d E =-.444758E-04  mag=    -0.0000
       N       E                     dE             d eps       ncg     rms          rms(c)
DAV:   1    -0.851322715114E+03   -0.18959E-04   -0.37494E-04  4900   0.370E-02    0.464E-03
DAV:   2    -0.851322715594E+03   -0.47959E-06   -0.88933E-06  5040   0.540E-03    0.303E-03
DAV:   3    -0.851322715538E+03    0.56403E-07   -0.59688E-07  3380   0.159E-03    0.149E-03
DAV:   4    -0.851322715632E+03   -0.94522E-07   -0.18688E-07  3320   0.915E-04    0.625E-04
DAV:   5    -0.851322715714E+03   -0.81935E-07   -0.57057E-08  3400   0.545E-04    0.434E-04
DAV:   6    -0.851322715769E+03   -0.54693E-07   -0.13506E-08  3320   0.284E-04
 256 F= -.85922497E+03 E0= -.85922497E+03  d E =-.188455E-04  mag=    -0.0000
       N       E                     dE             d eps       ncg     rms          rms(c)
DAV:   1    -0.851322721755E+03   -0.60408E-05   -0.78050E-04  4760   0.532E-02    0.664E-03
DAV:   2    -0.851322722609E+03   -0.85435E-06   -0.17804E-05  5000   0.758E-03    0.423E-03
DAV:   3    -0.851322722373E+03    0.23645E-06   -0.11149E-06  3280   0.218E-03    0.209E-03
DAV:   4    -0.851322722408E+03   -0.35325E-07   -0.35823E-07  3220   0.121E-03    0.772E-04
DAV:   5    -0.851322722449E+03   -0.41284E-07   -0.93798E-08  3160   0.609E-04    0.427E-04
DAV:   6    -0.851322722464E+03   -0.14254E-07   -0.18635E-08  3360   0.293E-04
 257 F= -.85922498E+03 E0= -.85922498E+03  d E =-.583102E-05  mag=    -0.0000
       N       E                     dE             d eps       ncg     rms          rms(c)
DAV:   1    -0.851322724267E+03   -0.18172E-05   -0.88366E-06  4520   0.565E-03    0.714E-04
DAV:   2    -0.851322724278E+03   -0.11692E-07   -0.17434E-07  3400   0.813E-04    0.543E-04
DAV:   3    -0.851322724281E+03   -0.25902E-08   -0.27950E-08  3120   0.362E-04    0.375E-04
DAV:   4    -0.851322724284E+03   -0.25902E-08   -0.40513E-09  3200   0.182E-04    0.342E-04
DAV:   5    -0.851322724286E+03   -0.22701E-08    0.96034E-10  3080   0.111E-04    0.336E-04
DAV:   6    -0.851322724288E+03   -0.18626E-08    0.24666E-09  3280   0.646E-05
 258 F= -.85922498E+03 E0= -.85922498E+03  d E =-.215739E-05  mag=    -0.0000
       N       E                     dE             d eps       ncg     rms          rms(c)
DAV:   1    -0.851322726912E+03   -0.26264E-05   -0.29635E-05  4660   0.103E-02    0.125E-03
DAV:   2    -0.851322726940E+03   -0.28107E-07   -0.59167E-07  3400   0.144E-03    0.878E-04
DAV:   3    -0.851322726935E+03    0.50495E-08   -0.79118E-08  3120   0.575E-04    0.474E-04
DAV:   4    -0.851322726937E+03   -0.18408E-08   -0.15554E-08  3000   0.269E-04    0.362E-04
DAV:   5    -0.851322726938E+03   -0.82218E-09   -0.13645E-09  2960   0.136E-04    0.337E-04
DAV:   6    -0.851322726938E+03   -0.72760E-11    0.19630E-09  2700   0.725E-05
 259 F= -.85922498E+03 E0= -.85922498E+03  d E =-.315330E-05  mag=    -0.0000
       N       E                     dE             d eps       ncg     rms          rms(c)
DAV:   1    -0.851322729302E+03   -0.23636E-05   -0.49450E-05  4480   0.132E-02    0.155E-03
DAV:   2    -0.851322729347E+03   -0.45256E-07   -0.95931E-07  3320   0.181E-03    0.108E-03
DAV:   3    -0.851322729339E+03    0.73342E-08   -0.12323E-07  3000   0.713E-04    0.546E-04
DAV:   4    -0.851322729343E+03   -0.34197E-08   -0.26969E-08  2700   0.339E-04    0.376E-04
DAV:   5    -0.851322729344E+03   -0.88767E-09   -0.41655E-09  2800   0.173E-04    0.339E-04
DAV:   6    -0.851322729344E+03   -0.46566E-09    0.11096E-09  2640   0.960E-05
 260 F= -.85922499E+03 E0= -.85922499E+03  d E =-.292069E-05  mag=     0.0000
       N       E                     dE             d eps       ncg     rms          rms(c)
DAV:   1    -0.851322730914E+03   -0.15706E-05   -0.62496E-05  4480   0.146E-02    0.168E-03
DAV:   2    -0.851322730972E+03   -0.57487E-07   -0.11506E-06  3480   0.193E-03    0.117E-03
DAV:   3    -0.851322730965E+03    0.71741E-08   -0.12372E-07  2940   0.722E-04    0.591E-04
DAV:   4    -0.851322730970E+03   -0.56898E-08   -0.30080E-08  2800   0.357E-04    0.375E-04
DAV:   5    -0.851322730972E+03   -0.14188E-08   -0.45782E-09  2840   0.177E-04    0.340E-04
DAV:   6    -0.851322730972E+03   -0.37107E-09    0.98840E-10  2780   0.958E-05
 261 F= -.85922499E+03 E0= -.85922499E+03  d E =-.214167E-05  mag=     0.0000
       N       E                     dE             d eps       ncg     rms          rms(c)
DAV:   1    -0.851322732679E+03   -0.17072E-05   -0.66512E-05  4480   0.147E-02    0.166E-03
DAV:   2    -0.851322732733E+03   -0.54213E-07   -0.10883E-06  3520   0.183E-03    0.115E-03
DAV:   3    -0.851322732730E+03    0.28740E-08   -0.10127E-07  2880   0.662E-04    0.582E-04
DAV:   4    -0.851322732738E+03   -0.74724E-08   -0.27358E-08  2960   0.339E-04    0.363E-04
DAV:   5    -0.851322732740E+03   -0.21901E-08   -0.39586E-09  2840   0.171E-04    0.339E-04
DAV:   6    -0.851322732740E+03   -0.32014E-09    0.12108E-09  2880   0.911E-05
 262 F= -.85922499E+03 E0= -.85922499E+03  d E =-.219840E-05  mag=    -0.0000
       N       E                     dE             d eps       ncg     rms          rms(c)
DAV:   1    -0.851322735312E+03   -0.25724E-05   -0.74788E-05  4480   0.153E-02    0.173E-03
DAV:   2    -0.851322735366E+03   -0.53704E-07   -0.11161E-06  3600   0.183E-03    0.118E-03
DAV:   3    -0.851322735365E+03    0.90222E-09   -0.95809E-08  2840   0.650E-04    0.582E-04
DAV:   4    -0.851322735374E+03   -0.84692E-08   -0.26745E-08  3040   0.335E-04    0.359E-04
DAV:   5    -0.851322735376E+03   -0.23501E-08   -0.40166E-09  2840   0.171E-04    0.338E-04
DAV:   6    -0.851322735377E+03   -0.10623E-08    0.12079E-09  2880   0.899E-05
 263 F= -.85922499E+03 E0= -.85922499E+03  d E =-.305376E-05  mag=    -0.0000
       N       E                     dE             d eps       ncg     rms          rms(c)
DAV:   1    -0.851322739379E+03   -0.40027E-05   -0.11274E-04  4480   0.189E-02    0.213E-03
DAV:   2    -0.851322739460E+03   -0.80981E-07   -0.17095E-06  3880   0.227E-03    0.145E-03
DAV:   3    -0.851322739454E+03    0.59008E-08   -0.11885E-07  2960   0.735E-04    0.675E-04
DAV:   4    -0.851322739467E+03   -0.12762E-07   -0.39716E-08  3080   0.391E-04    0.371E-04
DAV:   5    -0.851322739469E+03   -0.28376E-08   -0.72663E-09  2840   0.203E-04    0.340E-04
DAV:   6    -0.851322739470E+03   -0.96043E-09    0.37100E-10  3040   0.102E-04
 264 F= -.85922500E+03 E0= -.85922500E+03  d E =-.444161E-05  mag=     0.0000
       N       E                     dE             d eps       ncg     rms          rms(c)
DAV:   1    -0.851322744671E+03   -0.52015E-05   -0.17972E-04  4480   0.241E-02    0.271E-03
DAV:   2    -0.851322744809E+03   -0.13798E-06   -0.28804E-06  4280   0.296E-03    0.186E-03
DAV:   3    -0.851322744788E+03    0.20504E-07   -0.17547E-07  3080   0.894E-04    0.827E-04
DAV:   4    -0.851322744805E+03   -0.16858E-07   -0.64999E-08  2880   0.496E-04    0.400E-04
DAV:   5    -0.851322744810E+03   -0.45620E-08   -0.13150E-08  2880   0.257E-04    0.345E-04
DAV:   6    -0.851322744811E+03   -0.13679E-08   -0.11490E-09  3040   0.127E-04
 265 F= -.85922500E+03 E0= -.85922500E+03  d E =-.538135E-05  mag=     0.0000
       N       E                     dE             d eps       ncg     rms          rms(c)
DAV:   1    -0.851322749060E+03   -0.42502E-05   -0.26631E-04  4480   0.290E-02    0.328E-03
DAV:   2    -0.851322749261E+03   -0.20066E-06   -0.42195E-06  4520   0.355E-03    0.224E-03
DAV:   3    -0.851322749228E+03    0.32756E-07   -0.21574E-07  3000   0.993E-04    0.980E-04
DAV:   4    -0.851322749252E+03   -0.24505E-07   -0.85344E-08  3000   0.567E-04    0.419E-04
DAV:   5    -0.851322749257E+03   -0.45766E-08   -0.18931E-08  2960   0.298E-04    0.350E-04
DAV:   6    -0.851322749259E+03   -0.16225E-08   -0.25449E-09  3080   0.145E-04
 266 F= -.85922501E+03 E0= -.85922501E+03  d E =-.534463E-05  mag=     0.0000
       N       E                     dE             d eps       ncg     rms          rms(c)
DAV:   1    -0.851322753186E+03   -0.39285E-05   -0.37528E-04  4480   0.341E-02    0.390E-03
DAV:   2    -0.851322753437E+03   -0.25161E-06   -0.57133E-06  4640   0.411E-03    0.267E-03
DAV:   3    -0.851322753400E+03    0.36649E-07   -0.25092E-07  3040   0.111E-03    0.108E-03
DAV:   4    -0.851322753435E+03   -0.34728E-07   -0.10538E-07  3160   0.623E-04    0.430E-04
DAV:   5    -0.851322753440E+03   -0.51878E-08   -0.23805E-08  2960   0.337E-04    0.352E-04
DAV:   6    -0.851322753442E+03   -0.20736E-08   -0.34119E-09  3200   0.163E-04
 267 F= -.85922502E+03 E0= -.85922502E+03  d E =-.589087E-05  mag=    -0.0000
       N       E                     dE             d eps       ncg     rms          rms(c)
DAV:   1    -0.851322759542E+03   -0.61013E-05   -0.55260E-04  4480   0.412E-02    0.476E-03
DAV:   2    -0.851322759890E+03   -0.34786E-06   -0.83750E-06  4720   0.497E-03    0.326E-03
DAV:   3    -0.851322759853E+03    0.36474E-07   -0.38423E-07  3040   0.137E-03    0.124E-03
DAV:   4    -0.851322759904E+03   -0.51019E-07   -0.15622E-07  3260   0.737E-04    0.466E-04
DAV:   5    -0.851322759911E+03   -0.64902E-08   -0.33887E-08  3040   0.386E-04    0.358E-04
DAV:   6    -0.851322759913E+03   -0.25830E-08   -0.61906E-09  3200   0.193E-04
 268 F= -.85922502E+03 E0= -.85922502E+03  d E =-.800275E-05  mag=     0.0000
       N       E                     dE             d eps       ncg     rms          rms(c)
DAV:   1    -0.851322767551E+03   -0.76400E-05   -0.83877E-04  4480   0.507E-02    0.591E-03
DAV:   2    -0.851322768075E+03   -0.52444E-06   -0.12769E-05  4680   0.615E-03    0.405E-03
DAV:   3    -0.851322768032E+03    0.42630E-07   -0.64047E-07  3400   0.174E-03    0.145E-03
DAV:   4    -0.851322768111E+03   -0.78187E-07   -0.22634E-07  3380   0.864E-04    0.528E-04
DAV:   5    -0.851322768120E+03   -0.94733E-08   -0.47323E-08  3060   0.439E-04    0.374E-04
DAV:   6    -0.851322768124E+03   -0.38926E-08   -0.10540E-08  3240   0.233E-04
 269 F= -.85922503E+03 E0= -.85922503E+03  d E =-.897466E-05  mag=     0.0000
       N       E                     dE             d eps       ncg     rms          rms(c)
DAV:   1    -0.851322776946E+03   -0.88255E-05   -0.12236E-03  4480   0.610E-02    0.712E-03
DAV:   2    -0.851322777726E+03   -0.78061E-06   -0.18343E-05  4700   0.735E-03    0.485E-03
DAV:   3    -0.851322777645E+03    0.80792E-07   -0.88754E-07  3440   0.206E-03    0.170E-03
DAV:   4    -0.851322777748E+03   -0.10236E-06   -0.32018E-07  3320   0.102E-03    0.582E-04
DAV:   5    -0.851322777760E+03   -0.12245E-07   -0.68199E-08  3080   0.524E-04    0.382E-04
DAV:   6    -0.851322777765E+03   -0.52678E-08   -0.15904E-08  3280   0.275E-04
 270 F= -.85922504E+03 E0= -.85922504E+03  d E =-.107502E-04  mag=    -0.0000
       N       E                     dE             d eps       ncg     rms          rms(c)
DAV:   1    -0.851322788313E+03   -0.10553E-04   -0.16968E-03  4480   0.724E-02    0.836E-03
DAV:   2    -0.851322789370E+03   -0.10566E-05   -0.24810E-05  4600   0.867E-03    0.572E-03
DAV:   3    -0.851322789252E+03    0.11716E-06   -0.14127E-06  3640   0.256E-03    0.172E-03
DAV:   4    -0.851322789355E+03   -0.10264E-06   -0.42559E-07  3300   0.112E-03    0.653E-04
DAV:   5    -0.851322789365E+03   -0.10201E-07   -0.66723E-08  3100   0.529E-04    0.397E-04
DAV:   6    -0.851322789370E+03   -0.42492E-08   -0.15153E-08  3260   0.282E-04
 271 F= -.85922506E+03 E0= -.85922506E+03  d E =-.125305E-04  mag=    -0.0000
       N       E                     dE             d eps       ncg     rms          rms(c)
DAV:   1    -0.851322805199E+03   -0.15833E-04   -0.23884E-03  4480   0.868E-02    0.100E-02
DAV:   2    -0.851322806636E+03   -0.14375E-05   -0.35085E-05  4640   0.105E-02    0.687E-03
DAV:   3    -0.851322806470E+03    0.16587E-06   -0.22986E-06  4320   0.326E-03    0.187E-03
DAV:   4    -0.851322806589E+03   -0.11862E-06   -0.62573E-07  3320   0.129E-03    0.801E-04
DAV:   5    -0.851322806603E+03   -0.14064E-07   -0.65377E-08  3160   0.521E-04    0.440E-04
DAV:   6    -0.851322806606E+03   -0.34415E-08   -0.16366E-08  3260   0.293E-04
 272 F= -.85922507E+03 E0= -.85922507E+03  d E =-.148509E-04  mag=    -0.0000
       N       E                     dE             d eps       ncg     rms          rms(c)
DAV:   1    -0.851322827253E+03   -0.20650E-04   -0.36750E-03  4480   0.106E-01    0.124E-02
DAV:   2    -0.851322829232E+03   -0.19787E-05   -0.53455E-05  4560   0.128E-02    0.849E-03
DAV:   3    -0.851322829079E+03    0.15276E-06   -0.34423E-06  4640   0.393E-03    0.229E-03
DAV:   4    -0.851322829294E+03   -0.21519E-06   -0.95108E-07  3560   0.151E-03    0.927E-04
DAV:   5    -0.851322829318E+03   -0.23931E-07   -0.64630E-08  3140   0.550E-04    0.479E-04
DAV:   6    -0.851322829324E+03   -0.55807E-08   -0.20877E-08  3240   0.332E-04
 273 F= -.85922509E+03 E0= -.85922509E+03  d E =-.196221E-04  mag=     0.0000
       N       E                     dE             d eps       ncg     rms          rms(c)
DAV:   1    -0.851322851711E+03   -0.22393E-04   -0.57997E-03  4480   0.133E-01    0.155E-02
DAV:   2    -0.851322854866E+03   -0.31547E-05   -0.86159E-05  4600   0.160E-02    0.107E-02
DAV:   3    -0.851322854611E+03    0.25447E-06   -0.51855E-06  4800   0.483E-03    0.308E-03
DAV:   4    -0.851322855013E+03   -0.40144E-06   -0.15062E-06  3840   0.189E-03    0.117E-03
DAV:   5    -0.851322855060E+03   -0.47512E-07   -0.89512E-08  3160   0.653E-04    0.555E-04
DAV:   6    -0.851322855077E+03   -0.16727E-07   -0.30701E-08  3300   0.376E-04
 274 F= -.85922511E+03 E0= -.85922511E+03  d E =-.219957E-04  mag=     0.0000
       N       E                     dE             d eps       ncg     rms          rms(c)
DAV:   1    -0.851322876283E+03   -0.21222E-04   -0.73641E-03  4480   0.153E-01    0.176E-02
DAV:   2    -0.851322880234E+03   -0.39514E-05   -0.10630E-04  4640   0.184E-02    0.121E-02
DAV:   3    -0.851322879727E+03    0.50735E-06   -0.79928E-06  4780   0.609E-03    0.275E-03
DAV:   4    -0.851322880021E+03   -0.29479E-06   -0.21958E-06  3680   0.230E-03    0.137E-03
DAV:   5    -0.851322880072E+03   -0.50939E-07   -0.13309E-07  3160   0.755E-04    0.608E-04
DAV:   6    -0.851322880091E+03   -0.18998E-07   -0.47468E-08  3260   0.490E-04
 275 F= -.85922513E+03 E0= -.85922513E+03  d E =-.204768E-04  mag=     0.0000
       N       E                     dE             d eps       ncg     rms          rms(c)
DAV:   1    -0.851322901291E+03   -0.21219E-04   -0.96465E-03  4480   0.177E-01    0.201E-02
DAV:   2    -0.851322907085E+03   -0.57937E-05   -0.14296E-04  4640   0.214E-02    0.140E-02
DAV:   3    -0.851322905911E+03    0.11739E-05   -0.10943E-05  4720   0.704E-03    0.329E-03
DAV:   4    -0.851322906277E+03   -0.36611E-06   -0.28684E-06  3680   0.262E-03    0.158E-03
DAV:   5    -0.851322906325E+03   -0.47461E-07   -0.18060E-07  3240   0.877E-04    0.676E-04
DAV:   6    -0.851322906339E+03   -0.14297E-07   -0.62993E-08  3240   0.556E-04
 276 F= -.85922515E+03 E0= -.85922515E+03  d E =-.196341E-04  mag=     0.0000
       N       E                     dE             d eps       ncg     rms          rms(c)
DAV:   1    -0.851322931097E+03   -0.24773E-04   -0.15636E-02  4480   0.221E-01    0.250E-02
DAV:   2    -0.851322940897E+03   -0.97998E-05   -0.24132E-04  4800   0.269E-02    0.174E-02
DAV:   3    -0.851322939318E+03    0.15795E-05   -0.14724E-05  5040   0.801E-03    0.543E-03
DAV:   4    -0.851322940373E+03   -0.10554E-05   -0.40536E-06  4520   0.312E-03    0.195E-03
DAV:   5    -0.851322940505E+03   -0.13220E-06   -0.23052E-07  3200   0.103E-03    0.809E-04
DAV:   6    -0.851322940542E+03   -0.36744E-07   -0.76417E-08  3340   0.607E-04
 277 F= -.85922518E+03 E0= -.85922518E+03  d E =-.261490E-04  mag=    -0.0000
