unknown system                          
           1
    17.271038    0.000000    0.000000
    -8.635519   14.957158    0.000000
     0.000000    0.000000   15.000000
   C    H    O 
    88    10     1
Direct configuration=     1
   0.00078725  0.00027650  0.49978955
   0.00001578  0.14274121  0.49999975
   0.99967700  0.28549087  0.49997148
   0.99999135  0.42862115  0.50003687
   0.00072849  0.57182377  0.50038872
   0.00191334  0.71511496  0.50049920
   0.00191448  0.85815706  0.50012237
   0.14390907  0.00059581  0.50009400
   0.14299907  0.14287997  0.50064030
   0.14204815  0.28511307  0.49998662
   0.14203243  0.42826111  0.49866569
   0.14296443  0.57144340  0.49815083
   0.14387898  0.71464967  0.49872465
   0.14415620  0.85774866  0.49947837
   0.28643696  0.00015304  0.50001653
   0.28609530  0.14273270  0.50143073
   0.28536317  0.28630904  0.50106289
   0.28380475  0.42753685  0.49793058
   0.28535160  0.57036547  0.49622335
   0.28607758  0.71471423  0.49673865
   0.28643256  0.85765898  0.49826527
   0.42934069  0.00038643  0.49929073
   0.42902584  0.14280285  0.50166746
   0.42707378  0.28223097  0.50426378
   0.42710229  0.71624990  0.49539032
   0.42901680  0.85761532  0.49713765
   0.57195254  0.00044809  0.49869909
   0.57197138  0.14294598  0.50090784
   0.57278614  0.28636787  0.50334319
   0.57282762  0.85782780  0.49727038
   0.71485183  0.00023283  0.49904192
   0.71484723  0.14309087  0.50018544
   0.71482005  0.28595528  0.50195724
   0.71454841  0.42822084  0.50371600
   0.71923132  0.57420780  0.50527102
   0.71921576  0.71632078  0.50346902
   0.71457603  0.85767282  0.49937679
   0.85781555  0.00032230  0.49967544
   0.85727198  0.14289526  0.49992063
   0.85724891  0.28570391  0.50077386
   0.85777831  0.42883326  0.50187335
   0.85879575  0.57238243  0.50248183
   0.86040828  0.71588423  0.50199677
   0.85877426  0.85775155  0.50029031
   0.04799587  0.09537597  0.50008516
   0.04691834  0.23759852  0.50000283
   0.04690383  0.38065245  0.49957043
   0.04795439  0.52395205  0.49954288
   0.04879247  0.66715316  0.49989120
   0.04915166  0.81025109  0.50000847
   0.04881435  0.95297958  0.49989226
   0.19095347  0.09530003  0.50066811
   0.18983960  0.23774038  0.50073585
   0.18853912  0.37992696  0.49898715
   0.18980113  0.52340867  0.49759544
   0.19092146  0.66697694  0.49775418
   0.19152021  0.81005809  0.49876848
   0.19152097  0.95280507  0.49981737
   0.33396324  0.09546995  0.50116013
   0.33414082  0.23786592  0.50248751
   0.32914154  0.37882264  0.49902089
   0.32909527  0.52155401  0.49610779
   0.33413566  0.66762772  0.49573981
   0.33394704  0.80987520  0.49719319
   0.33398091  0.95267735  0.49913040
   0.47684366  0.09533522  0.50062235
   0.47600458  0.23787406  0.50330680
   0.47603029  0.80954801  0.49636220
   0.47683560  0.95291342  0.49831413
   0.61944999  0.09542986  0.49990185
   0.61974212  0.23821834  0.50214797
   0.62160041  0.37970598  0.50400239
   0.62165733  0.81331591  0.49781859
   0.61975877  0.95293242  0.49827624
   0.76234590  0.09556406  0.49967565
   0.76232406  0.23813295  0.50099296
   0.76260794  0.38110307  0.50262501
   0.76317314  0.52553267  0.50397649
   0.76530148  0.66830168  0.50380863
   0.76315423  0.80893038  0.50097021
   0.76264794  0.95286829  0.49934908
   0.90491094  0.09507586  0.49978922
   0.90461600  0.23798573  0.50023325
   0.90487611  0.38115945  0.50096738
   0.90573022  0.52438898  0.50166048
   0.90681575  0.66753202  0.50177066
   0.90680879  0.81064777  0.50073096
   0.90575703  0.95268485  0.49968310
   0.46353220  0.35475442  0.50608876
   0.40158284  0.41520019  0.49789320
   0.40154725  0.55760261  0.49476919
   0.64681340  0.67717590  0.50486719
   0.64685857  0.54093463  0.50672078
   0.58578791  0.41642839  0.50440368
   0.58583310  0.74077354  0.49718557
   0.46361083  0.68022245  0.49479797
   0.48800643  0.53092111  0.54918114
   0.49398840  0.53148890  0.44620192
   0.53030029  0.54990549  0.49999385
Direct configuration=     2
   0.00077832  0.00027476  0.49979134
   0.00001266  0.14276530  0.50000152
   0.99969247  0.28547452  0.49997023
   0.99998779  0.42861786  0.50003319
   0.00072180  0.57182834  0.50039414
   0.00195307  0.71513581  0.50050518
   0.00190668  0.85812761  0.50011561
   0.14391259  0.00058438  0.50009794
   0.14303077  0.14291463  0.50063652
   0.14204066  0.28511673  0.49998601
   0.14205349  0.42825116  0.49866146
   0.14299858  0.57145608  0.49812868
   0.14388823  0.71469005  0.49872116
   0.14415953  0.85773584  0.49947363
   0.28642521  0.00014117  0.50001973
   0.28608036  0.14273148  0.50141204
   0.28533010  0.28630211  0.50105895
   0.28376613  0.42752320  0.49794355
   0.28534872  0.57034707  0.49624059
   0.28606689  0.71472646  0.49672541
   0.28640360  0.85763414  0.49826568
   0.42930867  0.00037861  0.49928849
   0.42903496  0.14280798  0.50166349
   0.42708108  0.28221861  0.50422171
   0.42710944  0.71626728  0.49538762
   0.42899223  0.85758576  0.49714821
   0.57194322  0.00044726  0.49868918
   0.57199557  0.14298338  0.50091539
   0.57280958  0.28637806  0.50336237
   0.57284676  0.85780291  0.49725497
   0.71486920  0.00022163  0.49904007
   0.71487641  0.14311001  0.50019309
   0.71482619  0.28596578  0.50197320
   0.71455345  0.42822110  0.50374373
   0.71922474  0.57420397  0.50526555
   0.71921434  0.71634374  0.50346603
   0.71459674  0.85766906  0.49938190
   0.85777610  0.00031623  0.49968511
   0.85727778  0.14289962  0.49991878
   0.85723236  0.28569488  0.50077615
   0.85773696  0.42880530  0.50188307
   0.85879219  0.57237062  0.50250076
   0.86042780  0.71590915  0.50199716
   0.85874461  0.85773424  0.50029132
   0.04801209  0.09540896  0.50009038
   0.04692944  0.23759639  0.50000078
   0.04691808  0.38066191  0.49956145
   0.04796764  0.52396389  0.49954049
   0.04882581  0.66716299  0.49988898
   0.04919811  0.81027687  0.50000816
   0.04882099  0.95295757  0.49989641
   0.19092466  0.09528687  0.50066300
   0.18981187  0.23776840  0.50073732
   0.18853959  0.37990125  0.49899320
   0.18977472  0.52336417  0.49760464
   0.19089477  0.66698734  0.49774426
   0.19151048  0.81004800  0.49876254
   0.19150529  0.95278199  0.49981724
   0.33396636  0.09546540  0.50116176
   0.33412963  0.23789157  0.50248222
   0.32913737  0.37880850  0.49902592
   0.32910203  0.52155466  0.49608296
   0.33411805  0.66761096  0.49578858
   0.33392220  0.80989699  0.49719151
   0.33395348  0.95264607  0.49914269
   0.47686177  0.09533084  0.50061991
   0.47605424  0.23789411  0.50328794
   0.47606104  0.80956313  0.49635437
   0.47681894  0.95290247  0.49832295
   0.61945364  0.09544677  0.49989989
   0.61975709  0.23821909  0.50214634
   0.62161628  0.37972103  0.50399136
   0.62170311  0.81331654  0.49781813
   0.61975259  0.95291859  0.49826581
   0.76232464  0.09554453  0.49967564
   0.76229668  0.23815623  0.50098559
   0.76260261  0.38110820  0.50263015
   0.76315317  0.52551539  0.50400826
   0.76530513  0.66831658  0.50382471
   0.76316259  0.80893420  0.50096644
   0.76264989  0.95285577  0.49934947
   0.90492323  0.09506248  0.49978977
   0.90463194  0.23800412  0.50023883
   0.90487073  0.38116925  0.50096971
   0.90572056  0.52435581  0.50165707
   0.90683274  0.66753798  0.50178317
   0.90680194  0.81067483  0.50073528
   0.90572499  0.95265816  0.49967862
   0.46353133  0.35475196  0.50609351
   0.40158603  0.41520212  0.49790541
   0.40155100  0.55760560  0.49478002
   0.64681520  0.67717960  0.50487226
   0.64685611  0.54093512  0.50672563
   0.58578828  0.41643066  0.50440841
   0.58583502  0.74077520  0.49718542
   0.46361143  0.68022470  0.49479881
   0.48799977  0.53091829  0.54916496
   0.49399552  0.53149370  0.44618220
   0.53030362  0.54991959  0.49998050
Direct configuration=     3
   0.00077840  0.00027471  0.49979158
   0.00001628  0.14276350  0.50000148
   0.99969516  0.28548002  0.49996962
   0.99998948  0.42862006  0.50003273
   0.00072398  0.57182718  0.50039433
   0.00195523  0.71513606  0.50050551
   0.00190870  0.85812997  0.50011559
   0.14391014  0.00058174  0.50009828
   0.14302591  0.14291392  0.50063655
   0.14203874  0.28511610  0.49998608
   0.14204987  0.42824689  0.49866153
   0.14299468  0.57145422  0.49812691
   0.14388761  0.71468777  0.49872043
   0.14416251  0.85773820  0.49947303
   0.28642371  0.00013893  0.50002029
   0.28607955  0.14273217  0.50141032
   0.28532959  0.28630506  0.50105841
   0.28377123  0.42752288  0.49794464
   0.28534614  0.57034473  0.49624218
   0.28606359  0.71472538  0.49672587
   0.28640141  0.85763514  0.49826576
   0.42930907  0.00037597  0.49928891
   0.42903867  0.14280814  0.50166284
   0.42708127  0.28221990  0.50421793
   0.42710757  0.71626541  0.49538832
   0.42899397  0.85758997  0.49714875
   0.57194391  0.00044768  0.49868904
   0.57199512  0.14298018  0.50091570
   0.57281437  0.28638070  0.50336335
   0.57285051  0.85780447  0.49725347
   0.71486408  0.00021853  0.49903948
   0.71487194  0.14310948  0.50019349
   0.71482436  0.28596787  0.50197432
   0.71455252  0.42822152  0.50374605
   0.71922507  0.57420575  0.50526583
   0.71921350  0.71634110  0.50346560
   0.71460004  0.85766959  0.49938213
   0.85777887  0.00031424  0.49968584
   0.85727784  0.14289849  0.49991870
   0.85723284  0.28569861  0.50077632
   0.85773820  0.42880524  0.50188384
   0.85879218  0.57236950  0.50250308
   0.86042674  0.71590904  0.50199849
   0.85874634  0.85773622  0.50029118
   0.04801245  0.09540910  0.50009029
   0.04692862  0.23759723  0.50000052
   0.04691846  0.38065896  0.49956040
   0.04796908  0.52396501  0.49953997
   0.04882219  0.66716369  0.49988920
   0.04919581  0.81027357  0.50000755
   0.04881884  0.95295606  0.49989671
   0.19092731  0.09528848  0.50066229
   0.18981343  0.23776885  0.50073768
   0.18853816  0.37990127  0.49899391
   0.18977959  0.52336775  0.49760483
   0.19089880  0.66698967  0.49774247
   0.19151057  0.81004957  0.49876190
   0.19150684  0.95278212  0.49981723
   0.33396519  0.09546619  0.50116115
   0.33412873  0.23788866  0.50248055
   0.32913405  0.37881033  0.49902670
   0.32910029  0.52155218  0.49608117
   0.33411968  0.66761422  0.49579272
   0.33392123  0.80989310  0.49719118
   0.33395018  0.95264528  0.49914381
   0.47686007  0.09533268  0.50061981
   0.47605374  0.23789296  0.50328574
   0.47606028  0.80956113  0.49635339
   0.47681527  0.95289970  0.49832368
   0.61945708  0.09544863  0.49989978
   0.61975950  0.23822371  0.50214740
   0.62161670  0.37972103  0.50399114
   0.62170329  0.81331421  0.49781818
   0.61975431  0.95291744  0.49826442
   0.76232975  0.09554657  0.49967573
   0.76230077  0.23815645  0.50098611
   0.76260009  0.38110668  0.50263160
   0.76315548  0.52551725  0.50401120
   0.76530558  0.66831659  0.50382549
   0.76316078  0.80893389  0.50096624
   0.76264837  0.95285532  0.49934961
   0.90492003  0.09506552  0.49979046
   0.90462928  0.23800069  0.50023901
   0.90486799  0.38116540  0.50097019
   0.90571846  0.52435594  0.50165738
   0.90683570  0.66753974  0.50178436
   0.90680235  0.81067320  0.50073548
   0.90572335  0.95266016  0.49967934
   0.46353093  0.35475051  0.50609366
   0.40158579  0.41520182  0.49790676
   0.40155183  0.55760572  0.49478098
   0.64681546  0.67718042  0.50487275
   0.64685540  0.54093509  0.50672603
   0.58578868  0.41643088  0.50440875
   0.58583607  0.74077537  0.49718541
   0.46361124  0.68022536  0.49479882
   0.48799945  0.53091813  0.54916256
   0.49399671  0.53149441  0.44618026
   0.53030338  0.54992118  0.49997865
Direct configuration=     4
   0.00077836  0.00027455  0.49979208
   0.00002262  0.14276027  0.50000141
   0.99969962  0.28548971  0.49996840
   0.99999250  0.42862386  0.50003179
   0.00072773  0.57182510  0.50039471
   0.00195908  0.71513658  0.50050617
   0.00191229  0.85813394  0.50011554
   0.14390568  0.00057693  0.50009896
   0.14301784  0.14291276  0.50063629
   0.14203512  0.28511497  0.49998623
   0.14204346  0.42823917  0.49866162
   0.14298863  0.57145125  0.49812333
   0.14388634  0.71468362  0.49871892
   0.14416777  0.85774242  0.49947180
   0.28642093  0.00013507  0.50002141
   0.28607801  0.14273336  0.50140683
   0.28532855  0.28631043  0.50105734
   0.28378025  0.42752235  0.49794678
   0.28534207  0.57034102  0.49624579
   0.28605767  0.71472342  0.49672680
   0.28639723  0.85763675  0.49826589
   0.42930933  0.00037100  0.49928980
   0.42904525  0.14280849  0.50166151
   0.42708149  0.28222196  0.50421027
   0.42710408  0.71626195  0.49538976
   0.42899688  0.85759719  0.49714981
   0.57194516  0.00044826  0.49868876
   0.57199437  0.14297457  0.50091634
   0.57282321  0.28638568  0.50336529
   0.57285749  0.85780690  0.49725043
   0.71485494  0.00021302  0.49903828
   0.71486437  0.14310873  0.50019428
   0.71482123  0.28597174  0.50197659
   0.71455087  0.42822254  0.50375074
   0.71922570  0.57420900  0.50526645
   0.71921194  0.71633624  0.50346474
   0.71460607  0.85767046  0.49938259
   0.85778369  0.00031091  0.49968734
   0.85727795  0.14289656  0.49991858
   0.85723372  0.28570509  0.50077668
   0.85774014  0.42880490  0.50188541
   0.85879234  0.57236773  0.50250779
   0.86042495  0.71590878  0.50200116
   0.85874941  0.85773978  0.50029091
   0.04801292  0.09540902  0.50009013
   0.04692706  0.23759873  0.49999999
   0.04691911  0.38065382  0.49955827
   0.04797166  0.52396694  0.49953891
   0.04881709  0.66716561  0.49988964
   0.04919194  0.81026777  0.50000633
   0.04881476  0.95295331  0.49989732
   0.19093162  0.09529121  0.50066085
   0.18981604  0.23776968  0.50073839
   0.18853558  0.37990120  0.49899535
   0.18978803  0.52337400  0.49760522
   0.19090572  0.66699366  0.49773888
   0.19151052  0.81005228  0.49876061
   0.19150953  0.95278229  0.49981723
   0.33396309  0.09546756  0.50115991
   0.33412701  0.23788361  0.50247709
   0.32912823  0.37881380  0.49902825
   0.32909718  0.52154749  0.49607758
   0.33412228  0.66761998  0.49580103
   0.33391926  0.80988608  0.49719055
   0.33394403  0.95264372  0.49914606
   0.47685710  0.09533568  0.50061961
   0.47605320  0.23789108  0.50328129
   0.47605907  0.80955765  0.49635142
   0.47680872  0.95289485  0.49832515
   0.61946309  0.09545178  0.49989956
   0.61976391  0.23823203  0.50214956
   0.62161756  0.37972133  0.50399075
   0.62170401  0.81330995  0.49781828
   0.61975719  0.95291527  0.49826160
   0.76233862  0.09555005  0.49967590
   0.76230803  0.23815706  0.50098718
   0.76259540  0.38110405  0.50263457
   0.76315970  0.52552082  0.50401714
   0.76530634  0.66831661  0.50382707
   0.76315762  0.80893315  0.50096585
   0.76264560  0.95285439  0.49934990
   0.90491449  0.09507096  0.49979185
   0.90462453  0.23799473  0.50023938
   0.90486331  0.38115872  0.50097115
   0.90571476  0.52435596  0.50165804
   0.90684119  0.66754298  0.50178680
   0.90680318  0.81067038  0.50073589
   0.90572054  0.95266389  0.49968079
   0.46353019  0.35474778  0.50609395
   0.40158505  0.41520108  0.49790945
   0.40155325  0.55760587  0.49478287
   0.64681585  0.67718197  0.50487373
   0.64685403  0.54093507  0.50672684
   0.58578943  0.41643128  0.50440944
   0.58583806  0.74077548  0.49718538
   0.46361081  0.68022660  0.49479883
   0.48799874  0.53091778  0.54915779
   0.49399901  0.53149580  0.44617631
   0.53030298  0.54992447  0.49997492
Direct configuration=     5
   0.00077783  0.00027422  0.49979288
   0.00002842  0.14275636  0.50000133
   0.99970384  0.28550017  0.49996694
   0.99999619  0.42862820  0.50003032
   0.00073202  0.57182259  0.50039531
   0.00196385  0.71513742  0.50050721
   0.00191664  0.85813807  0.50011547
   0.14390000  0.00057087  0.50009997
   0.14300830  0.14291156  0.50063572
   0.14203016  0.28511362  0.49998651
   0.14203648  0.42823038  0.49866169
   0.14298264  0.57144874  0.49811837
   0.14388449  0.71467839  0.49871649
   0.14417412  0.85774768  0.49946988
   0.28641733  0.00013083  0.50002318
   0.28607597  0.14273478  0.50140133
   0.28532699  0.28631738  0.50105570
   0.28379102  0.42752186  0.49794998
   0.28533773  0.57033695  0.49625161
   0.28605046  0.71472099  0.49672829
   0.28639145  0.85763819  0.49826606
   0.42930842  0.00036428  0.49929126
   0.42905320  0.14280914  0.50165933
   0.42708139  0.28222373  0.50419827
   0.42709980  0.71625825  0.49539179
   0.42899994  0.85760515  0.49715139
   0.57194675  0.00044856  0.49868826
   0.57199365  0.14296809  0.50091737
   0.57283485  0.28639256  0.50336818
   0.57286681  0.85780886  0.49724562
   0.71484448  0.00020629  0.49903674
   0.71485648  0.14310847  0.50019551
   0.71481785  0.28597690  0.50198019
   0.71454898  0.42822461  0.50375812
   0.71922663  0.57421327  0.50526757
   0.71920991  0.71632989  0.50346340
   0.71461391  0.85767133  0.49938328
   0.85778926  0.00030767  0.49968970
   0.85727811  0.14289448  0.49991845
   0.85723489  0.28571248  0.50077727
   0.85774185  0.42880391  0.50188792
   0.85879310  0.57236628  0.50251519
   0.86042315  0.71590827  0.50200533
   0.85875320  0.85774423  0.50029053
   0.04801312  0.09540801  0.50008989
   0.04692485  0.23760063  0.49999915
   0.04691980  0.38064800  0.49955493
   0.04797490  0.52396916  0.49953717
   0.04881164  0.66716787  0.49989027
   0.04918794  0.81026105  0.50000441
   0.04880909  0.95294986  0.49989826
   0.19093576  0.09529409  0.50065857
   0.18981875  0.23777080  0.50073942
   0.18853246  0.37990085  0.49899761
   0.18979775  0.52338130  0.49760587
   0.19091343  0.66699800  0.49773329
   0.19150990  0.81005536  0.49875857
   0.19151261  0.95278241  0.49981723
   0.33396125  0.09546938  0.50115838
   0.33412469  0.23787795  0.50247150
   0.32912159  0.37881867  0.49903069
   0.32909345  0.52154116  0.49607213
   0.33412325  0.66762570  0.49581407
   0.33391624  0.80987741  0.49718965
   0.33393663  0.95264133  0.49914920
   0.47685394  0.09533828  0.50061876
   0.47605362  0.23788937  0.50327432
   0.47605805  0.80955368  0.49634838
   0.47680249  0.95289020  0.49832781
   0.61947013  0.09545514  0.49989926
   0.61976968  0.23824236  0.50215296
   0.62161903  0.37972261  0.50399030
   0.62170611  0.81330457  0.49781839
   0.61976021  0.95291232  0.49825717
   0.76234876  0.09555390  0.49967615
   0.76231558  0.23815755  0.50098844
   0.76258971  0.38110128  0.50263872
   0.76316518  0.52552602  0.50402648
   0.76530726  0.66831667  0.50382952
   0.76315403  0.80893173  0.50096525
   0.76264261  0.95285336  0.49935090
   0.90490860  0.09507633  0.49979343
   0.90461880  0.23798802  0.50023992
   0.90485824  0.38115120  0.50097263
   0.90571047  0.52435550  0.50165919
   0.90684774  0.66754713  0.50179129
   0.90680456  0.81066725  0.50073655
   0.90571756  0.95266873  0.49968244
   0.46352923  0.35474412  0.50609431
   0.40158321  0.41519965  0.49791360
   0.40155486  0.55760590  0.49478574
   0.64681616  0.67718409  0.50487525
   0.64685212  0.54093520  0.50672807
   0.58579053  0.41643185  0.50441049
   0.58584085  0.74077507  0.49718534
   0.46361008  0.68022829  0.49479883
   0.48799749  0.53091719  0.54915043
   0.49400241  0.53149789  0.44616995
   0.53030258  0.54992988  0.49996909
Direct configuration=     6
   0.00077635  0.00027363  0.49979401
   0.00003121  0.14275291  0.50000054
   0.99970538  0.28550762  0.49996588
   0.99999955  0.42863151  0.50002829
   0.00073516  0.57182062  0.50039541
   0.00196827  0.71513860  0.50050866
   0.00192045  0.85814037  0.50011538
   0.14389513  0.00056660  0.50010070
   0.14299994  0.14291084  0.50063481
   0.14202465  0.28511246  0.49998700
   0.14203124  0.42822296  0.49866167
   0.14297943  0.57144795  0.49811204
   0.14388229  0.71467344  0.49871303
   0.14417958  0.85775256  0.49946727
   0.28641376  0.00012801  0.50002563
   0.28607354  0.14273635  0.50139453
   0.28532500  0.28632434  0.50105367
   0.28380000  0.42752173  0.49795423
   0.28533471  0.57033385  0.49625971
   0.28604401  0.71471838  0.49672975
   0.28638490  0.85763838  0.49826624
   0.42930510  0.00035757  0.49929294
   0.42906023  0.14281020  0.50165622
   0.42708143  0.28222295  0.50418250
   0.42709532  0.71625518  0.49539461
   0.42900127  0.85760990  0.49715410
   0.57194835  0.00044804  0.49868750
   0.57199342  0.14296306  0.50091883
   0.57284691  0.28640035  0.50337186
   0.57287671  0.85780857  0.49723901
   0.71483673  0.00020087  0.49903484
   0.71485198  0.14310945  0.50019712
   0.71481498  0.28598153  0.50198472
   0.71454763  0.42822829  0.50376819
   0.71922771  0.57421767  0.50526942
   0.71920783  0.71632346  0.50346164
   0.71462197  0.85767173  0.49938418
   0.85779358  0.00030629  0.49969294
   0.85727829  0.14289310  0.49991837
   0.85723601  0.28571803  0.50077811
   0.85774205  0.42880189  0.50189140
   0.85879496  0.57236643  0.50252536
   0.86042302  0.71590792  0.50201032
   0.85875668  0.85774839  0.50029010
   0.04801245  0.09540540  0.50008960
   0.04692210  0.23760237  0.49999799
   0.04692022  0.38064364  0.49955041
   0.04797803  0.52397094  0.49953469
   0.04880739  0.66716913  0.49989104
   0.04918615  0.81025587  0.50000249
   0.04880267  0.95294653  0.49989955
   0.19093722  0.09529574  0.50065547
   0.18982014  0.23777203  0.50074073
   0.18852972  0.37990008  0.49900076
   0.18980532  0.52338716  0.49760686
   0.19091866  0.66700098  0.49772650
   0.19150816  0.81005759  0.49875579
   0.19151487  0.95278241  0.49981728
   0.33396036  0.09547121  0.50115650
   0.33412208  0.23787391  0.50246360
   0.32911729  0.37882313  0.49903385
   0.32909034  0.52153447  0.49606524
   0.33412129  0.66762947  0.49583169
   0.33391335  0.80987028  0.49718858
   0.33392930  0.95263828  0.49915322
   0.47685171  0.09533874  0.50061730
   0.47605618  0.23788906  0.50326482
   0.47605809  0.80955067  0.49634435
   0.47679856  0.95288744  0.49833165
   0.61947589  0.09545719  0.49989889
   0.61977550  0.23825137  0.50215700
   0.62162121  0.37972567  0.50399002
   0.62171044  0.81329929  0.49781844
   0.61976198  0.95290896  0.49825112
   0.76235647  0.09555655  0.49967646
   0.76232105  0.23815850  0.50098994
   0.76258424  0.38109973  0.50264419
   0.76317079  0.52553238  0.50403926
   0.76530812  0.66831678  0.50383282
   0.76315146  0.80892944  0.50096448
   0.76264025  0.95285222  0.49935260
   0.90490465  0.09508000  0.49979517
   0.90461547  0.23798425  0.50024087
   0.90485499  0.38114572  0.50097458
   0.90570706  0.52435415  0.50166096
   0.90685413  0.66755135  0.50179796
   0.90680651  0.81066506  0.50073749
   0.90571538  0.95267315  0.49968357
   0.46352826  0.35474011  0.50609469
   0.40157971  0.41519734  0.49791948
   0.40155601  0.55760558  0.49478976
   0.64681605  0.67718646  0.50487731
   0.64684998  0.54093567  0.50672971
   0.58579183  0.41643255  0.50441188
   0.58584409  0.74077356  0.49718529
   0.46360896  0.68023020  0.49479886
   0.48799549  0.53091629  0.54914025
   0.49400677  0.53150064  0.44616066
   0.53030247  0.54993662  0.49996221
Direct configuration=     7
   0.00077614  0.00027356  0.49979408
   0.00003056  0.14275308  0.50000054
   0.99970473  0.28550670  0.49996583
   0.99999943  0.42863123  0.50002817
   0.00073485  0.57182074  0.50039533
   0.00196814  0.71513867  0.50050875
   0.00192027  0.85813989  0.50011538
   0.14389531  0.00056697  0.50010067
   0.14300034  0.14291096  0.50063475
   0.14202461  0.28511253  0.49998705
   0.14203171  0.42822338  0.49866164
   0.14298010  0.57144832  0.49811174
   0.14388224  0.71467361  0.49871280
   0.14417927  0.85775238  0.49946713
   0.28641385  0.00012840  0.50002578
   0.28607350  0.14273632  0.50139423
   0.28532477  0.28632403  0.50105368
   0.28379907  0.42752152  0.49795429
   0.28533497  0.57033408  0.49626006
   0.28604427  0.71471841  0.49672980
   0.28638483  0.85763805  0.49826624
   0.42930462  0.00035763  0.49929302
   0.42905993  0.14281027  0.50165601
   0.42708134  0.28222229  0.50418174
   0.42709530  0.71625535  0.49539481
   0.42900091  0.85760914  0.49715430
   0.57194825  0.00044774  0.49868752
   0.57199357  0.14296348  0.50091891
   0.57284676  0.28640057  0.50337188
   0.57287668  0.85780803  0.49723864
   0.71483739  0.00020123  0.49903476
   0.71485286  0.14310971  0.50019719
   0.71481535  0.28598148  0.50198482
   0.71454784  0.42822867  0.50376875
   0.71922765  0.57421748  0.50526964
   0.71920790  0.71632372  0.50346166
   0.71462192  0.85767161  0.49938423
   0.85779321  0.00030673  0.49969312
   0.85727831  0.14289329  0.49991839
   0.85723598  0.28571752  0.50077817
   0.85774169  0.42880169  0.50189161
   0.85879521  0.57236675  0.50252583
   0.86042337  0.71590795  0.50201053
   0.85875657  0.85774824  0.50029009
   0.04801223  0.09540511  0.50008959
   0.04692198  0.23760227  0.49999792
   0.04692015  0.38064406  0.49955017
   0.04797797  0.52397082  0.49953453
   0.04880770  0.66716883  0.49989106
   0.04918670  0.81025633  0.50000246
   0.04880263  0.95294661  0.49989962
   0.19093656  0.09529544  0.50065530
   0.18981977  0.23777204  0.50074078
   0.18852988  0.37989999  0.49900095
   0.18980470  0.52338671  0.49760693
   0.19091799  0.66700062  0.49772623
   0.19150791  0.81005732  0.49875564
   0.19151464  0.95278241  0.49981729
   0.33396057  0.09547121  0.50115641
   0.33412206  0.23787438  0.50246309
   0.32911782  0.37882302  0.49903402
   0.32909069  0.52153469  0.49606508
   0.33412099  0.66762921  0.49583257
   0.33391334  0.80987071  0.49718856
   0.33392935  0.95263817  0.49915341
   0.47685195  0.09533823  0.50061720
   0.47605669  0.23788939  0.50326430
   0.47605836  0.80955092  0.49634415
   0.47679905  0.95288784  0.49833188
   0.61947552  0.09545687  0.49989889
   0.61977541  0.23825093  0.50215718
   0.62162137  0.37972608  0.50399009
   0.62171093  0.81329938  0.49781842
   0.61976169  0.95290889  0.49825078
   0.76235580  0.09555624  0.49967647
   0.76232057  0.23815866  0.50099001
   0.76258436  0.38110007  0.50264450
   0.76317076  0.52553258  0.50403998
   0.76530812  0.66831681  0.50383299
   0.76315194  0.80892935  0.50096442
   0.76264044  0.95285220  0.49935273
   0.90490508  0.09507949  0.49979516
   0.90461592  0.23798488  0.50024094
   0.90485555  0.38114641  0.50097475
   0.90570732  0.52435396  0.50166111
   0.90685405  0.66755131  0.50179840
   0.90680663  0.81066532  0.50073755
   0.90571560  0.95267303  0.49968352
   0.46352826  0.35474006  0.50609467
   0.40157941  0.41519718  0.49791982
   0.40155589  0.55760550  0.49478998
   0.64681595  0.67718648  0.50487742
   0.64684998  0.54093577  0.50672979
   0.58579186  0.41643260  0.50441194
   0.58584417  0.74077330  0.49718529
   0.46360887  0.68023022  0.49479887
   0.48799532  0.53091622  0.54913970
   0.49400698  0.53150078  0.44616006
   0.53030256  0.54993697  0.49996189
Direct configuration=     8
   0.00077573  0.00027341  0.49979421
   0.00002928  0.14275340  0.50000054
   0.99970347  0.28550491  0.49996574
   0.99999920  0.42863069  0.50002793
   0.00073425  0.57182097  0.50039518
   0.00196792  0.71513881  0.50050894
   0.00191991  0.85813897  0.50011538
   0.14389563  0.00056767  0.50010059
   0.14300110  0.14291120  0.50063462
   0.14202452  0.28511265  0.49998716
   0.14203263  0.42822420  0.49866159
   0.14298140  0.57144903  0.49811115
   0.14388214  0.71467392  0.49871235
   0.14417868  0.85775203  0.49946684
   0.28641402  0.00012916  0.50002606
   0.28607341  0.14273627  0.50139362
   0.28532432  0.28632341  0.50105370
   0.28379726  0.42752112  0.49795440
   0.28533548  0.57033452  0.49626077
   0.28604477  0.71471847  0.49672989
   0.28638467  0.85763742  0.49826623
   0.42930370  0.00035775  0.49929318
   0.42905935  0.14281040  0.50165558
   0.42708116  0.28222101  0.50418023
   0.42709525  0.71625569  0.49539521
   0.42900021  0.85760766  0.49715469
   0.57194803  0.00044715  0.49868757
   0.57199385  0.14296429  0.50091909
   0.57284647  0.28640101  0.50337194
   0.57287664  0.85780696  0.49723789
   0.71483868  0.00020194  0.49903460
   0.71485456  0.14311023  0.50019734
   0.71481607  0.28598137  0.50198502
   0.71454824  0.42822942  0.50376987
   0.71922753  0.57421713  0.50527010
   0.71920804  0.71632425  0.50346169
   0.71462186  0.85767136  0.49938431
   0.85779248  0.00030758  0.49969348
   0.85727836  0.14289367  0.49991844
   0.85723593  0.28571653  0.50077829
   0.85774100  0.42880129  0.50189202
   0.85879571  0.57236738  0.50252678
   0.86042406  0.71590802  0.50201095
   0.85875635  0.85774794  0.50029007
   0.04801181  0.09540455  0.50008958
   0.04692173  0.23760208  0.49999779
   0.04692002  0.38064484  0.49954969
   0.04797787  0.52397060  0.49953419
   0.04880831  0.66716826  0.49989110
   0.04918778  0.81025723  0.50000240
   0.04880254  0.95294675  0.49989976
   0.19093528  0.09529484  0.50065495
   0.18981904  0.23777207  0.50074087
   0.18853017  0.37989983  0.49900132
   0.18980350  0.52338583  0.49760708
   0.19091670  0.66699990  0.49772567
   0.19150741  0.81005678  0.49875533
   0.19151417  0.95278243  0.49981731
   0.33396098  0.09547121  0.50115622
   0.33412200  0.23787528  0.50246207
   0.32911886  0.37882280  0.49903436
   0.32909137  0.52153512  0.49606475
   0.33412041  0.66762871  0.49583432
   0.33391331  0.80987154  0.49718853
   0.33392945  0.95263793  0.49915378
   0.47685240  0.09533725  0.50061700
   0.47605769  0.23789005  0.50326325
   0.47605889  0.80955141  0.49634375
   0.47679997  0.95288861  0.49833235
   0.61947481  0.09545623  0.49989888
   0.61977525  0.23825009  0.50215752
   0.62162170  0.37972689  0.50399023
   0.62171190  0.81329953  0.49781837
   0.61976113  0.95290874  0.49825011
   0.76235449  0.09555563  0.49967650
   0.76231963  0.23815899  0.50099016
   0.76258459  0.38110074  0.50264513
   0.76317069  0.52553298  0.50404142
   0.76530814  0.66831686  0.50383334
   0.76315289  0.80892918  0.50096431
   0.76264082  0.95285216  0.49935299
   0.90490598  0.09507864  0.49979521
   0.90461679  0.23798611  0.50024107
   0.90485662  0.38114774  0.50097508
   0.90570784  0.52435359  0.50166142