  93  93   0   0
  0.4166543E+02  0.1727104E-08  0.1727104E-08  0.1500000E-08  0.1000000E-15
   1.0000000000000000E-004
  CAR 
 unknown system                          
      5.74938383    -30.91825609  301     -2.85067795      1.00000000
    -30.918  0.0000E+00  0.0000E+00  0.0000E+00  0.0000E+00
    -30.796  0.0000E+00  0.0000E+00  0.0000E+00  0.0000E+00
    -30.674  0.0000E+00  0.0000E+00  0.0000E+00  0.0000E+00
    -30.552  0.0000E+00  0.0000E+00  0.0000E+00  0.0000E+00
    -30.429  0.0000E+00  0.0000E+00  0.0000E+00  0.0000E+00
    -30.307  0.0000E+00  0.0000E+00  0.0000E+00  0.0000E+00
    -30.185  0.0000E+00  0.0000E+00  0.0000E+00  0.0000E+00
    -30.063  0.0000E+00  0.0000E+00  0.0000E+00  0.0000E+00
    -29.940  0.0000E+00  0.0000E+00  0.0000E+00  0.0000E+00
    -29.818  0.0000E+00  0.0000E+00  0.0000E+00  0.0000E+00
    -29.696  0.0000E+00  0.0000E+00  0.0000E+00  0.0000E+00
    -29.574  0.0000E+00  0.0000E+00  0.0000E+00  0.0000E+00
    -29.452  0.2092E-09  0.2092E-09  0.2557E-10  0.2557E-10
    -29.329  0.3785E-03  0.3785E-03  0.4627E-04  0.4627E-04
    -29.207  0.2412E-01  0.2412E-01  0.2994E-02  0.2994E-02
    -29.085  0.2317E-01  0.2317E-01  0.5826E-02  0.5826E-02
    -28.963  0.6875E-02  0.6875E-02  0.6667E-02  0.6667E-02
    -28.840  0.5058E-06  0.5058E-06  0.6667E-02  0.6667E-02
    -28.718  0.4648E-15  0.4648E-15  0.6667E-02  0.6667E-02
    -28.596  0.0000E+00  0.0000E+00  0.6667E-02  0.6667E-02
    -28.474  0.0000E+00  0.0000E+00  0.6667E-02  0.6667E-02
    -28.352  0.0000E+00  0.0000E+00  0.6667E-02  0.6667E-02
    -28.229  0.0000E+00  0.0000E+00  0.6667E-02  0.6667E-02
    -28.107  0.0000E+00  0.0000E+00  0.6667E-02  0.6667E-02
    -27.985  0.0000E+00  0.0000E+00  0.6667E-02  0.6667E-02
    -27.863  0.0000E+00  0.0000E+00  0.6667E-02  0.6667E-02
    -27.740  0.0000E+00  0.0000E+00  0.6667E-02  0.6667E-02
    -27.618  0.0000E+00  0.0000E+00  0.6667E-02  0.6667E-02
    -27.496  0.0000E+00  0.0000E+00  0.6667E-02  0.6667E-02
    -27.374  0.0000E+00  0.0000E+00  0.6667E-02  0.6667E-02
    -27.251  0.0000E+00  0.0000E+00  0.6667E-02  0.6667E-02
    -27.129  0.0000E+00  0.0000E+00  0.6667E-02  0.6667E-02
    -27.007  0.0000E+00  0.0000E+00  0.6667E-02  0.6667E-02
    -26.885  0.0000E+00  0.0000E+00  0.6667E-02  0.6667E-02
    -26.763  0.0000E+00  0.0000E+00  0.6667E-02  0.6667E-02
    -26.640  0.0000E+00  0.0000E+00  0.6667E-02  0.6667E-02
    -26.518  0.0000E+00  0.0000E+00  0.6667E-02  0.6667E-02
    -26.396  0.0000E+00  0.0000E+00  0.6667E-02  0.6667E-02
    -26.274  0.0000E+00  0.0000E+00  0.6667E-02  0.6667E-02
    -26.151  0.0000E+00  0.0000E+00  0.6667E-02  0.6667E-02
    -26.029  0.0000E+00  0.0000E+00  0.6667E-02  0.6667E-02
    -25.907  0.0000E+00  0.0000E+00  0.6667E-02  0.6667E-02
    -25.785  0.0000E+00  0.0000E+00  0.6667E-02  0.6667E-02
    -25.663  0.0000E+00  0.0000E+00  0.6667E-02  0.6667E-02
    -25.540  0.0000E+00  0.0000E+00  0.6667E-02  0.6667E-02
    -25.418  0.0000E+00  0.0000E+00  0.6667E-02  0.6667E-02
    -25.296  0.0000E+00  0.0000E+00  0.6667E-02  0.6667E-02
    -25.174  0.0000E+00  0.0000E+00  0.6667E-02  0.6667E-02
    -25.051  0.0000E+00  0.0000E+00  0.6667E-02  0.6667E-02
    -24.929  0.0000E+00  0.0000E+00  0.6667E-02  0.6667E-02
    -24.807  0.0000E+00  0.0000E+00  0.6667E-02  0.6667E-02
    -24.685  0.0000E+00  0.0000E+00  0.6667E-02  0.6667E-02
    -24.563  0.0000E+00  0.0000E+00  0.6667E-02  0.6667E-02
    -24.440  0.0000E+00  0.0000E+00  0.6667E-02  0.6667E-02
    -24.318  0.0000E+00  0.0000E+00  0.6667E-02  0.6667E-02
    -24.196  0.0000E+00  0.0000E+00  0.6667E-02  0.6667E-02
    -24.074  0.0000E+00  0.0000E+00  0.6667E-02  0.6667E-02
    -23.951  0.0000E+00  0.0000E+00  0.6667E-02  0.6667E-02
    -23.829  0.0000E+00  0.0000E+00  0.6667E-02  0.6667E-02
    -23.707  0.0000E+00  0.0000E+00  0.6667E-02  0.6667E-02
    -23.585  0.0000E+00  0.0000E+00  0.6667E-02  0.6667E-02
    -23.463  0.0000E+00  0.0000E+00  0.6667E-02  0.6667E-02
    -23.340  0.0000E+00  0.0000E+00  0.6667E-02  0.6667E-02
    -23.218  0.0000E+00  0.0000E+00  0.6667E-02  0.6667E-02
    -23.096  0.0000E+00  0.0000E+00  0.6667E-02  0.6667E-02
    -22.974  0.3785E-18  0.3785E-18  0.6667E-02  0.6667E-02
    -22.851  0.8675E-08  0.8675E-08  0.6667E-02  0.6667E-02
    -22.729  0.1588E-02  0.1588E-02  0.6861E-02  0.6861E-02
    -22.607  0.2550E-01  0.2550E-01  0.9977E-02  0.9977E-02
    -22.485  0.4255E-01  0.4255E-01  0.1518E-01  0.1518E-01
    -22.362  0.1218E-01  0.1218E-01  0.1667E-01  0.1667E-01
    -22.240  0.7776E-02  0.7776E-02  0.1762E-01  0.1762E-01
    -22.118  0.3387E-01  0.3387E-01  0.2176E-01  0.2176E-01
    -21.996  0.1398E-01  0.1398E-01  0.2347E-01  0.2347E-01
    -21.874  0.2273E-01  0.2273E-01  0.2624E-01  0.2624E-01
    -21.751  0.2077E-01  0.2077E-01  0.2878E-01  0.2878E-01
    -21.629  0.2680E-01  0.2680E-01  0.3206E-01  0.3206E-01
    -21.507  0.1176E-01  0.1176E-01  0.3350E-01  0.3350E-01
    -21.385  0.2876E-01  0.2876E-01  0.3701E-01  0.3701E-01
    -21.262  0.2066E-01  0.2066E-01  0.3954E-01  0.3954E-01
    -21.140  0.3097E-01  0.3097E-01  0.4332E-01  0.4332E-01
    -21.018  0.1600E-01  0.1600E-01  0.4528E-01  0.4528E-01
    -20.896  0.2175E-01  0.2175E-01  0.4794E-01  0.4794E-01
    -20.774  0.2690E-01  0.2690E-01  0.5122E-01  0.5122E-01
    -20.651  0.2113E-01  0.2113E-01  0.5381E-01  0.5381E-01
    -20.529  0.1916E-01  0.1916E-01  0.5615E-01  0.5615E-01
    -20.407  0.1736E-01  0.1736E-01  0.5827E-01  0.5827E-01
    -20.285  0.2715E-01  0.2715E-01  0.6159E-01  0.6159E-01
    -20.162  0.1498E-01  0.1498E-01  0.6342E-01  0.6342E-01
    -20.040  0.1298E-01  0.1298E-01  0.6501E-01  0.6501E-01
    -19.918  0.2012E-01  0.2012E-01  0.6746E-01  0.6746E-01
    -19.796  0.2772E-01  0.2772E-01  0.7085E-01  0.7085E-01
    -19.674  0.3789E-01  0.3789E-01  0.7548E-01  0.7548E-01
    -19.551  0.3163E-01  0.3163E-01  0.7935E-01  0.7935E-01
    -19.429  0.1410E-01  0.1410E-01  0.8107E-01  0.8107E-01
    -19.307  0.1298E-01  0.1298E-01  0.8266E-01  0.8266E-01
    -19.185  0.6841E-02  0.6841E-02  0.8350E-01  0.8350E-01
    -19.062  0.1947E-01  0.1947E-01  0.8588E-01  0.8588E-01
    -18.940  0.1521E-01  0.1521E-01  0.8773E-01  0.8773E-01
    -18.818  0.3851E-01  0.3851E-01  0.9244E-01  0.9244E-01
    -18.696  0.4353E-01  0.4353E-01  0.9776E-01  0.9776E-01
    -18.573  0.1828E-01  0.1828E-01  0.1000E+00  0.1000E+00
    -18.451  0.3130E-01  0.3130E-01  0.1038E+00  0.1038E+00
    -18.329  0.1253E-01  0.1253E-01  0.1054E+00  0.1054E+00
    -18.207  0.1700E-01  0.1700E-01  0.1074E+00  0.1074E+00
    -18.085  0.3059E-01  0.3059E-01  0.1112E+00  0.1112E+00
    -17.962  0.1407E-01  0.1407E-01  0.1129E+00  0.1129E+00
    -17.840  0.2082E-01  0.2082E-01  0.1154E+00  0.1154E+00
    -17.718  0.5144E-01  0.5144E-01  0.1217E+00  0.1217E+00
    -17.596  0.2707E-01  0.2707E-01  0.1250E+00  0.1250E+00
    -17.473  0.1124E-01  0.1124E-01  0.1264E+00  0.1264E+00
    -17.351  0.2848E-01  0.2848E-01  0.1299E+00  0.1299E+00
    -17.229  0.3390E-01  0.3390E-01  0.1340E+00  0.1340E+00
    -17.107  0.2302E-01  0.2302E-01  0.1368E+00  0.1368E+00
    -16.985  0.2139E-01  0.2139E-01  0.1395E+00  0.1395E+00
    -16.862  0.1663E-01  0.1663E-01  0.1415E+00  0.1415E+00
    -16.740  0.3477E-01  0.3477E-01  0.1457E+00  0.1457E+00
    -16.618  0.4419E-01  0.4419E-01  0.1511E+00  0.1511E+00
    -16.496  0.1460E-01  0.1460E-01  0.1529E+00  0.1529E+00
    -16.373  0.1011E-01  0.1011E-01  0.1542E+00  0.1542E+00
    -16.251  0.3282E-04  0.3282E-04  0.1542E+00  0.1542E+00
    -16.129  0.1022E-02  0.1022E-02  0.1543E+00  0.1543E+00
    -16.007  0.1205E-01  0.1205E-01  0.1558E+00  0.1558E+00
    -15.885  0.3102E-01  0.3102E-01  0.1596E+00  0.1596E+00
    -15.762  0.2143E-01  0.2143E-01  0.1622E+00  0.1622E+00
    -15.640  0.9919E-02  0.9919E-02  0.1634E+00  0.1634E+00
    -15.518  0.2156E-01  0.2156E-01  0.1660E+00  0.1660E+00
    -15.396  0.3714E-01  0.3714E-01  0.1706E+00  0.1706E+00
    -15.273  0.3357E-01  0.3357E-01  0.1747E+00  0.1747E+00
    -15.151  0.3006E-01  0.3006E-01  0.1783E+00  0.1783E+00
    -15.029  0.2201E-01  0.2201E-01  0.1810E+00  0.1810E+00
    -14.907  0.3021E-01  0.3021E-01  0.1847E+00  0.1847E+00
    -14.784  0.2724E-01  0.2724E-01  0.1881E+00  0.1881E+00
    -14.662  0.3669E-01  0.3669E-01  0.1925E+00  0.1925E+00
    -14.540  0.4216E-01  0.4216E-01  0.1977E+00  0.1977E+00
    -14.418  0.1406E-01  0.1406E-01  0.1994E+00  0.1994E+00
    -14.296  0.2129E-01  0.2129E-01  0.2020E+00  0.2020E+00
    -14.173  0.9290E-02  0.9290E-02  0.2031E+00  0.2031E+00
    -14.051  0.1731E-01  0.1731E-01  0.2053E+00  0.2053E+00
    -13.929  0.2765E-01  0.2765E-01  0.2086E+00  0.2086E+00
    -13.807  0.3878E-01  0.3878E-01  0.2134E+00  0.2134E+00
    -13.684  0.2741E-01  0.2741E-01  0.2167E+00  0.2167E+00
    -13.562  0.2880E-01  0.2880E-01  0.2203E+00  0.2203E+00
    -13.440  0.1028E-01  0.1028E-01  0.2215E+00  0.2215E+00
    -13.318  0.3311E-02  0.3311E-02  0.2219E+00  0.2219E+00
    -13.196  0.2268E-01  0.2268E-01  0.2247E+00  0.2247E+00
    -13.073  0.1841E-01  0.1841E-01  0.2269E+00  0.2269E+00
    -12.951  0.2654E-01  0.2654E-01  0.2302E+00  0.2302E+00
    -12.829  0.5616E-01  0.5616E-01  0.2370E+00  0.2370E+00
    -12.707  0.3090E-01  0.3090E-01  0.2408E+00  0.2408E+00
    -12.584  0.2724E-01  0.2724E-01  0.2442E+00  0.2442E+00
    -12.462  0.2507E-01  0.2507E-01  0.2472E+00  0.2472E+00
    -12.340  0.3093E-01  0.3093E-01  0.2510E+00  0.2510E+00
    -12.218  0.6528E-02  0.6528E-02  0.2518E+00  0.2518E+00
    -12.096  0.2985E-01  0.2985E-01  0.2554E+00  0.2554E+00
    -11.973  0.1980E-01  0.1980E-01  0.2579E+00  0.2579E+00
    -11.851  0.3287E-01  0.3287E-01  0.2619E+00  0.2619E+00
    -11.729  0.4179E-01  0.4179E-01  0.2670E+00  0.2670E+00
    -11.607  0.4870E-01  0.4870E-01  0.2729E+00  0.2729E+00
    -11.484  0.3351E-01  0.3351E-01  0.2770E+00  0.2770E+00
    -11.362  0.3346E-01  0.3346E-01  0.2811E+00  0.2811E+00
    -11.240  0.4153E-01  0.4153E-01  0.2862E+00  0.2862E+00
    -11.118  0.3051E-01  0.3051E-01  0.2899E+00  0.2899E+00
    -10.996  0.1704E-01  0.1704E-01  0.2920E+00  0.2920E+00
    -10.873  0.1143E-01  0.1143E-01  0.2934E+00  0.2934E+00
    -10.751  0.3064E-01  0.3064E-01  0.2972E+00  0.2972E+00
    -10.629  0.3894E-01  0.3894E-01  0.3019E+00  0.3019E+00
    -10.507  0.4867E-01  0.4867E-01  0.3079E+00  0.3079E+00
    -10.384  0.3817E-01  0.3817E-01  0.3125E+00  0.3125E+00
    -10.262  0.4997E-01  0.4997E-01  0.3186E+00  0.3186E+00
    -10.140  0.5433E-01  0.5433E-01  0.3253E+00  0.3253E+00
    -10.018  0.6283E-01  0.6283E-01  0.3330E+00  0.3330E+00
     -9.895  0.5817E-01  0.5817E-01  0.3401E+00  0.3401E+00
     -9.773  0.6464E-01  0.6464E-01  0.3480E+00  0.3480E+00
     -9.651  0.6307E-01  0.6307E-01  0.3557E+00  0.3557E+00
     -9.529  0.7098E-01  0.7098E-01  0.3644E+00  0.3644E+00
     -9.407  0.6498E-01  0.6498E-01  0.3723E+00  0.3723E+00
     -9.284  0.6395E-01  0.6395E-01  0.3801E+00  0.3801E+00
     -9.162  0.9084E-01  0.9084E-01  0.3912E+00  0.3912E+00
     -9.040  0.8490E-01  0.8490E-01  0.4016E+00  0.4016E+00
     -8.918  0.8110E-01  0.8110E-01  0.4115E+00  0.4115E+00
     -8.795  0.4624E-01  0.4624E-01  0.4172E+00  0.4172E+00
     -8.673  0.3685E-01  0.3685E-01  0.4217E+00  0.4217E+00
     -8.551  0.6379E-01  0.6379E-01  0.4295E+00  0.4295E+00
     -8.429  0.9513E-01  0.9513E-01  0.4411E+00  0.4411E+00
     -8.307  0.6561E-01  0.6561E-01  0.4491E+00  0.4491E+00
     -8.184  0.4492E-01  0.4492E-01  0.4546E+00  0.4546E+00
     -8.062  0.3164E-01  0.3164E-01  0.4585E+00  0.4585E+00
     -7.940  0.4411E-01  0.4411E-01  0.4638E+00  0.4638E+00
     -7.818  0.2551E-01  0.2551E-01  0.4670E+00  0.4670E+00
     -7.695  0.3158E-01  0.3158E-01  0.4708E+00  0.4708E+00
     -7.573  0.6390E-01  0.6390E-01  0.4786E+00  0.4786E+00
     -7.451  0.7826E-01  0.7826E-01  0.4882E+00  0.4882E+00
     -7.329  0.6606E-01  0.6606E-01  0.4963E+00  0.4963E+00
     -7.207  0.3388E-01  0.3388E-01  0.5004E+00  0.5004E+00
     -7.084  0.3386E-01  0.3386E-01  0.5046E+00  0.5046E+00
     -6.962  0.5155E-01  0.5155E-01  0.5109E+00  0.5109E+00
     -6.840  0.3590E-01  0.3590E-01  0.5152E+00  0.5152E+00
     -6.718  0.4326E-01  0.4326E-01  0.5205E+00  0.5205E+00
     -6.595  0.2535E-01  0.2535E-01  0.5236E+00  0.5236E+00
     -6.473  0.7242E-01  0.7242E-01  0.5325E+00  0.5325E+00
     -6.351  0.4488E-01  0.4488E-01  0.5380E+00  0.5380E+00
     -6.229  0.2560E-01  0.2560E-01  0.5411E+00  0.5411E+00
     -6.106  0.5220E-01  0.5220E-01  0.5475E+00  0.5475E+00
     -5.984  0.1751E-01  0.1751E-01  0.5496E+00  0.5496E+00
     -5.862  0.3170E-01  0.3170E-01  0.5535E+00  0.5535E+00
     -5.740  0.1493E-01  0.1493E-01  0.5553E+00  0.5553E+00
     -5.618  0.2270E-01  0.2270E-01  0.5581E+00  0.5581E+00
     -5.495  0.4208E-01  0.4208E-01  0.5632E+00  0.5632E+00
     -5.373  0.2390E-01  0.2390E-01  0.5662E+00  0.5662E+00
     -5.251  0.7887E-01  0.7887E-01  0.5758E+00  0.5758E+00
     -5.129  0.4860E-01  0.4860E-01  0.5817E+00  0.5817E+00
     -5.006  0.3845E-01  0.3845E-01  0.5864E+00  0.5864E+00
     -4.884  0.8557E-02  0.8557E-02  0.5875E+00  0.5875E+00
     -4.762  0.1399E-02  0.1399E-02  0.5877E+00  0.5877E+00
     -4.640  0.1588E-01  0.1588E-01  0.5896E+00  0.5896E+00
     -4.518  0.6868E-01  0.6868E-01  0.5980E+00  0.5980E+00
     -4.395  0.4969E-01  0.4969E-01  0.6041E+00  0.6041E+00
     -4.273  0.1014E+00  0.1014E+00  0.6164E+00  0.6164E+00
     -4.151  0.2612E-01  0.2612E-01  0.6196E+00  0.6196E+00
     -4.029  0.2879E-01  0.2879E-01  0.6232E+00  0.6232E+00
     -3.906  0.3660E-02  0.3660E-02  0.6236E+00  0.6236E+00
     -3.784  0.4974E-02  0.4974E-02  0.6242E+00  0.6242E+00
     -3.662  0.2013E-01  0.2013E-01  0.6267E+00  0.6267E+00
     -3.540  0.6732E-02  0.6732E-02  0.6275E+00  0.6275E+00
     -3.418  0.4435E-02  0.4435E-02  0.6280E+00  0.6280E+00
     -3.295  0.2485E-02  0.2485E-02  0.6283E+00  0.6283E+00
     -3.173  0.2055E-01  0.2055E-01  0.6309E+00  0.6309E+00
     -3.051  0.1129E-01  0.1129E-01  0.6322E+00  0.6322E+00
     -2.929  0.8958E-02  0.8958E-02  0.6333E+00  0.6333E+00
     -2.806  0.1683E-04  0.1683E-04  0.6333E+00  0.6333E+00
     -2.684  0.4055E-02  0.4055E-02  0.6338E+00  0.6338E+00
     -2.562  0.9556E-02  0.9556E-02  0.6350E+00  0.6350E+00
     -2.440  0.2402E-04  0.2402E-04  0.6350E+00  0.6350E+00
     -2.317  0.7951E-03  0.7951E-03  0.6351E+00  0.6351E+00
     -2.195  0.9966E-02  0.9966E-02  0.6363E+00  0.6363E+00
     -2.073  0.5368E-02  0.5368E-02  0.6370E+00  0.6370E+00
     -1.951  0.2352E-01  0.2352E-01  0.6398E+00  0.6398E+00
     -1.829  0.1490E-02  0.1490E-02  0.6400E+00  0.6400E+00
     -1.706  0.1201E-01  0.1201E-01  0.6415E+00  0.6415E+00
     -1.584  0.1915E-01  0.1915E-01  0.6438E+00  0.6438E+00
     -1.462  0.9488E-02  0.9488E-02  0.6450E+00  0.6450E+00
     -1.340  0.1429E-02  0.1429E-02  0.6452E+00  0.6452E+00
     -1.217  0.3140E-01  0.3140E-01  0.6490E+00  0.6490E+00
     -1.095  0.5289E-01  0.5289E-01  0.6555E+00  0.6555E+00
     -0.973  0.2559E-01  0.2559E-01  0.6586E+00  0.6586E+00
     -0.851  0.2725E-01  0.2725E-01  0.6619E+00  0.6619E+00
     -0.729  0.3060E-01  0.3060E-01  0.6657E+00  0.6657E+00
     -0.606  0.1450E-01  0.1450E-01  0.6674E+00  0.6674E+00
     -0.484  0.2623E-01  0.2623E-01  0.6707E+00  0.6707E+00
     -0.362  0.2656E-01  0.2656E-01  0.6739E+00  0.6739E+00
     -0.240  0.3712E-01  0.3712E-01  0.6784E+00  0.6784E+00
     -0.117  0.4167E-01  0.4167E-01  0.6835E+00  0.6835E+00
      0.005  0.1946E-01  0.1946E-01  0.6859E+00  0.6859E+00
      0.127  0.6958E-02  0.6958E-02  0.6868E+00  0.6868E+00
      0.249  0.1378E-01  0.1378E-01  0.6884E+00  0.6884E+00
      0.371  0.1926E-01  0.1926E-01  0.6908E+00  0.6908E+00
      0.494  0.2737E-01  0.2737E-01  0.6941E+00  0.6941E+00
      0.616  0.1625E-01  0.1625E-01  0.6961E+00  0.6961E+00
      0.738  0.1421E-01  0.1421E-01  0.6979E+00  0.6979E+00
      0.860  0.2991E-01  0.2991E-01  0.7015E+00  0.7015E+00
      0.983  0.2901E-01  0.2901E-01  0.7051E+00  0.7051E+00
      1.105  0.2641E-01  0.2641E-01  0.7083E+00  0.7083E+00
      1.227  0.4361E-01  0.4361E-01  0.7136E+00  0.7136E+00
      1.349  0.5630E-01  0.5630E-01  0.7205E+00  0.7205E+00
      1.471  0.4077E-01  0.4077E-01  0.7255E+00  0.7255E+00
      1.594  0.2104E-01  0.2104E-01  0.7281E+00  0.7281E+00
      1.716  0.2112E-01  0.2112E-01  0.7306E+00  0.7306E+00
      1.838  0.3173E-01  0.3173E-01  0.7345E+00  0.7345E+00
      1.960  0.9562E-01  0.9562E-01  0.7462E+00  0.7462E+00
      2.083  0.4154E-01  0.4154E-01  0.7513E+00  0.7513E+00
      2.205  0.2512E-01  0.2512E-01  0.7544E+00  0.7544E+00
      2.327  0.6656E-01  0.6656E-01  0.7625E+00  0.7625E+00
      2.449  0.6899E-01  0.6899E-01  0.7709E+00  0.7709E+00
      2.572  0.5184E-01  0.5184E-01  0.7773E+00  0.7773E+00
      2.694  0.2495E-01  0.2495E-01  0.7803E+00  0.7803E+00
      2.816  0.1119E+00  0.1119E+00  0.7940E+00  0.7940E+00
      2.938  0.1575E+00  0.1575E+00  0.8132E+00  0.8132E+00
      3.060  0.5032E-01  0.5032E-01  0.8194E+00  0.8194E+00
      3.183  0.2359E-01  0.2359E-01  0.8223E+00  0.8223E+00
      3.305  0.5371E-01  0.5371E-01  0.8288E+00  0.8288E+00
      3.427  0.9298E-01  0.9298E-01  0.8402E+00  0.8402E+00
      3.549  0.5062E-01  0.5063E-01  0.8464E+00  0.8464E+00
      3.672  0.3682E-01  0.3682E-01  0.8509E+00  0.8509E+00
      3.794  0.9460E-01  0.9460E-01  0.8624E+00  0.8624E+00
      3.916  0.9929E-01  0.9929E-01  0.8746E+00  0.8746E+00
      4.038  0.6148E-01  0.6148E-01  0.8821E+00  0.8821E+00
      4.160  0.1005E-01  0.1005E-01  0.8833E+00  0.8833E+00
      4.283  0.9487E-04  0.9489E-04  0.8833E+00  0.8833E+00
      4.405  0.5250E-10  0.5251E-10  0.8833E+00  0.8833E+00
      4.527  0.0000E+00  0.0000E+00  0.8833E+00  0.8833E+00
      4.649  0.0000E+00  0.0000E+00  0.8833E+00  0.8833E+00
      4.772  0.0000E+00  0.0000E+00  0.8833E+00  0.8833E+00
      4.894  0.0000E+00  0.0000E+00  0.8833E+00  0.8833E+00
      5.016  0.0000E+00  0.0000E+00  0.8833E+00  0.8833E+00
      5.138  0.0000E+00  0.0000E+00  0.8833E+00  0.8833E+00
      5.260  0.0000E+00  0.0000E+00  0.8833E+00  0.8833E+00
      5.383  0.0000E+00  0.0000E+00  0.8833E+00  0.8833E+00
      5.505  0.0000E+00  0.0000E+00  0.8833E+00  0.8833E+00
      5.627  0.0000E+00  0.0000E+00  0.8833E+00  0.8833E+00
      5.749  0.0000E+00  0.0000E+00  0.8833E+00  0.8833E+00
