<?xml version="1.0" encoding="ISO-8859-1"?>
<modeling>
 <generator>
  <i name="program" type="string">vasp </i>
  <i name="version" type="string">6.4.2  </i>
  <i name="subversion" type="string">20Jul23 (build Jan 24 2024 13:44:02) complex                          parallel </i>
  <i name="platform" type="string">LinuxNV </i>
  <i name="date" type="string">2025 11 16 </i>
  <i name="time" type="string">23:47:19 </i>
 </generator>
 <incar>
  <i type="int" name="ISTART">     0</i>
  <i type="string" name="ALGO">Normal</i>
  <i type="logical" name="ADDGRID"> T  </i>
  <i type="int" name="ISPIN">     2</i>
  <i type="int" name="IMIX">     4</i>
  <i name="AMIX">      0.20000000</i>
  <i name="BMIX">      0.00010000</i>
  <i name="AMIX_MAG">      0.80000000</i>
  <i name="BMIX_MAG">      0.00010000</i>
  <i type="int" name="ICHARG">     2</i>
  <i type="int" name="NELM">   200</i>
  <i type="int" name="IBRION">     3</i>
  <i name="EDIFF">      0.00000100</i>
  <i name="EDIFFG">     -0.03000000</i>
  <i type="int" name="NSW">   300</i>
  <i type="int" name="ISIF">     2</i>
  <i type="int" name="ISYM">     0</i>
  <i name="ENCUT">    520.00000000</i>
  <i name="POTIM">      0.10000000</i>
  <v name="MAGMOM">      0.60000000      0.60000000      0.60000000      0.60000000      0.60000000      0.60000000      0.60000000      0.60000000      0.60000000      0.60000000      0.60000000      0.60000000      0.60000000      0.60000000      0.60000000      0.60000000      0.60000000      0.60000000      0.60000000      0.60000000
      0.60000000      0.60000000      0.60000000      0.60000000      0.60000000      0.60000000      0.60000000      0.60000000      0.60000000      0.60000000      0.60000000      0.60000000      0.60000000      0.60000000      0.60000000      0.60000000      0.60000000      0.60000000      0.60000000      0.60000000
      0.60000000      0.60000000      0.60000000      0.60000000      0.60000000      0.60000000      0.60000000      0.60000000      0.60000000      0.60000000      0.60000000      0.60000000      0.60000000      0.60000000      0.60000000      0.60000000      0.60000000      0.60000000      0.60000000      0.60000000
      0.60000000      0.60000000      0.60000000      0.60000000      0.60000000      0.60000000      0.60000000      0.60000000      0.60000000      0.60000000      0.60000000      0.60000000      0.60000000      0.60000000      0.60000000      0.60000000      0.60000000      0.60000000      0.60000000      0.60000000
      0.60000000      0.60000000      0.60000000      0.60000000      0.60000000      0.60000000      0.60000000      0.60000000      0.60000000      0.60000000      0.60000000      0.60000000      0.60000000</v>
  <i type="string" name="LREAL">Auto</i>
  <i type="int" name="ISMEAR">     0</i>
  <i name="SIGMA">      0.05000000</i>
  <i type="logical" name="LWAVE"> F  </i>
  <i type="logical" name="LCHARG"> F  </i>
  <i type="logical" name="LASPH"> T  </i>
  <i type="int" name="IVDW">    12</i>
  <i name="SPRING">     -5.00000000</i>
 </incar>
 <primitive_cell>
  <structure name="primitive_cell" >
   <crystal>
    <varray name="basis" >
     <v>      17.27103806       0.00000000       0.00000000 </v>
     <v>      -8.63551903      14.95715771       0.00000000 </v>
     <v>       0.00000000       0.00000000      15.00000000 </v>
    </varray>
    <i name="volume">   3874.88459904 </i>
    <varray name="rec_basis" >
     <v>       0.05790040       0.03342881      -0.00000000 </v>
     <v>       0.00000000       0.06685762       0.00000000 </v>
     <v>       0.00000000      -0.00000000       0.06666667 </v>
    </varray>
   </crystal>
   <varray name="positions" >
    <v>       0.99902125       0.00162221       0.49641450 </v>
    <v>       0.99924877       0.14462852       0.49666646 </v>
    <v>       0.00004725       0.28826915       0.49701295 </v>
    <v>       0.00049062       0.43134231       0.49664068 </v>
    <v>       0.00087700       0.57411457       0.49615774 </v>
    <v>       0.00124408       0.71703294       0.49597038 </v>
    <v>       0.99986868       0.85964156       0.49627532 </v>
    <v>       0.14331190       0.00329325       0.49700297 </v>
    <v>       0.14302514       0.14563367       0.49689494 </v>
    <v>       0.14233490       0.28729106       0.49697519 </v>
    <v>       0.14390117       0.43144318       0.49659825 </v>
    <v>       0.14485098       0.57413870       0.49609389 </v>
    <v>       0.14427226       0.71704406       0.49615677 </v>
    <v>       0.14348080       0.86020756       0.49668614 </v>
    <v>       0.28629111       0.00349708       0.49658117 </v>
    <v>       0.28698314       0.14724765       0.49682871 </v>
    <v>       0.28800493       0.29279192       0.49641801 </v>
    <v>       0.28506009       0.42637895       0.49583845 </v>
    <v>       0.29027882       0.57439173       0.49503946 </v>
    <v>       0.28763949       0.71772350       0.49540709 </v>
    <v>       0.28647977       0.86059308       0.49599008 </v>
    <v>       0.42925393       0.00383580       0.49575270 </v>
    <v>       0.42931983       0.14767273       0.49577726 </v>
    <v>       0.42948072       0.86021767       0.49519460 </v>
    <v>       0.57147506       0.00321348       0.49559799 </v>
    <v>       0.57152101       0.14670024       0.49537280 </v>
    <v>       0.57378993       0.29349100       0.49425229 </v>
    <v>       0.57346969       0.85880666       0.49456189 </v>
    <v>       0.71366359       0.00232028       0.49556853 </v>
    <v>       0.71426742       0.14601661       0.49606973 </v>
    <v>       0.71398488       0.28919653       0.49511204 </v>
    <v>       0.70993814       0.42918527       0.49266672 </v>
    <v>       0.70861206       0.85770961       0.49341063 </v>
    <v>       0.85582077       0.00135588       0.49554845 </v>
    <v>       0.85670850       0.14521449       0.49650359 </v>
    <v>       0.85697899       0.28846916       0.49635578 </v>
    <v>       0.85699867       0.43143053       0.49549551 </v>
    <v>       0.85720307       0.57389095       0.49444453 </v>
    <v>       0.85823026       0.71632620       0.49353420 </v>
    <v>       0.85458193       0.85743722       0.49447997 </v>
    <v>       0.04728220       0.09729810       0.49671700 </v>
    <v>       0.04683397       0.23977978       0.49705244 </v>
    <v>       0.04811123       0.38377743       0.49690756 </v>
    <v>       0.04903537       0.52667183       0.49638801 </v>
    <v>       0.04880760       0.66947687       0.49619488 </v>
    <v>       0.04800522       0.81228920       0.49642201 </v>
    <v>       0.04756630       0.95485889       0.49669077 </v>
    <v>       0.19117270       0.09855547       0.49703160 </v>
    <v>       0.19118422       0.24100434       0.49682582 </v>
    <v>       0.18969885       0.38214520       0.49663008 </v>
    <v>       0.19329059       0.52692995       0.49600454 </v>
    <v>       0.19218291       0.66968412       0.49588340 </v>
    <v>       0.19137928       0.81264514       0.49632583 </v>
    <v>       0.19111462       0.95560819       0.49687699 </v>
    <v>       0.33415022       0.09935166       0.49650365 </v>
    <v>       0.33835492       0.24347193       0.49618579 </v>
    <v>       0.33933027       0.67329215       0.49488036 </v>
    <v>       0.33440102       0.81281881       0.49538635 </v>
    <v>       0.33383465       0.95587713       0.49610616 </v>
    <v>       0.47660354       0.09926926       0.49559036 </v>
    <v>       0.47435074       0.24384215       0.49508370 </v>
    <v>       0.47456380       0.80941647       0.49476159 </v>
    <v>       0.47662452       0.95583251       0.49547988 </v>
    <v>       0.61886309       0.09858261       0.49575985 </v>
    <v>       0.61882576       0.24238632       0.49485582 </v>
    <v>       0.61857409       0.95467166       0.49528296 </v>
    <v>       0.76159311       0.09804270       0.49620598 </v>
    <v>       0.76179937       0.24116984       0.49590600 </v>
    <v>       0.76116976       0.38426369       0.49448910 </v>
    <v>       0.76051806       0.52888237       0.49113543 </v>
    <v>       0.76292266       0.66493119       0.48906773 </v>
    <v>       0.75761043       0.80782579       0.49204665 </v>
    <v>       0.76033192       0.95388690       0.49496594 </v>
    <v>       0.90376816       0.09669684       0.49633451 </v>
    <v>       0.90457196       0.24068247       0.49674985 </v>
    <v>       0.90476271       0.38396223       0.49625994 </v>
    <v>       0.90522016       0.52664892       0.49566965 </v>
    <v>       0.90574333       0.66898421       0.49475078 </v>
    <v>       0.90409948       0.81144097       0.49492796 </v>
    <v>       0.90313000       0.95315193       0.49564932 </v>
    <v>       0.71544668       0.71371860       0.48764924 </v>
    <v>       0.33205356       0.52230639       0.49461444 </v>
    <v>       0.62703170       0.66496592       0.48177881 </v>
    <v>       0.42129375       0.56191601       0.49305137 </v>
    <v>       0.42841273       0.28822970       0.49494325 </v>
    <v>       0.42921904       0.71926811       0.49450884 </v>
    <v>       0.71684362       0.57426403       0.48607043 </v>
    <v>       0.33190003       0.38228264       0.49601734 </v>
    <v>       0.61981601       0.38383108       0.49306672 </v>
    <v>       0.61869589       0.81390380       0.49350722 </v>
    <v>       0.47976742       0.48291635       0.55168353 </v>
    <v>       0.54032845       0.44261052       0.53564079 </v>
    <v>       0.53635392       0.48867720       0.56977594 </v>
   </varray>
  </structure>
  <varray name="primitive_index" >
   <v type="int" >        1 </v>
   <v type="int" >        2 </v>
   <v type="int" >        3 </v>
   <v type="int" >        4 </v>
   <v type="int" >        5 </v>
   <v type="int" >        6 </v>
   <v type="int" >        7 </v>
   <v type="int" >        8 </v>
   <v type="int" >        9 </v>
   <v type="int" >       10 </v>
   <v type="int" >       11 </v>
   <v type="int" >       12 </v>
   <v type="int" >       13 </v>
   <v type="int" >       14 </v>
   <v type="int" >       15 </v>
   <v type="int" >       16 </v>
   <v type="int" >       17 </v>
   <v type="int" >       18 </v>
   <v type="int" >       19 </v>
   <v type="int" >       20 </v>
   <v type="int" >       21 </v>
   <v type="int" >       22 </v>
   <v type="int" >       23 </v>
   <v type="int" >       24 </v>
   <v type="int" >       25 </v>
   <v type="int" >       26 </v>
   <v type="int" >       27 </v>
   <v type="int" >       28 </v>
   <v type="int" >       29 </v>
   <v type="int" >       30 </v>
   <v type="int" >       31 </v>
   <v type="int" >       32 </v>
   <v type="int" >       33 </v>
   <v type="int" >       34 </v>
   <v type="int" >       35 </v>
   <v type="int" >       36 </v>
   <v type="int" >       37 </v>
   <v type="int" >       38 </v>
   <v type="int" >       39 </v>
   <v type="int" >       40 </v>
   <v type="int" >       41 </v>
   <v type="int" >       42 </v>
   <v type="int" >       43 </v>
   <v type="int" >       44 </v>
   <v type="int" >       45 </v>
   <v type="int" >       46 </v>
   <v type="int" >       47 </v>
   <v type="int" >       48 </v>
   <v type="int" >       49 </v>
   <v type="int" >       50 </v>
   <v type="int" >       51 </v>
   <v type="int" >       52 </v>
   <v type="int" >       53 </v>
   <v type="int" >       54 </v>
   <v type="int" >       55 </v>
   <v type="int" >       56 </v>
   <v type="int" >       57 </v>
   <v type="int" >       58 </v>
   <v type="int" >       59 </v>
   <v type="int" >       60 </v>
   <v type="int" >       61 </v>
   <v type="int" >       62 </v>
   <v type="int" >       63 </v>
   <v type="int" >       64 </v>
   <v type="int" >       65 </v>
   <v type="int" >       66 </v>
   <v type="int" >       67 </v>
   <v type="int" >       68 </v>
   <v type="int" >       69 </v>
   <v type="int" >       70 </v>
   <v type="int" >       71 </v>
   <v type="int" >       72 </v>
   <v type="int" >       73 </v>
   <v type="int" >       74 </v>
   <v type="int" >       75 </v>
   <v type="int" >       76 </v>
   <v type="int" >       77 </v>
   <v type="int" >       78 </v>
   <v type="int" >       79 </v>
   <v type="int" >       80 </v>
   <v type="int" >       81 </v>
   <v type="int" >       82 </v>
   <v type="int" >       83 </v>
   <v type="int" >       84 </v>
   <v type="int" >       85 </v>
   <v type="int" >       86 </v>
   <v type="int" >       87 </v>
   <v type="int" >       88 </v>
   <v type="int" >       89 </v>
   <v type="int" >       90 </v>
   <v type="int" >       91 </v>
   <v type="int" >       92 </v>
   <v type="int" >       93 </v>
  </varray>
 </primitive_cell>
 <kpoints>
  <generation param="Gamma">
   <v type="int" name="divisions">       2        2        1 </v>
   <v name="usershift">      0.00000000       0.00000000       0.00000000 </v>
   <v name="genvec1">      0.50000000       0.00000000       0.00000000 </v>
   <v name="genvec2">      0.00000000       0.50000000       0.00000000 </v>
   <v name="genvec3">      0.00000000       0.00000000       1.00000000 </v>
   <v name="shift">      0.00000000       0.00000000       0.00000000 </v>
  </generation>
  <varray name="kpointlist" >
   <v>       0.00000000       0.00000000       0.00000000 </v>
   <v>       0.50000000       0.00000000       0.00000000 </v>
   <v>       0.00000000       0.50000000       0.00000000 </v>
   <v>       0.50000000       0.50000000       0.00000000 </v>
  </varray>
  <varray name="weights" >
   <v>       0.25000000 </v>
   <v>       0.25000000 </v>
   <v>       0.25000000 </v>
   <v>       0.25000000 </v>
  </varray>
 </kpoints>
 <parameters>
  <separator name="general" >
   <i type="string" name="SYSTEM">unknown system</i>
   <i type="logical" name="LCOMPAT"> F  </i>
  </separator>
  <separator name="electronic" >
   <i type="string" name="PREC">normal</i>
   <i name="ENMAX">    520.00000000</i>
   <i name="ENAUG">    644.87300000</i>
   <i name="EDIFF">      0.00000100</i>
   <i type="int" name="IALGO">    38</i>
   <i type="int" name="IWAVPR">    11</i>
   <i type="int" name="NBANDS">   265</i>
   <i type="int" name="NBANDSLOW">    -1</i>
   <i type="int" name="NBANDSHIGH">    -1</i>
   <i name="NELECT">    380.00000000</i>
   <i type="int" name="TURBO">     0</i>
   <i type="int" name="IRESTART">     0</i>
   <i type="int" name="NREBOOT">     0</i>
   <i type="int" name="NMIN">     0</i>
   <i name="EREF">      0.00000000</i>
   <separator name="electronic smearing" >
    <i type="int" name="ISMEAR">     0</i>
    <i name="SIGMA">      0.05000000</i>
    <i name="KSPACING">      0.50000000</i>
    <i type="logical" name="KGAMMA"> T  </i>
    <i type="logical" name="KBLOWUP"> T  </i>
   </separator>
   <separator name="electronic projectors" >
    <i type="logical" name="LREAL"> T  </i>
    <v name="ROPT">     -0.00050000     -0.00050000     -0.00050000     -0.00050000     -0.00050000</v>
    <i type="int" name="LMAXPAW">  -100</i>
    <i type="int" name="LMAXMIX">     2</i>
    <i type="logical" name="NLSPLINE"> F  </i>
   </separator>
   <separator name="electronic startup" >
    <i type="int" name="ISTART">     0</i>
    <i type="int" name="ICHARG">     2</i>
    <i type="int" name="INIWAV">     1</i>
   </separator>
   <separator name="electronic spin" >
    <i type="int" name="ISPIN">     2</i>
    <i type="logical" name="LNONCOLLINEAR"> F  </i>
    <v name="MAGMOM">      0.60000000      0.60000000      0.60000000      0.60000000      0.60000000      0.60000000      0.60000000      0.60000000      0.60000000      0.60000000      0.60000000      0.60000000      0.60000000      0.60000000      0.60000000      0.60000000      0.60000000      0.60000000      0.60000000      0.60000000
      0.60000000      0.60000000      0.60000000      0.60000000      0.60000000      0.60000000      0.60000000      0.60000000      0.60000000      0.60000000      0.60000000      0.60000000      0.60000000      0.60000000      0.60000000      0.60000000      0.60000000      0.60000000      0.60000000      0.60000000
      0.60000000      0.60000000      0.60000000      0.60000000      0.60000000      0.60000000      0.60000000      0.60000000      0.60000000      0.60000000      0.60000000      0.60000000      0.60000000      0.60000000      0.60000000      0.60000000      0.60000000      0.60000000      0.60000000      0.60000000
      0.60000000      0.60000000      0.60000000      0.60000000      0.60000000      0.60000000      0.60000000      0.60000000      0.60000000      0.60000000      0.60000000      0.60000000      0.60000000      0.60000000      0.60000000      0.60000000      0.60000000      0.60000000      0.60000000      0.60000000
      0.60000000      0.60000000      0.60000000      0.60000000      0.60000000      0.60000000      0.60000000      0.60000000      0.60000000      0.60000000      0.60000000      0.60000000      0.60000000</v>
    <i name="NUPDOWN">     -1.00000000</i>
    <i type="logical" name="LSORBIT"> F  </i>
    <v name="SAXIS">      0.00000000      0.00000000      1.00000000</v>
    <i type="logical" name="LSPIRAL"> F  </i>
    <v name="QSPIRAL">      0.00000000      0.00000000      0.00000000</v>
    <i type="logical" name="LZEROZ"> F  </i>
   </separator>
   <separator name="electronic exchange-correlation" >
    <i type="logical" name="LASPH"> T  </i>
    <i type="logical" name="LMETAGGA"> F  </i>
   </separator>
   <separator name="electronic convergence" >
    <i type="int" name="NELM">   200</i>
    <i type="int" name="NELMDL">    -5</i>
    <i type="int" name="NELMIN">     2</i>
    <i name="ENINI">    520.00000000</i>
    <separator name="electronic convergence detail" >
     <i type="logical" name="LDIAG"> T  </i>
     <i type="logical" name="LSUBROT"> F  </i>
     <i name="WEIMIN">      0.00100000</i>
     <i name="EBREAK">      0.00000000</i>
     <i name="DEPER">      0.30000000</i>
     <i type="int" name="NRMM">     4</i>
     <i name="TIME">      0.40000000</i>
    </separator>
   </separator>
   <separator name="electronic mixer" >
    <i name="AMIX">      0.20000000</i>
    <i name="BMIX">      0.00010000</i>
    <i name="AMIN">      0.10000000</i>
    <i name="AMIX_MAG">      0.80000000</i>
    <i name="BMIX_MAG">      0.00010000</i>
    <separator name="electronic mixer details" >
     <i type="int" name="IMIX">     4</i>
     <i type="logical" name="MIXFIRST"> F  </i>
     <i type="int" name="MAXMIX">   -45</i>
     <i name="WC">    100.00000000</i>
     <i type="int" name="INIMIX">     1</i>
     <i type="int" name="MIXPRE">     1</i>
     <i type="int" name="MREMOVE">     5</i>
    </separator>
   </separator>
   <separator name="electronic dipolcorrection" >
    <i type="logical" name="LDIPOL"> F  </i>
    <i type="logical" name="LMONO"> F  </i>
    <i type="int" name="IDIPOL">     0</i>
    <i name="EPSILON">      1.00000000</i>
    <v name="DIPOL">   -100.00000000   -100.00000000   -100.00000000</v>
    <i name="EFIELD">      0.00000000</i>
   </separator>
  </separator>
  <separator name="grids" >
   <i type="int" name="NGX">    96</i>
   <i type="int" name="NGY">    96</i>
   <i type="int" name="NGZ">    84</i>
   <i type="int" name="NGXF">   192</i>
   <i type="int" name="NGYF">   192</i>
   <i type="int" name="NGZF">   168</i>
   <i type="logical" name="ADDGRID"> T  </i>
  </separator>
  <separator name="ionic" >
   <i type="int" name="NSW">   300</i>
   <i type="int" name="IBRION">     3</i>
   <i type="int" name="MDALGO">     0</i>
   <i type="int" name="ISIF">     2</i>
   <i name="PSTRESS">      0.00000000</i>
   <i name="EDIFFG">     -0.03000000</i>
   <i type="int" name="NFREE">     0</i>
   <i name="POTIM">      0.10000000</i>
   <i name="SMASS">     -3.00000000</i>
   <i name="SCALEE">      1.00000000</i>
  </separator>
  <separator name="ionic md" >
   <i name="TEBEG">      0.00010000</i>
   <i name="TEEND">      0.00010000</i>
   <i type="int" name="NBLOCK">     1</i>
   <i type="int" name="KBLOCK">   300</i>
   <i type="int" name="NPACO">   256</i>
   <i name="APACO">     10.00000000</i>
  </separator>
  <separator name="symmetry" >
   <i type="int" name="ISYM">     0</i>
   <i name="SYMPREC">      0.00001000</i>
  </separator>
  <separator name="dos" >
   <i type="int" name="LORBIT">     0</i>
   <v name="RWIGS">     -1.00000000     -1.00000000     -1.00000000     -1.00000000     -1.00000000</v>
   <i type="int" name="NEDOS">   301</i>
   <i name="EMIN">     10.00000000</i>
   <i name="EMAX">    -10.00000000</i>
   <i name="EFERMI">      0.00000000</i>
  </separator>
  <separator name="writing" >
   <i type="int" name="NWRITE">     2</i>
   <i type="logical" name="LWAVE"> F  </i>
   <i type="logical" name="LDOWNSAMPLE"> F  </i>
   <i type="logical" name="LCHARG"> F  </i>
   <i type="logical" name="LPARD"> F  </i>
   <i type="logical" name="LVTOT"> F  </i>
   <i type="logical" name="LVHAR"> F  </i>
   <i type="logical" name="LELF"> F  </i>
   <i type="logical" name="LOPTICS"> F  </i>
   <v name="STM">      0.00000000      0.00000000      0.00000000      0.00000000      0.00000000      0.00000000      0.00000000</v>
  </separator>
  <separator name="performance" >
   <i type="int" name="NPAR">     5</i>
   <i type="int" name="NSIM">     4</i>
   <i type="int" name="NBLK">    -1</i>
   <i type="logical" name="LPLANE"> T  </i>
   <i type="logical" name="LSCALAPACK"> T  </i>
   <i type="logical" name="LSCAAWARE"> F  </i>
   <i type="logical" name="LSCALU"> F  </i>
   <i type="logical" name="LASYNC"> F  </i>
   <i type="logical" name="LORBITALREAL"> F  </i>
  </separator>
  <separator name="miscellaneous" >
   <i type="int" name="IDIOT">     3</i>
   <i type="int" name="PHON_NSTRUCT">    -1</i>
   <i type="logical" name="LMUSIC"> F  </i>
   <v name="POMASS">     12.01100000     18.99800000     14.00100000      1.00000000     16.00000000</v>
   <v name="DARWINR">      0.00000000      0.00000000      0.00000000      0.00000000      0.00000000</v>
   <v name="DARWINV">      1.00000000      1.00000000      1.00000000      1.00000000      1.00000000</v>
   <i type="logical" name="LCORR"> T  </i>
  </separator>
  <i type="logical" name="GGA_COMPAT"> T  </i>
  <i type="logical" name="LBERRY"> F  </i>
  <i type="int" name="ICORELEVEL">     0</i>
  <i type="logical" name="LDAU"> F  </i>
  <i type="int" name="I_CONSTRAINED_M">     0</i>
  <separator name="electronic exchange-correlation" >
   <i type="string" name="GGA">--</i>
   <i type="int" name="VOSKOWN">     0</i>
   <i type="logical" name="LHFCALC"> F  </i>
   <i type="string" name="PRECFOCK"></i>
   <i type="logical" name="LSYMGRAD"> F  </i>
   <i type="logical" name="LHFONE"> F  </i>
   <i type="logical" name="LRHFCALC"> F  </i>
   <i type="logical" name="LTHOMAS"> F  </i>
   <i type="logical" name="LMODELHF"> F  </i>
   <i type="logical" name="LFOCKACE"> F  </i>
   <i name="ENCUT4O">     -1.00000000</i>
   <i type="int" name="EXXOEP">     0</i>
   <i type="int" name="FOURORBIT">     0</i>
   <i name="AEXX">      0.00000000</i>
   <i name="HFALPHA">      0.00000000</i>
   <i name="MCALPHA">      0.00000000</i>
   <i name="ALDAX">      1.00000000</i>
   <i name="AGGAX">      1.00000000</i>
   <i name="ALDAC">      1.00000000</i>
   <i name="AGGAC">      1.00000000</i>
   <i type="int" name="NKREDX">     1</i>
   <i type="int" name="NKREDY">     1</i>
   <i type="int" name="NKREDZ">     1</i>
   <i type="logical" name="SHIFTRED"> F  </i>
   <i type="logical" name="ODDONLY"> F  </i>
   <i type="logical" name="EVENONLY"> F  </i>
   <i type="int" name="LMAXFOCK">     0</i>
   <i type="int" name="NMAXFOCKAE">     0</i>
   <i type="logical" name="LFOCKAEDFT"> F  </i>
   <i name="HFSCREEN">      0.00000000</i>
   <i name="HFSCREENC">      0.00000000</i>
   <i type="int" name="NBANDSGWLOW">     0</i>
  </separator>
  <separator name="vdW DFT" >
   <i type="logical" name="LUSE_VDW"> F  </i>
   <i type="int" name="IVDW_NL">     1</i>
   <i type="logical" name="LSPIN_VDW"> F  </i>
   <i name="Zab_VDW">     -0.84910000</i>
   <i name="PARAM1">      0.12340000</i>
   <i name="PARAM2">      1.00000000</i>
   <i name="PARAM3">      0.00000000</i>
  </separator>
  <separator name="model GW" >
   <i type="int" name="MODEL_GW">     0</i>
   <i name="MODEL_EPS0">     24.99925548</i>
   <i name="MODEL_ALPHA">      1.00000000</i>
  </separator>
  <separator name="linear response parameters" >
   <i type="logical" name="LEPSILON"> F  </i>
   <i type="logical" name="LRPA"> F  </i>
   <i type="logical" name="LNABLA"> F  </i>
   <i type="logical" name="LVEL"> F  </i>
   <i name="CSHIFT">      0.10000000</i>
   <i name="OMEGAMAX">     -1.00000000</i>
   <i name="DEG_THRESHOLD">      0.00200000</i>
   <i name="RTIME">     -0.10000000</i>
   <i name="WPLASMAI">      0.00000000</i>
   <v name="DFIELD">      0.00000000      0.00000000      0.00000000</v>
   <v name="WPLASMA">      0.00000000      0.00000000      0.00000000      0.00000000      0.00000000      0.00000000      0.00000000      0.00000000      0.00000000</v>
  </separator>
  <separator name="orbital magnetization" >
   <i type="logical" name="NUCIND"> F  </i>
   <v name="MAGPOS">      0.00000000      0.00000000      0.00000000</v>
   <i type="logical" name="LNICSALL"> T  </i>
   <i type="logical" name="ORBITALMAG"> F  </i>
   <i type="logical" name="LMAGBLOCH"> F  </i>
   <i type="logical" name="LCHIMAG"> F  </i>
   <i type="logical" name="LGAUGE"> T  </i>
   <i type="int" name="MAGATOM">     0</i>
   <v name="MAGDIPOL">      0.00000000      0.00000000      0.00000000</v>
   <v name="AVECCONST">      0.00000000      0.00000000      0.00000000</v>
  </separator>
  <separator name="response functions" >
   <i type="logical" name="LALL_IN_ONE"> F  </i>
   <i type="int" name="IALL_IN_ONE">    -1</i>
   <i type="int" name="NBANDS_WAVE">    -1</i>
   <i type="logical" name="LFINITE_TEMPERATURE"> F  </i>
   <i type="logical" name="LADDER"> F  </i>
   <i type="logical" name="LRPAFORCE"> F  </i>
   <i type="logical" name="LFXC"> F  </i>
   <i type="logical" name="LHARTREE"> T  </i>
   <i type="int" name="IBSE">     0</i>
   <v type="int" name="KPOINT">    -1     0     0     0</v>
   <i type="logical" name="LTCTC"> F  </i>
   <i type="logical" name="LTCTE"> F  </i>
   <i type="logical" name="LTETE"> F  </i>
   <i type="logical" name="LTRIPLET"> F  </i>
   <i type="logical" name="LFXCEPS"> F  </i>
   <i type="logical" name="LFXHEG"> F  </i>
   <i type="int" name="NATURALO">     2</i>
   <i type="logical" name="LHOLEGF"> F  </i>
   <i type="logical" name="L2ORDER"> F  </i>
   <i type="logical" name="LDMP1"> F  </i>
   <i type="logical" name="LMP2LT"> F  </i>
   <i type="logical" name="LSMP2LT"> F  </i>
   <i type="logical" name="LGWLF"> F  </i>
   <i name="ENCUTGW">     -1.60000002</i>
   <i name="ENCUTGWSOFT">     -1.60000002</i>
   <i name="ENCUTLF">     -1.00000000</i>
   <i type="logical" name="LESF_SPLINES"> F  </i>
   <i type="int" name="LMAXMP2">    -1</i>
   <i name="SCISSOR">      0.00000000</i>
   <i type="int" name="NOMEGA">     0</i>
   <i type="int" name="NOMEGAR">     0</i>
   <i type="int" name="NBANDSGW">    -1</i>
   <i type="int" name="NBANDSO">    -1</i>
   <i type="int" name="NBANDSV">    -1</i>
   <i type="int" name="NELMGW">     1</i>
   <i type="int" name="NELMHF">     1</i>
   <i type="int" name="DIM">     3</i>
   <i type="int" name="IESPILON">     4</i>
   <i type="int" name="ANTIRES">     0</i>
   <i name="OMEGAMAX">    -30.00000000</i>
   <i name="OMEGAMIN">    -30.00000000</i>
   <i name="OMEGATL">   -200.00000000</i>
   <i type="int" name="OMEGAGRID">     0</i>
   <i name="CSHIFT">     -0.10000000</i>
   <i type="logical" name="LSELFENERGY"> F  </i>
   <i type="logical" name="LSPECTRAL"> F  </i>
   <i type="logical" name="LSPECTRALGW"> F  </i>
   <i type="logical" name="LSINGLES"> F  </i>
   <i type="logical" name="LFERMIGW"> F  </i>
   <i type="logical" name="ODDONLYGW"> F  </i>
   <i type="logical" name="EVENONLYGW"> F  </i>
   <i type="int" name="NKREDLFX">     1</i>
   <i type="int" name="NKREDLFY">     1</i>
   <i type="int" name="NKREDLFZ">     1</i>
   <i type="int" name="MAXMEM">  2800</i>
   <i type="int" name="TELESCOPE">     0</i>
   <i type="int" name="NTAUPAR">    -1</i>
   <i type="int" name="NOMEGAPAR">    -1</i>
   <i name="DAMP_NEWTON">      0.80000001</i>
   <i name="LAMBDA">      1.00000000</i>
  </separator>
  <separator name="External order field" >
   <i name="OFIELD_KAPPA">      0.00000000</i>
   <v name="OFIELD_K">      0.00000000      0.00000000      0.00000000</v>
   <i name="OFIELD_Q6_NEAR">      0.00000000</i>
   <i name="OFIELD_Q6_FAR">      0.00000000</i>
   <i name="OFIELD_A">      0.00000000</i>
  </separator>
  <separator name="optional k-points parameters" >
   <i type="int" name="KPOINTS_OPT_MODE">     1</i>
   <i type="logical" name="LKPOINTS_OPT"> F  </i>
  </separator>
 </parameters>
 <atominfo>
  <atoms>      93 </atoms>
  <types>       5 </types>
  <array name="atoms" >
   <dimension dim="1">ion</dimension>
   <field type="string">element</field>
   <field type="int">atomtype</field>
   <set>
    <rc><c>C </c><c>   1</c></rc>
    <rc><c>C </c><c>   1</c></rc>
    <rc><c>C </c><c>   1</c></rc>
    <rc><c>C </c><c>   1</c></rc>
    <rc><c>C </c><c>   1</c></rc>
    <rc><c>C </c><c>   1</c></rc>
    <rc><c>C </c><c>   1</c></rc>
    <rc><c>C </c><c>   1</c></rc>
    <rc><c>C </c><c>   1</c></rc>
    <rc><c>C </c><c>   1</c></rc>
    <rc><c>C </c><c>   1</c></rc>
    <rc><c>C </c><c>   1</c></rc>
    <rc><c>C </c><c>   1</c></rc>
    <rc><c>C </c><c>   1</c></rc>
    <rc><c>C </c><c>   1</c></rc>
    <rc><c>C </c><c>   1</c></rc>
    <rc><c>C </c><c>   1</c></rc>
    <rc><c>C </c><c>   1</c></rc>
    <rc><c>C </c><c>   1</c></rc>
    <rc><c>C </c><c>   1</c></rc>
    <rc><c>C </c><c>   1</c></rc>
    <rc><c>C </c><c>   1</c></rc>
    <rc><c>C </c><c>   1</c></rc>
    <rc><c>C </c><c>   1</c></rc>
    <rc><c>C </c><c>   1</c></rc>
    <rc><c>C </c><c>   1</c></rc>
    <rc><c>C </c><c>   1</c></rc>
    <rc><c>C </c><c>   1</c></rc>
    <rc><c>C </c><c>   1</c></rc>
    <rc><c>C </c><c>   1</c></rc>
    <rc><c>C </c><c>   1</c></rc>
    <rc><c>C </c><c>   1</c></rc>
    <rc><c>C </c><c>   1</c></rc>
    <rc><c>C </c><c>   1</c></rc>
    <rc><c>C </c><c>   1</c></rc>
    <rc><c>C </c><c>   1</c></rc>
    <rc><c>C </c><c>   1</c></rc>
    <rc><c>C </c><c>   1</c></rc>
    <rc><c>C </c><c>   1</c></rc>
    <rc><c>C </c><c>   1</c></rc>
    <rc><c>C </c><c>   1</c></rc>
    <rc><c>C </c><c>   1</c></rc>
    <rc><c>C </c><c>   1</c></rc>
    <rc><c>C </c><c>   1</c></rc>
    <rc><c>C </c><c>   1</c></rc>
    <rc><c>C </c><c>   1</c></rc>
    <rc><c>C </c><c>   1</c></rc>
    <rc><c>C </c><c>   1</c></rc>
    <rc><c>C </c><c>   1</c></rc>
    <rc><c>C </c><c>   1</c></rc>
    <rc><c>C </c><c>   1</c></rc>
    <rc><c>C </c><c>   1</c></rc>
    <rc><c>C </c><c>   1</c></rc>
    <rc><c>C </c><c>   1</c></rc>
    <rc><c>C </c><c>   1</c></rc>
    <rc><c>C </c><c>   1</c></rc>
    <rc><c>C </c><c>   1</c></rc>
    <rc><c>C </c><c>   1</c></rc>
    <rc><c>C </c><c>   1</c></rc>
    <rc><c>C </c><c>   1</c></rc>
    <rc><c>C </c><c>   1</c></rc>
    <rc><c>C </c><c>   1</c></rc>
    <rc><c>C </c><c>   1</c></rc>
    <rc><c>C </c><c>   1</c></rc>
    <rc><c>C </c><c>   1</c></rc>
    <rc><c>C </c><c>   1</c></rc>
    <rc><c>C </c><c>   1</c></rc>
    <rc><c>C </c><c>   1</c></rc>
    <rc><c>C </c><c>   1</c></rc>
    <rc><c>C </c><c>   1</c></rc>
    <rc><c>C </c><c>   1</c></rc>
    <rc><c>C </c><c>   1</c></rc>
    <rc><c>C </c><c>   1</c></rc>
    <rc><c>C </c><c>   1</c></rc>
    <rc><c>C </c><c>   1</c></rc>
    <rc><c>C </c><c>   1</c></rc>
    <rc><c>C </c><c>   1</c></rc>
    <rc><c>C </c><c>   1</c></rc>
    <rc><c>C </c><c>   1</c></rc>
    <rc><c>C </c><c>   1</c></rc>
    <rc><c>C </c><c>   1</c></rc>
    <rc><c>C </c><c>   1</c></rc>
    <rc><c>F </c><c>   2</c></rc>
    <rc><c>F </c><c>   2</c></rc>
    <rc><c>N </c><c>   3</c></rc>
    <rc><c>N </c><c>   3</c></rc>
    <rc><c>N </c><c>   3</c></rc>
    <rc><c>N </c><c>   3</c></rc>
    <rc><c>N </c><c>   3</c></rc>
    <rc><c>N </c><c>   3</c></rc>
    <rc><c>H </c><c>   4</c></rc>
    <rc><c>H </c><c>   4</c></rc>
    <rc><c>O </c><c>   5</c></rc>
   </set>
  </array>
  <array name="atomtypes" >
   <dimension dim="1">type</dimension>
   <field type="int">atomspertype</field>
   <field type="string">element</field>
   <field>mass</field>
   <field>valence</field>
   <field type="string">pseudopotential</field>
   <set>
    <rc><c>  82</c><c>C </c><c>     12.01100000</c><c>      4.00000000</c><c>  PAW_PBE C 08Apr2002                   </c></rc>
    <rc><c>   2</c><c>F </c><c>     18.99800000</c><c>      7.00000000</c><c>  PAW_PBE F 08Apr2002                   </c></rc>
    <rc><c>   6</c><c>N </c><c>     14.00100000</c><c>      5.00000000</c><c>  PAW_PBE N 08Apr2002                   </c></rc>
    <rc><c>   2</c><c>H </c><c>      1.00000000</c><c>      1.00000000</c><c>  PAW_PBE H 15Jun2001                   </c></rc>
    <rc><c>   1</c><c>O </c><c>     16.00000000</c><c>      6.00000000</c><c>  PAW_PBE O 08Apr2002                   </c></rc>
   </set>
  </array>
 </atominfo>
 <structure name="initialpos" >
  <crystal>
   <varray name="basis" >
    <v>      17.27103806       0.00000000       0.00000000 </v>
    <v>      -8.63551903      14.95715771       0.00000000 </v>
    <v>       0.00000000       0.00000000      15.00000000 </v>
   </varray>
   <i name="volume">   3874.88459904 </i>
   <varray name="rec_basis" >
    <v>       0.05790040       0.03342881      -0.00000000 </v>
    <v>       0.00000000       0.06685762       0.00000000 </v>
    <v>       0.00000000      -0.00000000       0.06666667 </v>
   </varray>
  </crystal>
  <varray name="positions" >
   <v>       0.99902125       0.00162221       0.49641450 </v>
   <v>       0.99924877       0.14462852       0.49666646 </v>
   <v>       0.00004725       0.28826915       0.49701295 </v>
   <v>       0.00049062       0.43134231       0.49664068 </v>
   <v>       0.00087700       0.57411457       0.49615774 </v>
   <v>       0.00124408       0.71703294       0.49597038 </v>
   <v>       0.99986868       0.85964156       0.49627532 </v>
   <v>       0.14331190       0.00329325       0.49700297 </v>
   <v>       0.14302514       0.14563367       0.49689494 </v>
   <v>       0.14233490       0.28729106       0.49697519 </v>
   <v>       0.14390117       0.43144318       0.49659825 </v>
   <v>       0.14485098       0.57413870       0.49609389 </v>
   <v>       0.14427226       0.71704406       0.49615677 </v>
   <v>       0.14348080       0.86020756       0.49668614 </v>
   <v>       0.28629111       0.00349708       0.49658117 </v>
   <v>       0.28698314       0.14724765       0.49682871 </v>
   <v>       0.28800493       0.29279192       0.49641801 </v>
   <v>       0.28506009       0.42637895       0.49583845 </v>
   <v>       0.29027882       0.57439173       0.49503946 </v>
   <v>       0.28763949       0.71772350       0.49540709 </v>
   <v>       0.28647977       0.86059308       0.49599008 </v>
   <v>       0.42925393       0.00383580       0.49575270 </v>
   <v>       0.42931983       0.14767273       0.49577726 </v>
   <v>       0.42948072       0.86021767       0.49519460 </v>
   <v>       0.57147506       0.00321348       0.49559799 </v>
   <v>       0.57152101       0.14670024       0.49537280 </v>
   <v>       0.57378993       0.29349100       0.49425229 </v>
   <v>       0.57346969       0.85880666       0.49456189 </v>
   <v>       0.71366359       0.00232028       0.49556853 </v>
   <v>       0.71426742       0.14601661       0.49606973 </v>
   <v>       0.71398488       0.28919653       0.49511204 </v>
   <v>       0.70993814       0.42918527       0.49266672 </v>
   <v>       0.70861206       0.85770961       0.49341063 </v>
   <v>       0.85582077       0.00135588       0.49554845 </v>
   <v>       0.85670850       0.14521449       0.49650359 </v>
   <v>       0.85697899       0.28846916       0.49635578 </v>
   <v>       0.85699867       0.43143053       0.49549551 </v>
   <v>       0.85720307       0.57389095       0.49444453 </v>
   <v>       0.85823026       0.71632620       0.49353420 </v>
   <v>       0.85458193       0.85743722       0.49447997 </v>
   <v>       0.04728220       0.09729810       0.49671700 </v>
   <v>       0.04683397       0.23977978       0.49705244 </v>
   <v>       0.04811123       0.38377743       0.49690756 </v>
   <v>       0.04903537       0.52667183       0.49638801 </v>
   <v>       0.04880760       0.66947687       0.49619488 </v>
   <v>       0.04800522       0.81228920       0.49642201 </v>
   <v>       0.04756630       0.95485889       0.49669077 </v>
   <v>       0.19117270       0.09855547       0.49703160 </v>
   <v>       0.19118422       0.24100434       0.49682582 </v>
   <v>       0.18969885       0.38214520       0.49663008 </v>
   <v>       0.19329059       0.52692995       0.49600454 </v>
   <v>       0.19218291       0.66968412       0.49588340 </v>
   <v>       0.19137928       0.81264514       0.49632583 </v>
   <v>       0.19111462       0.95560819       0.49687699 </v>
   <v>       0.33415022       0.09935166       0.49650365 </v>
   <v>       0.33835492       0.24347193       0.49618579 </v>
   <v>       0.33933027       0.67329215       0.49488036 </v>
   <v>       0.33440102       0.81281881       0.49538635 </v>
   <v>       0.33383465       0.95587713       0.49610616 </v>
   <v>       0.47660354       0.09926926       0.49559036 </v>
   <v>       0.47435074       0.24384215       0.49508370 </v>
   <v>       0.47456380       0.80941647       0.49476159 </v>
   <v>       0.47662452       0.95583251       0.49547988 </v>
   <v>       0.61886309       0.09858261       0.49575985 </v>
   <v>       0.61882576       0.24238632       0.49485582 </v>
   <v>       0.61857409       0.95467166       0.49528296 </v>
   <v>       0.76159311       0.09804270       0.49620598 </v>
   <v>       0.76179937       0.24116984       0.49590600 </v>
   <v>       0.76116976       0.38426369       0.49448910 </v>
   <v>       0.76051806       0.52888237       0.49113543 </v>
   <v>       0.76292266       0.66493119       0.48906773 </v>
   <v>       0.75761043       0.80782579       0.49204665 </v>
   <v>       0.76033192       0.95388690       0.49496594 </v>
   <v>       0.90376816       0.09669684       0.49633451 </v>
   <v>       0.90457196       0.24068247       0.49674985 </v>
   <v>       0.90476271       0.38396223       0.49625994 </v>
   <v>       0.90522016       0.52664892       0.49566965 </v>
   <v>       0.90574333       0.66898421       0.49475078 </v>
   <v>       0.90409948       0.81144097       0.49492796 </v>
   <v>       0.90313000       0.95315193       0.49564932 </v>
   <v>       0.71544668       0.71371860       0.48764924 </v>
   <v>       0.33205356       0.52230639       0.49461444 </v>
   <v>       0.62703170       0.66496592       0.48177881 </v>
   <v>       0.42129375       0.56191601       0.49305137 </v>
   <v>       0.42841273       0.28822970       0.49494325 </v>
   <v>       0.42921904       0.71926811       0.49450884 </v>
   <v>       0.71684362       0.57426403       0.48607043 </v>
   <v>       0.33190003       0.38228264       0.49601734 </v>
   <v>       0.61981601       0.38383108       0.49306672 </v>
   <v>       0.61869589       0.81390380       0.49350722 </v>
   <v>       0.47976742       0.48291635       0.55168353 </v>
   <v>       0.54032845       0.44261052       0.53564079 </v>
   <v>       0.53635392       0.48867720       0.56977594 </v>
  </varray>
  <varray name="selective"  type="logical" >
   <v type="logical" >  T  T  T </v>
   <v type="logical" >  T  T  T </v>
   <v type="logical" >  T  T  T </v>
   <v type="logical" >  T  T  T </v>
   <v type="logical" >  T  T  T </v>
   <v type="logical" >  T  T  T </v>
   <v type="logical" >  T  T  T </v>
   <v type="logical" >  T  T  T </v>
   <v type="logical" >  T  T  T </v>
   <v type="logical" >  T  T  T </v>
   <v type="logical" >  T  T  T </v>
   <v type="logical" >  T  T  T </v>
   <v type="logical" >  T  T  T </v>
   <v type="logical" >  T  T  T </v>
   <v type="logical" >  T  T  T </v>
   <v type="logical" >  T  T  T </v>
   <v type="logical" >  T  T  T </v>
   <v type="logical" >  T  T  T </v>
   <v type="logical" >  T  T  T </v>
   <v type="logical" >  T  T  T </v>
   <v type="logical" >  T  T  T </v>
   <v type="logical" >  T  T  T </v>
   <v type="logical" >  T  T  T </v>
   <v type="logical" >  T  T  T </v>
   <v type="logical" >  T  T  T </v>
   <v type="logical" >  T  T  T </v>
   <v type="logical" >  T  T  T </v>
   <v type="logical" >  T  T  T </v>
   <v type="logical" >  T  T  T </v>
   <v type="logical" >  T  T  T </v>
   <v type="logical" >  T  T  T </v>
   <v type="logical" >  T  T  T </v>
   <v type="logical" >  T  T  T </v>
   <v type="logical" >  T  T  T </v>
   <v type="logical" >  T  T  T </v>
   <v type="logical" >  T  T  T </v>
   <v type="logical" >  T  T  T </v>
   <v type="logical" >  T  T  T </v>
   <v type="logical" >  T  T  T </v>
   <v type="logical" >  T  T  T </v>
   <v type="logical" >  T  T  T </v>
   <v type="logical" >  T  T  T </v>
   <v type="logical" >  T  T  T </v>
   <v type="logical" >  T  T  T </v>
   <v type="logical" >  T  T  T </v>
   <v type="logical" >  T  T  T </v>
   <v type="logical" >  T  T  T </v>
   <v type="logical" >  T  T  T </v>
   <v type="logical" >  T  T  T </v>
   <v type="logical" >  T  T  T </v>
   <v type="logical" >  T  T  T </v>
   <v type="logical" >  T  T  T </v>
   <v type="logical" >  T  T  T </v>
   <v type="logical" >  T  T  T </v>
   <v type="logical" >  T  T  T </v>
   <v type="logical" >  T  T  T </v>
   <v type="logical" >  T  T  T </v>
   <v type="logical" >  T  T  T </v>
   <v type="logical" >  T  T  T </v>
   <v type="logical" >  T  T  T </v>
   <v type="logical" >  T  T  T </v>
   <v type="logical" >  T  T  T </v>
   <v type="logical" >  T  T  T </v>
   <v type="logical" >  T  T  T </v>
   <v type="logical" >  T  T  T </v>
   <v type="logical" >  T  T  T </v>
   <v type="logical" >  T  T  T </v>
   <v type="logical" >  T  T  T </v>
   <v type="logical" >  T  T  T </v>
   <v type="logical" >  T  T  T </v>
   <v type="logical" >  T  T  T </v>
   <v type="logical" >  T  T  T </v>
   <v type="logical" >  T  T  T </v>
   <v type="logical" >  T  T  T </v>
   <v type="logical" >  T  T  T </v>
   <v type="logical" >  T  T  T </v>
   <v type="logical" >  T  T  T </v>
   <v type="logical" >  T  T  T </v>
   <v type="logical" >  T  T  T </v>
   <v type="logical" >  T  T  T </v>
   <v type="logical" >  T  T  T </v>
   <v type="logical" >  T  T  T </v>
   <v type="logical" >  T  T  T </v>
   <v type="logical" >  T  T  T </v>
   <v type="logical" >  T  T  T </v>
   <v type="logical" >  T  T  T </v>
   <v type="logical" >  T  T  T </v>
   <v type="logical" >  T  T  T </v>
   <v type="logical" >  T  T  T </v>
   <v type="logical" >  T  T  T </v>
   <v type="logical" >  T  T  T </v>
   <v type="logical" >  T  T  T </v>
   <v type="logical" >  T  T  F </v>
  </varray>
  <nose>
   <v>      -3.00000000       0.00000000       0.00010000       0.00010000 </v>
  </nose>
 </structure>
 <calculation>
  <scstep>
   <time name="dav">   78.67   79.93</time>
   <time name="total">   86.05   87.37</time>
   <energy>
    <i name="alphaZ">    185.49599500 </i>
    <i name="ewald">  37958.88607925 </i>
    <i name="hartreedc"> -49737.17476971 </i>
    <i name="XCdc">   1308.66778452 </i>
    <i name="pawpsdc">  11553.19479004 </i>
    <i name="pawaedc"> -11618.78033184 </i>
    <i name="eentropy">     -0.03883989 </i>
    <i name="bandstr">  -1589.22275216 </i>
    <i name="atom">  15429.98794498 </i>
    <i name="e_fr_energy">   3491.01590018 </i>
    <i name="e_wo_entrp">   3491.05474007 </i>
    <i name="e_0_energy">   3491.03532012 </i>
   </energy>
  </scstep>
  <scstep>
   <time name="dav">  100.91  102.45</time>
   <time name="total">  100.91  102.45</time>
   <energy>
    <i name="e_fr_energy">   -183.91318318 </i>
    <i name="e_wo_entrp">   -183.91008226 </i>
    <i name="e_0_energy">   -183.91163272 </i>
   </energy>
  </scstep>
  <scstep>
   <time name="dav">   86.17   87.38</time>
   <time name="total">   86.17   87.38</time>
   <energy>
    <i name="e_fr_energy">   -840.76867459 </i>
    <i name="e_wo_entrp">   -840.76627227 </i>
    <i name="e_0_energy">   -840.76747343 </i>
   </energy>
  </scstep>
  <scstep>
   <time name="dav">   85.20   86.53</time>
   <time name="total">   85.20   86.53</time>
   <energy>
    <i name="e_fr_energy">   -863.43104502 </i>
    <i name="e_wo_entrp">   -863.42851487 </i>
    <i name="e_0_energy">   -863.42977994 </i>
   </energy>
  </scstep>
  <scstep>
   <time name="dav">   96.39   97.90</time>
   <time name="total">  102.02  103.58</time>
   <energy>
    <i name="e_fr_energy">   -864.15110870 </i>
    <i name="e_wo_entrp">   -864.14850265 </i>
    <i name="e_0_energy">   -864.14980568 </i>
   </energy>
  </scstep>
  <scstep>
   <time name="dav">   84.42   85.76</time>
   <time name="total">   96.58   98.05</time>
   <energy>
    <i name="e_fr_energy">   -847.71236416 </i>
    <i name="e_wo_entrp">   -847.70934814 </i>
    <i name="e_0_energy">   -847.71085615 </i>
   </energy>
  </scstep>
  <scstep>
   <time name="dav">   82.94   84.13</time>
   <time name="total">   95.10   96.48</time>
   <energy>
    <i name="e_fr_energy">   -827.77402873 </i>
    <i name="e_wo_entrp">   -827.77402166 </i>
    <i name="e_0_energy">   -827.77402519 </i>
   </energy>
  </scstep>
  <scstep>
   <time name="dav">   81.52   82.74</time>
   <time name="total">   94.02   95.35</time>
   <energy>
    <i name="e_fr_energy">   -823.10892252 </i>
    <i name="e_wo_entrp">   -823.10892246 </i>
    <i name="e_0_energy">   -823.10892249 </i>
   </energy>
  </scstep>
  <scstep>
   <time name="dav">   84.50   85.69</time>
   <time name="total">   97.17   98.59</time>
   <energy>
    <i name="e_fr_energy">   -823.14847959 </i>
    <i name="e_wo_entrp">   -823.14847954 </i>
    <i name="e_0_energy">   -823.14847957 </i>
   </energy>
  </scstep>
  <scstep>
   <time name="dav">   80.29   81.47</time>
   <time name="total">   93.45   94.82</time>
   <energy>
    <i name="e_fr_energy">   -823.00819144 </i>
    <i name="e_wo_entrp">   -823.00819140 </i>
    <i name="e_0_energy">   -823.00819142 </i>
   </energy>
  </scstep>
  <scstep>
   <time name="dav">   79.16   80.30</time>
   <time name="total">   93.05   94.34</time>
   <energy>
    <i name="e_fr_energy">   -822.99636619 </i>
    <i name="e_wo_entrp">   -822.99636616 </i>
    <i name="e_0_energy">   -822.99636618 </i>
   </energy>
  </scstep>
  <scstep>
   <time name="dav">   84.63   85.79</time>
   <time name="total">   97.58   98.92</time>
   <energy>
    <i name="e_fr_energy">   -822.99653688 </i>
    <i name="e_wo_entrp">   -822.99653685 </i>
    <i name="e_0_energy">   -822.99653687 </i>
   </energy>
  </scstep>
  <scstep>
   <time name="dav">   83.12   84.27</time>
   <time name="total">   96.74   98.11</time>
   <energy>
    <i name="e_fr_energy">   -822.99670661 </i>
    <i name="e_wo_entrp">   -822.99670657 </i>
    <i name="e_0_energy">   -822.99670659 </i>
   </energy>
  </scstep>
  <scstep>
   <time name="dav">   81.44   82.61</time>
   <time name="total">   94.70   96.02</time>
   <energy>
    <i name="e_fr_energy">   -822.99672682 </i>
    <i name="e_wo_entrp">   -822.99672679 </i>
    <i name="e_0_energy">   -822.99672680 </i>
   </energy>
  </scstep>
  <scstep>
   <time name="dav">   80.01   81.13</time>
   <time name="total">   93.34   94.67</time>
   <energy>
    <i name="e_fr_energy">   -822.99678665 </i>
    <i name="e_wo_entrp">   -822.99678662 </i>
    <i name="e_0_energy">   -822.99678663 </i>
   </energy>
  </scstep>
  <scstep>
   <time name="dav">   81.07   82.27</time>
   <time name="total">   95.48   96.81</time>
   <energy>
    <i name="e_fr_energy">   -822.99679200 </i>
    <i name="e_wo_entrp">   -822.99679197 </i>
    <i name="e_0_energy">   -822.99679199 </i>
   </energy>
  </scstep>
  <scstep>
   <time name="dav">   81.55   82.72</time>
   <time name="total">   95.84   97.22</time>
   <energy>
    <i name="e_fr_energy">   -822.99679195 </i>
    <i name="e_wo_entrp">   -822.99679192 </i>
    <i name="e_0_energy">   -822.99679193 </i>
   </energy>
  </scstep>
  <scstep>
   <time name="dav">   73.12   74.05</time>
   <time name="total">   80.95   81.98</time>
   <energy>
    <i name="alphaZ">    185.49599500 </i>
    <i name="ewald">  37958.88607925 </i>
    <i name="hartreedc"> -51162.85389142 </i>
    <i name="XCdc">   1356.63935297 </i>
    <i name="pawpsdc">  38395.30401057 </i>
    <i name="pawaedc"> -38471.87540558 </i>
    <i name="eentropy">     -0.00000003 </i>
    <i name="bandstr">  -4514.58087701 </i>
    <i name="atom">  15429.98794498 </i>
    <i name="e_fr_energy">   -822.99679128 </i>
    <i name="e_wo_entrp">   -822.99679124 </i>
    <i name="e_0_energy">   -822.99679126 </i>
   </energy>
  </scstep>
  <structure>
   <crystal>
    <varray name="basis" >
     <v>      17.27103806       0.00000000       0.00000000 </v>
     <v>      -8.63551903      14.95715771       0.00000000 </v>
     <v>       0.00000000       0.00000000      15.00000000 </v>
    </varray>
    <i name="volume">   3874.88459904 </i>
    <varray name="rec_basis" >
     <v>       0.05790040       0.03342881      -0.00000000 </v>
     <v>       0.00000000       0.06685762       0.00000000 </v>
     <v>       0.00000000      -0.00000000       0.06666667 </v>
    </varray>
   </crystal>
   <varray name="positions" >
    <v>       0.99902125       0.00162221       0.49641450 </v>
    <v>       0.99924877       0.14462852       0.49666646 </v>
    <v>       0.00004725       0.28826915       0.49701295 </v>
    <v>       0.00049062       0.43134231       0.49664068 </v>
    <v>       0.00087700       0.57411457       0.49615774 </v>
    <v>       0.00124408       0.71703294       0.49597038 </v>
    <v>       0.99986868       0.85964156       0.49627532 </v>
    <v>       0.14331190       0.00329325       0.49700297 </v>
    <v>       0.14302514       0.14563367       0.49689494 </v>
    <v>       0.14233490       0.28729106       0.49697519 </v>
    <v>       0.14390117       0.43144318       0.49659825 </v>
    <v>       0.14485098       0.57413870       0.49609389 </v>
    <v>       0.14427226       0.71704406       0.49615677 </v>
    <v>       0.14348080       0.86020756       0.49668614 </v>
    <v>       0.28629111       0.00349708       0.49658117 </v>
    <v>       0.28698314       0.14724765       0.49682871 </v>
    <v>       0.28800493       0.29279192       0.49641801 </v>
    <v>       0.28506009       0.42637895       0.49583845 </v>
    <v>       0.29027882       0.57439173       0.49503946 </v>
    <v>       0.28763949       0.71772350       0.49540709 </v>
    <v>       0.28647977       0.86059308       0.49599008 </v>
    <v>       0.42925393       0.00383580       0.49575270 </v>
    <v>       0.42931983       0.14767273       0.49577726 </v>
    <v>       0.42948072       0.86021767       0.49519460 </v>
    <v>       0.57147506       0.00321348       0.49559799 </v>
    <v>       0.57152101       0.14670024       0.49537280 </v>
    <v>       0.57378993       0.29349100       0.49425229 </v>
    <v>       0.57346969       0.85880666       0.49456189 </v>
    <v>       0.71366359       0.00232028       0.49556853 </v>
    <v>       0.71426742       0.14601661       0.49606973 </v>
    <v>       0.71398488       0.28919653       0.49511204 </v>
    <v>       0.70993814       0.42918527       0.49266672 </v>
    <v>       0.70861206       0.85770961       0.49341063 </v>
    <v>       0.85582077       0.00135588       0.49554845 </v>
    <v>       0.85670850       0.14521449       0.49650359 </v>
    <v>       0.85697899       0.28846916       0.49635578 </v>
    <v>       0.85699867       0.43143053       0.49549551 </v>
    <v>       0.85720307       0.57389095       0.49444453 </v>
    <v>       0.85823026       0.71632620       0.49353420 </v>
    <v>       0.85458193       0.85743722       0.49447997 </v>
    <v>       0.04728220       0.09729810       0.49671700 </v>
    <v>       0.04683397       0.23977978       0.49705244 </v>
    <v>       0.04811123       0.38377743       0.49690756 </v>
    <v>       0.04903537       0.52667183       0.49638801 </v>
    <v>       0.04880760       0.66947687       0.49619488 </v>
    <v>       0.04800522       0.81228920       0.49642201 </v>
    <v>       0.04756630       0.95485889       0.49669077 </v>
    <v>       0.19117270       0.09855547       0.49703160 </v>
    <v>       0.19118422       0.24100434       0.49682582 </v>
    <v>       0.18969885       0.38214520       0.49663008 </v>
    <v>       0.19329059       0.52692995       0.49600454 </v>
    <v>       0.19218291       0.66968412       0.49588340 </v>
    <v>       0.19137928       0.81264514       0.49632583 </v>
    <v>       0.19111462       0.95560819       0.49687699 </v>
    <v>       0.33415022       0.09935166       0.49650365 </v>
    <v>       0.33835492       0.24347193       0.49618579 </v>
    <v>       0.33933027       0.67329215       0.49488036 </v>
    <v>       0.33440102       0.81281881       0.49538635 </v>
    <v>       0.33383465       0.95587713       0.49610616 </v>
    <v>       0.47660354       0.09926926       0.49559036 </v>
    <v>       0.47435074       0.24384215       0.49508370 </v>
    <v>       0.47456380       0.80941647       0.49476159 </v>
    <v>       0.47662452       0.95583251       0.49547988 </v>
    <v>       0.61886309       0.09858261       0.49575985 </v>
    <v>       0.61882576       0.24238632       0.49485582 </v>
    <v>       0.61857409       0.95467166       0.49528296 </v>
    <v>       0.76159311       0.09804270       0.49620598 </v>
    <v>       0.76179937       0.24116984       0.49590600 </v>
    <v>       0.76116976       0.38426369       0.49448910 </v>
    <v>       0.76051806       0.52888237       0.49113543 </v>
    <v>       0.76292266       0.66493119       0.48906773 </v>
    <v>       0.75761043       0.80782579       0.49204665 </v>
    <v>       0.76033192       0.95388690       0.49496594 </v>
    <v>       0.90376816       0.09669684       0.49633451 </v>
    <v>       0.90457196       0.24068247       0.49674985 </v>
    <v>       0.90476271       0.38396223       0.49625994 </v>
    <v>       0.90522016       0.52664892       0.49566965 </v>
    <v>       0.90574333       0.66898421       0.49475078 </v>
    <v>       0.90409948       0.81144097       0.49492796 </v>
    <v>       0.90313000       0.95315193       0.49564932 </v>
    <v>       0.71544668       0.71371860       0.48764924 </v>
    <v>       0.33205356       0.52230639       0.49461444 </v>
    <v>       0.62703170       0.66496592       0.48177881 </v>
    <v>       0.42129375       0.56191601       0.49305137 </v>
    <v>       0.42841273       0.28822970       0.49494325 </v>
    <v>       0.42921904       0.71926811       0.49450884 </v>
    <v>       0.71684362       0.57426403       0.48607043 </v>
    <v>       0.33190003       0.38228264       0.49601734 </v>
    <v>       0.61981601       0.38383108       0.49306672 </v>
    <v>       0.61869589       0.81390380       0.49350722 </v>
    <v>       0.47976742       0.48291635       0.55168353 </v>
    <v>       0.54032845       0.44261052       0.53564079 </v>
    <v>       0.53635392       0.48867720       0.56977594 </v>
   </varray>
  </structure>
  <varray name="forces" >
   <v>       0.00006229       0.00040328      -0.00040163 </v>
   <v>       0.00035741      -0.00142877      -0.00181943 </v>
   <v>      -0.00058333      -0.00045841      -0.00422910 </v>
   <v>       0.00019413       0.00012899      -0.00523621 </v>
   <v>       0.00130011       0.00088840      -0.00473642 </v>
   <v>       0.00038552       0.00192834      -0.00259699 </v>
   <v>       0.00019918       0.00168740      -0.00131924 </v>
   <v>      -0.00138743       0.00117848       0.00081107 </v>
   <v>       0.00080189      -0.00025404      -0.00054977 </v>
   <v>       0.00092731      -0.00007160      -0.00067636 </v>
   <v>       0.00035897       0.00100748      -0.00246833 </v>
   <v>       0.00066957       0.00112511      -0.00278675 </v>
   <v>       0.00083220       0.00119089      -0.00055533 </v>
   <v>      -0.00042400       0.00149525      -0.00091956 </v>
   <v>      -0.00104473       0.00065750       0.00087680 </v>
   <v>      -0.00073316       0.00064667       0.00133812 </v>
   <v>       0.00388459      -0.00248933       0.00042430 </v>
   <v>      -0.00006946       0.00217803       0.00293751 </v>
   <v>      -0.00034112       0.00119421       0.00144152 </v>
   <v>       0.00045289       0.00080721       0.00164194 </v>
   <v>       0.00057447      -0.00080845      -0.00096969 </v>
   <v>       0.00180784       0.00126842       0.00063435 </v>
   <v>      -0.00000280       0.00123255       0.00052912 </v>
   <v>       0.00103085       0.00126168       0.00013865 </v>
   <v>       0.00284687       0.00220885      -0.00029438 </v>
   <v>       0.00558774      -0.00189990      -0.00086172 </v>
   <v>       0.00073596       0.00064031      -0.00372904 </v>
   <v>       0.00160757       0.00136346      -0.00084656 </v>
   <v>       0.00010509       0.00108325      -0.00232410 </v>
   <v>       0.00102366      -0.00087912      -0.00202298 </v>
   <v>       0.00255566      -0.00303686      -0.00499289 </v>
   <v>       0.00178284      -0.00034058      -0.00487840 </v>
   <v>       0.00052010       0.00076049      -0.00349982 </v>
   <v>      -0.00159219      -0.00125209      -0.00211871 </v>
   <v>      -0.00289219      -0.00705180      -0.00452330 </v>
   <v>      -0.00098020      -0.00180253      -0.00447581 </v>
   <v>       0.00154636      -0.00139803      -0.00558090 </v>
   <v>       0.00035202       0.00134419      -0.00539240 </v>
   <v>      -0.00030114       0.00163663      -0.00494035 </v>
   <v>       0.00016205       0.00103903      -0.00280483 </v>
   <v>      -0.00020883       0.00192101      -0.00069201 </v>
   <v>      -0.00021161       0.00220760      -0.00220534 </v>
   <v>       0.00042235       0.00091024      -0.00498983 </v>
   <v>      -0.00323410      -0.00045337      -0.00369848 </v>
   <v>       0.00040931       0.00069254      -0.00268732 </v>
   <v>       0.00158339       0.00056628      -0.00130183 </v>
   <v>       0.00051499       0.00072467       0.00000623 </v>
   <v>       0.00024918       0.00104311       0.00090394 </v>
   <v>      -0.00182820       0.00163907      -0.00030549 </v>
   <v>      -0.00012648       0.00087809      -0.00017363 </v>
   <v>      -0.00000815       0.00070116      -0.00139583 </v>
   <v>       0.00018716       0.00117518      -0.00005590 </v>
   <v>       0.00124538       0.00138169       0.00010761 </v>
   <v>       0.00443343       0.00079443       0.00094838 </v>
   <v>       0.00121876       0.00077821       0.00135348 </v>
   <v>      -0.00078918       0.00062823      -0.00090294 </v>
   <v>      -0.00012682       0.00153391       0.00176570 </v>
   <v>       0.00029714       0.00191576       0.00038102 </v>
   <v>       0.00033625       0.00135087      -0.00015416 </v>
   <v>      -0.00250053       0.00121489       0.00040119 </v>
   <v>       0.00044886       0.00082340      -0.00268647 </v>
   <v>      -0.00055914       0.00160201       0.00028901 </v>
   <v>      -0.00226992       0.00036831       0.00027984 </v>
   <v>      -0.00395477       0.00101979      -0.00071105 </v>
   <v>      -0.00263340       0.00329289      -0.00304059 </v>
   <v>      -0.00187367      -0.00066482      -0.00153378 </v>
   <v>       0.00143824       0.00249711      -0.00222477 </v>
   <v>      -0.00041589       0.00307359      -0.00359020 </v>
   <v>       0.00014062       0.00377997      -0.00499246 </v>
   <v>       0.00671125       0.00143213      -0.00466398 </v>
   <v>       0.00139738       0.00080056      -0.00699199 </v>
   <v>       0.00139404       0.00101144      -0.00524990 </v>
   <v>       0.00321375       0.00200880      -0.00202982 </v>
   <v>      -0.00055501       0.00428372      -0.00255547 </v>
   <v>       0.00180987       0.00398802      -0.00426166 </v>
   <v>       0.00055328       0.00259712      -0.00530532 </v>
   <v>       0.00041831       0.00181418      -0.00557565 </v>
   <v>       0.00184064       0.00016367      -0.00425793 </v>
   <v>       0.00115618       0.00053169      -0.00324326 </v>
   <v>       0.00058628       0.00108667      -0.00130152 </v>
   <v>      -0.00044172       0.00108112      -0.01006092 </v>
   <v>      -0.00053352       0.00143813       0.00340150 </v>
   <v>       0.00427063       0.00424686      -0.01623332 </v>
   <v>      -0.00298727       0.00186297       0.00524793 </v>
   <v>      -0.00182291       0.00043899      -0.00513773 </v>
   <v>       0.00003016       0.00082656       0.00080966 </v>
   <v>       0.00015479       0.00243945      -0.00611825 </v>
   <v>      -0.00111808       0.00165974       0.00418193 </v>
   <v>       0.00135892       0.00259275      -0.00427577 </v>
   <v>      -0.00071897       0.00010647      -0.00221827 </v>
   <v>      -0.05571409      -0.16430105      -0.13709075 </v>
   <v>       0.05494113       0.05924219      -0.09408564 </v>
   <v>      -0.03044279       0.02406741       0.40969940 </v>
  </varray>
  <varray name="stress" >
   <v>      -9.71728972      -0.31414345      -0.02170053 </v>
   <v>      -0.31414410     -10.03719723      -0.03434027 </v>
   <v>      -0.02170080      -0.03434019      -0.15114333 </v>
  </varray>
  <energy>
   <i name="e_fr_energy">   -830.52399354 </i>
   <i name="e_wo_entrp">   -830.52399351 </i>
   <i name="e_0_energy">   -830.52399353 </i>
  </energy>
  <time name="totalsc"> 1887.80 1914.90</time>
 </calculation>
 <calculation>
  <scstep>
   <time name="dav">   76.91   78.11</time>
   <time name="total">   90.84   92.20</time>
   <energy>
    <i name="alphaZ">    185.49599500 </i>
    <i name="ewald">  37958.92223554 </i>
    <i name="hartreedc"> -51162.88186506 </i>
    <i name="XCdc">   1356.63933288 </i>
    <i name="pawpsdc">  38394.63453020 </i>
    <i name="pawaedc"> -38471.20584266 </i>
    <i name="eentropy">     -0.00000003 </i>
    <i name="bandstr">  -4514.58922758 </i>
    <i name="atom">  15429.98794498 </i>
    <i name="e_fr_energy">   -822.99689673 </i>
    <i name="e_wo_entrp">   -822.99689669 </i>
    <i name="e_0_energy">   -822.99689671 </i>
   </energy>
  </scstep>
  <scstep>
   <time name="dav">   80.95   82.04</time>
   <time name="total">   94.35   95.60</time>
   <energy>
    <i name="e_fr_energy">   -822.99689832 </i>
    <i name="e_wo_entrp">   -822.99689829 </i>
    <i name="e_0_energy">   -822.99689831 </i>
   </energy>
  </scstep>
  <scstep>
   <time name="dav">   57.28   58.16</time>
   <time name="total">   64.43   65.41</time>
   <energy>
    <i name="alphaZ">    185.49599500 </i>
    <i name="ewald">  37958.92223554 </i>
    <i name="hartreedc"> -51162.87049993 </i>
    <i name="XCdc">   1356.63903618 </i>
    <i name="pawpsdc">  38394.47300465 </i>
    <i name="pawaedc"> -38471.04406743 </i>
    <i name="eentropy">     -0.00000003 </i>
    <i name="bandstr">  -4514.60054691 </i>
    <i name="atom">  15429.98794498 </i>
    <i name="e_fr_energy">   -822.99689794 </i>
    <i name="e_wo_entrp">   -822.99689791 </i>
    <i name="e_0_energy">   -822.99689793 </i>
   </energy>
  </scstep>
  <structure>
   <crystal>
    <varray name="basis" >
     <v>      17.27103806       0.00000000       0.00000000 </v>
     <v>      -8.63551903      14.95715771       0.00000000 </v>
     <v>       0.00000000       0.00000000      15.00000000 </v>
    </varray>
    <i name="volume">   3874.88459904 </i>
    <varray name="rec_basis" >
     <v>       0.05790040       0.03342881      -0.00000000 </v>
     <v>       0.00000000       0.06685762       0.00000000 </v>
     <v>       0.00000000      -0.00000000       0.06666667 </v>
    </varray>
   </crystal>
   <varray name="positions" >
    <v>       0.99902138       0.00162256       0.49641679 </v>
    <v>       0.99924810       0.14462641       0.49666863 </v>
    <v>       0.00004605       0.28826816       0.49701369 </v>
    <v>       0.00049033       0.43134209       0.49664085 </v>
    <v>       0.00087813       0.57411514       0.49615793 </v>
    <v>       0.00124497       0.71703465       0.49597152 </v>
    <v>       0.99986954       0.85964332       0.49627691 </v>
    <v>       0.14331100       0.00329459       0.49700558 </v>
    <v>       0.14302603       0.14563347       0.49689659 </v>
    <v>       0.14233588       0.28729070       0.49697761 </v>
    <v>       0.14390189       0.43144408       0.49659950 </v>
    <v>       0.14485195       0.57413960       0.49609479 </v>
    <v>       0.14427335       0.71704487       0.49616026 </v>
    <v>       0.14348075       0.86020883       0.49668778 </v>
    <v>       0.28629002       0.00349750       0.49658380 </v>
    <v>       0.28698317       0.14724891       0.49683060 </v>
    <v>       0.28800869       0.29278997       0.49641767 </v>
    <v>       0.28506129       0.42638093       0.49584006 </v>
    <v>       0.29027943       0.57439270       0.49504320 </v>
    <v>       0.28764008       0.71772381       0.49541215 </v>
    <v>       0.28647940       0.86059135       0.49599140 </v>
    <v>       0.42925632       0.00383683       0.49575490 </v>
    <v>       0.42932023       0.14767370       0.49577892 </v>
    <v>       0.42948222       0.86021862       0.49519702 </v>
    <v>       0.57147926       0.00321569       0.49559955 </v>
    <v>       0.57152564       0.14669706       0.49537403 </v>
    <v>       0.57379095       0.29349088       0.49425093 </v>
    <v>       0.57347181       0.85880793       0.49456490 </v>
    <v>       0.71366406       0.00232127       0.49556959 </v>
    <v>       0.71426766       0.14601514       0.49607124 </v>
    <v>       0.71398532       0.28919218       0.49511081 </v>
    <v>       0.70993798       0.42918395       0.49266531 </v>
    <v>       0.70861263       0.85771030       0.49341292 </v>
    <v>       0.85581794       0.00135403       0.49555005 </v>
    <v>       0.85670049       0.14520508       0.49650297 </v>
    <v>       0.85697634       0.28846655       0.49635688 </v>
    <v>       0.85699852       0.43142823       0.49549521 </v>
    <v>       0.85720256       0.57389191       0.49444362 </v>
    <v>       0.85823037       0.71632787       0.49353335 </v>
    <v>       0.85458237       0.85743827       0.49448085 </v>
    <v>       0.04728320       0.09730046       0.49671935 </v>
    <v>       0.04683504       0.23978232       0.49705437 </v>
    <v>       0.04811180       0.38377825       0.49690733 </v>
    <v>       0.04903079       0.52667079       0.49638935 </v>
    <v>       0.04880786       0.66947712       0.49619647 </v>
    <v>       0.04800671       0.81228924       0.49642376 </v>
    <v>       0.04756710       0.95485951       0.49669317 </v>
    <v>       0.19117384       0.09855688       0.49703372 </v>
    <v>       0.19118369       0.24100668       0.49682780 </v>
    <v>       0.18969902       0.38214599       0.49663233 </v>
    <v>       0.19329079       0.52693040       0.49600636 </v>
    <v>       0.19218340       0.66968502       0.49588715 </v>
    <v>       0.19138103       0.81264622       0.49632927 </v>
    <v>       0.19111969       0.95560868       0.49688006 </v>
    <v>       0.33415180       0.09935237       0.49650613 </v>
    <v>       0.33835547       0.24347374       0.49618520 </v>
    <v>       0.33933080       0.67329346       0.49488540 </v>
    <v>       0.33440216       0.81282057       0.49538954 </v>
    <v>       0.33383540       0.95587827       0.49610769 </v>
    <v>       0.47660111       0.09927018       0.49559226 </v>
    <v>       0.47435166       0.24384244       0.49508274 </v>
    <v>       0.47456381       0.80941796       0.49476511 </v>
    <v>       0.47662176       0.95583233       0.49548182 </v>
    <v>       0.61885895       0.09858331       0.49576152 </v>
    <v>       0.61882464       0.24238974       0.49485549 </v>
    <v>       0.61857117       0.95467025       0.49528395 </v>
    <v>       0.76159605       0.09804558       0.49620734 </v>
    <v>       0.76180059       0.24117349       0.49590711 </v>
    <v>       0.76117129       0.38426811       0.49448841 </v>
    <v>       0.76052409       0.52888342       0.49113532 </v>
    <v>       0.76292393       0.66493185       0.48906696 </v>
    <v>       0.75761179       0.80782647       0.49204778 </v>
    <v>       0.76033652       0.95388917       0.49496837 </v>
    <v>       0.90377012       0.09670205       0.49633598 </v>
    <v>       0.90457626       0.24068733       0.49675082 </v>
    <v>       0.90476433       0.38396526       0.49626054 </v>
    <v>       0.90522061       0.52665076       0.49566912 </v>
    <v>       0.90574460       0.66898372       0.49475043 </v>
    <v>       0.90410049       0.81144122       0.49492812 </v>
    <v>       0.90313105       0.95315307       0.49565114 </v>
    <v>       0.71544691       0.71371966       0.48764906 </v>
    <v>       0.33205340       0.52230708       0.49461716 </v>
    <v>       0.62703640       0.66496789       0.48178126 </v>
    <v>       0.42129257       0.56191691       0.49305355 </v>
    <v>       0.42841221       0.28823087       0.49494025 </v>
    <v>       0.42921934       0.71926856       0.49451322 </v>
    <v>       0.71684281       0.57426658       0.48606969 </v>
    <v>       0.33190088       0.38228557       0.49601652 </v>
    <v>       0.61981741       0.38383306       0.49306521 </v>
    <v>       0.61869467       0.81390346       0.49351068 </v>
    <v>       0.47976370       0.48291056       0.55165116 </v>
    <v>       0.54034425       0.44262334       0.53563516 </v>
    <v>       0.53634102       0.48867272       0.56977594 </v>
   </varray>
  </structure>
  <varray name="forces" >
   <v>       0.00030274       0.00141243      -0.00030278 </v>
   <v>      -0.00025992       0.00330667      -0.00173143 </v>
   <v>       0.00077872       0.00197731      -0.00419903 </v>
   <v>       0.00003588       0.00057951      -0.00519601 </v>
   <v>      -0.00103560       0.00081912      -0.00460181 </v>
   <v>       0.00119035       0.00033108      -0.00259062 </v>
   <v>       0.00209476      -0.00391194      -0.00150838 </v>
   <v>       0.00221845       0.00046645       0.00097646 </v>
   <v>      -0.00052357       0.00170347      -0.00035001 </v>
   <v>      -0.00092158       0.00186357      -0.00060152 </v>
   <v>       0.00002280       0.00042192      -0.00243266 </v>
   <v>      -0.00116117       0.00007921      -0.00241800 </v>
   <v>       0.00020816       0.00114783      -0.00042313 </v>
   <v>       0.00223025       0.00094575      -0.00054483 </v>
   <v>       0.00250879       0.00132243       0.00099123 </v>
   <v>       0.00088356       0.00021115       0.00140307 </v>
   <v>      -0.00441737       0.00293109       0.00097936 </v>
   <v>      -0.00040495       0.00080863       0.00300019 </v>
   <v>      -0.00055457       0.00128298       0.00159815 </v>
   <v>       0.00030983       0.00178769       0.00177938 </v>
   <v>       0.00076684       0.00200014      -0.00059495 </v>
   <v>      -0.00158352       0.00123948       0.00067772 </v>
   <v>       0.00011497       0.00122579       0.00056627 </v>
   <v>      -0.00051290       0.00129683       0.00035113 </v>
   <v>      -0.00286768      -0.00053365      -0.00025038 </v>
   <v>      -0.00633422       0.00490934      -0.00107776 </v>
   <v>      -0.00114099       0.00230379      -0.00379382 </v>
   <v>      -0.00083510      -0.00013229      -0.00080300 </v>
   <v>       0.00035901       0.00036867      -0.00216238 </v>
   <v>      -0.00094828       0.00234137      -0.00196993 </v>
   <v>      -0.00155732       0.00429519      -0.00332210 </v>
   <v>       0.00234468       0.00251830      -0.00481934 </v>
   <v>       0.00063134       0.00014748      -0.00337151 </v>
   <v>       0.00213683       0.00283064      -0.00190412 </v>
   <v>       0.00339723       0.00910499      -0.00230152 </v>
   <v>       0.00168596       0.00310069      -0.00445054 </v>
   <v>       0.00046509       0.00310215      -0.00560011 </v>
   <v>       0.00283317       0.00107073      -0.00536959 </v>
   <v>       0.00224558       0.00031792      -0.00491898 </v>
   <v>       0.00137679       0.00092023      -0.00275232 </v>
   <v>       0.00078765      -0.00061516      -0.00060084 </v>
   <v>       0.00008759      -0.00177879      -0.00358601 </v>
   <v>       0.00053290       0.00063958      -0.00483285 </v>
   <v>       0.00468160       0.00215001      -0.00503545 </v>
   <v>       0.00111417       0.00161379      -0.00260590 </v>
   <v>      -0.00005543       0.00198923      -0.00127595 </v>
   <v>       0.00001006       0.00115443       0.00009439 </v>
   <v>      -0.00010452       0.00017671       0.00101102 </v>
   <v>       0.00219801      -0.00069301      -0.00030699 </v>
   <v>       0.00057344       0.00084154      -0.00009262 </v>
   <v>      -0.00003184       0.00119855      -0.00130605 </v>
   <v>       0.00078336       0.00069776       0.00005399 </v>
   <v>       0.00002183       0.00049767       0.00000951 </v>
   <v>      -0.00422114       0.00138303       0.00011452 </v>
   <v>      -0.00094702       0.00114303       0.00144622 </v>
   <v>       0.00023482      -0.00055809      -0.00095297 </v>
   <v>       0.00041470       0.00099494       0.00186586 </v>
   <v>       0.00102554       0.00019391       0.00050755 </v>
   <v>       0.00071234       0.00026101      -0.00001241 </v>
   <v>       0.00290326       0.00110239       0.00049687 </v>
   <v>      -0.00097409       0.00200445      -0.00270952 </v>
   <v>       0.00121602       0.00084985       0.00042113 </v>
   <v>       0.00297003       0.00194331       0.00037160 </v>
   <v>       0.00402576      -0.00003283      -0.00063969 </v>
   <v>       0.00254636      -0.00120696      -0.00310670 </v>
   <v>       0.00203645       0.00193212      -0.00132114 </v>
   <v>      -0.00212641      -0.00249717      -0.00238655 </v>
   <v>       0.00057452      -0.00299642      -0.00367995 </v>
   <v>       0.00196452      -0.00254799      -0.00514338 </v>
   <v>      -0.00316304       0.00116234      -0.00622587 </v>
   <v>       0.00034831       0.00143382      -0.00707454 </v>
   <v>       0.00031916       0.00133035      -0.00523780 </v>
   <v>      -0.00367229      -0.00145668      -0.00351936 </v>
   <v>       0.00070645      -0.00396708      -0.00255639 </v>
   <v>      -0.00158036      -0.00372660      -0.00439334 </v>
   <v>       0.00064744      -0.00172250      -0.00534254 </v>
   <v>       0.00138141      -0.00005161      -0.00560936 </v>
   <v>      -0.00019724       0.00253591      -0.00432282 </v>
   <v>       0.00048700       0.00161563      -0.00319022 </v>
   <v>      -0.00015023       0.00042073      -0.00122727 </v>
   <v>       0.00224811       0.00179939      -0.00975452 </v>
   <v>      -0.00068504       0.00180389       0.00347102 </v>
   <v>      -0.00110139       0.00302670      -0.01976417 </v>
   <v>      -0.00093150       0.00283921       0.00536980 </v>
   <v>       0.00060838       0.00002287      -0.00517889 </v>
   <v>      -0.00012485       0.00152676       0.00091894 </v>
   <v>       0.00461832      -0.00037099      -0.00574078 </v>
   <v>       0.00025963      -0.00115359       0.00422422 </v>
   <v>       0.00110059       0.00126798      -0.00431681 </v>
   <v>       0.00154983       0.00100442      -0.00218743 </v>
   <v>      -0.05683960      -0.16448943      -0.13723188 </v>
   <v>       0.05460794       0.05992988      -0.09335695 </v>
   <v>      -0.02947455       0.02346365       0.40948889 </v>
  </varray>
  <varray name="stress" >
   <v>      -9.71113313      -0.31336996      -0.01976069 </v>
   <v>      -0.31337060     -10.03733593      -0.03443935 </v>
   <v>      -0.01976098      -0.03443927      -0.14903672 </v>
  </varray>
  <energy>
   <i name="e_fr_energy">   -830.52410466 </i>
   <i name="e_wo_entrp">   -830.52410463 </i>
   <i name="e_0_energy">   -830.52410464 </i>
  </energy>
  <time name="totalsc">  510.14  516.87</time>
 </calculation>
 <calculation>
  <scstep>
   <time name="dav">   77.92   79.05</time>
   <time name="total">   91.59   92.91</time>
   <energy>
    <i name="alphaZ">    185.49599500 </i>
    <i name="ewald">  37958.92853647 </i>
    <i name="hartreedc"> -51162.86450794 </i>
    <i name="XCdc">   1356.63879555 </i>
    <i name="pawpsdc">  38394.23453712 </i>
    <i name="pawaedc"> -38470.80553653 </i>
    <i name="eentropy">     -0.00000003 </i>
    <i name="bandstr">  -4514.61280569 </i>
    <i name="atom">  15429.98794498 </i>
    <i name="e_fr_energy">   -822.99704107 </i>
    <i name="e_wo_entrp">   -822.99704104 </i>
    <i name="e_0_energy">   -822.99704106 </i>
   </energy>
  </scstep>
  <scstep>
   <time name="dav">   83.17   84.38</time>
   <time name="total">   95.84   97.17</time>
   <energy>
    <i name="e_fr_energy">   -822.99704460 </i>
    <i name="e_wo_entrp">   -822.99704457 </i>
    <i name="e_0_energy">   -822.99704459 </i>
   </energy>
  </scstep>
  <scstep>
   <time name="dav">   67.87   68.86</time>
   <time name="total">   74.26   75.32</time>
   <energy>
    <i name="alphaZ">    185.49599500 </i>
    <i name="ewald">  37958.92853647 </i>
    <i name="hartreedc"> -51162.86401871 </i>
    <i name="XCdc">   1356.63901864 </i>
    <i name="pawpsdc">  38394.16574450 </i>
    <i name="pawaedc"> -38470.73684377 </i>
    <i name="eentropy">     -0.00000003 </i>
    <i name="bandstr">  -4514.61342092 </i>
    <i name="atom">  15429.98794498 </i>
    <i name="e_fr_energy">   -822.99704383 </i>
    <i name="e_wo_entrp">   -822.99704380 </i>
    <i name="e_0_energy">   -822.99704381 </i>
   </energy>
  </scstep>
  <structure>
   <crystal>
    <varray name="basis" >
     <v>      17.27103806       0.00000000       0.00000000 </v>
     <v>      -8.63551903      14.95715771       0.00000000 </v>
     <v>       0.00000000       0.00000000      15.00000000 </v>
    </varray>
    <i name="volume">   3874.88459904 </i>
    <varray name="rec_basis" >
     <v>       0.05790040       0.03342881      -0.00000000 </v>
     <v>       0.00000000       0.06685762       0.00000000 </v>
     <v>       0.00000000      -0.00000000       0.06666667 </v>
    </varray>
   </crystal>
   <varray name="positions" >
    <v>       0.99902285       0.00162486       0.49642016 </v>
    <v>       0.99925048       0.14463200       0.49667183 </v>
    <v>       0.00004869       0.28827118       0.49701480 </v>
    <v>       0.00049007       0.43134260       0.49664117 </v>
    <v>       0.00087599       0.57411582       0.49615844 </v>
    <v>       0.00124603       0.71703414       0.49597312 </v>
    <v>       0.99986866       0.85963563       0.49627880 </v>
    <v>       0.14331476       0.00329517       0.49700954 </v>
    <v>       0.14302697       0.14563669       0.49689925 </v>
    <v>       0.14233611       0.28729369       0.49698114 </v>
    <v>       0.14390185       0.43144428       0.49660132 </v>
    <v>       0.14484949       0.57413899       0.49609673 </v>
    <v>       0.14427385       0.71704592       0.49616538 </v>
    <v>       0.14348433       0.86020959       0.49669075 </v>
    <v>       0.28629463       0.00349927       0.49658768 </v>
    <v>       0.28698536       0.14724989       0.49683338 </v>
[...]
       <r>   -18.5735     5.4841    29.9992 </r>
       <r>   -18.4513     9.3914    31.1470 </r>
       <r>   -18.3290     3.7584    31.6064 </r>
       <r>   -18.2068     5.1009    32.2299 </r>
       <r>   -18.0846     9.1767    33.3515 </r>
       <r>   -17.9624     4.2210    33.8674 </r>
       <r>   -17.8401     6.2464    34.6309 </r>
       <r>   -17.7179    15.4307    36.5169 </r>
       <r>   -17.5957     8.1197    37.5093 </r>
       <r>   -17.4735     3.3734    37.9217 </r>
       <r>   -17.3512     8.5447    38.9660 </r>
       <r>   -17.2290    10.1697    40.2090 </r>
       <r>   -17.1068     6.9050    41.0530 </r>
       <r>   -16.9846     6.4181    41.8374 </r>
       <r>   -16.8623     4.9905    42.4474 </r>
       <r>   -16.7401    10.4299    43.7222 </r>
       <r>   -16.6179    13.2568    45.3425 </r>
       <r>   -16.4957     4.3808    45.8780 </r>
       <r>   -16.3734     3.0340    46.2488 </r>
       <r>   -16.2512     0.0098    46.2500 </r>
       <r>   -16.1290     0.3067    46.2875 </r>
       <r>   -16.0067     3.6150    46.7293 </r>
       <r>   -15.8845     9.3056    47.8667 </r>
       <r>   -15.7623     6.4299    48.6526 </r>
       <r>   -15.6401     2.9757    49.0163 </r>
       <r>   -15.5178     6.4680    49.8069 </r>
       <r>   -15.3956    11.1413    51.1686 </r>
       <r>   -15.2734    10.0718    52.3997 </r>
       <r>   -15.1512     9.0180    53.5019 </r>
       <r>   -15.0289     6.6027    54.3089 </r>
       <r>   -14.9067     9.0635    55.4167 </r>
       <r>   -14.7845     8.1720    56.4155 </r>
       <r>   -14.6623    11.0084    57.7610 </r>
       <r>   -14.5400    12.6490    59.3071 </r>
       <r>   -14.4178     4.2172    59.8225 </r>
       <r>   -14.2956     6.3865    60.6031 </r>
       <r>   -14.1734     2.7870    60.9437 </r>
       <r>   -14.0511     5.1938    61.5786 </r>
       <r>   -13.9289     8.2950    62.5924 </r>
       <r>   -13.8067    11.6336    64.0143 </r>
       <r>   -13.6845     8.2244    65.0196 </r>
       <r>   -13.5622     8.6390    66.0755 </r>
       <r>   -13.4400     3.0851    66.4526 </r>
       <r>   -13.3178     0.9932    66.5739 </r>
       <r>   -13.1956     6.8054    67.4057 </r>
       <r>   -13.0733     5.5239    68.0809 </r>
       <r>   -12.9511     7.9627    69.0542 </r>
       <r>   -12.8289    16.8484    71.1134 </r>
       <r>   -12.7067     9.2704    72.2465 </r>
       <r>   -12.5844     8.1717    73.2453 </r>
       <r>   -12.4622     7.5205    74.1645 </r>
       <r>   -12.3400     9.2787    75.2986 </r>
       <r>   -12.2178     1.9585    75.5380 </r>
       <r>   -12.0955     8.9554    76.6326 </r>
       <r>   -11.9733     5.9390    77.3585 </r>
       <r>   -11.8511     9.8611    78.5637 </r>
       <r>   -11.7289    12.5379    80.0962 </r>
       <r>   -11.6066    14.6093    81.8818 </r>
       <r>   -11.4844    10.0542    83.1107 </r>
       <r>   -11.3622    10.0392    84.3377 </r>
       <r>   -11.2400    12.4586    85.8605 </r>
       <r>   -11.1177     9.1529    86.9792 </r>
       <r>   -10.9955     5.1123    87.6041 </r>
       <r>   -10.8733     3.4303    88.0233 </r>
       <r>   -10.7511     9.1934    89.1470 </r>
       <r>   -10.6288    11.6814    90.5748 </r>
       <r>   -10.5066    14.5997    92.3592 </r>
       <r>   -10.3844    11.4512    93.7589 </r>
       <r>   -10.2622    14.9902    95.5910 </r>
       <r>   -10.1399    16.2989    97.5832 </r>
       <r>   -10.0177    18.8475    99.8868 </r>
       <r>    -9.8955    17.4520   102.0199 </r>
       <r>    -9.7733    19.3909   104.3900 </r>
       <r>    -9.6510    18.9196   106.7024 </r>
       <r>    -9.5288    21.2939   109.3051 </r>
       <r>    -9.4066    19.4948   111.6879 </r>
       <r>    -9.2843    19.1850   114.0327 </r>
       <r>    -9.1621    27.2515   117.3636 </r>
       <r>    -9.0399    25.4693   120.4766 </r>
       <r>    -8.9177    24.3295   123.4503 </r>
       <r>    -8.7954    13.8723   125.1458 </r>
       <r>    -8.6732    11.0547   126.4970 </r>
       <r>    -8.5510    19.1364   128.8359 </r>
       <r>    -8.4288    28.5376   132.3240 </r>
       <r>    -8.3065    19.6837   134.7298 </r>
       <r>    -8.1843    13.4750   136.3768 </r>
       <r>    -8.0621     9.4923   137.5370 </r>
       <r>    -7.9399    13.2324   139.1543 </r>
       <r>    -7.8176     7.6531   140.0897 </r>
       <r>    -7.6954     9.4742   141.2477 </r>
       <r>    -7.5732    19.1700   143.5908 </r>
       <r>    -7.4510    23.4785   146.4604 </r>
       <r>    -7.3287    19.8175   148.8826 </r>
       <r>    -7.2065    10.1649   150.1251 </r>
       <r>    -7.0843    10.1594   151.3668 </r>
       <r>    -6.9621    15.4658   153.2571 </r>
       <r>    -6.8398    10.7696   154.5734 </r>
       <r>    -6.7176    12.9766   156.1595 </r>
       <r>    -6.5954     7.6057   157.0891 </r>
       <r>    -6.4732    21.7254   159.7445 </r>
       <r>    -6.3509    13.4648   161.3902 </r>
       <r>    -6.2287     7.6797   162.3289 </r>
       <r>    -6.1065    15.6611   164.2431 </r>
       <r>    -5.9843     5.2534   164.8852 </r>
       <r>    -5.8620     9.5089   166.0474 </r>
       <r>    -5.7398     4.4800   166.5950 </r>
       <r>    -5.6176     6.8110   167.4275 </r>
       <r>    -5.4954    12.6249   168.9705 </r>
       <r>    -5.3731     7.1698   169.8469 </r>
       <r>    -5.2509    23.6599   172.7387 </r>
       <r>    -5.1287    14.5805   174.5208 </r>
       <r>    -5.0065    11.5337   175.9305 </r>
       <r>    -4.8842     2.5672   176.2443 </r>
       <r>    -4.7620     0.4198   176.2956 </r>
       <r>    -4.6398     4.7651   176.8780 </r>
       <r>    -4.5176    20.6045   179.3964 </r>
       <r>    -4.3953    14.9068   181.2184 </r>
       <r>    -4.2731    30.4054   184.9347 </r>
       <r>    -4.1509     7.8368   185.8926 </r>
       <r>    -4.0287     8.6369   186.9482 </r>
       <r>    -3.9064     1.0981   187.0824 </r>
       <r>    -3.7842     1.4922   187.2648 </r>
       <r>    -3.6620     6.0377   188.0028 </r>
       <r>    -3.5398     2.0196   188.2496 </r>
       <r>    -3.4175     1.3306   188.4123 </r>
       <r>    -3.2953     0.7456   188.5034 </r>
       <r>    -3.1731     6.1646   189.2569 </r>
       <r>    -3.0508     3.3877   189.6709 </r>
       <r>    -2.9286     2.6874   189.9994 </r>
       <r>    -2.8064     0.0050   190.0000 </r>
       <r>    -2.6842     1.2165   190.1487 </r>
       <r>    -2.5619     2.8669   190.4991 </r>
       <r>    -2.4397     0.0072   190.5000 </r>
       <r>    -2.3175     0.2385   190.5292 </r>
       <r>    -2.1953     2.9899   190.8946 </r>
       <r>    -2.0730     1.6105   191.0914 </r>
       <r>    -1.9508     7.0575   191.9540 </r>
       <r>    -1.8286     0.4470   192.0087 </r>
       <r>    -1.7064     3.6026   192.4490 </r>
       <r>    -1.5841     5.7456   193.1513 </r>
       <r>    -1.4619     2.8463   193.4991 </r>
       <r>    -1.3397     0.4287   193.5515 </r>
       <r>    -1.2175     9.4199   194.7029 </r>
       <r>    -1.0952    15.8658   196.6421 </r>
       <r>    -0.9730     7.6780   197.5805 </r>
       <r>    -0.8508     8.1761   198.5799 </r>
       <r>    -0.7286     9.1787   199.7017 </r>
       <r>    -0.6063     4.3499   200.2334 </r>
       <r>    -0.4841     7.8695   201.1953 </r>
       <r>    -0.3619     7.9692   202.1693 </r>
       <r>    -0.2397    11.1360   203.5304 </r>
       <r>    -0.1174    12.5002   205.0583 </r>
       <r>     0.0048     5.8393   205.7720 </r>
       <r>     0.1270     2.0875   206.0271 </r>
       <r>     0.2492     4.1345   206.5325 </r>
       <r>     0.3715     5.7778   207.2386 </r>
       <r>     0.4937     8.2119   208.2424 </r>
       <r>     0.6159     4.8737   208.8380 </r>
       <r>     0.7381     4.2636   209.3592 </r>
       <r>     0.8604     8.9738   210.4560 </r>
       <r>     0.9826     8.7019   211.5196 </r>
       <r>     1.1048     7.9222   212.4879 </r>
       <r>     1.2270    13.0829   214.0869 </r>
       <r>     1.3493    16.8894   216.1513 </r>
       <r>     1.4715    12.2323   217.6464 </r>
       <r>     1.5937     6.3106   218.4177 </r>
       <r>     1.7159     6.3345   219.1919 </r>
       <r>     1.8382     9.5179   220.3552 </r>
       <r>     1.9604    28.6870   223.8615 </r>
       <r>     2.0826    12.4619   225.3847 </r>
       <r>     2.2048     7.5364   226.3058 </r>
       <r>     2.3271    19.9682   228.7464 </r>
       <r>     2.4493    20.6972   231.2762 </r>
       <r>     2.5715    15.5525   233.1771 </r>
       <r>     2.6937     7.4850   234.0919 </r>
       <r>     2.8160    33.5726   238.1954 </r>
       <r>     2.9382    47.2374   243.9690 </r>
       <r>     3.0604    15.0954   245.8140 </r>
       <r>     3.1826     7.0762   246.6789 </r>
       <r>     3.3049    16.1131   248.6484 </r>
       <r>     3.4271    27.8948   252.0578 </r>
       <r>     3.5493    15.1875   253.9141 </r>
       <r>     3.6716    11.0464   255.2643 </r>
       <r>     3.7938    28.3808   258.7331 </r>
       <r>     3.9160    29.7870   262.3739 </r>
       <r>     4.0382    18.4429   264.6280 </r>
       <r>     4.1605     3.0147   264.9965 </r>
       <r>     4.2827     0.0285   265.0000 </r>
       <r>     4.4049     0.0000   265.0000 </r>
       <r>     4.5271     0.0000   265.0000 </r>
       <r>     4.6494     0.0000   265.0000 </r>
       <r>     4.7716     0.0000   265.0000 </r>
       <r>     4.8938     0.0000   265.0000 </r>
       <r>     5.0160     0.0000   265.0000 </r>
       <r>     5.1383     0.0000   265.0000 </r>
       <r>     5.2605     0.0000   265.0000 </r>
       <r>     5.3827     0.0000   265.0000 </r>
       <r>     5.5049     0.0000   265.0000 </r>
       <r>     5.6272     0.0000   265.0000 </r>
       <r>     5.7494     0.0000   265.0000 </r>
      </set>
     </set>
    </array>
   </total>
  </dos>
 </calculation>
 <structure name="finalpos" >
  <crystal>
   <varray name="basis" >
    <v>      17.27103806       0.00000000       0.00000000 </v>
    <v>      -8.63551903      14.95715771       0.00000000 </v>
    <v>       0.00000000       0.00000000      15.00000000 </v>
   </varray>
   <i name="volume">   3874.88459904 </i>
   <varray name="rec_basis" >
    <v>       0.05790040       0.03342881      -0.00000000 </v>
    <v>       0.00000000       0.06685762       0.00000000 </v>
    <v>       0.00000000      -0.00000000       0.06666667 </v>
   </varray>
  </crystal>
  <varray name="positions" >
   <v>       0.99907087       0.00169568       0.49649663 </v>
   <v>       0.99929137       0.14468958       0.49681670 </v>
   <v>       0.00007885       0.28831673       0.49707606 </v>
   <v>       0.00052264       0.43139652       0.49669385 </v>
   <v>       0.00091464       0.57417351       0.49624971 </v>
   <v>       0.00128971       0.71710003       0.49608077 </v>
   <v>       0.99991752       0.85970590       0.49637085 </v>
   <v>       0.14335763       0.00336054       0.49713529 </v>
   <v>       0.14307458       0.14570576       0.49698347 </v>
   <v>       0.14238532       0.28736390       0.49710782 </v>
   <v>       0.14393858       0.43151046       0.49677489 </v>
   <v>       0.14488463       0.57420698       0.49628250 </v>
   <v>       0.14431315       0.71711397       0.49636552 </v>
   <v>       0.14353806       0.86028239       0.49688217 </v>
   <v>       0.28634547       0.00357242       0.49679244 </v>
   <v>       0.28702350       0.14731768       0.49688719 </v>
   <v>       0.28806809       0.29287755       0.49639858 </v>
   <v>       0.28510246       0.42645461       0.49595151 </v>
   <v>       0.29031624       0.57445587       0.49533354 </v>
   <v>       0.28767710       0.71778636       0.49574468 </v>
   <v>       0.28653157       0.86065883       0.49624398 </v>
   <v>       0.42929402       0.00389748       0.49597309 </v>
   <v>       0.42937131       0.14775738       0.49587406 </v>
   <v>       0.42951969       0.86026674       0.49552169 </v>
   <v>       0.57150845       0.00327482       0.49577000 </v>
   <v>       0.57155502       0.14676704       0.49549381 </v>
   <v>       0.57383379       0.29357773       0.49421661 </v>
   <v>       0.57351338       0.85887000       0.49487527 </v>
   <v>       0.71370042       0.00238040       0.49573010 </v>
   <v>       0.71429180       0.14606858       0.49616684 </v>
   <v>       0.71402118       0.28925058       0.49511624 </v>
   <v>       0.71000224       0.42925911       0.49261392 </v>
   <v>       0.70866651       0.85778089       0.49356329 </v>
   <v>       0.85586779       0.00142458       0.49566981 </v>
   <v>       0.85673850       0.14526599       0.49659371 </v>
   <v>       0.85700619       0.28851724       0.49638894 </v>
   <v>       0.85703202       0.43148138       0.49549081 </v>
   <v>       0.85725084       0.57395809       0.49443893 </v>
   <v>       0.85828673       0.71639921       0.49351884 </v>
   <v>       0.85463878       0.85750964       0.49451323 </v>
   <v>       0.04733101       0.09736866       0.49683044 </v>
   <v>       0.04687772       0.23984198       0.49717067 </v>
   <v>       0.04814566       0.38383135       0.49697827 </v>
   <v>       0.04907088       0.52672939       0.49648090 </v>
   <v>       0.04885055       0.66954213       0.49633490 </v>
   <v>       0.04806349       0.81235943       0.49657536 </v>
   <v>       0.04761445       0.95492222       0.49678549 </v>
   <v>       0.19122567       0.09862539       0.49713196 </v>
   <v>       0.19124802       0.24108808       0.49691542 </v>
   <v>       0.18974201       0.38221824       0.49680006 </v>
   <v>       0.19332482       0.52699531       0.49623023 </v>
   <v>       0.19221689       0.66974951       0.49614081 </v>
   <v>       0.19143075       0.81271866       0.49653296 </v>
   <v>       0.19117443       0.95568576       0.49707057 </v>
   <v>       0.33419630       0.09942407       0.49661215 </v>
   <v>       0.33840528       0.24354536       0.49611759 </v>
   <v>       0.33937185       0.67335583       0.49529299 </v>
   <v>       0.33444736       0.81288128       0.49572887 </v>
   <v>       0.33387734       0.95594418       0.49633413 </v>
   <v>       0.47663939       0.09933976       0.49576681 </v>
   <v>       0.47439565       0.24392797       0.49503721 </v>
   <v>       0.47461238       0.80947641       0.49516588 </v>
   <v>       0.47665452       0.95588370       0.49568112 </v>
   <v>       0.61888872       0.09864620       0.49589341 </v>
   <v>       0.61886300       0.24245969       0.49488419 </v>
   <v>       0.61861011       0.95473179       0.49548225 </v>
   <v>       0.76162265       0.09810111       0.49630104 </v>
   <v>       0.76183226       0.24122666       0.49596331 </v>
   <v>       0.76121131       0.38432277       0.49444303 </v>
   <v>       0.76057752       0.52895561       0.49108528 </v>
   <v>       0.76298803       0.66501302       0.48902864 </v>
   <v>       0.75767139       0.80790518       0.49210575 </v>
   <v>       0.76037722       0.95395459       0.49510712 </v>
   <v>       0.90381247       0.09676337       0.49648218 </v>
   <v>       0.90460862       0.24074075       0.49680419 </v>
   <v>       0.90479505       0.38401496       0.49628041 </v>
   <v>       0.90526201       0.52670937       0.49569223 </v>
   <v>       0.90580142       0.66905604       0.49477213 </v>
   <v>       0.90415370       0.81150962       0.49494720 </v>
   <v>       0.90317859       0.95322443       0.49571244 </v>
   <v>       0.71552305       0.71380550       0.48762761 </v>
   <v>       0.33208541       0.52237766       0.49476955 </v>
   <v>       0.62711425       0.66502209       0.48170305 </v>
   <v>       0.42131596       0.56198262       0.49312919 </v>
   <v>       0.42845273       0.28830420       0.49475603 </v>
   <v>       0.42926181       0.71932672       0.49497026 </v>
   <v>       0.71689120       0.57433737       0.48604398 </v>
   <v>       0.33195604       0.38237172       0.49597140 </v>
   <v>       0.61987680       0.38392725       0.49303429 </v>
   <v>       0.61874577       0.81396962       0.49378350 </v>
   <v>       0.47945068       0.48214296       0.54953971 </v>
   <v>       0.54181093       0.44359968       0.53563523 </v>
   <v>       0.53569527       0.48843438       0.56977594 </v>
  </varray>
  <varray name="selective"  type="logical" >
   <v type="logical" >  T  T  T </v>
   <v type="logical" >  T  T  T </v>
   <v type="logical" >  T  T  T </v>
   <v type="logical" >  T  T  T </v>
   <v type="logical" >  T  T  T </v>
   <v type="logical" >  T  T  T </v>
   <v type="logical" >  T  T  T </v>
   <v type="logical" >  T  T  T </v>
   <v type="logical" >  T  T  T </v>
   <v type="logical" >  T  T  T </v>
   <v type="logical" >  T  T  T </v>
   <v type="logical" >  T  T  T </v>
   <v type="logical" >  T  T  T </v>
   <v type="logical" >  T  T  T </v>
   <v type="logical" >  T  T  T </v>
   <v type="logical" >  T  T  T </v>
   <v type="logical" >  T  T  T </v>
   <v type="logical" >  T  T  T </v>
   <v type="logical" >  T  T  T </v>
   <v type="logical" >  T  T  T </v>
   <v type="logical" >  T  T  T </v>
   <v type="logical" >  T  T  T </v>
   <v type="logical" >  T  T  T </v>
   <v type="logical" >  T  T  T </v>
   <v type="logical" >  T  T  T </v>
   <v type="logical" >  T  T  T </v>
   <v type="logical" >  T  T  T </v>
   <v type="logical" >  T  T  T </v>
   <v type="logical" >  T  T  T </v>
   <v type="logical" >  T  T  T </v>
   <v type="logical" >  T  T  T </v>
   <v type="logical" >  T  T  T </v>
   <v type="logical" >  T  T  T </v>
   <v type="logical" >  T  T  T </v>
   <v type="logical" >  T  T  T </v>
   <v type="logical" >  T  T  T </v>
   <v type="logical" >  T  T  T </v>
   <v type="logical" >  T  T  T </v>
   <v type="logical" >  T  T  T </v>
   <v type="logical" >  T  T  T </v>
   <v type="logical" >  T  T  T </v>
   <v type="logical" >  T  T  T </v>
   <v type="logical" >  T  T  T </v>
   <v type="logical" >  T  T  T </v>
   <v type="logical" >  T  T  T </v>
   <v type="logical" >  T  T  T </v>
   <v type="logical" >  T  T  T </v>
   <v type="logical" >  T  T  T </v>
   <v type="logical" >  T  T  T </v>
   <v type="logical" >  T  T  T </v>
   <v type="logical" >  T  T  T </v>
   <v type="logical" >  T  T  T </v>
   <v type="logical" >  T  T  T </v>
   <v type="logical" >  T  T  T </v>
   <v type="logical" >  T  T  T </v>
   <v type="logical" >  T  T  T </v>
   <v type="logical" >  T  T  T </v>
   <v type="logical" >  T  T  T </v>
   <v type="logical" >  T  T  T </v>
   <v type="logical" >  T  T  T </v>
   <v type="logical" >  T  T  T </v>
   <v type="logical" >  T  T  T </v>
   <v type="logical" >  T  T  T </v>
   <v type="logical" >  T  T  T </v>
   <v type="logical" >  T  T  T </v>
   <v type="logical" >  T  T  T </v>
   <v type="logical" >  T  T  T </v>
   <v type="logical" >  T  T  T </v>
   <v type="logical" >  T  T  T </v>
   <v type="logical" >  T  T  T </v>
   <v type="logical" >  T  T  T </v>
   <v type="logical" >  T  T  T </v>
   <v type="logical" >  T  T  T </v>
   <v type="logical" >  T  T  T </v>
   <v type="logical" >  T  T  T </v>
   <v type="logical" >  T  T  T </v>
   <v type="logical" >  T  T  T </v>
   <v type="logical" >  T  T  T </v>
   <v type="logical" >  T  T  T </v>
   <v type="logical" >  T  T  T </v>
   <v type="logical" >  T  T  T </v>
   <v type="logical" >  T  T  T </v>
   <v type="logical" >  T  T  T </v>
   <v type="logical" >  T  T  T </v>
   <v type="logical" >  T  T  T </v>
   <v type="logical" >  T  T  T </v>
   <v type="logical" >  T  T  T </v>
   <v type="logical" >  T  T  T </v>
   <v type="logical" >  T  T  T </v>
   <v type="logical" >  T  T  T </v>
   <v type="logical" >  T  T  T </v>
   <v type="logical" >  T  T  T </v>
   <v type="logical" >  T  T  F </v>
  </varray>
  <nose>
   <v>      -3.00000000       0.00000000       0.00010000       0.00010000 </v>
  </nose>
 </structure>
</modeling>
