unknown system                          
            1
    17.271038    0.000000    0.000000
    -8.635519   14.957158    0.000000
     0.000000    0.000000   15.000000
   C    F    N    H    O 
    82     2     6     2     1
Direct configuration=     1
   0.99902125  0.00162221  0.49641450
   0.99924877  0.14462852  0.49666646
   0.00004725  0.28826915  0.49701295
   0.00049062  0.43134231  0.49664068
   0.00087700  0.57411457  0.49615774
   0.00124408  0.71703294  0.49597038
   0.99986868  0.85964156  0.49627532
   0.14331190  0.00329325  0.49700297
   0.14302514  0.14563367  0.49689494
   0.14233490  0.28729106  0.49697519
   0.14390117  0.43144318  0.49659825
   0.14485098  0.57413870  0.49609389
   0.14427226  0.71704406  0.49615677
   0.14348080  0.86020756  0.49668614
   0.28629111  0.00349708  0.49658117
   0.28698314  0.14724765  0.49682871
   0.28800493  0.29279192  0.49641801
   0.28506009  0.42637895  0.49583845
   0.29027882  0.57439173  0.49503946
   0.28763949  0.71772350  0.49540709
   0.28647977  0.86059308  0.49599008
   0.42925393  0.00383580  0.49575270
   0.42931983  0.14767273  0.49577726
   0.42948072  0.86021767  0.49519460
   0.57147506  0.00321348  0.49559799
   0.57152101  0.14670024  0.49537280
   0.57378993  0.29349100  0.49425229
   0.57346969  0.85880666  0.49456189
   0.71366359  0.00232028  0.49556853
   0.71426742  0.14601661  0.49606973
   0.71398488  0.28919653  0.49511204
   0.70993814  0.42918527  0.49266672
   0.70861206  0.85770961  0.49341063
   0.85582077  0.00135588  0.49554845
   0.85670850  0.14521449  0.49650359
   0.85697899  0.28846916  0.49635578
   0.85699867  0.43143053  0.49549551
   0.85720307  0.57389095  0.49444453
   0.85823026  0.71632620  0.49353420
   0.85458193  0.85743722  0.49447997
   0.04728220  0.09729810  0.49671700
   0.04683397  0.23977978  0.49705244
   0.04811123  0.38377743  0.49690756
   0.04903537  0.52667183  0.49638801
   0.04880760  0.66947687  0.49619488
   0.04800522  0.81228920  0.49642201
   0.04756630  0.95485889  0.49669077
   0.19117270  0.09855547  0.49703160
   0.19118422  0.24100434  0.49682582
   0.18969885  0.38214520  0.49663008
   0.19329059  0.52692995  0.49600454
   0.19218291  0.66968412  0.49588340
   0.19137928  0.81264514  0.49632583
   0.19111462  0.95560819  0.49687699
   0.33415022  0.09935166  0.49650365
   0.33835492  0.24347193  0.49618579
   0.33933027  0.67329215  0.49488036
   0.33440102  0.81281881  0.49538635
   0.33383465  0.95587713  0.49610616
   0.47660354  0.09926926  0.49559036
   0.47435074  0.24384215  0.49508370
   0.47456380  0.80941647  0.49476159
   0.47662452  0.95583251  0.49547988
   0.61886309  0.09858261  0.49575985
   0.61882576  0.24238632  0.49485582
   0.61857409  0.95467166  0.49528296
   0.76159311  0.09804270  0.49620598
   0.76179937  0.24116984  0.49590600
   0.76116976  0.38426369  0.49448910
   0.76051806  0.52888237  0.49113543
   0.76292266  0.66493119  0.48906773
   0.75761043  0.80782579  0.49204665
   0.76033192  0.95388690  0.49496594
   0.90376816  0.09669684  0.49633451
   0.90457196  0.24068247  0.49674985
   0.90476271  0.38396223  0.49625994
   0.90522016  0.52664892  0.49566965
   0.90574333  0.66898421  0.49475078
   0.90409948  0.81144097  0.49492796
   0.90313000  0.95315193  0.49564932
   0.71544668  0.71371860  0.48764924
   0.33205356  0.52230639  0.49461444
   0.62703170  0.66496592  0.48177881
   0.42129375  0.56191601  0.49305137
   0.42841273  0.28822970  0.49494325
   0.42921904  0.71926811  0.49450884
   0.71684362  0.57426403  0.48607043
   0.33190003  0.38228264  0.49601734
   0.61981601  0.38383108  0.49306672
   0.61869589  0.81390380  0.49350722
   0.47976742  0.48291635  0.55168353
   0.54032845  0.44261052  0.53564079
   0.53635392  0.48867720  0.56977594
Direct configuration=     2
   0.99902138  0.00162256  0.49641679
   0.99924810  0.14462641  0.49666863
   0.00004605  0.28826816  0.49701369
   0.00049033  0.43134209  0.49664085
   0.00087813  0.57411514  0.49615793
   0.00124497  0.71703465  0.49597152
   0.99986954  0.85964332  0.49627691
   0.14331100  0.00329459  0.49700558
   0.14302603  0.14563347  0.49689659
   0.14233588  0.28729070  0.49697761
   0.14390189  0.43144408  0.49659950
   0.14485195  0.57413960  0.49609479
   0.14427335  0.71704487  0.49616026
   0.14348075  0.86020883  0.49668778
   0.28629002  0.00349750  0.49658380
   0.28698317  0.14724891  0.49683060
   0.28800869  0.29278997  0.49641767
   0.28506129  0.42638093  0.49584006
   0.29027943  0.57439270  0.49504320
   0.28764008  0.71772381  0.49541215
   0.28647940  0.86059135  0.49599140
   0.42925632  0.00383683  0.49575490
   0.42932023  0.14767370  0.49577892
   0.42948222  0.86021862  0.49519702
   0.57147926  0.00321569  0.49559955
   0.57152564  0.14669706  0.49537403
   0.57379095  0.29349088  0.49425093
   0.57347181  0.85880793  0.49456490
   0.71366406  0.00232127  0.49556959
   0.71426766  0.14601514  0.49607124
   0.71398532  0.28919218  0.49511081
   0.70993798  0.42918395  0.49266531
   0.70861263  0.85771030  0.49341292
   0.85581794  0.00135403  0.49555005
   0.85670049  0.14520508  0.49650297
   0.85697634  0.28846655  0.49635688
   0.85699852  0.43142823  0.49549521
   0.85720256  0.57389191  0.49444362
   0.85823037  0.71632787  0.49353335
   0.85458237  0.85743827  0.49448085
   0.04728320  0.09730046  0.49671935
   0.04683504  0.23978232  0.49705437
   0.04811180  0.38377825  0.49690733
   0.04903079  0.52667079  0.49638935
   0.04880786  0.66947712  0.49619647
   0.04800671  0.81228924  0.49642376
   0.04756710  0.95485951  0.49669317
   0.19117384  0.09855688  0.49703372
   0.19118369  0.24100668  0.49682780
   0.18969902  0.38214599  0.49663233
   0.19329079  0.52693040  0.49600636
   0.19218340  0.66968502  0.49588715
   0.19138103  0.81264622  0.49632927
   0.19111969  0.95560868  0.49688006
   0.33415180  0.09935237  0.49650613
   0.33835547  0.24347374  0.49618520
   0.33933080  0.67329346  0.49488540
   0.33440216  0.81282057  0.49538954
   0.33383540  0.95587827  0.49610769
   0.47660111  0.09927018  0.49559226
   0.47435166  0.24384244  0.49508274
   0.47456381  0.80941796  0.49476511
   0.47662176  0.95583233  0.49548182
   0.61885895  0.09858331  0.49576152
   0.61882464  0.24238974  0.49485549
   0.61857117  0.95467025  0.49528395
   0.76159605  0.09804558  0.49620734
   0.76180059  0.24117349  0.49590711
   0.76117129  0.38426811  0.49448841
   0.76052409  0.52888342  0.49113532
   0.76292393  0.66493185  0.48906696
   0.75761179  0.80782647  0.49204778
   0.76033652  0.95388917  0.49496837
   0.90377012  0.09670205  0.49633598
   0.90457626  0.24068733  0.49675082
   0.90476433  0.38396526  0.49626054
   0.90522061  0.52665076  0.49566912
   0.90574460  0.66898372  0.49475043
   0.90410049  0.81144122  0.49492812
   0.90313105  0.95315307  0.49565114
   0.71544691  0.71371966  0.48764906
   0.33205340  0.52230708  0.49461716
   0.62703640  0.66496789  0.48178126
   0.42129257  0.56191691  0.49305355
   0.42841221  0.28823087  0.49494025
   0.42921934  0.71926856  0.49451322
   0.71684281  0.57426658  0.48606969
   0.33190088  0.38228557  0.49601652
   0.61981741  0.38383306  0.49306521
   0.61869467  0.81390346  0.49351068
   0.47976370  0.48291056  0.55165116
   0.54034425  0.44262334  0.53563516
   0.53634102  0.48867272  0.56977594
Direct configuration=     3
   0.99902285  0.00162486  0.49642016
   0.99925048  0.14463200  0.49667183
   0.00004869  0.28827118  0.49701480
   0.00049007  0.43134260  0.49664117
   0.00087599  0.57411582  0.49615844
   0.00124603  0.71703414  0.49597312
   0.99986866  0.85963563  0.49627880
   0.14331476  0.00329517  0.49700954
   0.14302697  0.14563669  0.49689925
   0.14233611  0.28729369  0.49698114
   0.14390185  0.43144428  0.49660132
   0.14484949  0.57413899  0.49609673
   0.14427385  0.71704592  0.49616538
   0.14348433  0.86020959  0.49669075
   0.28629463  0.00349927  0.49658768
   0.28698536  0.14724989  0.49683338
   0.28800586  0.29279703  0.49641821
   0.28506121  0.42638122  0.49584242
   0.29027997  0.57439420  0.49504871
   0.28764155  0.71772600  0.49541948
   0.28648170  0.86059399  0.49599392
   0.42925431  0.00383820  0.49575806
   0.42932097  0.14767503  0.49578132
   0.42948190  0.86022002  0.49520078
   0.57147373  0.00321383  0.49560181
   0.57151962  0.14670489  0.49537537
   0.57379094  0.29349371  0.49424890
   0.57346962  0.85880702  0.49456919
   0.71366446  0.00232136  0.49557137
   0.71426782  0.14601890  0.49607345
   0.71398613  0.28919934  0.49511212
   0.70994122  0.42918727  0.49266346
   0.70861306  0.85771015  0.49341637
   0.85582350  0.00135883  0.49555269
   0.85671370  0.14522108  0.49650613
   0.85698124  0.28847176  0.49635847
   0.85700070  0.43143318  0.49549477
   0.85720549  0.57389277  0.49444239
   0.85823331  0.71632781  0.49353222
   0.85458478  0.85743952  0.49448219
   0.04728387  0.09729918  0.49672280
   0.04683341  0.23977869  0.49705459
   0.04811253  0.38377889  0.49690730
   0.04903911  0.52667401  0.49638884
   0.04881016  0.66947914  0.49619885
   0.04800749  0.81229189  0.49642627
   0.04756780  0.95486118  0.49669669
   0.19117410  0.09855730  0.49703688
   0.19118715  0.24100575  0.49683057
   0.18970033  0.38214702  0.49663562
   0.19329148  0.52693194  0.49600908
   0.19218459  0.66968543  0.49589258
   0.19138076  0.81264614  0.49633392
   0.19111380  0.95561043  0.49688285
   0.33415097  0.09935403  0.49650977
   0.33835677  0.24347413  0.49618429
   0.33933194  0.67329434  0.49489262
   0.33440335  0.81281995  0.49539423
   0.33383607  0.95587790  0.49611008
   0.47660605  0.09927125  0.49559510
   0.47435179  0.24384498  0.49508137
   0.47456594  0.80941868  0.49477027
   0.47662753  0.95583493  0.49548471
   0.61886469  0.09858239  0.49576397
   0.61882712  0.24238640  0.49485492
   0.61857555  0.95467297  0.49528571
   0.76159007  0.09804059  0.49620896
   0.76179837  0.24116765  0.49590850
   0.76117056  0.38426286  0.49448719
   0.76051684  0.52888440  0.49113236
   0.76292464  0.66493394  0.48906575
   0.75761230  0.80782800  0.49204940
   0.76032907  0.95388610  0.49496909
   0.90376737  0.09669445  0.49633804
   0.90457002  0.24068021  0.49675195
   0.90476285  0.38396169  0.49626134
   0.90522106  0.52664994  0.49566833
   0.90574531  0.66898734  0.49474983
   0.90410185  0.81144356  0.49492845
   0.90313079  0.95315347  0.49565383
   0.71545206  0.71372241  0.48764937
   0.33205329  0.52230871  0.49462109
   0.62703348  0.66496844  0.48177834
   0.42129500  0.56191991  0.49305682
   0.42841493  0.28823175  0.49493602
   0.42922013  0.71927046  0.49451955
   0.71684613  0.57426507  0.48606934
   0.33190168  0.38228461  0.49601547
   0.61981778  0.38383344  0.49306305
   0.61869734  0.81390459  0.49351558
   0.47975671  0.48290235  0.55160583
   0.54036633  0.44264240  0.53562874
   0.53632398  0.48866539  0.56977594
Direct configuration=     4
   0.99902306  0.00162374  0.49642283
   0.99924811  0.14462492  0.49667388
   0.00004610  0.28826801  0.49701528
   0.00049227  0.43134352  0.49664116
   0.00088095  0.57411720  0.49615871
   0.00124766  0.71703732  0.49597432
   0.99987229  0.85964728  0.49628064
   0.14330890  0.00329386  0.49701206
   0.14302806  0.14563454  0.49690147
   0.14233719  0.28729115  0.49698345
   0.14390367  0.43144664  0.49660268
   0.14485425  0.57414169  0.49609830
   0.14427570  0.71704621  0.49616928
   0.14348252  0.86021154  0.49669319
   0.28629040  0.00349928  0.49659051
   0.28698118  0.14725138  0.49683438
   0.28801141  0.29279196  0.49641776
   0.28506338  0.42638395  0.49584420
   0.29028019  0.57439567  0.49505300
   0.28764175  0.71772494  0.49542507
   0.28648125  0.86059218  0.49599623
   0.42925929  0.00383873  0.49576042
   0.42932291  0.14767776  0.49578124
   0.42948510  0.86022107  0.49520382
   0.57148228  0.00321759  0.49560360
   0.57152834  0.14669741  0.49537681
   0.57379241  0.29349312  0.49424729
   0.57347412  0.85880926  0.49457242
   0.71366317  0.00232124  0.49557250
   0.71426600  0.14601103  0.49607341
   0.71398599  0.28919083  0.49511071
   0.70993889  0.42918514  0.49266173
   0.70861289  0.85771130  0.49341868
   0.85581618  0.00135306  0.49555438
   0.85669724  0.14520175  0.49650562
   0.85697451  0.28846468  0.49635953
   0.85699922  0.43142797  0.49549433
   0.85720344  0.57389435  0.49444108
   0.85823175  0.71633064  0.49353116
   0.85458494  0.85744123  0.49448328
   0.04728543  0.09730432  0.49672548
   0.04683558  0.23978477  0.49705541
   0.04811226  0.38377924  0.49690749
   0.04902906  0.52667122  0.49639018
   0.04880840  0.66947809  0.49620075
   0.04800967  0.81228838  0.49642815
   0.04756790  0.95485829  0.49669936
   0.19117629  0.09855968  0.49703940
   0.19118508  0.24101080  0.49683280
   0.18970009  0.38214787  0.49663817
   0.19329076  0.52693150  0.49601130
   0.19218441  0.66968681  0.49589683
   0.19138219  0.81264593  0.49633530
   0.19112383  0.95561075  0.49688634
   0.33415816  0.09935460  0.49651200
   0.33835791  0.24347739  0.49618360
   0.33933274  0.67329618  0.49489822
   0.33440405  0.81282296  0.49539794
   0.33383703  0.95587986  0.49611211
   0.47660062  0.09927298  0.49559722
   0.47435363  0.24384490  0.49508021
   0.47456467  0.80941962  0.49477434
   0.47662090  0.95583411  0.49548693
   0.61885751  0.09858591  0.49576565
   0.61882544  0.24239374  0.49485455
   0.61857071  0.95467064  0.49528726
   0.76159955  0.09804949  0.49621051
   0.76180299  0.24117737  0.49590977
   0.76117327  0.38427462  0.49448588
   0.76052706  0.52888491  0.49113233
   0.76292711  0.66493371  0.48906491
   0.75761516  0.80782940  0.49205074
   0.76033859  0.95389053  0.49497199
   0.90377327  0.09670643  0.49633994
   0.90457979  0.24069170  0.49675314
   0.90476547  0.38396744  0.49626181
   0.90522159  0.52665261  0.49566763
   0.90574758  0.66898492  0.49474937
   0.90410219  0.81144114  0.49492864
   0.90313319  0.95315549  0.49565594
   0.71544883  0.71372163  0.48764895
   0.33205451  0.52230916  0.49462413
   0.62703913  0.66497077  0.48178093
   0.42129044  0.56191547  0.49306136
   0.42841286  0.28823315  0.49493269
   0.42922070  0.71927082  0.49452438
   0.71684354  0.57426957  0.48606847
   0.33190190  0.38228930  0.49601460
   0.61982001  0.38383598  0.49306135
   0.61869517  0.81390397  0.49351937
   0.47975237  0.48289644  0.55157217
   0.54038304  0.44265610  0.53562367
   0.53630961  0.48866033  0.56977594
Direct configuration=     5
   0.99902412  0.00162601  0.49642455
   0.99925072  0.14463162  0.49667522
   0.00004850  0.28827130  0.49701571
   0.00049090  0.43134332  0.49664136
   0.00087757  0.57411711  0.49615910
   0.00124748  0.71703495  0.49597378
   0.99987089  0.85963930  0.49628161
   0.14331437  0.00329559  0.49701407
   0.14302864  0.14563831  0.49690297
   0.14233661  0.28729443  0.49698489
   0.14390243  0.43144544  0.49660366
   0.14485070  0.57414053  0.49609959
   0.14427446  0.71704644  0.49617154
   0.14348509  0.86021049  0.49669473
   0.28629576  0.00350116  0.49659232
   0.28698662  0.14725130  0.49683589
   0.28800950  0.29279710  0.49641814
   0.28506175  0.42638335  0.49584540
   0.29028070  0.57439587  0.49505568
   0.28764377  0.71772710  0.49542739
   0.28648225  0.86059433  0.49599768
   0.42925625  0.00384016  0.49576197
   0.42932354  0.14767806  0.49578269
   0.42948210  0.86021806  0.49520499
   0.57147619  0.00321593  0.49560478
   0.57152243  0.14670390  0.49537755
   0.57379213  0.29349536  0.49424644
   0.57347144  0.85880806  0.49457452
   0.71366479  0.00232227  0.49557348
   0.71426806  0.14601844  0.49607478
   0.71398722  0.28919935  0.49511138
   0.70994151  0.42918870  0.49266089
   0.70861375  0.85771118  0.49342034
   0.85582253  0.00135876  0.49555575
   0.85670971  0.14521635  0.49650737
   0.85698038  0.28847100  0.49636034
   0.85700101  0.43143309  0.49549416
   0.85720594  0.57389433  0.49444057
   0.85823469  0.71632924  0.49353080
   0.85458637  0.85744106  0.49448406
   0.04728549  0.09730098  0.49672720
   0.04683475  0.23978076  0.49705614
   0.04811356  0.38377996  0.49690777
   0.04903660  0.52667399  0.49639000
   0.04881112  0.66947995  0.49620202
   0.04800957  0.81229301  0.49642942
   0.04756837  0.95486146  0.49670107
   0.19117415  0.09855765  0.49704095
   0.19118767  0.24100823  0.49683419
   0.18970098  0.38214844  0.49663974
   0.19329209  0.52693336  0.49601275
   0.19218578  0.66968659  0.49589947
   0.19138138  0.81264586  0.49633649
   0.19111762  0.95561185  0.49688776
   0.33415223  0.09935729  0.49651323
   0.33835721  0.24347640  0.49618318
   0.33933287  0.67329611  0.49490174
   0.33440496  0.81282184  0.49540032
   0.33383723  0.95587948  0.49611350
   0.47660594  0.09927352  0.49559849
   0.47435353  0.24384742  0.49507948
   0.47456687  0.80942040  0.49477694
   0.47662735  0.95583600  0.49548840
   0.61886671  0.09858550  0.49576628
   0.61882775  0.24238736  0.49485366
   0.61857451  0.95467292  0.49528837
   0.76159070  0.09804253  0.49621001
   0.76179864  0.24116895  0.49591041
   0.76117151  0.38426655  0.49448552
   0.76052134  0.52888622  0.49113085
   0.76292634  0.66493530  0.48906441
   0.75761431  0.80782977  0.49205156
   0.76033226  0.95388837  0.49497247
   0.90376882  0.09669835  0.49634104
   0.90457263  0.24068319  0.49675378
   0.90476409  0.38396352  0.49626219
   0.90522222  0.52665192  0.49566735
   0.90574711  0.66898833  0.49474914
   0.90410357  0.81144479  0.49492896
   0.90313291  0.95315571  0.49565732
   0.71545240  0.71372368  0.48764928
   0.33205307  0.52231015  0.49462626
   0.62703478  0.66496698  0.48178053
   0.42129331  0.56191818  0.49306303
   0.42841556  0.28823360  0.49493096
   0.42922118  0.71927167  0.49452730
   0.71684618  0.57426701  0.48606859
   0.33190249  0.38228758  0.49601419
   0.61981888  0.38383565  0.49306052
   0.61869707  0.81390469  0.49352154
   0.47974850  0.48289259  0.55155062
   0.54039356  0.44266536  0.53562128
   0.53630222  0.48865673  0.56977594
Direct configuration=     6
   0.99902477  0.00162580  0.49642689
   0.99925009  0.14462862  0.49667698
   0.00004788  0.28827016  0.49701624
   0.00049215  0.43134403  0.49664149
   0.00088001  0.57411796  0.49615955
   0.00124890  0.71703780  0.49597508
   0.99987311  0.85964576  0.49628325
   0.14331165  0.00329478  0.49701641
   0.14302923  0.14563706  0.49690506
   0.14233786  0.28729367  0.49698681
   0.14390401  0.43144732  0.49660496
   0.14485299  0.57414196  0.49610133
   0.14427617  0.71704665  0.49617455
   0.14348504  0.86021218  0.49669678
   0.28629377  0.00350190  0.49659471
   0.28698276  0.14725267  0.49683690
   0.28801204  0.29279555  0.49641792
   0.28506273  0.42638459  0.49584698
   0.29028076  0.57439709  0.49505940
   0.28764418  0.71772654  0.49542912
   0.28648244  0.86059390  0.49599971
   0.42925898  0.00384041  0.49576404
   0.42932315  0.14767889  0.49578443
   0.42948560  0.86022230  0.49520799
   0.57148074  0.00321805  0.49560634
   0.57152734  0.14670040  0.49537870
   0.57379340  0.29349517  0.49424511
   0.57347355  0.85880954  0.49457737
   0.71366391  0.00232223  0.49557455
   0.71426762  0.14601488  0.49607489
   0.71398704  0.28919486  0.49511029
   0.70994118  0.42918822  0.49265959
   0.70861403  0.85771216  0.49342248
   0.85582013  0.00135684  0.49555740
   0.85670163  0.14520785  0.49650719
   0.85697718  0.28846761  0.49636131
   0.85700077  0.43143127  0.49549384
   0.85720585  0.57389562  0.49443962
   0.85823430  0.71633133  0.49353007
   0.85458714  0.85744262  0.49448509
   0.04728646  0.09730419  0.49672955
   0.04683570  0.23978373  0.49705720
   0.04811316  0.38378005  0.49690812
   0.04903187  0.52667271  0.49639116
   0.04881026  0.66947936  0.49620358
   0.04801060  0.81229094  0.49643096
   0.04756900  0.95486063  0.49670340
   0.19117651  0.09855973  0.49704314
   0.19118771  0.24101119  0.49683609
   0.18970070  0.38214896  0.49664186
   0.19329164  0.52693306  0.49601480
   0.19218337  0.66968867  0.49590187
   0.19138270  0.81264652  0.49633827
   0.19112052  0.95561216  0.49688982
   0.33415854  0.09935716  0.49651506
   0.33835935  0.24347823  0.49618258
   0.33933414  0.67329730  0.49490635
   0.33440497  0.81282270  0.49540343
   0.33383809  0.95588085  0.49611547
   0.47660393  0.09927450  0.49560026
   0.47435244  0.24384530  0.49507926
   0.47456636  0.80942001  0.49478036
   0.47662402  0.95583523  0.49549033
   0.61886084  0.09858570  0.49576775
   0.61882702  0.24239275  0.49485353
   0.61857293  0.95467213  0.49528993
   0.76159637  0.09804660  0.49621140
   0.76180206  0.24117501  0.49591136
   0.76117362  0.38426984  0.49448485
   0.76052621  0.52888691  0.49113062
   0.76292790  0.66493552  0.48906377
   0.75761553  0.80783040  0.49205268
   0.76033360  0.95388874  0.49497335
   0.90377151  0.09670362  0.49634261
   0.90457667  0.24068790  0.49675474
   0.90476520  0.38396614  0.49626259
   0.90522243  0.52665309  0.49566683
   0.90574859  0.66898721  0.49474863
   0.90410406  0.81144358  0.49492928
   0.90313395  0.95315672  0.49565919
   0.71545116  0.71372335  0.48764927
   0.33205375  0.52231041  0.49462906
   0.62703688  0.66496954  0.48177886
   0.42129439  0.56192035  0.49306559
   0.42841439  0.28823473  0.49492838
   0.42922180  0.71927196  0.49453150
   0.71684565  0.57426931  0.48606809
   0.33190305  0.38228991  0.49601355
   0.61982018  0.38383730  0.49305923
   0.61869678  0.81390457  0.49352462
   0.47974494  0.48288770  0.55152302
   0.54040738  0.44267643  0.53561746
   0.53629036  0.48865252  0.56977594
Direct configuration=     7
   0.99902824  0.00162930  0.49642854
   0.99925171  0.14463345  0.49667974
   0.00004919  0.28827254  0.49701715
   0.00049089  0.43134420  0.49664190
   0.00087805  0.57411822  0.49616038
   0.00124950  0.71703580  0.49597444
   0.99987205  0.85963791  0.49628529
   0.14331389  0.00329512  0.49702002
   0.14303055  0.14564073  0.49690836
   0.14233796  0.28729629  0.49698971
   0.14390316  0.43144707  0.49660708
   0.14485046  0.57414245  0.49610411
   0.14427481  0.71704828  0.49617883
   0.14348707  0.86021170  0.49669984
   0.28629753  0.00350326  0.49659825
   0.28699043  0.14725360  0.49683993
   0.28800996  0.29280096  0.49641859
   0.28506276  0.42638529  0.49584944
   0.29028151  0.57439776  0.49506508
   0.28764395  0.71772818  0.49543240
   0.28648350  0.86059554  0.49600293
   0.42925742  0.00384212  0.49576722
   0.42932671  0.14768132  0.49578477
   0.42948193  0.86021631  0.49521098
   0.57147643  0.00321681  0.49560881
   0.57152383  0.14670289  0.49538049
   0.57379267  0.29349690  0.49424338
   0.57347253  0.85880871  0.49458167
   0.71366506  0.00232291  0.49557631
   0.71426905  0.14601894  0.49607557
   0.71398855  0.28920097  0.49511156
   0.70994414  0.42919022  0.49265793
   0.70861457  0.85771188  0.49342553
   0.85582201  0.00135948  0.49555995
   0.85671286  0.14522048  0.49651054
   0.85698152  0.28847268  0.49636283
   0.85700249  0.43143439  0.49549340
   0.85720811  0.57389617  0.49443837
   0.85823667  0.71633088  0.49352916
   0.85458808  0.85744259  0.49448673
   0.04728711  0.09730260  0.49673315
   0.04683613  0.23978205  0.49705897
   0.04811463  0.38378134  0.49690878
   0.04903990  0.52667604  0.49639099
   0.04881257  0.66948129  0.49620612
   0.04801203  0.81229560  0.49643347
   0.04756970  0.95486333  0.49670698
   0.19117478  0.09855921  0.49704640
   0.19118973  0.24101008  0.49683892
   0.18970195  0.38215015  0.49664502
   0.19329424  0.52693629  0.49601552
   0.19218894  0.66968748  0.49590710
   0.19138339  0.81264755  0.49634128
   0.19111883  0.95561379  0.49689309
   0.33414991  0.09936000  0.49651783
   0.33835777  0.24347840  0.49618169
   0.33933416  0.67329739  0.49491280
   0.33440707  0.81282358  0.49540786
   0.33383834  0.95588123  0.49611862
   0.47660802  0.09927499  0.49560303
   0.47435539  0.24385058  0.49507765
   0.47456870  0.80942224  0.49478562
   0.47662922  0.95583724  0.49549093
   0.61886430  0.09858419  0.49576986
   0.61882881  0.24239093  0.49485330
   0.61857536  0.95467440  0.49529243
   0.76158973  0.09804292  0.49621079
   0.76179935  0.24116937  0.49591248
   0.76117299  0.38426719  0.49448373
   0.76052134  0.52888781  0.49112798
   0.76292799  0.66493753  0.48906283
   0.75761624  0.80783152  0.49205445
   0.76033271  0.95388932  0.49497499
   0.90376928  0.09669775  0.49634495
   0.90457247  0.24068335  0.49675599
   0.90476483  0.38396446  0.49626321
   0.90522332  0.52665342  0.49566614
   0.90574915  0.66899056  0.49474797
   0.90410571  0.81144745  0.49492992
   0.90313409  0.95315672  0.49565959
   0.71545344  0.71372505  0.48764937
   0.33205486  0.52231280  0.49463332
   0.62703336  0.66496477  0.48177827
   0.42129555  0.56192326  0.49306966
   0.42841714  0.28823547  0.49492471
   0.42922302  0.71927320  0.49453788
   0.71684778  0.57426909  0.48606778
   0.33190441  0.38229044  0.49601269
   0.61982080  0.38383835  0.49305737
   0.61869780  0.81390562  0.49352921
   0.47973767  0.48287996  0.55148212
   0.54042755  0.44269364  0.53561269
   0.53627416  0.48864577  0.56977594
Direct configuration=     8
   0.99902567  0.00162703  0.49643192
   0.99925051  0.14462779  0.49668215
   0.00004859  0.28827087  0.49701800
   0.00049444  0.43134606  0.49664204
   0.00088281  0.57411942  0.49616102
   0.00125133  0.71704111  0.49597662
   0.99987567  0.85965074  0.49628755
   0.14331211  0.00329706  0.49702330
   0.14303131  0.14563833  0.49691140
   0.14233973  0.28729482  0.49699227
   0.14390619  0.43145050  0.49660861
   0.14485689  0.57414444  0.49610624
   0.14427938  0.71704805  0.49618264
   0.14348740  0.86021538  0.49670258
   0.28629312  0.00350423  0.49660140
   0.28698024  0.14725572  0.49684128
   0.28801449  0.29279701  0.49641824
   0.28506505  0.42638824  0.49585156
   0.29028230  0.57439966  0.49506980
   0.28764647  0.71772781  0.49543615
   0.28648482  0.86059585  0.49600589
   0.42926133  0.00384136  0.49576974
   0.42932318  0.14768094  0.49578738
   0.42948890  0.86022572  0.49521514
   0.57148233  0.00321862  0.49561070
   0.57153019  0.14670170  0.49538203
   0.57379528  0.29349811  0.49424176
   0.57347561  0.85881178  0.49458555
   0.71366387  0.00232314  0.49557759
   0.71426633  0.14601351  0.49607609
   0.71398748  0.28919424  0.49511012
   0.70994229  0.42918932  0.49265615
   0.70861690  0.85771412  0.49342603
   0.85581966  0.00135595  0.49556174
   0.85669809  0.14520390  0.49651009
   0.85697618  0.28846698  0.49636396
   0.85700170  0.43143181  0.49549287
   0.85720642  0.57389781  0.49443692
   0.85823581  0.71633461  0.49352824
   0.85458936  0.85744533  0.49448791
   0.04728894  0.09730823  0.49673609
   0.04683689  0.23978669  0.49706069
   0.04811330  0.38378132  0.49690943
   0.04902965  0.52667329  0.49639284
   0.04881099  0.66948016  0.49620806
   0.04801296  0.81229018  0.49643534
   0.04756997  0.95485982  0.49670988
   0.19117879  0.09856174  0.49704946
   0.19118892  0.24101524  0.49684153
   0.18970325  0.38215165  0.49664556
   0.19328818  0.52692795  0.49601842
   0.19218267  0.66969142  0.49590997
   0.19138426  0.81264775  0.49634416
   0.19112323  0.95561299  0.49689614
   0.33416492  0.09935950  0.49652019
   0.33836244  0.24348208  0.49618099
   0.33933622  0.67329975  0.49491821
   0.33440502  0.81282344  0.49541143
   0.33383965  0.95588308  0.49612153
   0.47660433  0.09927647  0.49560527
   0.47435371  0.24384648  0.49507702
   0.47456724  0.80942025  0.49479015
   0.47662207  0.95583386  0.49549206
   0.61886079  0.09858694  0.49577159
   0.61882774  0.24239488  0.49485317
   0.61857304  0.95467258  0.49529472
   0.76160065  0.09805022  0.49621297
   0.76180422  0.24117811  0.49591357
   0.76117664  0.38427309  0.49448284
   0.76053037  0.52888891  0.49112783
   0.76293022  0.66493779  0.48906205
   0.75761662  0.80783143  0.49205597
   0.76033444  0.95388959  0.49497671
   0.90377359  0.09670799  0.49634724
   0.90458020  0.24069262  0.49675738
   0.90476652  0.38396868  0.49626365
   0.90522384  0.52665479  0.49566542
   0.90575131  0.66898840  0.49474709
   0.90410573  0.81144358  0.49493041
   0.90313578  0.95315842  0.49566032
   0.71545042  0.71372386  0.48764916
   0.33205545  0.52231276  0.49463716
   0.62703852  0.66496967  0.48177612
   0.42129633  0.56192578  0.49307349
   0.42841401  0.28823731  0.49492138
   0.42922313  0.71927310  0.49454366
   0.71684612  0.57427229  0.48606700
   0.33190470  0.38229406  0.49601188
   0.61982300  0.38384045  0.49305567
   0.61869756  0.81390528  0.49353314
   0.47973239  0.48287329  0.55144690
   0.54044514  0.44270776  0.53560817
   0.53625862  0.48864046  0.56977594
Direct configuration=     9
   0.99902871  0.00163008  0.49643283
   0.99925258  0.14463446  0.49668378
   0.00004988  0.28827356  0.49701870
   0.00049202  0.43134518  0.49664242
   0.00087934  0.57411976  0.49616160
   0.00125107  0.71703755  0.49597647
   0.99987433  0.85964119  0.49628869
   0.14331478  0.00329603  0.49702541
   0.14303196  0.14564236  0.49691338
   0.14233916  0.28729812  0.49699374
   0.14390302  0.43144619  0.49660965
   0.14485136  0.57414280  0.49610779
   0.14427579  0.71704947  0.49618487
   0.14348822  0.86021281  0.49670433
   0.28629846  0.00350517  0.49660338
   0.28699004  0.14725512  0.49684300
   0.28801313  0.29280249  0.49641871
   0.28506430  0.42638773  0.49585281
   0.29028148  0.57439825  0.49507277
   0.28764509  0.71772916  0.49543861
   0.28648462  0.86059683  0.49600781
   0.42925897  0.00384328  0.49577130
   0.42932792  0.14768289  0.49578770
   0.42948388  0.86021892  0.49521669
   0.57147771  0.00321738  0.49561191
   0.57152485  0.14670651  0.49538282
   0.57379386  0.29349855  0.49424102
   0.57347401  0.85880958  0.49458798
   0.71366550  0.00232402  0.49557870
   0.71426948  0.14601892  0.49607681
   0.71398931  0.28920072  0.49511096
   0.70994577  0.42919178  0.49265541