  97  97   0   0
  0.3994726E+02  0.1727104E-08  0.1727104E-08  0.1500000E-08  0.5000000E-16
   1.0000000000000000E-004
  CAR 
 unknown system                          
      5.89884183    -31.32820572  301     -2.52208114      1.00000000
    -31.328  0.0000E+00  0.0000E+00  0.0000E+00  0.0000E+00
    -31.204  0.0000E+00  0.0000E+00  0.0000E+00  0.0000E+00
    -31.080  0.0000E+00  0.0000E+00  0.0000E+00  0.0000E+00
    -30.956  0.0000E+00  0.0000E+00  0.0000E+00  0.0000E+00
    -30.832  0.0000E+00  0.0000E+00  0.0000E+00  0.0000E+00
    -30.708  0.0000E+00  0.0000E+00  0.0000E+00  0.0000E+00
    -30.584  0.0000E+00  0.0000E+00  0.0000E+00  0.0000E+00
    -30.460  0.0000E+00  0.0000E+00  0.0000E+00  0.0000E+00
    -30.335  0.0000E+00  0.0000E+00  0.0000E+00  0.0000E+00
    -30.211  0.0000E+00  0.0000E+00  0.0000E+00  0.0000E+00
    -30.087  0.0000E+00  0.0000E+00  0.0000E+00  0.0000E+00
    -29.963  0.0000E+00  0.0000E+00  0.0000E+00  0.0000E+00
    -29.839  0.1240E-09  0.1240E-09  0.1539E-10  0.1539E-10
    -29.715  0.3419E-03  0.3419E-03  0.4243E-04  0.4243E-04
    -29.591  0.2381E-01  0.2381E-01  0.2997E-02  0.2997E-02
    -29.467  0.1346E-01  0.1346E-01  0.4667E-02  0.4667E-02
    -29.343  0.2227E-01  0.2227E-01  0.7430E-02  0.7430E-02
    -29.219  0.3800E-01  0.3800E-01  0.1215E-01  0.1215E-01
    -29.095  0.5875E-01  0.5875E-01  0.1944E-01  0.1944E-01
    -28.970  0.4547E-02  0.4547E-02  0.2000E-01  0.2000E-01
    -28.846  0.1009E-06  0.1009E-06  0.2000E-01  0.2000E-01
    -28.722  0.0000E+00  0.0000E+00  0.2000E-01  0.2000E-01
    -28.598  0.0000E+00  0.0000E+00  0.2000E-01  0.2000E-01
    -28.474  0.0000E+00  0.0000E+00  0.2000E-01  0.2000E-01
    -28.350  0.0000E+00  0.0000E+00  0.2000E-01  0.2000E-01
    -28.226  0.0000E+00  0.0000E+00  0.2000E-01  0.2000E-01
    -28.102  0.0000E+00  0.0000E+00  0.2000E-01  0.2000E-01
    -27.978  0.0000E+00  0.0000E+00  0.2000E-01  0.2000E-01
    -27.854  0.0000E+00  0.0000E+00  0.2000E-01  0.2000E-01
    -27.730  0.0000E+00  0.0000E+00  0.2000E-01  0.2000E-01
    -27.606  0.0000E+00  0.0000E+00  0.2000E-01  0.2000E-01
    -27.481  0.0000E+00  0.0000E+00  0.2000E-01  0.2000E-01
    -27.357  0.0000E+00  0.0000E+00  0.2000E-01  0.2000E-01
    -27.233  0.0000E+00  0.0000E+00  0.2000E-01  0.2000E-01
    -27.109  0.0000E+00  0.0000E+00  0.2000E-01  0.2000E-01
    -26.985  0.0000E+00  0.0000E+00  0.2000E-01  0.2000E-01
    -26.861  0.0000E+00  0.0000E+00  0.2000E-01  0.2000E-01
    -26.737  0.0000E+00  0.0000E+00  0.2000E-01  0.2000E-01
    -26.613  0.0000E+00  0.0000E+00  0.2000E-01  0.2000E-01
    -26.489  0.0000E+00  0.0000E+00  0.2000E-01  0.2000E-01
    -26.365  0.0000E+00  0.0000E+00  0.2000E-01  0.2000E-01
    -26.241  0.0000E+00  0.0000E+00  0.2000E-01  0.2000E-01
    -26.116  0.0000E+00  0.0000E+00  0.2000E-01  0.2000E-01
    -25.992  0.0000E+00  0.0000E+00  0.2000E-01  0.2000E-01
    -25.868  0.0000E+00  0.0000E+00  0.2000E-01  0.2000E-01
    -25.744  0.0000E+00  0.0000E+00  0.2000E-01  0.2000E-01
    -25.620  0.0000E+00  0.0000E+00  0.2000E-01  0.2000E-01
    -25.496  0.0000E+00  0.0000E+00  0.2000E-01  0.2000E-01
    -25.372  0.0000E+00  0.0000E+00  0.2000E-01  0.2000E-01
    -25.248  0.0000E+00  0.0000E+00  0.2000E-01  0.2000E-01
    -25.124  0.0000E+00  0.0000E+00  0.2000E-01  0.2000E-01
    -25.000  0.0000E+00  0.0000E+00  0.2000E-01  0.2000E-01
    -24.876  0.0000E+00  0.0000E+00  0.2000E-01  0.2000E-01
    -24.751  0.0000E+00  0.0000E+00  0.2000E-01  0.2000E-01
    -24.627  0.0000E+00  0.0000E+00  0.2000E-01  0.2000E-01
    -24.503  0.0000E+00  0.0000E+00  0.2000E-01  0.2000E-01
    -24.379  0.0000E+00  0.0000E+00  0.2000E-01  0.2000E-01
    -24.255  0.0000E+00  0.0000E+00  0.2000E-01  0.2000E-01
    -24.131  0.0000E+00  0.0000E+00  0.2000E-01  0.2000E-01
    -24.007  0.0000E+00  0.0000E+00  0.2000E-01  0.2000E-01
    -23.883  0.0000E+00  0.0000E+00  0.2000E-01  0.2000E-01
    -23.759  0.0000E+00  0.0000E+00  0.2000E-01  0.2000E-01
    -23.635  0.0000E+00  0.0000E+00  0.2000E-01  0.2000E-01
    -23.511  0.0000E+00  0.0000E+00  0.2000E-01  0.2000E-01
    -23.386  0.0000E+00  0.0000E+00  0.2000E-01  0.2000E-01
    -23.262  0.0000E+00  0.0000E+00  0.2000E-01  0.2000E-01
    -23.138  0.0000E+00  0.0000E+00  0.2000E-01  0.2000E-01
    -23.014  0.0000E+00  0.0000E+00  0.2000E-01  0.2000E-01
    -22.890  0.0000E+00  0.0000E+00  0.2000E-01  0.2000E-01
    -22.766  0.0000E+00  0.0000E+00  0.2000E-01  0.2000E-01
    -22.642  0.0000E+00  0.0000E+00  0.2000E-01  0.2000E-01
    -22.518  0.8933E-12  0.8933E-12  0.2000E-01  0.2000E-01
    -22.394  0.3222E-04  0.3222E-04  0.2000E-01  0.2000E-01
    -22.270  0.2257E-01  0.2257E-01  0.2280E-01  0.2280E-01
    -22.146  0.3098E-01  0.3098E-01  0.2665E-01  0.2665E-01
    -22.021  0.1656E-01  0.1656E-01  0.2870E-01  0.2870E-01
    -21.897  0.1061E-01  0.1061E-01  0.3002E-01  0.3002E-01
    -21.773  0.1902E-01  0.1902E-01  0.3238E-01  0.3238E-01
    -21.649  0.2631E-01  0.2631E-01  0.3564E-01  0.3564E-01
    -21.525  0.1262E-01  0.1262E-01  0.3721E-01  0.3721E-01
    -21.401  0.2894E-01  0.2894E-01  0.4080E-01  0.4080E-01
    -21.277  0.7866E-02  0.7866E-02  0.4178E-01  0.4178E-01
    -21.153  0.2064E-01  0.2064E-01  0.4434E-01  0.4434E-01
    -21.029  0.3601E-01  0.3601E-01  0.4881E-01  0.4881E-01
    -20.905  0.2196E-01  0.2196E-01  0.5153E-01  0.5153E-01
    -20.781  0.1711E-01  0.1711E-01  0.5366E-01  0.5366E-01
    -20.656  0.1367E-01  0.1367E-01  0.5535E-01  0.5535E-01
    -20.532  0.2465E-01  0.2465E-01  0.5841E-01  0.5841E-01
    -20.408  0.2718E-01  0.2718E-01  0.6178E-01  0.6178E-01
    -20.284  0.3509E-01  0.3509E-01  0.6614E-01  0.6614E-01
    -20.160  0.1404E-01  0.1404E-01  0.6788E-01  0.6788E-01
    -20.036  0.5110E-02  0.5110E-02  0.6851E-01  0.6851E-01
    -19.912  0.2563E-01  0.2563E-01  0.7170E-01  0.7170E-01
    -19.788  0.2266E-01  0.2266E-01  0.7451E-01  0.7451E-01
    -19.664  0.3168E-01  0.3168E-01  0.7844E-01  0.7844E-01
    -19.540  0.3655E-01  0.3655E-01  0.8297E-01  0.8297E-01
    -19.416  0.2420E-01  0.2420E-01  0.8598E-01  0.8598E-01
    -19.291  0.1624E-01  0.1624E-01  0.8799E-01  0.8799E-01
    -19.167  0.1415E-01  0.1415E-01  0.8975E-01  0.8975E-01
    -19.043  0.1742E-01  0.1742E-01  0.9191E-01  0.9191E-01
    -18.919  0.1612E-01  0.1612E-01  0.9391E-01  0.9391E-01
    -18.795  0.2180E-01  0.2180E-01  0.9662E-01  0.9662E-01
    -18.671  0.5255E-01  0.5255E-01  0.1031E+00  0.1031E+00
    -18.547  0.2311E-01  0.2311E-01  0.1060E+00  0.1060E+00
    -18.423  0.1755E-01  0.1755E-01  0.1082E+00  0.1082E+00
    -18.299  0.3404E-01  0.3404E-01  0.1124E+00  0.1124E+00
    -18.175  0.1662E-01  0.1662E-01  0.1145E+00  0.1145E+00
    -18.051  0.1561E-01  0.1561E-01  0.1164E+00  0.1164E+00
    -17.926  0.1835E-01  0.1835E-01  0.1187E+00  0.1187E+00
    -17.802  0.2098E-01  0.2098E-01  0.1213E+00  0.1213E+00
    -17.678  0.2129E-01  0.2129E-01  0.1239E+00  0.1239E+00
    -17.554  0.5140E-01  0.5140E-01  0.1303E+00  0.1303E+00
    -17.430  0.3503E-01  0.3503E-01  0.1347E+00  0.1347E+00
    -17.306  0.3438E-01  0.3438E-01  0.1389E+00  0.1389E+00
    -17.182  0.1365E-01  0.1365E-01  0.1406E+00  0.1406E+00
    -17.058  0.2160E-01  0.2160E-01  0.1433E+00  0.1433E+00
    -16.934  0.2883E-01  0.2883E-01  0.1469E+00  0.1469E+00
    -16.810  0.2000E-01  0.2000E-01  0.1494E+00  0.1494E+00
    -16.686  0.1864E-01  0.1864E-01  0.1517E+00  0.1517E+00
    -16.561  0.3742E-01  0.3742E-01  0.1563E+00  0.1563E+00
    -16.437  0.4700E-01  0.4700E-01  0.1621E+00  0.1621E+00
    -16.313  0.2225E-01  0.2225E-01  0.1649E+00  0.1649E+00
    -16.189  0.7948E-03  0.7948E-03  0.1650E+00  0.1650E+00
    -16.065  0.9220E-02  0.9220E-02  0.1661E+00  0.1661E+00
    -15.941  0.5944E-02  0.5944E-02  0.1669E+00  0.1669E+00
    -15.817  0.8398E-02  0.8398E-02  0.1679E+00  0.1679E+00
    -15.693  0.2181E-01  0.2181E-01  0.1706E+00  0.1706E+00
    -15.569  0.1587E-01  0.1587E-01  0.1726E+00  0.1726E+00
    -15.445  0.2623E-01  0.2623E-01  0.1759E+00  0.1759E+00
    -15.321  0.2368E-01  0.2368E-01  0.1788E+00  0.1788E+00
    -15.196  0.3699E-01  0.3699E-01  0.1834E+00  0.1834E+00
    -15.072  0.3044E-01  0.3044E-01  0.1872E+00  0.1872E+00
    -14.948  0.2764E-01  0.2764E-01  0.1906E+00  0.1906E+00
    -14.824  0.2047E-01  0.2047E-01  0.1931E+00  0.1931E+00
    -14.700  0.3119E-01  0.3119E-01  0.1970E+00  0.1970E+00
    -14.576  0.3197E-01  0.3197E-01  0.2010E+00  0.2010E+00
    -14.452  0.4581E-01  0.4581E-01  0.2067E+00  0.2067E+00
    -14.328  0.3650E-01  0.3650E-01  0.2112E+00  0.2112E+00
    -14.204  0.1616E-01  0.1616E-01  0.2132E+00  0.2132E+00
    -14.080  0.1832E-01  0.1832E-01  0.2155E+00  0.2155E+00
    -13.956  0.1338E-01  0.1338E-01  0.2171E+00  0.2171E+00
    -13.831  0.1755E-01  0.1755E-01  0.2193E+00  0.2193E+00
    -13.707  0.4005E-01  0.4005E-01  0.2243E+00  0.2243E+00
    -13.583  0.3500E-01  0.3500E-01  0.2286E+00  0.2286E+00
    -13.459  0.2860E-01  0.2860E-01  0.2322E+00  0.2322E+00
    -13.335  0.1867E-01  0.1867E-01  0.2345E+00  0.2345E+00
    -13.211  0.8018E-02  0.8018E-02  0.2355E+00  0.2355E+00
    -13.087  0.1875E-01  0.1875E-01  0.2378E+00  0.2378E+00
    -12.963  0.2202E-01  0.2202E-01  0.2405E+00  0.2405E+00
    -12.839  0.2539E-01  0.2539E-01  0.2437E+00  0.2437E+00
    -12.715  0.7221E-01  0.7221E-01  0.2526E+00  0.2526E+00
    -12.591  0.2542E-01  0.2542E-01  0.2558E+00  0.2558E+00
    -12.467  0.2586E-01  0.2586E-01  0.2590E+00  0.2590E+00
    -12.342  0.4028E-01  0.4028E-01  0.2640E+00  0.2640E+00
    -12.218  0.2259E-01  0.2259E-01  0.2668E+00  0.2668E+00
    -12.094  0.2123E-01  0.2123E-01  0.2694E+00  0.2694E+00
    -11.970  0.2619E-01  0.2619E-01  0.2727E+00  0.2727E+00
    -11.846  0.4489E-01  0.4489E-01  0.2783E+00  0.2783E+00
    -11.722  0.3549E-01  0.3549E-01  0.2827E+00  0.2827E+00
    -11.598  0.4865E-01  0.4865E-01  0.2887E+00  0.2887E+00
    -11.474  0.3549E-01  0.3549E-01  0.2931E+00  0.2931E+00
    -11.350  0.3527E-01  0.3527E-01  0.2975E+00  0.2975E+00
    -11.226  0.4762E-01  0.4762E-01  0.3034E+00  0.3034E+00
    -11.102  0.3420E-01  0.3420E-01  0.3076E+00  0.3076E+00
    -10.977  0.3151E-01  0.3151E-01  0.3115E+00  0.3115E+00
    -10.853  0.2764E-01  0.2764E-01  0.3150E+00  0.3150E+00
    -10.729  0.3163E-01  0.3163E-01  0.3189E+00  0.3189E+00
    -10.605  0.2774E-01  0.2774E-01  0.3223E+00  0.3223E+00
    -10.481  0.4322E-01  0.4322E-01  0.3277E+00  0.3277E+00
    -10.357  0.5491E-01  0.5491E-01  0.3345E+00  0.3345E+00
    -10.233  0.5185E-01  0.5185E-01  0.3410E+00  0.3410E+00
    -10.109  0.6255E-01  0.6255E-01  0.3487E+00  0.3487E+00
     -9.985  0.7490E-01  0.7490E-01  0.3580E+00  0.3580E+00
     -9.861  0.6032E-01  0.6032E-01  0.3655E+00  0.3655E+00
     -9.737  0.6193E-01  0.6193E-01  0.3732E+00  0.3732E+00
     -9.612  0.6949E-01  0.6949E-01  0.3818E+00  0.3818E+00
     -9.488  0.6984E-01  0.6984E-01  0.3905E+00  0.3905E+00
     -9.364  0.8463E-01  0.8463E-01  0.4010E+00  0.4010E+00
     -9.240  0.7776E-01  0.7776E-01  0.4106E+00  0.4106E+00
     -9.116  0.6395E-01  0.6395E-01  0.4186E+00  0.4186E+00
     -8.992  0.7344E-01  0.7344E-01  0.4277E+00  0.4277E+00
     -8.868  0.8994E-01  0.8994E-01  0.4388E+00  0.4388E+00
     -8.744  0.7639E-01  0.7639E-01  0.4483E+00  0.4483E+00
     -8.620  0.5973E-01  0.5973E-01  0.4557E+00  0.4557E+00
     -8.496  0.3947E-01  0.3947E-01  0.4606E+00  0.4606E+00
     -8.372  0.6015E-01  0.6015E-01  0.4681E+00  0.4681E+00
     -8.247  0.6193E-01  0.6193E-01  0.4758E+00  0.4758E+00
     -8.123  0.6167E-01  0.6167E-01  0.4834E+00  0.4834E+00
     -7.999  0.7098E-01  0.7098E-01  0.4922E+00  0.4922E+00
     -7.875  0.6083E-01  0.6083E-01  0.4998E+00  0.4998E+00
     -7.751  0.3397E-01  0.3397E-01  0.5040E+00  0.5040E+00
     -7.627  0.5022E-01  0.5022E-01  0.5102E+00  0.5102E+00
     -7.503  0.4836E-01  0.4836E-01  0.5162E+00  0.5162E+00
     -7.379  0.6284E-01  0.6284E-01  0.5240E+00  0.5240E+00
     -7.255  0.6468E-01  0.6468E-01  0.5321E+00  0.5321E+00
     -7.131  0.6802E-01  0.6802E-01  0.5405E+00  0.5405E+00
     -7.007  0.7162E-01  0.7162E-01  0.5494E+00  0.5494E+00
     -6.882  0.3317E-01  0.3317E-01  0.5535E+00  0.5535E+00
     -6.758  0.4543E-01  0.4543E-01  0.5591E+00  0.5591E+00
     -6.634  0.3403E-01  0.3403E-01  0.5634E+00  0.5634E+00
     -6.510  0.2992E-01  0.2992E-01  0.5671E+00  0.5671E+00
     -6.386  0.2862E-01  0.2862E-01  0.5706E+00  0.5706E+00
     -6.262  0.7316E-01  0.7316E-01  0.5797E+00  0.5797E+00
     -6.138  0.7297E-01  0.7297E-01  0.5888E+00  0.5888E+00
     -6.014  0.2402E-01  0.2402E-01  0.5917E+00  0.5917E+00
     -5.890  0.5501E-01  0.5501E-01  0.5986E+00  0.5986E+00
     -5.766  0.4015E-01  0.4015E-01  0.6035E+00  0.6035E+00
     -5.642  0.2690E-01  0.2690E-01  0.6069E+00  0.6069E+00
     -5.517  0.1620E-01  0.1620E-01  0.6089E+00  0.6089E+00
     -5.393  0.2399E-01  0.2399E-01  0.6119E+00  0.6119E+00
     -5.269  0.7853E-02  0.7853E-02  0.6128E+00  0.6128E+00
     -5.145  0.4825E-01  0.4825E-01  0.6188E+00  0.6188E+00
     -5.021  0.5784E-01  0.5784E-01  0.6260E+00  0.6260E+00
     -4.897  0.5705E-01  0.5705E-01  0.6331E+00  0.6331E+00
     -4.773  0.1510E-01  0.1510E-01  0.6350E+00  0.6350E+00
     -4.649  0.2326E-01  0.2326E-01  0.6378E+00  0.6378E+00
     -4.525  0.1392E-01  0.1392E-01  0.6396E+00  0.6396E+00
     -4.401  0.3842E-01  0.3842E-01  0.6443E+00  0.6443E+00
     -4.277  0.3436E-01  0.3436E-01  0.6486E+00  0.6486E+00
     -4.152  0.2204E-01  0.2204E-01  0.6513E+00  0.6513E+00
     -4.028  0.3314E-01  0.3314E-01  0.6555E+00  0.6555E+00
     -3.904  0.5083E-01  0.5083E-01  0.6618E+00  0.6618E+00
     -3.780  0.3133E-01  0.3133E-01  0.6656E+00  0.6656E+00
     -3.656  0.8070E-02  0.8070E-02  0.6667E+00  0.6667E+00
     -3.532  0.3004E-02  0.3004E-02  0.6670E+00  0.6670E+00
     -3.408  0.4835E-02  0.4835E-02  0.6676E+00  0.6676E+00
     -3.284  0.1763E-01  0.1763E-01  0.6698E+00  0.6698E+00
     -3.160  0.8847E-02  0.8847E-02  0.6709E+00  0.6709E+00
     -3.036  0.6001E-02  0.6001E-02  0.6717E+00  0.6717E+00
     -2.912  0.1090E-03  0.1090E-03  0.6717E+00  0.6717E+00
     -2.787  0.5235E-02  0.5235E-02  0.6723E+00  0.6723E+00
     -2.663  0.8010E-02  0.8010E-02  0.6733E+00  0.6733E+00
     -2.539  0.1736E-03  0.1736E-03  0.6733E+00  0.6733E+00
     -2.415  0.1289E-04  0.1289E-04  0.6733E+00  0.6733E+00
     -2.291  0.8088E-02  0.8088E-02  0.6743E+00  0.6743E+00
     -2.167  0.5328E-02  0.5328E-02  0.6750E+00  0.6750E+00
     -2.043  0.3587E-03  0.3587E-03  0.6750E+00  0.6750E+00
     -1.919  0.6262E-02  0.6262E-02  0.6758E+00  0.6758E+00
     -1.795  0.1124E-01  0.1124E-01  0.6772E+00  0.6772E+00
     -1.671  0.1523E-01  0.1523E-01  0.6791E+00  0.6791E+00
     -1.547  0.6941E-02  0.6941E-02  0.6800E+00  0.6800E+00
     -1.422  0.4537E-03  0.4537E-03  0.6800E+00  0.6800E+00
     -1.298  0.1570E-01  0.1570E-01  0.6820E+00  0.6820E+00
     -1.174  0.1235E-01  0.1235E-01  0.6835E+00  0.6835E+00
     -1.050  0.3136E-01  0.3136E-01  0.6874E+00  0.6874E+00
     -0.926  0.5878E-01  0.5878E-01  0.6947E+00  0.6947E+00
     -0.802  0.1248E-01  0.1248E-01  0.6962E+00  0.6962E+00
     -0.678  0.2838E-01  0.2838E-01  0.6998E+00  0.6998E+00
     -0.554  0.4222E-01  0.4222E-01  0.7050E+00  0.7050E+00
     -0.430  0.2013E-01  0.2013E-01  0.7075E+00  0.7075E+00
     -0.306  0.1837E-01  0.1837E-01  0.7098E+00  0.7098E+00
     -0.182  0.1671E-01  0.1671E-01  0.7119E+00  0.7119E+00
     -0.057  0.3134E-01  0.3134E-01  0.7157E+00  0.7157E+00
      0.067  0.4575E-01  0.4575E-01  0.7214E+00  0.7214E+00
      0.191  0.3933E-01  0.3933E-01  0.7263E+00  0.7263E+00
      0.315  0.3849E-02  0.3849E-02  0.7268E+00  0.7268E+00
      0.439  0.1787E-01  0.1787E-01  0.7290E+00  0.7290E+00
      0.563  0.1750E-01  0.1750E-01  0.7312E+00  0.7312E+00
      0.687  0.1925E-01  0.1925E-01  0.7336E+00  0.7336E+00
      0.811  0.2395E-01  0.2395E-01  0.7365E+00  0.7365E+00
      0.935  0.2016E-01  0.2016E-01  0.7390E+00  0.7390E+00
      1.059  0.3489E-01  0.3489E-01  0.7434E+00  0.7434E+00
      1.183  0.2181E-01  0.2181E-01  0.7461E+00  0.7461E+00
      1.308  0.2843E-01  0.2843E-01  0.7496E+00  0.7496E+00
      1.432  0.6935E-01  0.6935E-01  0.7582E+00  0.7582E+00
      1.556  0.5655E-01  0.5655E-01  0.7652E+00  0.7652E+00
      1.680  0.2293E-01  0.2293E-01  0.7681E+00  0.7681E+00
      1.804  0.2631E-01  0.2631E-01  0.7713E+00  0.7713E+00
      1.928  0.3995E-01  0.3995E-01  0.7763E+00  0.7763E+00
      2.052  0.8459E-01  0.8459E-01  0.7868E+00  0.7868E+00
      2.176  0.4597E-01  0.4597E-01  0.7925E+00  0.7925E+00
      2.300  0.3495E-01  0.3495E-01  0.7968E+00  0.7968E+00
      2.424  0.6697E-01  0.6697E-01  0.8051E+00  0.8051E+00
      2.548  0.7629E-01  0.7629E-01  0.8146E+00  0.8146E+00
      2.672  0.3361E-01  0.3361E-01  0.8188E+00  0.8188E+00
      2.797  0.5475E-01  0.5475E-01  0.8256E+00  0.8256E+00
      2.921  0.1182E+00  0.1182E+00  0.8402E+00  0.8402E+00
      3.045  0.1499E+00  0.1499E+00  0.8588E+00  0.8588E+00
      3.169  0.3848E-01  0.3848E-01  0.8636E+00  0.8636E+00
      3.293  0.4953E-01  0.4953E-01  0.8698E+00  0.8698E+00
      3.417  0.5190E-01  0.5190E-01  0.8762E+00  0.8762E+00
      3.541  0.8872E-01  0.8872E-01  0.8872E+00  0.8872E+00
      3.665  0.5200E-01  0.5200E-01  0.8937E+00  0.8937E+00
      3.789  0.6668E-01  0.6668E-01  0.9019E+00  0.9019E+00
      3.913  0.9509E-01  0.9509E-01  0.9137E+00  0.9137E+00
      4.037  0.8968E-01  0.8968E-01  0.9249E+00  0.9249E+00
      4.162  0.5506E-01  0.5506E-01  0.9317E+00  0.9317E+00
      4.286  0.1317E-01  0.1317E-01  0.9333E+00  0.9333E+00
      4.410  0.8681E-04  0.8680E-04  0.9333E+00  0.9333E+00
      4.534  0.3118E-10  0.3118E-10  0.9333E+00  0.9333E+00
      4.658  0.0000E+00  0.0000E+00  0.9333E+00  0.9333E+00
      4.782  0.0000E+00  0.0000E+00  0.9333E+00  0.9333E+00
      4.906  0.0000E+00  0.0000E+00  0.9333E+00  0.9333E+00
      5.030  0.0000E+00  0.0000E+00  0.9333E+00  0.9333E+00
      5.154  0.0000E+00  0.0000E+00  0.9333E+00  0.9333E+00
      5.278  0.0000E+00  0.0000E+00  0.9333E+00  0.9333E+00
      5.402  0.0000E+00  0.0000E+00  0.9333E+00  0.9333E+00
      5.527  0.0000E+00  0.0000E+00  0.9333E+00  0.9333E+00
      5.651  0.0000E+00  0.0000E+00  0.9333E+00  0.9333E+00
      5.775  0.0000E+00  0.0000E+00  0.9333E+00  0.9333E+00
      5.899  0.0000E+00  0.0000E+00  0.9333E+00  0.9333E+00
