 vasp.6.4.2 20Jul23 (build Jan 24 2024 13:44:02) complex                         
 POSCAR found type information on POSCAR C F N H O 
 02/POSCAR found :  5 types and      97 ions
 scaLAPACK will be used selectively (only on CPU)
 LDA part: xc-table for Pade appr. of Perdew
 POSCAR found type information on POSCAR C F N H O 
 00/POSCAR found :  5 types and      97 ions
 POSCAR found type information on POSCAR C F N H O 
 06/POSCAR found :  5 types and      97 ions
 POSCAR, INCAR and KPOINTS ok, starting setup
 FFT: planning ... GRIDC
 FFT: planning ... GRID_SOFT
 FFT: planning ... GRID
 WAVECAR not read
 entering main loop
       N       E                     dE             d eps       ncg     rms          rms(c)
DAV:   1     0.375049657408E+04    0.37505E+04   -0.15586E+05  4850   0.111E+03
DAV:   2    -0.179185527751E+03   -0.39297E+04   -0.37164E+04  6690   0.274E+02
DAV:   3    -0.861609612277E+03   -0.68242E+03   -0.67916E+03  5530   0.120E+02
DAV:   4    -0.883832265959E+03   -0.22223E+02   -0.22113E+02  5530   0.269E+01
DAV:   5    -0.884519305911E+03   -0.68704E+00   -0.68604E+00  6420   0.403E+00    0.525E+01
DAV:   6    -0.866887693030E+03    0.17632E+02   -0.21158E+01  5400   0.973E+00    0.339E+01
DAV:   7    -0.846291862106E+03    0.20596E+02   -0.35452E+01  5290   0.101E+01    0.206E+01
DAV:   8    -0.841445024172E+03    0.48468E+01   -0.19713E+01  5310   0.694E+00    0.870E+00
DAV:   9    -0.841631259969E+03   -0.18624E+00   -0.12047E+00  5220   0.225E+00    0.411E+00
DAV:  10    -0.841447641948E+03    0.18362E+00   -0.53469E-01  5180   0.134E+00    0.142E+00
DAV:  11    -0.841420725567E+03    0.26916E-01   -0.15669E-01  5200   0.747E-01    0.383E-01
DAV:  12    -0.841419777929E+03    0.94764E-03   -0.24999E-02  5250   0.336E-01    0.150E-01
DAV:  13    -0.841420046268E+03   -0.26834E-03   -0.34892E-03  5410   0.118E-01    0.105E-01
DAV:  14    -0.841420054487E+03   -0.82185E-05   -0.42512E-04  5170   0.423E-02    0.747E-02
DAV:  15    -0.841420122951E+03   -0.68464E-04   -0.28547E-04  5150   0.379E-02    0.291E-02
DAV:  16    -0.841420127748E+03   -0.47975E-05   -0.57470E-05  5110   0.180E-02    0.181E-02
DAV:  17    -0.841420128308E+03   -0.55943E-06   -0.28323E-05  5490   0.130E-02    0.944E-03
DAV:  18    -0.841420127389E+03    0.91809E-06   -0.65585E-06  4880   0.941E-03
   1 F= -.84925237E+03 E0= -.84925237E+03  d E =-.849252E+03  mag=    -0.0000
quench:  g(F)=  0.334E-03 g(S)=  0.000E+00 dE (1.order)=-0.668E-03
 bond charge predicted
       N       E                     dE             d eps       ncg     rms          rms(c)
DAV:   1    -0.841420266592E+03   -0.13828E-03   -0.42595E-03  4800   0.133E-01    0.133E-02
DAV:   2    -0.841420273475E+03   -0.68826E-05   -0.95258E-05  5040   0.191E-02    0.109E-02
DAV:   3    -0.841420272395E+03    0.10793E-05   -0.25112E-06  4280   0.356E-03    0.832E-03
DAV:   4    -0.841420272087E+03    0.30824E-06   -0.37465E-06  4300   0.429E-03
   2 F= -.84925250E+03 E0= -.84925250E+03  d E =-.131538E-03  mag=    -0.0000
quench:  g(F)=  0.211E-03 g(S)=  0.000E+00 dE (1.order)=-0.824E-03
 bond charge predicted
       N       E                     dE             d eps       ncg     rms          rms(c)
DAV:   1    -0.841420497914E+03   -0.22552E-03   -0.12504E-02  4760   0.223E-01    0.211E-02
DAV:   2    -0.841420516724E+03   -0.18810E-04   -0.25018E-04  4640   0.306E-02    0.164E-02
DAV:   3    -0.841420515340E+03    0.13838E-05   -0.45397E-06  5170   0.460E-03    0.126E-02
DAV:   4    -0.841420517094E+03   -0.17539E-05   -0.62295E-06  4360   0.587E-03    0.345E-03
DAV:   5    -0.841420517405E+03   -0.31047E-06   -0.15694E-06  3660   0.229E-03
   3 F= -.84925272E+03 E0= -.84925272E+03  d E =-.222791E-03  mag=    -0.0000
quench:  g(F)=  0.212E-03 g(S)=  0.000E+00 dE (1.order)=-0.122E-02
 bond charge predicted
       N       E                     dE             d eps       ncg     rms          rms(c)
DAV:   1    -0.841420826351E+03   -0.30926E-03   -0.27942E-02  4780   0.334E-01    0.311E-02
DAV:   2    -0.841420871069E+03   -0.44719E-04   -0.57706E-04  4640   0.464E-02    0.235E-02
DAV:   3    -0.841420867925E+03    0.31445E-05   -0.10474E-05  5530   0.688E-03    0.181E-02
DAV:   4    -0.841420870931E+03   -0.30067E-05   -0.12386E-05  4500   0.840E-03    0.529E-03
DAV:   5    -0.841420871797E+03   -0.86590E-06   -0.33547E-06  4410   0.330E-03
   4 F= -.84925305E+03 E0= -.84925305E+03  d E =-.325462E-03  mag=     0.0000
quench:  g(F)=  0.220E-03 g(S)=  0.000E+00 dE (1.order)=-0.155E-02
 bond charge predicted
       N       E                     dE             d eps       ncg     rms          rms(c)
DAV:   1    -0.841421218339E+03   -0.34741E-03   -0.47074E-02  4760   0.437E-01    0.404E-02
DAV:   2    -0.841421297302E+03   -0.78963E-04   -0.10145E-03  4660   0.614E-02    0.310E-02
DAV:   3    -0.841421291507E+03    0.57946E-05   -0.18798E-05  5780   0.940E-03    0.240E-02
DAV:   4    -0.841421296241E+03   -0.47343E-05   -0.23528E-05  4580   0.117E-02    0.714E-03
DAV:   5    -0.841421297732E+03   -0.14911E-05   -0.67099E-06  5000   0.471E-03    0.428E-03
DAV:   6    -0.841421297769E+03   -0.36700E-07   -0.12197E-06  3340   0.294E-03
   5 F= -.84925343E+03 E0= -.84925343E+03  d E =-.387738E-03  mag=    -0.0000
quench:  g(F)=  0.340E-03 g(S)=  0.000E+00 dE (1.order)=-0.174E-02
 bond charge predicted
       N       E                     dE             d eps       ncg     rms          rms(c)
DAV:   1    -0.841421535976E+03   -0.23824E-03   -0.43685E-02  4680   0.430E-01    0.415E-02
DAV:   2    -0.841421611009E+03   -0.75033E-04   -0.10057E-03  5100   0.621E-02    0.337E-02
DAV:   3    -0.841421601807E+03    0.92023E-05   -0.31133E-05  5780   0.112E-02    0.261E-02
DAV:   4    -0.841421598692E+03    0.31152E-05   -0.22757E-05  4730   0.110E-02    0.109E-02
DAV:   5    -0.841421600593E+03   -0.19015E-05   -0.86421E-06  4900   0.548E-03    0.546E-03
DAV:   6    -0.841421600593E+03    0.94587E-10   -0.14558E-06  3070   0.307E-03
   6 F= -.84925371E+03 E0= -.84925371E+03  d E =-.275201E-03  mag=    -0.0000
quench:  g(F)=  0.544E-03 g(S)=  0.000E+00 dE (1.order)=-0.109E-02
 bond charge predicted
       N       E                     dE             d eps       ncg     rms          rms(c)
DAV:   1    -0.841421827743E+03   -0.22715E-03   -0.11121E-02  4720   0.219E-01    0.226E-02
DAV:   2    -0.841421846562E+03   -0.18819E-04   -0.27551E-04  5450   0.325E-02    0.195E-02
DAV:   3    -0.841421842874E+03    0.36878E-05   -0.12046E-05  5700   0.702E-03    0.149E-02
DAV:   4    -0.841421840267E+03    0.26068E-05   -0.74518E-06  4520   0.613E-03    0.681E-03
DAV:   5    -0.841421840473E+03   -0.20541E-06   -0.27344E-06  3520   0.324E-03
   7 F= -.84925393E+03 E0= -.84925393E+03  d E =-.225616E-03  mag=    -0.0000
quench:  g(F)=  0.208E-03 g(S)=  0.000E+00 dE (1.order)=-0.793E-03
 bond charge predicted
       N       E                     dE             d eps       ncg     rms          rms(c)
DAV:   1    -0.841422038097E+03   -0.19783E-03   -0.10510E-02  4720   0.206E-01    0.192E-02
DAV:   2    -0.841422054592E+03   -0.16495E-04   -0.21696E-04  4660   0.286E-02    0.149E-02
DAV:   3    -0.841422053241E+03    0.13512E-05   -0.45372E-06  5240   0.445E-03    0.114E-02
DAV:   4    -0.841422054011E+03   -0.76989E-06   -0.48476E-06  4400   0.518E-03
   8 F= -.84925413E+03 E0= -.84925413E+03  d E =-.197524E-03  mag=    -0.0000
quench:  g(F)=  0.208E-03 g(S)=  0.000E+00 dE (1.order)=-0.116E-02
 bond charge predicted
       N       E                     dE             d eps       ncg     rms          rms(c)
DAV:   1    -0.841422322161E+03   -0.26892E-03   -0.21519E-02  4660   0.295E-01    0.281E-02
DAV:   2    -0.841422355469E+03   -0.33308E-04   -0.44046E-04  4620   0.406E-02    0.220E-02
DAV:   3    -0.841422352924E+03    0.25443E-05   -0.94447E-06  5670   0.651E-03    0.168E-02
DAV:   4    -0.841422354995E+03   -0.20710E-05   -0.96981E-06  4540   0.744E-03    0.533E-03
DAV:   5    -0.841422355796E+03   -0.80031E-06   -0.29623E-06  3900   0.311E-03
   9 F= -.84925441E+03 E0= -.84925441E+03  d E =-.274406E-03  mag=     0.0000
quench:  g(F)=  0.225E-03 g(S)=  0.000E+00 dE (1.order)=-0.146E-02
 bond charge predicted
       N       E                     dE             d eps       ncg     rms          rms(c)
DAV:   1    -0.841422601335E+03   -0.24634E-03   -0.29022E-02  4660   0.348E-01    0.330E-02
DAV:   2    -0.841422649724E+03   -0.48389E-04   -0.63831E-04  4800   0.492E-02    0.266E-02
DAV:   3    -0.841422644801E+03    0.49236E-05   -0.16792E-05  5750   0.825E-03    0.206E-02
DAV:   4    -0.841422644670E+03    0.13085E-06   -0.13940E-05  4620   0.892E-03    0.778E-03
DAV:   5    -0.841422645995E+03   -0.13252E-05   -0.49245E-06  4080   0.403E-03    0.399E-03
DAV:   6    -0.841422645949E+03    0.46319E-07   -0.92379E-07  3000   0.253E-03
  10 F= -.84925467E+03 E0= -.84925467E+03  d E =-.267649E-03  mag=    -0.0000
quench:  g(F)=  0.353E-03 g(S)=  0.000E+00 dE (1.order)=-0.154E-02
 bond charge predicted
       N       E                     dE             d eps       ncg     rms          rms(c)
DAV:   1    -0.841422851571E+03   -0.20558E-03   -0.17684E-02  4600   0.276E-01    0.266E-02
DAV:   2    -0.841422882769E+03   -0.31198E-04   -0.42263E-04  5320   0.398E-02    0.228E-02
DAV:   3    -0.841422878207E+03    0.45620E-05   -0.15028E-05  5750   0.767E-03    0.177E-02
DAV:   4    -0.841422875264E+03    0.29436E-05   -0.11025E-05  4520   0.755E-03    0.742E-03
DAV:   5    -0.841422875766E+03   -0.50277E-06   -0.37252E-06  3540   0.364E-03
  11 F= -.84925488E+03 E0= -.84925488E+03  d E =-.206748E-03  mag=    -0.0000
quench:  g(F)=  0.470E-03 g(S)=  0.000E+00 dE (1.order)=-0.920E-03
 bond charge predicted
       N       E                     dE             d eps       ncg     rms          rms(c)
DAV:   1    -0.841423039346E+03   -0.16408E-03   -0.72861E-03  4620   0.177E-01    0.171E-02
DAV:   2    -0.841423052128E+03   -0.12782E-04   -0.17281E-04  5190   0.255E-02    0.144E-02
DAV:   3    -0.841423050416E+03    0.17118E-05   -0.56353E-06  5170   0.463E-03    0.112E-02
DAV:   4    -0.841423049520E+03    0.89619E-06   -0.43572E-06  4260   0.474E-03
  12 F= -.84925505E+03 E0= -.84925505E+03  d E =-.164612E-03  mag=     0.0000
quench:  g(F)=  0.201E-03 g(S)=  0.000E+00 dE (1.order)=-0.768E-03
 bond charge predicted
       N       E                     dE             d eps       ncg     rms          rms(c)
DAV:   1    -0.841423258054E+03   -0.20764E-03   -0.12316E-02  4620   0.224E-01    0.211E-02
DAV:   2    -0.841423277945E+03   -0.19891E-04   -0.26031E-04  4600   0.312E-02    0.162E-02
DAV:   3    -0.841423276481E+03    0.14635E-05   -0.52632E-06  5260   0.484E-03    0.124E-02
DAV:   4    -0.841423277744E+03   -0.12629E-05   -0.55408E-06  4360   0.551E-03    0.413E-03
DAV:   5    -0.841423278196E+03   -0.45171E-06   -0.15803E-06  3460   0.231E-03
  13 F= -.84925525E+03 E0= -.84925525E+03  d E =-.209598E-03  mag=    -0.0000
quench:  g(F)=  0.206E-03 g(S)=  0.000E+00 dE (1.order)=-0.113E-02
 bond charge predicted
       N       E                     dE             d eps       ncg     rms          rms(c)
DAV:   1    -0.841423543961E+03   -0.26622E-03   -0.23410E-02  4640   0.310E-01    0.284E-02
DAV:   2    -0.841423583174E+03   -0.39214E-04   -0.50014E-04  4620   0.434E-02    0.220E-02
DAV:   3    -0.841423580110E+03    0.30645E-05   -0.99211E-06  5680   0.658E-03    0.170E-02
DAV:   4    -0.841423581726E+03   -0.16161E-05   -0.10894E-05  4480   0.790E-03    0.543E-03
DAV:   5    -0.841423582495E+03   -0.76947E-06   -0.31730E-06  3940   0.323E-03
  14 F= -.84925553E+03 E0= -.84925553E+03  d E =-.278875E-03  mag=     0.0000
quench:  g(F)=  0.217E-03 g(S)=  0.000E+00 dE (1.order)=-0.140E-02
 bond charge predicted
       N       E                     dE             d eps       ncg     rms          rms(c)
DAV:   1    -0.841423827529E+03   -0.24580E-03   -0.28036E-02  4620   0.343E-01    0.322E-02
DAV:   2    -0.841423875445E+03   -0.47916E-04   -0.62474E-04  4880   0.485E-02    0.262E-02
DAV:   3    -0.841423870272E+03    0.51729E-05   -0.16584E-05  5800   0.824E-03    0.203E-02
DAV:   4    -0.841423869528E+03    0.74410E-06   -0.14630E-05  4620   0.898E-03    0.767E-03
DAV:   5    -0.841423870668E+03   -0.11396E-05   -0.46989E-06  3950   0.400E-03    0.388E-03
DAV:   6    -0.841423870736E+03   -0.68736E-07   -0.85130E-07  2900   0.230E-03
  15 F= -.84925579E+03 E0= -.84925579E+03  d E =-.254016E-03  mag=    -0.0000
quench:  g(F)=  0.322E-03 g(S)=  0.000E+00 dE (1.order)=-0.150E-02
 bond charge predicted
       N       E                     dE             d eps       ncg     rms          rms(c)
DAV:   1    -0.841424063195E+03   -0.19253E-03   -0.13885E-02  4560   0.245E-01    0.239E-02
DAV:   2    -0.841424087980E+03   -0.24786E-04   -0.33201E-04  5300   0.352E-02    0.207E-02
DAV:   3    -0.841424084130E+03    0.38502E-05   -0.11837E-05  5800   0.654E-03    0.161E-02
DAV:   4    -0.841424081429E+03    0.27012E-05   -0.88996E-06  4520   0.676E-03    0.675E-03
DAV:   5    -0.841424081716E+03   -0.28694E-06   -0.30172E-06  3500   0.327E-03
  16 F= -.84925599E+03 E0= -.84925599E+03  d E =-.198565E-03  mag=     0.0000
quench:  g(F)=  0.459E-03 g(S)=  0.000E+00 dE (1.order)=-0.957E-03
 bond charge predicted
       N       E                     dE             d eps       ncg     rms          rms(c)
DAV:   1    -0.841424249270E+03   -0.16784E-03   -0.74404E-03  4600   0.177E-01    0.170E-02
DAV:   2    -0.841424261540E+03   -0.12270E-04   -0.16637E-04  4960   0.249E-02    0.143E-02
DAV:   3    -0.841424259879E+03    0.16608E-05   -0.50822E-06  5100   0.451E-03    0.110E-02
DAV:   4    -0.841424259267E+03    0.61146E-06   -0.48481E-06  4260   0.496E-03
  17 F= -.84925615E+03 E0= -.84925615E+03  d E =-.161611E-03  mag=     0.0000
quench:  g(F)=  0.193E-03 g(S)=  0.000E+00 dE (1.order)=-0.744E-03
 bond charge predicted
       N       E                     dE             d eps       ncg     rms          rms(c)
DAV:   1    -0.841424470944E+03   -0.21106E-03   -0.12451E-02  4600   0.225E-01    0.215E-02
DAV:   2    -0.841424490300E+03   -0.19356E-04   -0.25824E-04  4620   0.311E-02    0.171E-02
DAV:   3    -0.841424488547E+03    0.17529E-05   -0.58613E-06  5460   0.502E-03    0.130E-02
DAV:   4    -0.841424489479E+03   -0.93201E-06   -0.59415E-06  4320   0.578E-03
  18 F= -.84925636E+03 E0= -.84925636E+03  d E =-.209390E-03  mag=    -0.0000
quench:  g(F)=  0.194E-03 g(S)=  0.000E+00 dE (1.order)=-0.106E-02
 bond charge predicted
       N       E                     dE             d eps       ncg     rms          rms(c)
DAV:   1    -0.841424728595E+03   -0.24005E-03   -0.20388E-02  4570   0.289E-01    0.279E-02
DAV:   2    -0.841424760746E+03   -0.32152E-04   -0.42707E-04  4740   0.401E-02    0.222E-02
DAV:   3    -0.841424757751E+03    0.29955E-05   -0.10601E-05  5660   0.668E-03    0.170E-02
DAV:   4    -0.841424758678E+03   -0.92747E-06   -0.96673E-06  4460   0.730E-03
  19 F= -.84925660E+03 E0= -.84925660E+03  d E =-.246040E-03  mag=    -0.0000
quench:  g(F)=  0.216E-03 g(S)=  0.000E+00 dE (1.order)=-0.132E-02
 bond charge predicted
       N       E                     dE             d eps       ncg     rms          rms(c)
DAV:   1    -0.841424959952E+03   -0.20220E-03   -0.20394E-02  4590   0.294E-01    0.290E-02
DAV:   2    -0.841424993419E+03   -0.33467E-04   -0.45739E-04  5060   0.415E-02    0.241E-02
DAV:   3    -0.841424988948E+03    0.44714E-05   -0.14467E-05  5820   0.748E-03    0.183E-02
DAV:   4    -0.841424987836E+03    0.11122E-05   -0.11002E-05  4500   0.764E-03    0.749E-03
DAV:   5    -0.841424988698E+03   -0.86192E-06   -0.38005E-06  3680   0.362E-03
  20 F= -.84925681E+03 E0= -.84925681E+03  d E =-.210040E-03  mag=     0.0000
quench:  g(F)=  0.311E-03 g(S)=  0.000E+00 dE (1.order)=-0.135E-02
 bond charge predicted
       N       E                     dE             d eps       ncg     rms          rms(c)
DAV:   1    -0.841425161812E+03   -0.17398E-03   -0.95893E-03  4520   0.203E-01    0.202E-02
DAV:   2    -0.841425178490E+03   -0.16678E-04   -0.22921E-04  5280   0.291E-02    0.175E-02
DAV:   3    -0.841425175781E+03    0.27096E-05   -0.84552E-06  5560   0.558E-03    0.135E-02
DAV:   4    -0.841425173986E+03    0.17942E-05   -0.63459E-06  4420   0.573E-03    0.572E-03
DAV:   5    -0.841425174221E+03   -0.23462E-06   -0.20856E-06  3360   0.277E-03
  21 F= -.84925699E+03 E0= -.84925699E+03  d E =-.172620E-03  mag=     0.0000
quench:  g(F)=  0.408E-03 g(S)=  0.000E+00 dE (1.order)=-0.882E-03
 bond charge predicted
       N       E                     dE             d eps       ncg     rms          rms(c)
DAV:   1    -0.841425341300E+03   -0.16731E-03   -0.87025E-03  4560   0.190E-01    0.179E-02
DAV:   2    -0.841425355571E+03   -0.14271E-04   -0.18959E-04  4740   0.267E-02    0.146E-02
DAV:   3    -0.841425353995E+03    0.15758E-05   -0.46290E-06  5280   0.443E-03    0.113E-02
DAV:   4    -0.841425353964E+03    0.31432E-07   -0.50187E-06  4260   0.525E-03
  22 F= -.84925715E+03 E0= -.84925715E+03  d E =-.166775E-03  mag=     0.0000
quench:  g(F)=  0.185E-03 g(S)=  0.000E+00 dE (1.order)=-0.725E-03
 bond charge predicted
       N       E                     dE             d eps       ncg     rms          rms(c)
DAV:   1    -0.841425558963E+03   -0.20497E-03   -0.13584E-02  4570   0.235E-01    0.227E-02
DAV:   2    -0.841425579845E+03   -0.20882E-04   -0.27842E-04  4700   0.322E-02    0.183E-02
DAV:   3    -0.841425577603E+03    0.22415E-05   -0.72764E-06  5580   0.554E-03    0.139E-02
DAV:   4    -0.841425577938E+03   -0.33499E-06   -0.69627E-06  4440   0.602E-03
  23 F= -.84925736E+03 E0= -.84925736E+03  d E =-.206185E-03  mag=    -0.0000
quench:  g(F)=  0.192E-03 g(S)=  0.000E+00 dE (1.order)=-0.101E-02
 bond charge predicted
       N       E                     dE             d eps       ncg     rms          rms(c)
DAV:   1    -0.841425785401E+03   -0.20780E-03   -0.17734E-02  4560   0.271E-01    0.264E-02
DAV:   2    -0.841425813442E+03   -0.28041E-04   -0.37975E-04  4880   0.377E-02    0.218E-02
DAV:   3    -0.841425809933E+03    0.35092E-05   -0.10697E-05  5700   0.661E-03    0.166E-02
DAV:   4    -0.841425809706E+03    0.22657E-06   -0.97429E-06  4460   0.732E-03
  24 F= -.84925757E+03 E0= -.84925757E+03  d E =-.207072E-03  mag=     0.0000
quench:  g(F)=  0.215E-03 g(S)=  0.000E+00 dE (1.order)=-0.118E-02
 bond charge predicted
       N       E                     dE             d eps       ncg     rms          rms(c)
DAV:   1    -0.841425981514E+03   -0.17158E-03   -0.12452E-02  4500   0.229E-01    0.232E-02
DAV:   2    -0.841426001867E+03   -0.20353E-04   -0.28490E-04  5120   0.325E-02    0.197E-02
DAV:   3    -0.841425998547E+03    0.33200E-05   -0.10931E-05  5780   0.635E-03    0.150E-02
DAV:   4    -0.841425996979E+03    0.15683E-05   -0.73752E-06  4420   0.604E-03    0.647E-03
DAV:   5    -0.841425997372E+03   -0.39305E-06   -0.24739E-06  3420   0.303E-03
  25 F= -.84925774E+03 E0= -.84925774E+03  d E =-.174796E-03  mag=     0.0000
quench:  g(F)=  0.282E-03 g(S)=  0.000E+00 dE (1.order)=-0.115E-02
 bond charge predicted
       N       E                     dE             d eps       ncg     rms          rms(c)
DAV:   1    -0.841426161050E+03   -0.16407E-03   -0.82886E-03  4540   0.187E-01    0.179E-02
DAV:   2    -0.841426174812E+03   -0.13761E-04   -0.18641E-04  4980   0.264E-02    0.152E-02
DAV:   3    -0.841426172822E+03    0.19897E-05   -0.56492E-06  5320   0.474E-03    0.118E-02
DAV:   4    -0.841426171969E+03    0.85263E-06   -0.58273E-06  4300   0.546E-03
  26 F= -.84925790E+03 E0= -.84925790E+03  d E =-.159242E-03  mag=    -0.0000
quench:  g(F)=  0.339E-03 g(S)=  0.000E+00 dE (1.order)=-0.733E-03
 bond charge predicted
       N       E                     dE             d eps       ncg     rms          rms(c)
DAV:   1    -0.841426354284E+03   -0.18146E-03   -0.10699E-02  4560   0.210E-01    0.201E-02
DAV:   2    -0.841426371063E+03   -0.16780E-04   -0.22538E-04  4660   0.291E-02    0.163E-02
DAV:   3    -0.841426369282E+03    0.17818E-05   -0.58592E-06  5340   0.494E-03    0.124E-02
DAV:   4    -0.841426369610E+03   -0.32874E-06   -0.57098E-06  4260   0.550E-03
  27 F= -.84925808E+03 E0= -.84925808E+03  d E =-.181262E-03  mag=    -0.0000
quench:  g(F)=  0.174E-03 g(S)=  0.000E+00 dE (1.order)=-0.701E-03
 bond charge predicted
       N       E                     dE             d eps       ncg     rms          rms(c)
DAV:   1    -0.841426575410E+03   -0.20613E-03   -0.16114E-02  4560   0.259E-01    0.246E-02
DAV:   2    -0.841426601161E+03   -0.25751E-04   -0.34330E-04  4660   0.360E-02    0.199E-02
DAV:   3    -0.841426598420E+03    0.27414E-05   -0.86546E-06  5740   0.598E-03    0.152E-02
DAV:   4    -0.841426598906E+03   -0.48555E-06   -0.81392E-06  4420   0.666E-03
  28 F= -.84925829E+03 E0= -.84925829E+03  d E =-.207458E-03  mag=    -0.0000
quench:  g(F)=  0.189E-03 g(S)=  0.000E+00 dE (1.order)=-0.941E-03
 bond charge predicted
       N       E                     dE             d eps       ncg     rms          rms(c)
DAV:   1    -0.841426780627E+03   -0.18221E-03   -0.16073E-02  4560   0.261E-01    0.254E-02
DAV:   2    -0.841426807143E+03   -0.26516E-04   -0.35965E-04  4920   0.368E-02    0.210E-02
DAV:   3    -0.841426803706E+03    0.34368E-05   -0.11204E-05  5820   0.658E-03    0.161E-02
DAV:   4    -0.841426802989E+03    0.71690E-06   -0.87755E-06  4400   0.679E-03
  29 F= -.84925848E+03 E0= -.84925848E+03  d E =-.186133E-03  mag=    -0.0000
quench:  g(F)=  0.207E-03 g(S)=  0.000E+00 dE (1.order)=-0.105E-02
 bond charge predicted
       N       E                     dE             d eps       ncg     rms          rms(c)
DAV:   1    -0.841426966757E+03   -0.16305E-03   -0.97739E-03  4540   0.205E-01    0.201E-02
DAV:   2    -0.841426983017E+03   -0.16260E-04   -0.22738E-04  5100   0.292E-02    0.170E-02
DAV:   3    -0.841426980506E+03    0.25115E-05   -0.77792E-06  5680   0.539E-03    0.129E-02
DAV:   4    -0.841426979707E+03    0.79907E-06   -0.57428E-06  4320   0.536E-03
  30 F= -.84925864E+03 E0= -.84925864E+03  d E =-.159939E-03  mag=    -0.0000
quench:  g(F)=  0.261E-03 g(S)=  0.000E+00 dE (1.order)=-0.100E-02
 bond charge predicted
       N       E                     dE             d eps       ncg     rms          rms(c)
DAV:   1    -0.841427137080E+03   -0.15657E-03   -0.89779E-03  4540   0.194E-01    0.185E-02
DAV:   2    -0.841427151898E+03   -0.14818E-04   -0.19800E-04  4780   0.272E-02    0.151E-02
DAV:   3    -0.841427150264E+03    0.16341E-05   -0.54127E-06  5380   0.465E-03    0.116E-02
DAV:   4    -0.841427150307E+03   -0.43066E-07   -0.49922E-06  4260   0.502E-03
  31 F= -.84925879E+03 E0= -.84925879E+03  d E =-.155260E-03  mag=     0.0000
quench:  g(F)=  0.279E-03 g(S)=  0.000E+00 dE (1.order)=-0.683E-03
 bond charge predicted
       N       E                     dE             d eps       ncg     rms          rms(c)
DAV:   1    -0.841427335916E+03   -0.18565E-03   -0.12603E-02  4560   0.229E-01    0.221E-02
DAV:   2    -0.841427356026E+03   -0.20110E-04   -0.27219E-04  4760   0.321E-02    0.178E-02
DAV:   3    -0.841427353982E+03    0.20445E-05   -0.67306E-06  5680   0.529E-03    0.135E-02
DAV:   4    -0.841427354616E+03   -0.63478E-06   -0.63087E-06  4340   0.595E-03
  32 F= -.84925897E+03 E0= -.84925897E+03  d E =-.182544E-03  mag=    -0.0000
quench:  g(F)=  0.170E-03 g(S)=  0.000E+00 dE (1.order)=-0.683E-03
 bond charge predicted
       N       E                     dE             d eps       ncg     rms          rms(c)
DAV:   1    -0.841427536984E+03   -0.18300E-03   -0.15265E-02  4560   0.253E-01    0.244E-02
DAV:   2    -0.841427561778E+03   -0.24794E-04   -0.33369E-04  4740   0.355E-02    0.198E-02
DAV:   3    -0.841427558996E+03    0.27816E-05   -0.94690E-06  5780   0.612E-03    0.151E-02
DAV:   4    -0.841427558946E+03    0.50619E-07   -0.75216E-06  4460   0.628E-03
  33 F= -.84925916E+03 E0= -.84925916E+03  d E =-.185773E-03  mag=     0.0000
quench:  g(F)=  0.186E-03 g(S)=  0.000E+00 dE (1.order)=-0.879E-03
 bond charge predicted
       N       E                     dE             d eps       ncg     rms          rms(c)
DAV:   1    -0.841427728812E+03   -0.16982E-03   -0.12545E-02  4520   0.232E-01    0.227E-02
DAV:   2    -0.841427749985E+03   -0.21173E-04   -0.29154E-04  5040   0.332E-02    0.188E-02
DAV:   3    -0.841427747200E+03    0.27847E-05   -0.92415E-06  5750   0.592E-03    0.143E-02
DAV:   4    -0.841427746659E+03    0.54163E-06   -0.67624E-06  4480   0.594E-03
  34 F= -.84925933E+03 E0= -.84925933E+03  d E =-.166853E-03  mag=    -0.0000
quench:  g(F)=  0.197E-03 g(S)=  0.000E+00 dE (1.order)=-0.977E-03
 bond charge predicted
       N       E                     dE             d eps       ncg     rms          rms(c)
DAV:   1    -0.841427901999E+03   -0.15480E-03   -0.92826E-03  4540   0.199E-01    0.194E-02
DAV:   2    -0.841427917575E+03   -0.15576E-04   -0.21305E-04  4880   0.283E-02    0.158E-02
DAV:   3    -0.841427915649E+03    0.19253E-05   -0.66133E-06  5640   0.502E-03    0.120E-02
DAV:   4    -0.841427915398E+03    0.25147E-06   -0.47935E-06  4340   0.493E-03
  35 F= -.84925948E+03 E0= -.84925948E+03  d E =-.155014E-03  mag=     0.0000
quench:  g(F)=  0.252E-03 g(S)=  0.000E+00 dE (1.order)=-0.972E-03
 bond charge predicted
       N       E                     dE             d eps       ncg     rms          rms(c)
DAV:   1    -0.841428088833E+03   -0.17318E-03   -0.11231E-02  4560   0.217E-01    0.208E-02
DAV:   2    -0.841428107526E+03   -0.18692E-04   -0.25048E-04  4700   0.308E-02    0.165E-02
DAV:   3    -0.841428105717E+03    0.18088E-05   -0.61030E-06  5580   0.502E-03    0.125E-02
DAV:   4    -0.841428106295E+03   -0.57861E-06   -0.54395E-06  4300   0.544E-03
  36 F= -.84925965E+03 E0= -.84925965E+03  d E =-.171173E-03  mag=     0.0000
quench:  g(F)=  0.267E-03 g(S)=  0.000E+00 dE (1.order)=-0.699E-03
 bond charge predicted
       N       E                     dE             d eps       ncg     rms          rms(c)
DAV:   1    -0.841428289198E+03   -0.18348E-03   -0.14833E-02  4560   0.249E-01    0.237E-02
DAV:   2    -0.841428313874E+03   -0.24676E-04   -0.32678E-04  4660   0.350E-02    0.188E-02
DAV:   3    -0.841428311476E+03    0.23984E-05   -0.82666E-06  5740   0.577E-03    0.144E-02
DAV:   4    -0.841428311963E+03   -0.48705E-06   -0.68865E-06  4360   0.606E-03
  37 F= -.84925984E+03 E0= -.84925984E+03  d E =-.186551E-03  mag=    -0.0000
quench:  g(F)=  0.175E-03 g(S)=  0.000E+00 dE (1.order)=-0.686E-03
 bond charge predicted
       N       E                     dE             d eps       ncg     rms          rms(c)
DAV:   1    -0.841428491353E+03   -0.17988E-03   -0.14311E-02  4560   0.247E-01    0.241E-02
DAV:   2    -0.841428515135E+03   -0.23781E-04   -0.32557E-04  4940   0.351E-02    0.196E-02
DAV:   3    -0.841428512247E+03    0.28879E-05   -0.95787E-06  5840   0.611E-03    0.148E-02
DAV:   4    -0.841428512096E+03    0.15023E-06   -0.72211E-06  4420   0.620E-03
  38 F= -.84926001E+03 E0= -.84926001E+03  d E =-.176078E-03  mag=    -0.0000
quench:  g(F)=  0.186E-03 g(S)=  0.000E+00 dE (1.order)=-0.833E-03
 bond charge predicted
       N       E                     dE             d eps       ncg     rms          rms(c)
DAV:   1    -0.841428667259E+03   -0.15501E-03   -0.10539E-02  4540   0.213E-01    0.207E-02
DAV:   2    -0.841428685120E+03   -0.17862E-04   -0.24423E-04  4990   0.303E-02    0.170E-02
DAV:   3    -0.841428682786E+03    0.23340E-05   -0.77684E-06  5740   0.541E-03    0.129E-02
DAV:   4    -0.841428682287E+03    0.49911E-06   -0.56037E-06  4340   0.530E-03
  39 F= -.84926017E+03 E0= -.84926017E+03  d E =-.156715E-03  mag=     0.0000
quench:  g(F)=  0.192E-03 g(S)=  0.000E+00 dE (1.order)=-0.906E-03
 bond charge predicted
       N       E                     dE             d eps       ncg     rms          rms(c)
DAV:   1    -0.841428843838E+03   -0.16105E-03   -0.99072E-03  4560   0.205E-01    0.197E-02
DAV:   2    -0.841428860356E+03   -0.16518E-04   -0.22377E-04  4740   0.291E-02    0.158E-02
DAV:   3    -0.841428858556E+03    0.17998E-05   -0.59898E-06  5520   0.489E-03    0.120E-02
DAV:   4    -0.841428858775E+03   -0.21901E-06   -0.51043E-06  4220   0.516E-03
  40 F= -.84926033E+03 E0= -.84926033E+03  d E =-.157401E-03  mag=     0.0000
quench:  g(F)=  0.251E-03 g(S)=  0.000E+00 dE (1.order)=-0.861E-03
 bond charge predicted
       N       E                     dE             d eps       ncg     rms          rms(c)
DAV:   1    -0.841429028070E+03   -0.16951E-03   -0.12287E-02  4560   0.227E-01    0.217E-02
DAV:   2    -0.841429048437E+03   -0.20367E-04   -0.27024E-04  4620   0.319E-02    0.173E-02
DAV:   3    -0.841429046403E+03    0.20337E-05   -0.69063E-06  5640   0.530E-03    0.131E-02
DAV:   4    -0.841429046691E+03   -0.28814E-06   -0.62566E-06  4300   0.568E-03
  41 F= -.84926050E+03 E0= -.84926050E+03  d E =-.172175E-03  mag=     0.0000
quench:  g(F)=  0.222E-03 g(S)=  0.000E+00 dE (1.order)=-0.629E-03
 bond charge predicted
       N       E                     dE             d eps       ncg     rms          rms(c)
DAV:   1    -0.841429222371E+03   -0.17597E-03   -0.13648E-02  4560   0.241E-01    0.231E-02
DAV:   2    -0.841429245204E+03   -0.22833E-04   -0.30605E-04  4850   0.340E-02    0.186E-02
DAV:   3    -0.841429242667E+03    0.25368E-05   -0.84300E-06  5760   0.579E-03    0.141E-02
DAV:   4    -0.841429242574E+03    0.92929E-07   -0.69235E-06  4360   0.605E-03
  42 F= -.84926068E+03 E0= -.84926068E+03  d E =-.174661E-03  mag=     0.0000
quench:  g(F)=  0.174E-03 g(S)=  0.000E+00 dE (1.order)=-0.659E-03
 bond charge predicted
       N       E                     dE             d eps       ncg     rms          rms(c)
DAV:   1    -0.841429398265E+03   -0.15560E-03   -0.11328E-02  4560   0.220E-01    0.214E-02
DAV:   2    -0.841429417282E+03   -0.19017E-04   -0.25799E-04  5020   0.312E-02    0.175E-02
DAV:   3    -0.841429414754E+03    0.25282E-05   -0.80616E-06  5820   0.554E-03    0.133E-02
DAV:   4    -0.841429414150E+03    0.60399E-06   -0.63770E-06  4340   0.562E-03
  43 F= -.84926083E+03 E0= -.84926083E+03  d E =-.158007E-03  mag=    -0.0000
quench:  g(F)=  0.177E-03 g(S)=  0.000E+00 dE (1.order)=-0.778E-03
 bond charge predicted
       N       E                     dE             d eps       ncg     rms          rms(c)
DAV:   1    -0.841429569558E+03   -0.15480E-03   -0.96790E-03  4560   0.203E-01    0.196E-02
DAV:   2    -0.841429585693E+03   -0.16136E-04   -0.21936E-04  4880   0.288E-02    0.159E-02
DAV:   3    -0.841429583696E+03    0.19973E-05   -0.63136E-06  5400   0.499E-03    0.120E-02
DAV:   4    -0.841429583546E+03    0.15005E-06   -0.54584E-06  4260   0.521E-03
  44 F= -.84926099E+03 E0= -.84926099E+03  d E =-.153144E-03  mag=     0.0000
quench:  g(F)=  0.194E-03 g(S)=  0.000E+00 dE (1.order)=-0.851E-03
 bond charge predicted
       N       E                     dE             d eps       ncg     rms          rms(c)
DAV:   1    -0.841429748152E+03   -0.16446E-03   -0.11283E-02  4560   0.218E-01    0.208E-02
DAV:   2    -0.841429766928E+03   -0.18776E-04   -0.24967E-04  4680   0.306E-02    0.165E-02
DAV:   3    -0.841429764997E+03    0.19305E-05   -0.63929E-06  5520   0.509E-03    0.126E-02
DAV:   4    -0.841429765215E+03   -0.21803E-06   -0.60096E-06  4300   0.554E-03
  45 F= -.84926115E+03 E0= -.84926115E+03  d E =-.165078E-03  mag=    -0.0000
quench:  g(F)=  0.213E-03 g(S)=  0.000E+00 dE (1.order)=-0.819E-03
 bond charge predicted
       N       E                     dE             d eps       ncg     rms          rms(c)
DAV:   1    -0.841429935677E+03   -0.17068E-03   -0.13076E-02  4560   0.235E-01    0.226E-02
DAV:   2    -0.841429957401E+03   -0.21724E-04   -0.29098E-04  4780   0.331E-02    0.181E-02
DAV:   3    -0.841429955015E+03    0.23859E-05   -0.78367E-06  5740   0.558E-03    0.137E-02
DAV:   4    -0.841429955044E+03   -0.29017E-07   -0.65574E-06  4360   0.586E-03
  46 F= -.84926132E+03 E0= -.84926132E+03  d E =-.172111E-03  mag=    -0.0000
quench:  g(F)=  0.237E-03 g(S)=  0.000E+00 dE (1.order)=-0.693E-03
 bond charge predicted
       N       E                     dE             d eps       ncg     rms          rms(c)
DAV:   1    -0.841430111293E+03   -0.15628E-03   -0.12198E-02  4540   0.228E-01    0.220E-02
DAV:   2    -0.841430131934E+03   -0.20641E-04   -0.27773E-04  4900   0.323E-02    0.179E-02
DAV:   3    -0.841430129397E+03    0.25364E-05   -0.83296E-06  5840   0.565E-03    0.136E-02
DAV:   4    -0.841430128919E+03    0.47875E-06   -0.67351E-06  4350   0.581E-03
  47 F= -.84926148E+03 E0= -.84926148E+03  d E =-.158406E-03  mag=    -0.0000
quench:  g(F)=  0.171E-03 g(S)=  0.000E+00 dE (1.order)=-0.642E-03
 bond charge predicted
       N       E                     dE             d eps       ncg     rms          rms(c)
DAV:   1    -0.841430277194E+03   -0.14780E-03   -0.95968E-03  4540   0.202E-01    0.197E-02
DAV:   2    -0.841430293398E+03   -0.16203E-04   -0.22107E-04  5060   0.288E-02    0.161E-02
DAV:   3    -0.841430291287E+03    0.21104E-05   -0.66471E-06  5540   0.507E-03    0.121E-02
DAV:   4    -0.841430290944E+03    0.34361E-06   -0.53654E-06  4280   0.521E-03
  48 F= -.84926163E+03 E0= -.84926163E+03  d E =-.146359E-03  mag=     0.0000
quench:  g(F)=  0.174E-03 g(S)=  0.000E+00 dE (1.order)=-0.753E-03
 bond charge predicted
       N       E                     dE             d eps       ncg     rms          rms(c)
DAV:   1    -0.841430441981E+03   -0.15069E-03   -0.99424E-03  4540   0.205E-01    0.195E-02
DAV:   2    -0.841430458919E+03   -0.16938E-04   -0.22317E-04  4820   0.289E-02    0.156E-02
DAV:   3    -0.841430457144E+03    0.17755E-05   -0.58446E-06  5380   0.484E-03    0.119E-02
DAV:   4    -0.841430457167E+03   -0.23821E-07   -0.53962E-06  4260   0.518E-03
  49 F= -.84926178E+03 E0= -.84926178E+03  d E =-.152321E-03  mag=     0.0000
quench:  g(F)=  0.189E-03 g(S)=  0.000E+00 dE (1.order)=-0.806E-03
 bond charge predicted
       N       E                     dE             d eps       ncg     rms          rms(c)
DAV:   1    -0.841430625185E+03   -0.16804E-03   -0.12735E-02  4560   0.232E-01    0.221E-02
DAV:   2    -0.841430646843E+03   -0.21658E-04   -0.28564E-04  4740   0.327E-02    0.174E-02
DAV:   3    -0.841430644747E+03    0.20962E-05   -0.68100E-06  5720   0.529E-03    0.133E-02
DAV:   4    -0.841430645149E+03   -0.40234E-06   -0.61213E-06  4360   0.581E-03
  50 F= -.84926195E+03 E0= -.84926195E+03  d E =-.168583E-03  mag=     0.0000
quench:  g(F)=  0.212E-03 g(S)=  0.000E+00 dE (1.order)=-0.780E-03
 bond charge predicted
       N       E                     dE             d eps       ncg     rms          rms(c)
DAV:   1    -0.841430805286E+03   -0.16054E-03   -0.13007E-02  4540   0.234E-01    0.226E-02
DAV:   2    -0.841430827483E+03   -0.22197E-04   -0.29336E-04  5000   0.331E-02    0.181E-02
DAV:   3    -0.841430824997E+03    0.24857E-05   -0.81557E-06  5740   0.564E-03    0.138E-02
DAV:   4    -0.841430824707E+03    0.29019E-06   -0.67979E-06  4360   0.587E-03
  51 F= -.84926211E+03 E0= -.84926211E+03  d E =-.162847E-03  mag=    -0.0000
quench:  g(F)=  0.222E-03 g(S)=  0.000E+00 dE (1.order)=-0.631E-03
 bond charge predicted
       N       E                     dE             d eps       ncg     rms          rms(c)
DAV:   1    -0.841430977481E+03   -0.15248E-03   -0.10821E-02  4540   0.215E-01    0.211E-02
DAV:   2    -0.841430996162E+03   -0.18681E-04   -0.25263E-04  5060   0.308E-02    0.171E-02
DAV:   3    -0.841430993800E+03    0.23620E-05   -0.74442E-06  5800   0.533E-03    0.129E-02
DAV:   4    -0.841430993395E+03    0.40411E-06   -0.57590E-06  4380   0.550E-03
  52 F= -.84926226E+03 E0= -.84926226E+03  d E =-.152026E-03  mag=    -0.0000
quench:  g(F)=  0.170E-03 g(S)=  0.000E+00 dE (1.order)=-0.637E-03
 bond charge predicted
       N       E                     dE             d eps       ncg     rms          rms(c)
DAV:   1    -0.841431138366E+03   -0.14457E-03   -0.95979E-03  4540   0.202E-01    0.193E-02
DAV:   2    -0.841431154957E+03   -0.16591E-04   -0.21981E-04  4880   0.287E-02    0.155E-02
DAV:   3    -0.841431153131E+03    0.18254E-05   -0.59667E-06  5460   0.483E-03    0.118E-02
DAV:   4    -0.841431153028E+03    0.10332E-06   -0.52473E-06  4300   0.510E-03
  53 F= -.84926241E+03 E0= -.84926241E+03  d E =-.145225E-03  mag=     0.0000
quench:  g(F)=  0.178E-03 g(S)=  0.000E+00 dE (1.order)=-0.745E-03
 bond charge predicted
       N       E                     dE             d eps       ncg     rms          rms(c)
DAV:   1    -0.841431313187E+03   -0.16006E-03   -0.11149E-02  4560   0.217E-01    0.208E-02
DAV:   2    -0.841431332194E+03   -0.19007E-04   -0.25179E-04  4800   0.307E-02    0.164E-02
DAV:   3    -0.841431330310E+03    0.18842E-05   -0.61725E-06  5600   0.500E-03    0.125E-02
DAV:   4    -0.841431330628E+03   -0.31796E-06   -0.54399E-06  4320   0.543E-03
  54 F= -.84926257E+03 E0= -.84926257E+03  d E =-.159046E-03  mag=    -0.0000
quench:  g(F)=  0.195E-03 g(S)=  0.000E+00 dE (1.order)=-0.767E-03
 bond charge predicted
       N       E                     dE             d eps       ncg     rms          rms(c)
DAV:   1    -0.841431494080E+03   -0.16377E-03   -0.13196E-02  4560   0.236E-01    0.225E-02
DAV:   2    -0.841431516798E+03   -0.22717E-04   -0.29725E-04  4820   0.333E-02    0.177E-02
DAV:   3    -0.841431514562E+03    0.22359E-05   -0.74073E-06  5840   0.542E-03    0.135E-02
DAV:   4    -0.841431514785E+03   -0.22259E-06   -0.63154E-06  4300   0.576E-03
  55 F= -.84926274E+03 E0= -.84926274E+03  d E =-.167391E-03  mag=    -0.0000
quench:  g(F)=  0.212E-03 g(S)=  0.000E+00 dE (1.order)=-0.711E-03
 bond charge predicted
       N       E                     dE             d eps       ncg     rms          rms(c)
DAV:   1    -0.841431675736E+03   -0.16117E-03   -0.12895E-02  4540   0.235E-01    0.225E-02
DAV:   2    -0.841431698120E+03   -0.22384E-04   -0.29777E-04  4960   0.335E-02    0.180E-02
DAV:   3    -0.841431695686E+03    0.24348E-05   -0.81090E-06  5800   0.559E-03    0.136E-02
DAV:   4    -0.841431695648E+03    0.37282E-07   -0.63067E-06  4360   0.576E-03
  56 F= -.84926290E+03 E0= -.84926290E+03  d E =-.161542E-03  mag=     0.0000
quench:  g(F)=  0.191E-03 g(S)=  0.000E+00 dE (1.order)=-0.613E-03
 bond charge predicted
       N       E                     dE             d eps       ncg     rms          rms(c)
DAV:   1    -0.841431844732E+03   -0.14905E-03   -0.10476E-02  4540   0.211E-01    0.204E-02
DAV:   2    -0.841431862660E+03   -0.17928E-04   -0.24134E-04  4980   0.301E-02    0.165E-02
DAV:   3    -0.841431860495E+03    0.21652E-05   -0.70410E-06  5720   0.517E-03    0.125E-02
DAV:   4    -0.841431860232E+03    0.26363E-06   -0.55364E-06  4320   0.528E-03
  57 F= -.84926305E+03 E0= -.84926305E+03  d E =-.149715E-03  mag=    -0.0000
quench:  g(F)=  0.169E-03 g(S)=  0.000E+00 dE (1.order)=-0.656E-03
 bond charge predicted
       N       E                     dE             d eps       ncg     rms          rms(c)
DAV:   1    -0.841432017715E+03   -0.15722E-03   -0.10076E-02  4560   0.206E-01    0.198E-02
DAV:   2    -0.841432034665E+03   -0.16950E-04   -0.22723E-04  4880   0.291E-02    0.158E-02
DAV:   3    -0.841432032819E+03    0.18453E-05   -0.60926E-06  5640   0.487E-03    0.120E-02
DAV:   4    -0.841432032947E+03   -0.12782E-06   -0.49234E-06  4220   0.507E-03
  58 F= -.84926320E+03 E0= -.84926320E+03  d E =-.152125E-03  mag=    -0.0000
quench:  g(F)=  0.175E-03 g(S)=  0.000E+00 dE (1.order)=-0.751E-03
 bond charge predicted
       N       E                     dE             d eps       ncg     rms          rms(c)
DAV:   1    -0.841432202995E+03   -0.17018E-03   -0.12695E-02  4560   0.230E-01    0.218E-02
DAV:   2    -0.841432224607E+03   -0.21612E-04   -0.28283E-04  4720   0.324E-02    0.171E-02
DAV:   3    -0.841432222617E+03    0.19897E-05   -0.67556E-06  5720   0.521E-03    0.131E-02
DAV:   4    -0.841432223043E+03   -0.42587E-06   -0.59215E-06  4240   0.561E-03
  59 F= -.84926337E+03 E0= -.84926337E+03  d E =-.169866E-03  mag=     0.0000
quench:  g(F)=  0.197E-03 g(S)=  0.000E+00 dE (1.order)=-0.766E-03
 bond charge predicted
       N       E                     dE             d eps       ncg     rms          rms(c)
DAV:   1    -0.841432395502E+03   -0.17288E-03   -0.14221E-02  4560   0.245E-01    0.234E-02
DAV:   2    -0.841432420003E+03   -0.24502E-04   -0.32312E-04  4960   0.348E-02    0.185E-02
DAV:   3    -0.841432417539E+03    0.24648E-05   -0.83145E-06  5820   0.570E-03    0.141E-02
DAV:   4    -0.841432417758E+03   -0.21984E-06   -0.65187E-06  4360   0.593E-03
  60 F= -.84926354E+03 E0= -.84926354E+03  d E =-.170224E-03  mag=    -0.0000
quench:  g(F)=  0.221E-03 g(S)=  0.000E+00 dE (1.order)=-0.696E-03
 bond charge predicted
       N       E                     dE             d eps       ncg     rms          rms(c)
DAV:   1    -0.841432572802E+03   -0.15526E-03   -0.12315E-02  4520   0.229E-01    0.221E-02
DAV:   2    -0.841432594427E+03   -0.21625E-04   -0.28693E-04  5100   0.327E-02    0.178E-02
DAV:   3    -0.841432591922E+03    0.25050E-05   -0.83991E-06  5760   0.562E-03    0.135E-02
DAV:   4    -0.841432591541E+03    0.38109E-06   -0.62843E-06  4380   0.561E-03
  61 F= -.84926370E+03 E0= -.84926370E+03  d E =-.157432E-03  mag=     0.0000
quench:  g(F)=  0.180E-03 g(S)=  0.000E+00 dE (1.order)=-0.592E-03
 reached required accuracy - stopping structural energy minimisation
