<?xml version="1.0" encoding="ISO-8859-1"?>
<modeling>
 <generator>
  <i name="program" type="string">vasp </i>
  <i name="version" type="string">6.4.2  </i>
  <i name="subversion" type="string">20Jul23 (build Jan 24 2024 13:44:02) complex                          parallel </i>
  <i name="platform" type="string">LinuxNV </i>
  <i name="date" type="string">2025 11 14 </i>
  <i name="time" type="string">00:02:37 </i>
 </generator>
 <incar>
  <i type="int" name="ISTART">     0</i>
  <i type="string" name="ALGO">Normal</i>
  <i type="logical" name="ADDGRID"> T  </i>
  <i type="int" name="ISPIN">     2</i>
  <i type="int" name="IMIX">     4</i>
  <i name="AMIX">      0.20000000</i>
  <i name="BMIX">      0.00010000</i>
  <i name="AMIX_MAG">      0.80000000</i>
  <i name="BMIX_MAG">      0.00010000</i>
  <i type="int" name="ICHARG">     2</i>
  <i type="int" name="NELM">   200</i>
  <i type="int" name="IBRION">     3</i>
  <i name="EDIFF">      0.00000100</i>
  <i name="EDIFFG">     -0.03000000</i>
  <i type="int" name="NSW">   300</i>
  <i type="int" name="ISIF">     2</i>
  <i type="int" name="ISYM">     0</i>
  <i name="ENCUT">    520.00000000</i>
  <i name="POTIM">      0.05000000</i>
  <v name="MAGMOM">      0.60000000      0.60000000      0.60000000      0.60000000      0.60000000      0.60000000      0.60000000      0.60000000      0.60000000      0.60000000      0.60000000      0.60000000      0.60000000      0.60000000      0.60000000      0.60000000      0.60000000      0.60000000      0.60000000      0.60000000
      0.60000000      0.60000000      0.60000000      0.60000000      0.60000000      0.60000000      0.60000000      0.60000000      0.60000000      0.60000000      0.60000000      0.60000000      0.60000000      0.60000000      0.60000000      0.60000000      0.60000000      0.60000000      0.60000000      0.60000000
      0.60000000      0.60000000      0.60000000      0.60000000      0.60000000      0.60000000      0.60000000      0.60000000      0.60000000      0.60000000      0.60000000      0.60000000      0.60000000      0.60000000      0.60000000      0.60000000      0.60000000      0.60000000      0.60000000      0.60000000
      0.60000000      0.60000000      0.60000000      0.60000000      0.60000000      0.60000000      0.60000000      0.60000000      0.60000000      0.60000000      0.60000000      0.60000000      0.60000000      0.60000000      0.60000000      0.60000000      0.60000000      0.60000000      0.60000000      0.60000000
      0.60000000      0.60000000      0.60000000      0.60000000      0.60000000      0.60000000      0.60000000      0.60000000      0.60000000      0.60000000      0.60000000      0.60000000      0.60000000      0.60000000      0.60000000      0.60000000      0.60000000</v>
  <i type="string" name="LREAL">Auto</i>
  <i type="int" name="ISMEAR">     0</i>
  <i name="SIGMA">      0.05000000</i>
  <i type="logical" name="LWAVE"> F  </i>
  <i type="logical" name="LCHARG"> F  </i>
  <i type="logical" name="LASPH"> T  </i>
  <i type="int" name="IVDW">    12</i>
  <i name="SPRING">     -5.00000000</i>
 </incar>
 <primitive_cell>
  <structure name="primitive_cell" >
   <crystal>
    <varray name="basis" >
     <v>      17.27103806       0.00000000       0.00000000 </v>
     <v>      -8.63551903      14.95715771       0.00000000 </v>
     <v>       0.00000000       0.00000000      15.00000000 </v>
    </varray>
    <i name="volume">   3874.88459904 </i>
    <varray name="rec_basis" >
     <v>       0.05790040       0.03342881      -0.00000000 </v>
     <v>       0.00000000       0.06685762       0.00000000 </v>
     <v>       0.00000000      -0.00000000       0.06666667 </v>
    </varray>
   </crystal>
   <varray name="positions" >
    <v>       0.00016514       0.00021224       0.50348751 </v>
    <v>       0.99956099       0.14273270       0.50700187 </v>
    <v>       0.99976546       0.28582719       0.50706602 </v>
    <v>       0.00042211       0.42893933       0.50613144 </v>
    <v>       0.00094767       0.57204988       0.50111363 </v>
    <v>       0.00180023       0.71538503       0.49801628 </v>
    <v>       0.00188192       0.85850335       0.49907836 </v>
    <v>       0.14353329       0.00097623       0.49344501 </v>
    <v>       0.14259187       0.14330112       0.49828606 </v>
    <v>       0.14197319       0.28593339       0.49646129 </v>
    <v>       0.14290063       0.42928621       0.49455023 </v>
    <v>       0.14362537       0.57193269       0.49607774 </v>
    <v>       0.14371874       0.71491596       0.49350744 </v>
    <v>       0.14387547       0.85808614       0.49234788 </v>
    <v>       0.28621783       0.00061781       0.49173662 </v>
    <v>       0.28573776       0.14306368       0.49030502 </v>
    <v>       0.28445730       0.28629985       0.48484573 </v>
    <v>       0.28170096       0.42711691       0.46290942 </v>
    <v>       0.28639739       0.57272151       0.47406840 </v>
    <v>       0.28599866       0.71538206       0.48861457 </v>
    <v>       0.28600113       0.85812459       0.49158269 </v>
    <v>       0.42909978       0.00050263       0.49535669 </v>
    <v>       0.42881044       0.14330791       0.49535370 </v>
    <v>       0.42400332       0.27967369       0.51325048 </v>
    <v>       0.42803003       0.85707091       0.49465024 </v>
    <v>       0.57120429       0.99936863       0.50334265 </v>
    <v>       0.57162897       0.14280937       0.50564229 </v>
    <v>       0.57237875       0.28643639       0.50248237 </v>
    <v>       0.56930125       0.85446964       0.50590177 </v>
    <v>       0.71331450       0.99791087       0.51086112 </v>
    <v>       0.71424519       0.14220944       0.51028209 </v>
    <v>       0.71476717       0.28592318       0.51157028 </v>
    <v>       0.71573559       0.42975054       0.50890265 </v>
    <v>       0.72420005       0.57792105       0.53564007 </v>
    <v>       0.71362219       0.85423994       0.51884218 </v>
    <v>       0.85670165       0.99919175       0.51172233 </v>
    <v>       0.85655889       0.14219305       0.51125347 </v>
    <v>       0.85719292       0.28561103       0.51183945 </v>
    <v>       0.85808720       0.42916704       0.51145018 </v>
    <v>       0.85914806       0.57316853       0.50577859 </v>
    <v>       0.86078620       0.71656510       0.50951922 </v>
    <v>       0.85848196       0.85709968       0.51189147 </v>
    <v>       0.04754167       0.09550542       0.50341737 </v>
    <v>       0.04691976       0.23799130       0.50448954 </v>
    <v>       0.04770733       0.38128547       0.50378130 </v>
    <v>       0.04846494       0.52423436       0.50190678 </v>
    <v>       0.04869135       0.66734661       0.49689433 </v>
    <v>       0.04896414       0.81049698       0.49566925 </v>
    <v>       0.04843972       0.95329615       0.49829911 </v>
    <v>       0.19048378       0.09578647       0.49243853 </v>
    <v>       0.18940903       0.23844847       0.49503006 </v>
    <v>       0.18905218       0.38084391       0.48753644 </v>
    <v>       0.19144287       0.52471766       0.49034640 </v>
    <v>       0.19092706       0.66724741       0.49223306 </v>
    <v>       0.19117532       0.81031140       0.49176662 </v>
    <v>       0.19120788       0.95319842       0.49162548 </v>
    <v>       0.33369528       0.09584056       0.49246036 </v>
    <v>       0.33283234       0.23821494       0.49400834 </v>
    <v>       0.32429874       0.37539890       0.45718821 </v>
    <v>       0.32464972       0.52121937       0.44848044 </v>
    <v>       0.33660035       0.67086470       0.48151281 </v>
    <v>       0.33329396       0.81025430       0.49131704 </v>
    <v>       0.33375971       0.95309325       0.49236757 </v>
    <v>       0.47673939       0.09569165       0.49783254 </v>
    <v>       0.47602739       0.23844728       0.50222937 </v>
    <v>       0.47196338       0.80559305       0.49565578 </v>
    <v>       0.47629759       0.95245699       0.49795306 </v>
    <v>       0.61892020       0.09471859       0.50697419 </v>
    <v>       0.61960830       0.23838119       0.50894138 </v>
    <v>       0.62434512       0.37957983       0.49048026 </v>
    <v>       0.61975440       0.81142408       0.51699984 </v>
    <v>       0.61783404       0.95035777       0.50650551 </v>
    <v>       0.76130517       0.09395539       0.51096261 </v>
    <v>       0.76205366       0.23770721       0.51163151 </v>
    <v>       0.76277504       0.38135109       0.51347135 </v>
    <v>       0.76392983       0.52672739       0.51477705 </v>
    <v>       0.76712949       0.67245576       0.52602331 </v>
    <v>       0.76287521       0.80524499       0.52194524 </v>
    <v>       0.76116902       0.95021921       0.51373209 </v>
    <v>       0.90413163       0.09444780       0.51030841 </v>
    <v>       0.90442513       0.23774337       0.51069958 </v>
    <v>       0.90514242       0.38123811       0.51065729 </v>
    <v>       0.90579763       0.52460337       0.50509567 </v>
    <v>       0.90698531       0.66804361       0.50381214 </v>
    <v>       0.90718135       0.81105991       0.50620380 </v>
    <v>       0.90496266       0.95214508       0.50901569 </v>
    <v>       0.46204146       0.36162191       0.55159914 </v>
    <v>       0.40664816       0.41244196       0.42093026 </v>
    <v>       0.40281146       0.56132284       0.40573408 </v>
    <v>       0.64116862       0.53631147       0.57073835 </v>
    <v>       0.58585643       0.42257233       0.45098961 </v>
    <v>       0.57382289       0.72272858       0.52645619 </v>
    <v>       0.42623875       0.71573272       0.48579575 </v>
    <v>       0.72015190       0.71602002       0.53266681 </v>
    <v>       0.55440990       0.60053577       0.54675020 </v>
    <v>       0.51162474       0.50360593       0.51540071 </v>
    <v>       0.49663022       0.54794771       0.53488800 </v>
   </varray>
  </structure>
  <varray name="primitive_index" >
   <v type="int" >        1 </v>
   <v type="int" >        2 </v>
   <v type="int" >        3 </v>
   <v type="int" >        4 </v>
   <v type="int" >        5 </v>
   <v type="int" >        6 </v>
   <v type="int" >        7 </v>
   <v type="int" >        8 </v>
   <v type="int" >        9 </v>
   <v type="int" >       10 </v>
   <v type="int" >       11 </v>
   <v type="int" >       12 </v>
   <v type="int" >       13 </v>
   <v type="int" >       14 </v>
   <v type="int" >       15 </v>
   <v type="int" >       16 </v>
   <v type="int" >       17 </v>
   <v type="int" >       18 </v>
   <v type="int" >       19 </v>
   <v type="int" >       20 </v>
   <v type="int" >       21 </v>
   <v type="int" >       22 </v>
   <v type="int" >       23 </v>
   <v type="int" >       24 </v>
   <v type="int" >       25 </v>
   <v type="int" >       26 </v>
   <v type="int" >       27 </v>
   <v type="int" >       28 </v>
   <v type="int" >       29 </v>
   <v type="int" >       30 </v>
   <v type="int" >       31 </v>
   <v type="int" >       32 </v>
   <v type="int" >       33 </v>
   <v type="int" >       34 </v>
   <v type="int" >       35 </v>
   <v type="int" >       36 </v>
   <v type="int" >       37 </v>
   <v type="int" >       38 </v>
   <v type="int" >       39 </v>
   <v type="int" >       40 </v>
   <v type="int" >       41 </v>
   <v type="int" >       42 </v>
   <v type="int" >       43 </v>
   <v type="int" >       44 </v>
   <v type="int" >       45 </v>
   <v type="int" >       46 </v>
   <v type="int" >       47 </v>
   <v type="int" >       48 </v>
   <v type="int" >       49 </v>
   <v type="int" >       50 </v>
   <v type="int" >       51 </v>
   <v type="int" >       52 </v>
   <v type="int" >       53 </v>
   <v type="int" >       54 </v>
   <v type="int" >       55 </v>
   <v type="int" >       56 </v>
   <v type="int" >       57 </v>
   <v type="int" >       58 </v>
   <v type="int" >       59 </v>
   <v type="int" >       60 </v>
   <v type="int" >       61 </v>
   <v type="int" >       62 </v>
   <v type="int" >       63 </v>
   <v type="int" >       64 </v>
   <v type="int" >       65 </v>
   <v type="int" >       66 </v>
   <v type="int" >       67 </v>
   <v type="int" >       68 </v>
   <v type="int" >       69 </v>
   <v type="int" >       70 </v>
   <v type="int" >       71 </v>
   <v type="int" >       72 </v>
   <v type="int" >       73 </v>
   <v type="int" >       74 </v>
   <v type="int" >       75 </v>
   <v type="int" >       76 </v>
   <v type="int" >       77 </v>
   <v type="int" >       78 </v>
   <v type="int" >       79 </v>
   <v type="int" >       80 </v>
   <v type="int" >       81 </v>
   <v type="int" >       82 </v>
   <v type="int" >       83 </v>
   <v type="int" >       84 </v>
   <v type="int" >       85 </v>
   <v type="int" >       86 </v>
   <v type="int" >       87 </v>
   <v type="int" >       88 </v>
   <v type="int" >       89 </v>
   <v type="int" >       90 </v>
   <v type="int" >       91 </v>
   <v type="int" >       92 </v>
   <v type="int" >       93 </v>
   <v type="int" >       94 </v>
   <v type="int" >       95 </v>
   <v type="int" >       96 </v>
   <v type="int" >       97 </v>
  </varray>
 </primitive_cell>
 <kpoints>
  <generation param="Gamma">
   <v type="int" name="divisions">       2        2        1 </v>
   <v name="usershift">      0.00000000       0.00000000       0.00000000 </v>
   <v name="genvec1">      0.50000000       0.00000000       0.00000000 </v>
   <v name="genvec2">      0.00000000       0.50000000       0.00000000 </v>
   <v name="genvec3">      0.00000000       0.00000000       1.00000000 </v>
   <v name="shift">      0.00000000       0.00000000       0.00000000 </v>
  </generation>
  <varray name="kpointlist" >
   <v>       0.00000000       0.00000000       0.00000000 </v>
   <v>       0.50000000       0.00000000       0.00000000 </v>
   <v>       0.00000000       0.50000000       0.00000000 </v>
   <v>       0.50000000       0.50000000       0.00000000 </v>
  </varray>
  <varray name="weights" >
   <v>       0.25000000 </v>
   <v>       0.25000000 </v>
   <v>       0.25000000 </v>
   <v>       0.25000000 </v>
  </varray>
 </kpoints>
 <parameters>
  <separator name="general" >
   <i type="string" name="SYSTEM">unknown system</i>
   <i type="logical" name="LCOMPAT"> F  </i>
  </separator>
  <separator name="electronic" >
   <i type="string" name="PREC">normal</i>
   <i name="ENMAX">    520.00000000</i>
   <i name="ENAUG">    644.87300000</i>
   <i name="EDIFF">      0.00000100</i>
   <i type="int" name="IALGO">    38</i>
   <i type="int" name="IWAVPR">    11</i>
   <i type="int" name="NBANDS">   280</i>
   <i type="int" name="NBANDSLOW">    -1</i>
   <i type="int" name="NBANDSHIGH">    -1</i>
   <i name="NELECT">    404.00000000</i>
   <i type="int" name="TURBO">     0</i>
   <i type="int" name="IRESTART">     0</i>
   <i type="int" name="NREBOOT">     0</i>
   <i type="int" name="NMIN">     0</i>
   <i name="EREF">      0.00000000</i>
   <separator name="electronic smearing" >
    <i type="int" name="ISMEAR">     0</i>
    <i name="SIGMA">      0.05000000</i>
    <i name="KSPACING">      0.50000000</i>
    <i type="logical" name="KGAMMA"> T  </i>
    <i type="logical" name="KBLOWUP"> T  </i>
   </separator>
   <separator name="electronic projectors" >
    <i type="logical" name="LREAL"> T  </i>
    <v name="ROPT">     -0.00050000     -0.00050000     -0.00050000     -0.00050000     -0.00050000</v>
    <i type="int" name="LMAXPAW">  -100</i>
    <i type="int" name="LMAXMIX">     2</i>
    <i type="logical" name="NLSPLINE"> F  </i>
   </separator>
   <separator name="electronic startup" >
    <i type="int" name="ISTART">     0</i>
    <i type="int" name="ICHARG">     2</i>
    <i type="int" name="INIWAV">     1</i>
   </separator>
   <separator name="electronic spin" >
    <i type="int" name="ISPIN">     2</i>
    <i type="logical" name="LNONCOLLINEAR"> F  </i>
    <v name="MAGMOM">      0.60000000      0.60000000      0.60000000      0.60000000      0.60000000      0.60000000      0.60000000      0.60000000      0.60000000      0.60000000      0.60000000      0.60000000      0.60000000      0.60000000      0.60000000      0.60000000      0.60000000      0.60000000      0.60000000      0.60000000
      0.60000000      0.60000000      0.60000000      0.60000000      0.60000000      0.60000000      0.60000000      0.60000000      0.60000000      0.60000000      0.60000000      0.60000000      0.60000000      0.60000000      0.60000000      0.60000000      0.60000000      0.60000000      0.60000000      0.60000000
      0.60000000      0.60000000      0.60000000      0.60000000      0.60000000      0.60000000      0.60000000      0.60000000      0.60000000      0.60000000      0.60000000      0.60000000      0.60000000      0.60000000      0.60000000      0.60000000      0.60000000      0.60000000      0.60000000      0.60000000
      0.60000000      0.60000000      0.60000000      0.60000000      0.60000000      0.60000000      0.60000000      0.60000000      0.60000000      0.60000000      0.60000000      0.60000000      0.60000000      0.60000000      0.60000000      0.60000000      0.60000000      0.60000000      0.60000000      0.60000000
      0.60000000      0.60000000      0.60000000      0.60000000      0.60000000      0.60000000      0.60000000      0.60000000      0.60000000      0.60000000      0.60000000      0.60000000      0.60000000      0.60000000      0.60000000      0.60000000      0.60000000</v>
    <i name="NUPDOWN">     -1.00000000</i>
    <i type="logical" name="LSORBIT"> F  </i>
    <v name="SAXIS">      0.00000000      0.00000000      1.00000000</v>
    <i type="logical" name="LSPIRAL"> F  </i>
    <v name="QSPIRAL">      0.00000000      0.00000000      0.00000000</v>
    <i type="logical" name="LZEROZ"> F  </i>
   </separator>
   <separator name="electronic exchange-correlation" >
    <i type="logical" name="LASPH"> T  </i>
    <i type="logical" name="LMETAGGA"> F  </i>
   </separator>
   <separator name="electronic convergence" >
    <i type="int" name="NELM">   200</i>
    <i type="int" name="NELMDL">    -5</i>
    <i type="int" name="NELMIN">     2</i>
    <i name="ENINI">    520.00000000</i>
    <separator name="electronic convergence detail" >
     <i type="logical" name="LDIAG"> T  </i>
     <i type="logical" name="LSUBROT"> F  </i>
     <i name="WEIMIN">      0.00100000</i>
     <i name="EBREAK">      0.00000000</i>
     <i name="DEPER">      0.30000000</i>
     <i type="int" name="NRMM">     4</i>
     <i name="TIME">      0.40000000</i>
    </separator>
   </separator>
   <separator name="electronic mixer" >
    <i name="AMIX">      0.20000000</i>
    <i name="BMIX">      0.00010000</i>
    <i name="AMIN">      0.10000000</i>
    <i name="AMIX_MAG">      0.80000000</i>
    <i name="BMIX_MAG">      0.00010000</i>
    <separator name="electronic mixer details" >
     <i type="int" name="IMIX">     4</i>
     <i type="logical" name="MIXFIRST"> F  </i>
     <i type="int" name="MAXMIX">   -45</i>
     <i name="WC">    100.00000000</i>
     <i type="int" name="INIMIX">     1</i>
     <i type="int" name="MIXPRE">     1</i>
     <i type="int" name="MREMOVE">     5</i>
    </separator>
   </separator>
   <separator name="electronic dipolcorrection" >
    <i type="logical" name="LDIPOL"> F  </i>
    <i type="logical" name="LMONO"> F  </i>
    <i type="int" name="IDIPOL">     0</i>
    <i name="EPSILON">      1.00000000</i>
    <v name="DIPOL">   -100.00000000   -100.00000000   -100.00000000</v>
    <i name="EFIELD">      0.00000000</i>
   </separator>
  </separator>
  <separator name="grids" >
   <i type="int" name="NGX">    96</i>
   <i type="int" name="NGY">    96</i>
   <i type="int" name="NGZ">    84</i>
   <i type="int" name="NGXF">   192</i>
   <i type="int" name="NGYF">   192</i>
   <i type="int" name="NGZF">   168</i>
   <i type="logical" name="ADDGRID"> T  </i>
  </separator>
  <separator name="ionic" >
   <i type="int" name="NSW">   300</i>
   <i type="int" name="IBRION">     3</i>
   <i type="int" name="MDALGO">     0</i>
   <i type="int" name="ISIF">     2</i>
   <i name="PSTRESS">      0.00000000</i>
   <i name="EDIFFG">     -0.03000000</i>
   <i type="int" name="NFREE">     0</i>
   <i name="POTIM">      0.05000000</i>
   <i name="SMASS">     -3.00000000</i>
   <i name="SCALEE">      1.00000000</i>
  </separator>
  <separator name="ionic md" >
   <i name="TEBEG">      0.00010000</i>
   <i name="TEEND">      0.00010000</i>
   <i type="int" name="NBLOCK">     1</i>
   <i type="int" name="KBLOCK">   300</i>
   <i type="int" name="NPACO">   256</i>
   <i name="APACO">     10.00000000</i>
  </separator>
  <separator name="symmetry" >
   <i type="int" name="ISYM">     0</i>
   <i name="SYMPREC">      0.00001000</i>
  </separator>
  <separator name="dos" >
   <i type="int" name="LORBIT">     0</i>
   <v name="RWIGS">     -1.00000000     -1.00000000     -1.00000000     -1.00000000     -1.00000000</v>
   <i type="int" name="NEDOS">   301</i>
   <i name="EMIN">     10.00000000</i>
   <i name="EMAX">    -10.00000000</i>
   <i name="EFERMI">      0.00000000</i>
  </separator>
  <separator name="writing" >
   <i type="int" name="NWRITE">     2</i>
   <i type="logical" name="LWAVE"> F  </i>
   <i type="logical" name="LDOWNSAMPLE"> F  </i>
   <i type="logical" name="LCHARG"> F  </i>
   <i type="logical" name="LPARD"> F  </i>
   <i type="logical" name="LVTOT"> F  </i>
   <i type="logical" name="LVHAR"> F  </i>
   <i type="logical" name="LELF"> F  </i>
   <i type="logical" name="LOPTICS"> F  </i>
   <v name="STM">      0.00000000      0.00000000      0.00000000      0.00000000      0.00000000      0.00000000      0.00000000</v>
  </separator>
  <separator name="performance" >
   <i type="int" name="NPAR">     5</i>
   <i type="int" name="NSIM">     4</i>
   <i type="int" name="NBLK">    -1</i>
   <i type="logical" name="LPLANE"> T  </i>
   <i type="logical" name="LSCALAPACK"> T  </i>
   <i type="logical" name="LSCAAWARE"> F  </i>
   <i type="logical" name="LSCALU"> F  </i>
   <i type="logical" name="LASYNC"> F  </i>
   <i type="logical" name="LORBITALREAL"> F  </i>
  </separator>
  <separator name="miscellaneous" >
   <i type="int" name="IDIOT">     3</i>
   <i type="int" name="PHON_NSTRUCT">    -1</i>
   <i type="logical" name="LMUSIC"> F  </i>
   <v name="POMASS">     12.01100000     18.99800000     14.00100000      1.00000000     16.00000000</v>
   <v name="DARWINR">      0.00000000      0.00000000      0.00000000      0.00000000      0.00000000</v>
   <v name="DARWINV">      1.00000000      1.00000000      1.00000000      1.00000000      1.00000000</v>
   <i type="logical" name="LCORR"> T  </i>
  </separator>
  <i type="logical" name="GGA_COMPAT"> T  </i>
  <i type="logical" name="LBERRY"> F  </i>
  <i type="int" name="ICORELEVEL">     0</i>
  <i type="logical" name="LDAU"> F  </i>
  <i type="int" name="I_CONSTRAINED_M">     0</i>
  <separator name="electronic exchange-correlation" >
   <i type="string" name="GGA">--</i>
   <i type="int" name="VOSKOWN">     0</i>
   <i type="logical" name="LHFCALC"> F  </i>
   <i type="string" name="PRECFOCK"></i>
   <i type="logical" name="LSYMGRAD"> F  </i>
   <i type="logical" name="LHFONE"> F  </i>
   <i type="logical" name="LRHFCALC"> F  </i>
   <i type="logical" name="LTHOMAS"> F  </i>
   <i type="logical" name="LMODELHF"> F  </i>
   <i type="logical" name="LFOCKACE"> F  </i>
   <i name="ENCUT4O">     -1.00000000</i>
   <i type="int" name="EXXOEP">     0</i>
   <i type="int" name="FOURORBIT">     0</i>
   <i name="AEXX">      0.00000000</i>
   <i name="HFALPHA">      0.00000000</i>
   <i name="MCALPHA">      0.00000000</i>
   <i name="ALDAX">      1.00000000</i>
   <i name="AGGAX">      1.00000000</i>
   <i name="ALDAC">      1.00000000</i>
   <i name="AGGAC">      1.00000000</i>
   <i type="int" name="NKREDX">     1</i>
   <i type="int" name="NKREDY">     1</i>
   <i type="int" name="NKREDZ">     1</i>
   <i type="logical" name="SHIFTRED"> F  </i>
   <i type="logical" name="ODDONLY"> F  </i>
   <i type="logical" name="EVENONLY"> F  </i>
   <i type="int" name="LMAXFOCK">     0</i>
   <i type="int" name="NMAXFOCKAE">     0</i>
   <i type="logical" name="LFOCKAEDFT"> F  </i>
   <i name="HFSCREEN">      0.00000000</i>
   <i name="HFSCREENC">      0.00000000</i>
   <i type="int" name="NBANDSGWLOW">     0</i>
  </separator>
  <separator name="vdW DFT" >
   <i type="logical" name="LUSE_VDW"> F  </i>
   <i type="int" name="IVDW_NL">     1</i>
   <i type="logical" name="LSPIN_VDW"> F  </i>
   <i name="Zab_VDW">     -0.84910000</i>
   <i name="PARAM1">      0.12340000</i>
   <i name="PARAM2">      1.00000000</i>
   <i name="PARAM3">      0.00000000</i>
  </separator>
  <separator name="model GW" >
   <i type="int" name="MODEL_GW">     0</i>
   <i name="MODEL_EPS0">     23.96835834</i>
   <i name="MODEL_ALPHA">      1.00000000</i>
  </separator>
  <separator name="linear response parameters" >
   <i type="logical" name="LEPSILON"> F  </i>
   <i type="logical" name="LRPA"> F  </i>
   <i type="logical" name="LNABLA"> F  </i>
   <i type="logical" name="LVEL"> F  </i>
   <i name="CSHIFT">      0.10000000</i>
   <i name="OMEGAMAX">     -1.00000000</i>
   <i name="DEG_THRESHOLD">      0.00200000</i>
   <i name="RTIME">     -0.10000000</i>
   <i name="WPLASMAI">      0.00000000</i>
   <v name="DFIELD">      0.00000000      0.00000000      0.00000000</v>
   <v name="WPLASMA">      0.00000000      0.00000000      0.00000000      0.00000000      0.00000000      0.00000000      0.00000000      0.00000000      0.00000000</v>
  </separator>
  <separator name="orbital magnetization" >
   <i type="logical" name="NUCIND"> F  </i>
   <v name="MAGPOS">      0.00000000      0.00000000      0.00000000</v>
   <i type="logical" name="LNICSALL"> T  </i>
   <i type="logical" name="ORBITALMAG"> F  </i>
   <i type="logical" name="LMAGBLOCH"> F  </i>
   <i type="logical" name="LCHIMAG"> F  </i>
   <i type="logical" name="LGAUGE"> T  </i>
   <i type="int" name="MAGATOM">     0</i>
   <v name="MAGDIPOL">      0.00000000      0.00000000      0.00000000</v>
   <v name="AVECCONST">      0.00000000      0.00000000      0.00000000</v>
  </separator>
  <separator name="response functions" >
   <i type="logical" name="LALL_IN_ONE"> F  </i>
   <i type="int" name="IALL_IN_ONE">    -1</i>
   <i type="int" name="NBANDS_WAVE">    -1</i>
   <i type="logical" name="LFINITE_TEMPERATURE"> F  </i>
   <i type="logical" name="LADDER"> F  </i>
   <i type="logical" name="LRPAFORCE"> F  </i>
   <i type="logical" name="LFXC"> F  </i>
   <i type="logical" name="LHARTREE"> T  </i>
   <i type="int" name="IBSE">     0</i>
   <v type="int" name="KPOINT">    -1     0     0     0</v>
   <i type="logical" name="LTCTC"> F  </i>
   <i type="logical" name="LTCTE"> F  </i>
   <i type="logical" name="LTETE"> F  </i>
   <i type="logical" name="LTRIPLET"> F  </i>
   <i type="logical" name="LFXCEPS"> F  </i>
   <i type="logical" name="LFXHEG"> F  </i>
   <i type="int" name="NATURALO">     2</i>
   <i type="logical" name="LHOLEGF"> F  </i>
   <i type="logical" name="L2ORDER"> F  </i>
   <i type="logical" name="LDMP1"> F  </i>
   <i type="logical" name="LMP2LT"> F  </i>
   <i type="logical" name="LSMP2LT"> F  </i>
   <i type="logical" name="LGWLF"> F  </i>
   <i name="ENCUTGW">     -1.60000002</i>
   <i name="ENCUTGWSOFT">     -1.60000002</i>
   <i name="ENCUTLF">     -1.00000000</i>
   <i type="logical" name="LESF_SPLINES"> F  </i>
   <i type="int" name="LMAXMP2">    -1</i>
   <i name="SCISSOR">      0.00000000</i>
   <i type="int" name="NOMEGA">     0</i>
   <i type="int" name="NOMEGAR">     0</i>
   <i type="int" name="NBANDSGW">    -1</i>
   <i type="int" name="NBANDSO">    -1</i>
   <i type="int" name="NBANDSV">    -1</i>
   <i type="int" name="NELMGW">     1</i>
   <i type="int" name="NELMHF">     1</i>
   <i type="int" name="DIM">     3</i>
   <i type="int" name="IESPILON">     4</i>
   <i type="int" name="ANTIRES">     0</i>
   <i name="OMEGAMAX">    -30.00000000</i>
   <i name="OMEGAMIN">    -30.00000000</i>
   <i name="OMEGATL">   -200.00000000</i>
   <i type="int" name="OMEGAGRID">     0</i>
   <i name="CSHIFT">     -0.10000000</i>
   <i type="logical" name="LSELFENERGY"> F  </i>
   <i type="logical" name="LSPECTRAL"> F  </i>
   <i type="logical" name="LSPECTRALGW"> F  </i>
   <i type="logical" name="LSINGLES"> F  </i>
   <i type="logical" name="LFERMIGW"> F  </i>
   <i type="logical" name="ODDONLYGW"> F  </i>
   <i type="logical" name="EVENONLYGW"> F  </i>
   <i type="int" name="NKREDLFX">     1</i>
   <i type="int" name="NKREDLFY">     1</i>
   <i type="int" name="NKREDLFZ">     1</i>
   <i type="int" name="MAXMEM">  2800</i>
   <i type="int" name="TELESCOPE">     0</i>
   <i type="int" name="NTAUPAR">    -1</i>
   <i type="int" name="NOMEGAPAR">    -1</i>
   <i name="DAMP_NEWTON">      0.80000001</i>
   <i name="LAMBDA">      1.00000000</i>
  </separator>
  <separator name="External order field" >
   <i name="OFIELD_KAPPA">      0.00000000</i>
   <v name="OFIELD_K">      0.00000000      0.00000000      0.00000000</v>
   <i name="OFIELD_Q6_NEAR">      0.00000000</i>
   <i name="OFIELD_Q6_FAR">      0.00000000</i>
   <i name="OFIELD_A">      0.00000000</i>
  </separator>
  <separator name="optional k-points parameters" >
   <i type="int" name="KPOINTS_OPT_MODE">     1</i>
   <i type="logical" name="LKPOINTS_OPT"> F  </i>
  </separator>
 </parameters>
 <atominfo>
  <atoms>      97 </atoms>
  <types>       5 </types>
  <array name="atoms" >
   <dimension dim="1">ion</dimension>
   <field type="string">element</field>
   <field type="int">atomtype</field>
   <set>
    <rc><c>C </c><c>   1</c></rc>
    <rc><c>C </c><c>   1</c></rc>
    <rc><c>C </c><c>   1</c></rc>
    <rc><c>C </c><c>   1</c></rc>
    <rc><c>C </c><c>   1</c></rc>
    <rc><c>C </c><c>   1</c></rc>
    <rc><c>C </c><c>   1</c></rc>
    <rc><c>C </c><c>   1</c></rc>
    <rc><c>C </c><c>   1</c></rc>
    <rc><c>C </c><c>   1</c></rc>
    <rc><c>C </c><c>   1</c></rc>
    <rc><c>C </c><c>   1</c></rc>
    <rc><c>C </c><c>   1</c></rc>
    <rc><c>C </c><c>   1</c></rc>
    <rc><c>C </c><c>   1</c></rc>
    <rc><c>C </c><c>   1</c></rc>
    <rc><c>C </c><c>   1</c></rc>
    <rc><c>C </c><c>   1</c></rc>
    <rc><c>C </c><c>   1</c></rc>
    <rc><c>C </c><c>   1</c></rc>
    <rc><c>C </c><c>   1</c></rc>
    <rc><c>C </c><c>   1</c></rc>
    <rc><c>C </c><c>   1</c></rc>
    <rc><c>C </c><c>   1</c></rc>
    <rc><c>C </c><c>   1</c></rc>
    <rc><c>C </c><c>   1</c></rc>
    <rc><c>C </c><c>   1</c></rc>
    <rc><c>C </c><c>   1</c></rc>
    <rc><c>C </c><c>   1</c></rc>
    <rc><c>C </c><c>   1</c></rc>
    <rc><c>C </c><c>   1</c></rc>
    <rc><c>C </c><c>   1</c></rc>
    <rc><c>C </c><c>   1</c></rc>
    <rc><c>C </c><c>   1</c></rc>
    <rc><c>C </c><c>   1</c></rc>
    <rc><c>C </c><c>   1</c></rc>
    <rc><c>C </c><c>   1</c></rc>
    <rc><c>C </c><c>   1</c></rc>
    <rc><c>C </c><c>   1</c></rc>
    <rc><c>C </c><c>   1</c></rc>
    <rc><c>C </c><c>   1</c></rc>
    <rc><c>C </c><c>   1</c></rc>
    <rc><c>C </c><c>   1</c></rc>
    <rc><c>C </c><c>   1</c></rc>
    <rc><c>C </c><c>   1</c></rc>
    <rc><c>C </c><c>   1</c></rc>
    <rc><c>C </c><c>   1</c></rc>
    <rc><c>C </c><c>   1</c></rc>
    <rc><c>C </c><c>   1</c></rc>
    <rc><c>C </c><c>   1</c></rc>
    <rc><c>C </c><c>   1</c></rc>
    <rc><c>C </c><c>   1</c></rc>
    <rc><c>C </c><c>   1</c></rc>
    <rc><c>C </c><c>   1</c></rc>
    <rc><c>C </c><c>   1</c></rc>
    <rc><c>C </c><c>   1</c></rc>
    <rc><c>C </c><c>   1</c></rc>
    <rc><c>C </c><c>   1</c></rc>
    <rc><c>C </c><c>   1</c></rc>
    <rc><c>C </c><c>   1</c></rc>
    <rc><c>C </c><c>   1</c></rc>
    <rc><c>C </c><c>   1</c></rc>
    <rc><c>C </c><c>   1</c></rc>
    <rc><c>C </c><c>   1</c></rc>
    <rc><c>C </c><c>   1</c></rc>
    <rc><c>C </c><c>   1</c></rc>
    <rc><c>C </c><c>   1</c></rc>
    <rc><c>C </c><c>   1</c></rc>
    <rc><c>C </c><c>   1</c></rc>
    <rc><c>C </c><c>   1</c></rc>
    <rc><c>C </c><c>   1</c></rc>
    <rc><c>C </c><c>   1</c></rc>
    <rc><c>C </c><c>   1</c></rc>
    <rc><c>C </c><c>   1</c></rc>
    <rc><c>C </c><c>   1</c></rc>
    <rc><c>C </c><c>   1</c></rc>
    <rc><c>C </c><c>   1</c></rc>
    <rc><c>C </c><c>   1</c></rc>
    <rc><c>C </c><c>   1</c></rc>
    <rc><c>C </c><c>   1</c></rc>
    <rc><c>C </c><c>   1</c></rc>
    <rc><c>C </c><c>   1</c></rc>
    <rc><c>C </c><c>   1</c></rc>
    <rc><c>C </c><c>   1</c></rc>
    <rc><c>C </c><c>   1</c></rc>
    <rc><c>C </c><c>   1</c></rc>
    <rc><c>F </c><c>   2</c></rc>
    <rc><c>F </c><c>   2</c></rc>
    <rc><c>F </c><c>   2</c></rc>
    <rc><c>F </c><c>   2</c></rc>
    <rc><c>F </c><c>   2</c></rc>
    <rc><c>F </c><c>   2</c></rc>
    <rc><c>N </c><c>   3</c></rc>
    <rc><c>N </c><c>   3</c></rc>
    <rc><c>H </c><c>   4</c></rc>
    <rc><c>H </c><c>   4</c></rc>
    <rc><c>O </c><c>   5</c></rc>
   </set>
  </array>
  <array name="atomtypes" >
   <dimension dim="1">type</dimension>
   <field type="int">atomspertype</field>
   <field type="string">element</field>
   <field>mass</field>
   <field>valence</field>
   <field type="string">pseudopotential</field>
   <set>
    <rc><c>  86</c><c>C </c><c>     12.01100000</c><c>      4.00000000</c><c>  PAW_PBE C 08Apr2002                   </c></rc>
    <rc><c>   6</c><c>F </c><c>     18.99800000</c><c>      7.00000000</c><c>  PAW_PBE F 08Apr2002                   </c></rc>
    <rc><c>   2</c><c>N </c><c>     14.00100000</c><c>      5.00000000</c><c>  PAW_PBE N 08Apr2002                   </c></rc>
    <rc><c>   2</c><c>H </c><c>      1.00000000</c><c>      1.00000000</c><c>  PAW_PBE H 15Jun2001                   </c></rc>
    <rc><c>   1</c><c>O </c><c>     16.00000000</c><c>      6.00000000</c><c>  PAW_PBE O 08Apr2002                   </c></rc>
   </set>
  </array>
 </atominfo>
 <structure name="initialpos" >
  <crystal>
   <varray name="basis" >
    <v>      17.27103806       0.00000000       0.00000000 </v>
    <v>      -8.63551903      14.95715771       0.00000000 </v>
    <v>       0.00000000       0.00000000      15.00000000 </v>
   </varray>
   <i name="volume">   3874.88459904 </i>
   <varray name="rec_basis" >
    <v>       0.05790040       0.03342881      -0.00000000 </v>
    <v>       0.00000000       0.06685762       0.00000000 </v>
    <v>       0.00000000      -0.00000000       0.06666667 </v>
   </varray>
  </crystal>
  <varray name="positions" >
   <v>       0.00016514       0.00021224       0.50348751 </v>
   <v>       0.99956099       0.14273270       0.50700187 </v>
   <v>       0.99976546       0.28582719       0.50706602 </v>
   <v>       0.00042211       0.42893933       0.50613144 </v>
   <v>       0.00094767       0.57204988       0.50111363 </v>
   <v>       0.00180023       0.71538503       0.49801628 </v>
   <v>       0.00188192       0.85850335       0.49907836 </v>
   <v>       0.14353329       0.00097623       0.49344501 </v>
   <v>       0.14259187       0.14330112       0.49828606 </v>
   <v>       0.14197319       0.28593339       0.49646129 </v>
   <v>       0.14290063       0.42928621       0.49455023 </v>
   <v>       0.14362537       0.57193269       0.49607774 </v>
   <v>       0.14371874       0.71491596       0.49350744 </v>
   <v>       0.14387547       0.85808614       0.49234788 </v>
   <v>       0.28621783       0.00061781       0.49173662 </v>
   <v>       0.28573776       0.14306368       0.49030502 </v>
   <v>       0.28445730       0.28629985       0.48484573 </v>
   <v>       0.28170096       0.42711691       0.46290942 </v>
   <v>       0.28639739       0.57272151       0.47406840 </v>
   <v>       0.28599866       0.71538206       0.48861457 </v>
   <v>       0.28600113       0.85812459       0.49158269 </v>
   <v>       0.42909978       0.00050263       0.49535669 </v>
   <v>       0.42881044       0.14330791       0.49535370 </v>
   <v>       0.42400332       0.27967369       0.51325048 </v>
   <v>       0.42803003       0.85707091       0.49465024 </v>
   <v>       0.57120429       0.99936863       0.50334265 </v>
   <v>       0.57162897       0.14280937       0.50564229 </v>
   <v>       0.57237875       0.28643639       0.50248237 </v>
   <v>       0.56930125       0.85446964       0.50590177 </v>
   <v>       0.71331450       0.99791087       0.51086112 </v>
   <v>       0.71424519       0.14220944       0.51028209 </v>
   <v>       0.71476717       0.28592318       0.51157028 </v>
   <v>       0.71573559       0.42975054       0.50890265 </v>
   <v>       0.72420005       0.57792105       0.53564007 </v>
   <v>       0.71362219       0.85423994       0.51884218 </v>
   <v>       0.85670165       0.99919175       0.51172233 </v>
   <v>       0.85655889       0.14219305       0.51125347 </v>
   <v>       0.85719292       0.28561103       0.51183945 </v>
   <v>       0.85808720       0.42916704       0.51145018 </v>
   <v>       0.85914806       0.57316853       0.50577859 </v>
   <v>       0.86078620       0.71656510       0.50951922 </v>
   <v>       0.85848196       0.85709968       0.51189147 </v>
   <v>       0.04754167       0.09550542       0.50341737 </v>
   <v>       0.04691976       0.23799130       0.50448954 </v>
   <v>       0.04770733       0.38128547       0.50378130 </v>
   <v>       0.04846494       0.52423436       0.50190678 </v>
   <v>       0.04869135       0.66734661       0.49689433 </v>
   <v>       0.04896414       0.81049698       0.49566925 </v>
   <v>       0.04843972       0.95329615       0.49829911 </v>
   <v>       0.19048378       0.09578647       0.49243853 </v>
   <v>       0.18940903       0.23844847       0.49503006 </v>
   <v>       0.18905218       0.38084391       0.48753644 </v>
   <v>       0.19144287       0.52471766       0.49034640 </v>
   <v>       0.19092706       0.66724741       0.49223306 </v>
   <v>       0.19117532       0.81031140       0.49176662 </v>
   <v>       0.19120788       0.95319842       0.49162548 </v>
   <v>       0.33369528       0.09584056       0.49246036 </v>
   <v>       0.33283234       0.23821494       0.49400834 </v>
   <v>       0.32429874       0.37539890       0.45718821 </v>
   <v>       0.32464972       0.52121937       0.44848044 </v>
   <v>       0.33660035       0.67086470       0.48151281 </v>
   <v>       0.33329396       0.81025430       0.49131704 </v>
   <v>       0.33375971       0.95309325       0.49236757 </v>
   <v>       0.47673939       0.09569165       0.49783254 </v>
   <v>       0.47602739       0.23844728       0.50222937 </v>
   <v>       0.47196338       0.80559305       0.49565578 </v>
   <v>       0.47629759       0.95245699       0.49795306 </v>
   <v>       0.61892020       0.09471859       0.50697419 </v>
   <v>       0.61960830       0.23838119       0.50894138 </v>
   <v>       0.62434512       0.37957983       0.49048026 </v>
   <v>       0.61975440       0.81142408       0.51699984 </v>
   <v>       0.61783404       0.95035777       0.50650551 </v>
   <v>       0.76130517       0.09395539       0.51096261 </v>
   <v>       0.76205366       0.23770721       0.51163151 </v>
   <v>       0.76277504       0.38135109       0.51347135 </v>
   <v>       0.76392983       0.52672739       0.51477705 </v>
   <v>       0.76712949       0.67245576       0.52602331 </v>
   <v>       0.76287521       0.80524499       0.52194524 </v>
   <v>       0.76116902       0.95021921       0.51373209 </v>
   <v>       0.90413163       0.09444780       0.51030841 </v>
   <v>       0.90442513       0.23774337       0.51069958 </v>
   <v>       0.90514242       0.38123811       0.51065729 </v>
   <v>       0.90579763       0.52460337       0.50509567 </v>
   <v>       0.90698531       0.66804361       0.50381214 </v>
   <v>       0.90718135       0.81105991       0.50620380 </v>
   <v>       0.90496266       0.95214508       0.50901569 </v>
   <v>       0.46204146       0.36162191       0.55159914 </v>
   <v>       0.40664816       0.41244196       0.42093026 </v>
   <v>       0.40281146       0.56132284       0.40573408 </v>
   <v>       0.64116862       0.53631147       0.57073835 </v>
   <v>       0.58585643       0.42257233       0.45098961 </v>
   <v>       0.57382289       0.72272858       0.52645619 </v>
   <v>       0.42623875       0.71573272       0.48579575 </v>
   <v>       0.72015190       0.71602002       0.53266681 </v>
   <v>       0.55440990       0.60053577       0.54675020 </v>
   <v>       0.51162474       0.50360593       0.51540071 </v>
   <v>       0.49663022       0.54794771       0.53488800 </v>
  </varray>
  <varray name="selective"  type="logical" >
   <v type="logical" >  T  T  T </v>
   <v type="logical" >  T  T  T </v>
   <v type="logical" >  T  T  T </v>
   <v type="logical" >  T  T  T </v>
   <v type="logical" >  T  T  T </v>
   <v type="logical" >  T  T  T </v>
   <v type="logical" >  T  T  T </v>
   <v type="logical" >  T  T  T </v>
   <v type="logical" >  T  T  T </v>
   <v type="logical" >  T  T  T </v>
   <v type="logical" >  T  T  T </v>
   <v type="logical" >  T  T  T </v>
   <v type="logical" >  T  T  T </v>
   <v type="logical" >  T  T  T </v>
   <v type="logical" >  T  T  T </v>
   <v type="logical" >  T  T  T </v>
   <v type="logical" >  T  T  T </v>
   <v type="logical" >  T  T  T </v>
   <v type="logical" >  T  T  T </v>
   <v type="logical" >  T  T  T </v>
   <v type="logical" >  T  T  T </v>
   <v type="logical" >  T  T  T </v>
   <v type="logical" >  T  T  T </v>
   <v type="logical" >  T  T  T </v>
   <v type="logical" >  T  T  T </v>
   <v type="logical" >  T  T  T </v>
   <v type="logical" >  T  T  T </v>
   <v type="logical" >  T  T  T </v>
   <v type="logical" >  T  T  T </v>
   <v type="logical" >  T  T  T </v>
   <v type="logical" >  T  T  T </v>
   <v type="logical" >  T  T  T </v>
   <v type="logical" >  T  T  T </v>
   <v type="logical" >  T  T  T </v>
   <v type="logical" >  T  T  T </v>
   <v type="logical" >  T  T  T </v>
   <v type="logical" >  T  T  T </v>
   <v type="logical" >  T  T  T </v>
   <v type="logical" >  T  T  T </v>
   <v type="logical" >  T  T  T </v>
   <v type="logical" >  T  T  T </v>
   <v type="logical" >  T  T  T </v>
   <v type="logical" >  T  T  T </v>
   <v type="logical" >  T  T  T </v>
   <v type="logical" >  T  T  T </v>
   <v type="logical" >  T  T  T </v>
   <v type="logical" >  T  T  T </v>
   <v type="logical" >  T  T  T </v>
   <v type="logical" >  T  T  T </v>
   <v type="logical" >  T  T  T </v>
   <v type="logical" >  T  T  T </v>
   <v type="logical" >  T  T  T </v>
   <v type="logical" >  T  T  T </v>
   <v type="logical" >  T  T  T </v>
   <v type="logical" >  T  T  T </v>
   <v type="logical" >  T  T  T </v>
   <v type="logical" >  T  T  T </v>
   <v type="logical" >  T  T  T </v>
   <v type="logical" >  T  T  T </v>
   <v type="logical" >  T  T  T </v>
   <v type="logical" >  T  T  T </v>
   <v type="logical" >  T  T  T </v>
   <v type="logical" >  T  T  T </v>
   <v type="logical" >  T  T  T </v>
   <v type="logical" >  T  T  T </v>
   <v type="logical" >  T  T  T </v>
   <v type="logical" >  T  T  T </v>
   <v type="logical" >  T  T  T </v>
   <v type="logical" >  T  T  T </v>
   <v type="logical" >  T  T  T </v>
   <v type="logical" >  T  T  T </v>
   <v type="logical" >  T  T  T </v>
   <v type="logical" >  T  T  T </v>
   <v type="logical" >  T  T  T </v>
   <v type="logical" >  T  T  T </v>
   <v type="logical" >  T  T  T </v>
   <v type="logical" >  T  T  T </v>
   <v type="logical" >  T  T  T </v>
   <v type="logical" >  T  T  T </v>
   <v type="logical" >  T  T  T </v>
   <v type="logical" >  T  T  T </v>
   <v type="logical" >  T  T  T </v>
   <v type="logical" >  T  T  T </v>
   <v type="logical" >  T  T  T </v>
   <v type="logical" >  T  T  T </v>
   <v type="logical" >  T  T  T </v>
   <v type="logical" >  T  T  T </v>
   <v type="logical" >  T  T  T </v>
   <v type="logical" >  T  T  T </v>
   <v type="logical" >  T  T  T </v>
   <v type="logical" >  T  T  T </v>
   <v type="logical" >  T  T  T </v>
   <v type="logical" >  T  T  T </v>
   <v type="logical" >  T  T  T </v>
   <v type="logical" >  T  T  T </v>
   <v type="logical" >  T  T  T </v>
   <v type="logical" >  T  T  F </v>
  </varray>
  <nose>
   <v>      -3.00000000       0.00000000       0.00010000       0.00010000 </v>
  </nose>
 </structure>
 <calculation>
  <scstep>
   <time name="dav">   84.65   85.25</time>
   <time name="total">   91.98   92.63</time>
   <energy>
    <i name="alphaZ">    207.25300192 </i>
    <i name="ewald">  41311.27339994 </i>
    <i name="hartreedc"> -55010.53365556 </i>
    <i name="XCdc">   1433.49500775 </i>
    <i name="pawpsdc">  13324.18077321 </i>
    <i name="pawaedc"> -13407.67620897 </i>
    <i name="eentropy">     -0.04520621 </i>
    <i name="bandstr">  -1706.35046038 </i>
    <i name="atom">  17598.89992239 </i>
    <i name="e_fr_energy">   3750.49657408 </i>
    <i name="e_wo_entrp">   3750.54178029 </i>
    <i name="e_0_energy">   3750.51917719 </i>
   </energy>
  </scstep>
  <scstep>
   <time name="dav">  107.86  108.68</time>
   <time name="total">  107.86  108.68</time>
   <energy>
    <i name="e_fr_energy">   -179.18552775 </i>
    <i name="e_wo_entrp">   -179.18499166 </i>
    <i name="e_0_energy">   -179.18525971 </i>
   </energy>
  </scstep>
  <scstep>
   <time name="dav">   92.30   92.96</time>
   <time name="total">   92.30   92.96</time>
   <energy>
    <i name="e_fr_energy">   -861.60961228 </i>
    <i name="e_wo_entrp">   -861.60406302 </i>
    <i name="e_0_energy">   -861.60683765 </i>
   </energy>
  </scstep>
  <scstep>
   <time name="dav">   91.83   92.44</time>
   <time name="total">   91.83   92.44</time>
   <energy>
    <i name="e_fr_energy">   -883.83226596 </i>
    <i name="e_wo_entrp">   -883.82613135 </i>
    <i name="e_0_energy">   -883.82919865 </i>
   </energy>
  </scstep>
  <scstep>
   <time name="dav">  103.11  103.84</time>
   <time name="total">  109.42  110.20</time>
   <energy>
    <i name="e_fr_energy">   -884.51930591 </i>
    <i name="e_wo_entrp">   -884.51304120 </i>
    <i name="e_0_energy">   -884.51617356 </i>
   </energy>
  </scstep>
  <scstep>
   <time name="dav">   88.62   89.47</time>
   <time name="total">  102.86  103.81</time>
   <energy>
    <i name="e_fr_energy">   -866.88769303 </i>
    <i name="e_wo_entrp">   -866.88750918 </i>
    <i name="e_0_energy">   -866.88760111 </i>
   </energy>
  </scstep>
  <scstep>
   <time name="dav">   86.98   87.59</time>
   <time name="total">  101.71  102.42</time>
   <energy>
    <i name="e_fr_energy">   -846.29186211 </i>
    <i name="e_wo_entrp">   -846.29186153 </i>
    <i name="e_0_energy">   -846.29186182 </i>
   </energy>
  </scstep>
  <scstep>
   <time name="dav">   87.16   87.91</time>
   <time name="total">  101.83  102.67</time>
   <energy>
    <i name="e_fr_energy">   -841.44502417 </i>
    <i name="e_wo_entrp">   -841.44502417 </i>
    <i name="e_0_energy">   -841.44502417 </i>
   </energy>
  </scstep>
  <scstep>
   <time name="dav">   85.96   86.57</time>
   <time name="total">  100.80  101.50</time>
   <energy>
    <i name="e_fr_energy">   -841.63125997 </i>
    <i name="e_wo_entrp">   -841.63125997 </i>
    <i name="e_0_energy">   -841.63125997 </i>
   </energy>
  </scstep>
  <scstep>
   <time name="dav">   85.19   85.79</time>
   <time name="total">   99.69  100.37</time>
   <energy>
    <i name="e_fr_energy">   -841.44764195 </i>
    <i name="e_wo_entrp">   -841.44764195 </i>
    <i name="e_0_energy">   -841.44764195 </i>
   </energy>
  </scstep>
  <scstep>
   <time name="dav">   86.30   86.90</time>
   <time name="total">  100.89  101.60</time>
   <energy>
    <i name="e_fr_energy">   -841.42072557 </i>
    <i name="e_wo_entrp">   -841.42072557 </i>
    <i name="e_0_energy">   -841.42072557 </i>
   </energy>
  </scstep>
  <scstep>
   <time name="dav">   86.92   87.50</time>
   <time name="total">  101.54  102.20</time>
   <energy>
    <i name="e_fr_energy">   -841.41977793 </i>
    <i name="e_wo_entrp">   -841.41977793 </i>
    <i name="e_0_energy">   -841.41977793 </i>
   </energy>
  </scstep>
  <scstep>
   <time name="dav">   88.96   89.61</time>
   <time name="total">  103.59  104.34</time>
   <energy>
    <i name="e_fr_energy">   -841.42004627 </i>
    <i name="e_wo_entrp">   -841.42004627 </i>
    <i name="e_0_energy">   -841.42004627 </i>
   </energy>
  </scstep>
  <scstep>
   <time name="dav">   86.30   86.91</time>
   <time name="total">  100.66  101.36</time>
   <energy>
    <i name="e_fr_energy">   -841.42005449 </i>
    <i name="e_wo_entrp">   -841.42005449 </i>
    <i name="e_0_energy">   -841.42005449 </i>
   </energy>
  </scstep>
  <scstep>
   <time name="dav">   85.20   85.79</time>
   <time name="total">  100.01  100.68</time>
   <energy>
    <i name="e_fr_energy">   -841.42012295 </i>
    <i name="e_wo_entrp">   -841.42012295 </i>
    <i name="e_0_energy">   -841.42012295 </i>
   </energy>
  </scstep>
  <scstep>
   <time name="dav">   85.34   85.94</time>
   <time name="total">  100.26  100.96</time>
   <energy>
    <i name="e_fr_energy">   -841.42012775 </i>
    <i name="e_wo_entrp">   -841.42012775 </i>
    <i name="e_0_energy">   -841.42012775 </i>
   </energy>
  </scstep>
  <scstep>
   <time name="dav">   89.18   89.79</time>
   <time name="total">  104.11  104.81</time>
   <energy>
    <i name="e_fr_energy">   -841.42012831 </i>
    <i name="e_wo_entrp">   -841.42012831 </i>
    <i name="e_0_energy">   -841.42012831 </i>
   </energy>
  </scstep>
  <scstep>
   <time name="dav">   82.06   82.62</time>
   <time name="total">   90.18   90.80</time>
   <energy>
    <i name="alphaZ">    207.25300192 </i>
    <i name="ewald">  41311.27339994 </i>
    <i name="hartreedc"> -56494.10452084 </i>
    <i name="XCdc">   1483.41945816 </i>
    <i name="pawpsdc">  40896.73242635 </i>
    <i name="pawaedc"> -40991.57360821 </i>
    <i name="eentropy">     -0.00000000 </i>
    <i name="bandstr">  -4853.32020710 </i>
    <i name="atom">  17598.89992239 </i>
    <i name="e_fr_energy">   -841.42012739 </i>
    <i name="e_wo_entrp">   -841.42012739 </i>
    <i name="e_0_energy">   -841.42012739 </i>
   </energy>
  </scstep>
  <structure>
   <crystal>
    <varray name="basis" >
     <v>      17.27103806       0.00000000       0.00000000 </v>
     <v>      -8.63551903      14.95715771       0.00000000 </v>
     <v>       0.00000000       0.00000000      15.00000000 </v>
    </varray>
    <i name="volume">   3874.88459904 </i>
    <varray name="rec_basis" >
     <v>       0.05790040       0.03342881      -0.00000000 </v>
     <v>       0.00000000       0.06685762       0.00000000 </v>
     <v>       0.00000000      -0.00000000       0.06666667 </v>
    </varray>
   </crystal>
   <varray name="positions" >
    <v>       0.00016514       0.00021224       0.50348751 </v>
    <v>       0.99956099       0.14273270       0.50700187 </v>
    <v>       0.99976546       0.28582719       0.50706602 </v>
    <v>       0.00042211       0.42893933       0.50613144 </v>
    <v>       0.00094767       0.57204988       0.50111363 </v>
    <v>       0.00180023       0.71538503       0.49801628 </v>
    <v>       0.00188192       0.85850335       0.49907836 </v>
    <v>       0.14353329       0.00097623       0.49344501 </v>
    <v>       0.14259187       0.14330112       0.49828606 </v>
    <v>       0.14197319       0.28593339       0.49646129 </v>
    <v>       0.14290063       0.42928621       0.49455023 </v>
    <v>       0.14362537       0.57193269       0.49607774 </v>
    <v>       0.14371874       0.71491596       0.49350744 </v>
    <v>       0.14387547       0.85808614       0.49234788 </v>
    <v>       0.28621783       0.00061781       0.49173662 </v>
    <v>       0.28573776       0.14306368       0.49030502 </v>
    <v>       0.28445730       0.28629985       0.48484573 </v>
    <v>       0.28170096       0.42711691       0.46290942 </v>
    <v>       0.28639739       0.57272151       0.47406840 </v>
    <v>       0.28599866       0.71538206       0.48861457 </v>
    <v>       0.28600113       0.85812459       0.49158269 </v>
    <v>       0.42909978       0.00050263       0.49535669 </v>
    <v>       0.42881044       0.14330791       0.49535370 </v>
    <v>       0.42400332       0.27967369       0.51325048 </v>
    <v>       0.42803003       0.85707091       0.49465024 </v>
    <v>       0.57120429       0.99936863       0.50334265 </v>
    <v>       0.57162897       0.14280937       0.50564229 </v>
    <v>       0.57237875       0.28643639       0.50248237 </v>
    <v>       0.56930125       0.85446964       0.50590177 </v>
    <v>       0.71331450       0.99791087       0.51086112 </v>
    <v>       0.71424519       0.14220944       0.51028209 </v>
    <v>       0.71476717       0.28592318       0.51157028 </v>
    <v>       0.71573559       0.42975054       0.50890265 </v>
    <v>       0.72420005       0.57792105       0.53564007 </v>
    <v>       0.71362219       0.85423994       0.51884218 </v>
    <v>       0.85670165       0.99919175       0.51172233 </v>
    <v>       0.85655889       0.14219305       0.51125347 </v>
    <v>       0.85719292       0.28561103       0.51183945 </v>
    <v>       0.85808720       0.42916704       0.51145018 </v>
    <v>       0.85914806       0.57316853       0.50577859 </v>
    <v>       0.86078620       0.71656510       0.50951922 </v>
    <v>       0.85848196       0.85709968       0.51189147 </v>
    <v>       0.04754167       0.09550542       0.50341737 </v>
    <v>       0.04691976       0.23799130       0.50448954 </v>
    <v>       0.04770733       0.38128547       0.50378130 </v>
    <v>       0.04846494       0.52423436       0.50190678 </v>
    <v>       0.04869135       0.66734661       0.49689433 </v>
    <v>       0.04896414       0.81049698       0.49566925 </v>
    <v>       0.04843972       0.95329615       0.49829911 </v>
    <v>       0.19048378       0.09578647       0.49243853 </v>
    <v>       0.18940903       0.23844847       0.49503006 </v>
    <v>       0.18905218       0.38084391       0.48753644 </v>
    <v>       0.19144287       0.52471766       0.49034640 </v>
    <v>       0.19092706       0.66724741       0.49223306 </v>
    <v>       0.19117532       0.81031140       0.49176662 </v>
    <v>       0.19120788       0.95319842       0.49162548 </v>
    <v>       0.33369528       0.09584056       0.49246036 </v>
    <v>       0.33283234       0.23821494       0.49400834 </v>
    <v>       0.32429874       0.37539890       0.45718821 </v>
    <v>       0.32464972       0.52121937       0.44848044 </v>
    <v>       0.33660035       0.67086470       0.48151281 </v>
    <v>       0.33329396       0.81025430       0.49131704 </v>
    <v>       0.33375971       0.95309325       0.49236757 </v>
    <v>       0.47673939       0.09569165       0.49783254 </v>
    <v>       0.47602739       0.23844728       0.50222937 </v>
    <v>       0.47196338       0.80559305       0.49565578 </v>
    <v>       0.47629759       0.95245699       0.49795306 </v>
    <v>       0.61892020       0.09471859       0.50697419 </v>
    <v>       0.61960830       0.23838119       0.50894138 </v>
    <v>       0.62434512       0.37957983       0.49048026 </v>
    <v>       0.61975440       0.81142408       0.51699984 </v>
    <v>       0.61783404       0.95035777       0.50650551 </v>
    <v>       0.76130517       0.09395539       0.51096261 </v>
    <v>       0.76205366       0.23770721       0.51163151 </v>
    <v>       0.76277504       0.38135109       0.51347135 </v>
    <v>       0.76392983       0.52672739       0.51477705 </v>
    <v>       0.76712949       0.67245576       0.52602331 </v>
    <v>       0.76287521       0.80524499       0.52194524 </v>
    <v>       0.76116902       0.95021921       0.51373209 </v>
    <v>       0.90413163       0.09444780       0.51030841 </v>
    <v>       0.90442513       0.23774337       0.51069958 </v>
    <v>       0.90514242       0.38123811       0.51065729 </v>
    <v>       0.90579763       0.52460337       0.50509567 </v>
    <v>       0.90698531       0.66804361       0.50381214 </v>
    <v>       0.90718135       0.81105991       0.50620380 </v>
    <v>       0.90496266       0.95214508       0.50901569 </v>
    <v>       0.46204146       0.36162191       0.55159914 </v>
    <v>       0.40664816       0.41244196       0.42093026 </v>
    <v>       0.40281146       0.56132284       0.40573408 </v>
    <v>       0.64116862       0.53631147       0.57073835 </v>
    <v>       0.58585643       0.42257233       0.45098961 </v>
    <v>       0.57382289       0.72272858       0.52645619 </v>
    <v>       0.42623875       0.71573272       0.48579575 </v>
    <v>       0.72015190       0.71602002       0.53266681 </v>
    <v>       0.55440990       0.60053577       0.54675020 </v>
    <v>       0.51162474       0.50360593       0.51540071 </v>
    <v>       0.49663022       0.54794771       0.53488800 </v>
   </varray>
  </structure>
  <varray name="forces" >
   <v>      -0.00165513       0.00037986       0.00299061 </v>
   <v>      -0.00057066       0.00120503      -0.00134328 </v>
   <v>      -0.00395967       0.00474419      -0.00426960 </v>
   <v>       0.00031861       0.00085621      -0.00093493 </v>
   <v>       0.00717500      -0.00012057       0.00165719 </v>
   <v>       0.00345363       0.00045294       0.00273667 </v>
   <v>       0.00384054      -0.00431213       0.00424781 </v>
   <v>       0.00292506       0.00076037      -0.00185761 </v>
   <v>       0.00091393      -0.00103901      -0.00937623 </v>
   <v>      -0.00445910       0.00630056      -0.01577159 </v>
   <v>      -0.00915869       0.00317597      -0.01537655 </v>
   <v>       0.00006256      -0.00009628      -0.00997024 </v>
   <v>       0.00892474      -0.00303744      -0.00224536 </v>
   <v>       0.00773228      -0.00635853       0.00012227 </v>
   <v>      -0.01078931       0.00704233      -0.00435956 </v>
   <v>       0.00503279      -0.00506226      -0.01093437 </v>
   <v>       0.00299505       0.00097778      -0.01836069 </v>
   <v>      -0.00276780       0.00648994      -0.02722020 </v>
   <v>      -0.00078212       0.00419584      -0.01937140 </v>
   <v>      -0.00813582      -0.00457662      -0.01227448 </v>
   <v>       0.00834988      -0.00462231      -0.00475534 </v>
   <v>       0.00255337       0.00270857      -0.00276386 </v>
   <v>       0.00782194       0.00139114      -0.00670177 </v>
   <v>       0.00742665       0.00275692      -0.01327613 </v>
   <v>       0.00023213      -0.00053494      -0.00830068 </v>
   <v>      -0.00225749      -0.00229889      -0.00008875 </v>
   <v>       0.00117465       0.00050337       0.00003955 </v>
   <v>       0.00769449      -0.00279790      -0.00258454 </v>
   <v>      -0.00373546      -0.00177907      -0.00779796 </v>
   <v>      -0.00482707      -0.00765143       0.00366542 </v>
   <v>      -0.00153804       0.00311381       0.00547229 </v>
   <v>       0.00408637      -0.00283412       0.00485014 </v>
   <v>       0.00989905      -0.00167556       0.00406926 </v>
   <v>      -0.00055003      -0.00000127       0.00410687 </v>
   <v>      -0.00443088       0.00264823       0.00067330 </v>
   <v>      -0.00133022      -0.00073188       0.00562094 </v>
   <v>       0.00080925       0.00351820       0.00473965 </v>
   <v>       0.00220065       0.00557436       0.00451624 </v>
   <v>       0.00891482      -0.00443505       0.00560585 </v>
   <v>       0.00386813       0.00108012       0.00929388 </v>
   <v>       0.00604157      -0.00108936       0.00728472 </v>
   <v>      -0.00044270       0.00298909       0.00569706 </v>
   <v>       0.00253370       0.00052892      -0.00241496 </v>
   <v>       0.00366599      -0.00227218      -0.00794039 </v>
   <v>       0.01022347      -0.00103072      -0.00750939 </v>
   <v>      -0.00219620       0.00344651      -0.00445062 </v>
   <v>      -0.00420195      -0.00160293      -0.00036761 </v>
   <v>      -0.00365818       0.00294432       0.00212497 </v>
   <v>       0.00113811       0.00429559       0.00205328 </v>
   <v>      -0.00196703       0.00169941      -0.00775190 </v>
   <v>      -0.00109520       0.00176354      -0.01479358 </v>
   <v>       0.00355072      -0.01328140      -0.02252518 </v>
   <v>       0.00045102      -0.00704549      -0.01627376 </v>
   <v>       0.00420649       0.00640272      -0.00877425 </v>
   <v>      -0.00935603       0.00754602      -0.00211915 </v>
   <v>       0.00736961       0.00602306      -0.00006849 </v>
   <v>      -0.00269825      -0.00474504      -0.00679612 </v>
   <v>      -0.00380318       0.00611786      -0.01029448 </v>
   <v>      -0.00838220      -0.00843443      -0.01772564 </v>
   <v>      -0.00414840      -0.00734565      -0.02305531 </v>
   <v>       0.00111593      -0.00220402      -0.01666962 </v>
   <v>      -0.00088444       0.00564526      -0.00842945 </v>
   <v>       0.00424613      -0.00066171      -0.00345714 </v>
   <v>      -0.00350928      -0.00010292      -0.00349505 </v>
   <v>      -0.00895519       0.00737780      -0.00798085 </v>
   <v>       0.00121745      -0.00016253      -0.01238167 </v>
   <v>       0.00720234      -0.00332237      -0.00208827 </v>
   <v>       0.00448051       0.00054776       0.00303439 </v>
   <v>      -0.00298440       0.00584734       0.00022657 </v>
   <v>       0.00420745      -0.00274379      -0.00041252 </v>
   <v>       0.01317095      -0.00757716      -0.00733876 </v>
   <v>       0.00319978       0.00779408       0.00097448 </v>
   <v>       0.00156995       0.00181459       0.00566273 </v>
   <v>      -0.00161545      -0.00229874       0.00563877 </v>
   <v>      -0.00689811       0.00644518       0.00654421 </v>
   <v>      -0.00251907       0.00195130       0.00758790 </v>
   <v>      -0.00602938       0.00193435       0.00844578 </v>
   <v>       0.00304133      -0.00012903       0.00345844 </v>
   <v>       0.00301559      -0.00189319       0.00342263 </v>
   <v>       0.00167336       0.00280143       0.00370498 </v>
   <v>       0.00403521      -0.00610750       0.00255929 </v>
   <v>      -0.00921713       0.00213384       0.00470736 </v>
   <v>      -0.00500212       0.00352198       0.00741204 </v>
   <v>       0.00021413       0.00271231       0.00805947 </v>
   <v>       0.00278722       0.00563915       0.00451449 </v>
   <v>       0.00573114       0.00088384       0.00519518 </v>
   <v>      -0.00371053       0.00259941      -0.01799505 </v>
   <v>       0.00317400      -0.00146549      -0.02730161 </v>
   <v>       0.00319690       0.00396291      -0.02040221 </v>
   <v>      -0.00254228       0.00764485      -0.00302655 </v>
   <v>       0.00000629       0.00911479      -0.00719783 </v>
   <v>       0.00178208       0.00278523      -0.01898523 </v>
   <v>       0.00342314       0.00051064      -0.01643008 </v>
   <v>       0.00373478       0.00004084       0.00242843 </v>
   <v>      -0.03525456      -0.01172708      -0.00116753 </v>
   <v>      -0.01335548      -0.01932867       0.04095113 </v>
   <v>      -0.01843766      -0.02680503       0.32145913 </v>
  </varray>
  <varray name="stress" >
   <v>       1.87884159       0.90439279      -0.00791496 </v>
   <v>       0.90439308      -4.19691663      -0.01116762 </v>
   <v>      -0.00791645      -0.01116748      -0.22858857 </v>
  </varray>
  <energy>
   <i name="e_fr_energy">   -849.25236611 </i>
   <i name="e_wo_entrp">   -849.25236611 </i>
   <i name="e_0_energy">   -849.25236611 </i>
  </energy>
  <time name="totalsc"> 2024.87 2039.25</time>
 </calculation>
 <calculation>
  <scstep>
   <time name="dav">   83.08   83.64</time>
   <time name="total">   97.26   97.91</time>
   <energy>
    <i name="alphaZ">    207.25300192 </i>
    <i name="ewald">  41310.97973994 </i>
    <i name="hartreedc"> -56493.80835895 </i>
    <i name="XCdc">   1483.41924014 </i>
    <i name="pawpsdc">  40895.79718873 </i>
    <i name="pawaedc"> -40990.63821250 </i>
    <i name="eentropy">     -0.00000000 </i>
    <i name="bandstr">  -4853.32278826 </i>
    <i name="atom">  17598.89992239 </i>
    <i name="e_fr_energy">   -841.42026659 </i>
    <i name="e_wo_entrp">   -841.42026659 </i>
    <i name="e_0_energy">   -841.42026659 </i>
   </energy>
  </scstep>
  <scstep>
   <time name="dav">   86.21   86.86</time>
   <time name="total">   99.74  100.47</time>
   <energy>
    <i name="e_fr_energy">   -841.42027347 </i>
    <i name="e_wo_entrp">   -841.42027347 </i>
    <i name="e_0_energy">   -841.42027347 </i>
   </energy>
  </scstep>
  <scstep>
   <time name="dav">   73.94   74.45</time>
   <time name="total">   86.46   87.04</time>
   <energy>
    <i name="e_fr_energy">   -841.42027240 </i>
    <i name="e_wo_entrp">   -841.42027239 </i>
    <i name="e_0_energy">   -841.42027240 </i>
   </energy>
  </scstep>
  <scstep>
   <time name="dav">   55.89   56.24</time>
   <time name="total">   62.89   63.27</time>
   <energy>
    <i name="alphaZ">    207.25300192 </i>
    <i name="ewald">  41310.97973994 </i>
    <i name="hartreedc"> -56493.76910113 </i>
    <i name="XCdc">   1483.41800211 </i>
    <i name="pawpsdc">  40894.86691754 </i>
    <i name="pawaedc"> -40989.70689462 </i>
    <i name="eentropy">     -0.00000000 </i>
    <i name="bandstr">  -4853.36186024 </i>
    <i name="atom">  17598.89992239 </i>
    <i name="e_fr_energy">   -841.42027209 </i>
    <i name="e_wo_entrp">   -841.42027209 </i>
    <i name="e_0_energy">   -841.42027209 </i>
   </energy>
  </scstep>
  <structure>
   <crystal>
    <varray name="basis" >
     <v>      17.27103806       0.00000000       0.00000000 </v>
     <v>      -8.63551903      14.95715771       0.00000000 </v>
     <v>       0.00000000       0.00000000      15.00000000 </v>
    </varray>
    <i name="volume">   3874.88459904 </i>
    <varray name="rec_basis" >
     <v>       0.05790040       0.03342881      -0.00000000 </v>
     <v>       0.00000000       0.06685762       0.00000000 </v>
     <v>       0.00000000      -0.00000000       0.06666667 </v>
    </varray>
   </crystal>
   <varray name="positions" >
    <v>       0.00016404       0.00021231       0.50348951 </v>
    <v>       0.99956079       0.14273333       0.50700089 </v>
    <v>       0.99976456       0.28583014       0.50706319 </v>
    <v>       0.00042238       0.42893978       0.50613087 </v>
    <v>       0.00095147       0.57204971       0.50111475 </v>
    <v>       0.00180210       0.71538522       0.49801815 </v>
    <v>       0.00188238       0.85850041       0.49908122 </v>
    <v>       0.14353489       0.00097658       0.49344380 </v>
    <v>       0.14259177       0.14330030       0.49828004 </v>
    <v>       0.14197248       0.28593732       0.49645123 </v>
    <v>       0.14289633       0.42928816       0.49454052 </v>
    <v>       0.14362520       0.57193255       0.49607155 </v>
    <v>       0.14372256       0.71491392       0.49350600 </v>
    <v>       0.14387751       0.85808194       0.49234791 </v>
    <v>       0.28621385       0.00062227       0.49173378 </v>
    <v>       0.28573868       0.14306029       0.49029803 </v>
    <v>       0.28445900       0.28630034       0.48483397 </v>
    <v>       0.28170122       0.42712095       0.46289190 </v>
    <v>       0.28639810       0.57272413       0.47405619 </v>
    <v>       0.28599249       0.71537903       0.48860695 </v>
    <v>       0.28600411       0.85812152       0.49157960 </v>
    <v>       0.42910187       0.00050433       0.49535479 </v>
    <v>       0.42881505       0.14330878       0.49534939 </v>
    <v>       0.42400805       0.27967538       0.51324215 </v>
    <v>       0.42802980       0.85707049       0.49464527 </v>
    <v>       0.57120209       0.99936712       0.50334237 </v>
    <v>       0.57162959       0.14280966       0.50564203 </v>
    <v>       0.57238195       0.28643461       0.50248100 </v>
    <v>       0.56929835       0.85446851       0.50589853 </v>
    <v>       0.71330913       0.99790586       0.51086360 </v>
    <v>       0.71424514       0.14221138       0.51028519 </v>
    <v>       0.71476834       0.28592127       0.51157332 </v>
    <v>       0.71574050       0.42974941       0.50890607 </v>
    <v>       0.72419988       0.57792089       0.53564469 </v>
    <v>       0.71362031       0.85424157       0.51884470 </v>
    <v>       0.85670040       0.99919113       0.51172601 </v>
    <v>       0.85656025       0.14219521       0.51125622 </v>
    <v>       0.85719575       0.28561452       0.51184212 </v>
    <v>       0.85809060       0.42916408       0.51145388 </v>
    <v>       0.85915046       0.57316914       0.50578500 </v>
    <v>       0.86078897       0.71656423       0.50952471 </v>
    <v>       0.85848236       0.85710143       0.51189600 </v>
    <v>       0.04754297       0.09550559       0.50341578 </v>
    <v>       0.04692082       0.23798970       0.50448439 </v>
    <v>       0.04771251       0.38128470       0.50377652 </v>
    <v>       0.04846465       0.52423649       0.50190402 </v>
    <v>       0.04868830       0.66734548       0.49689412 </v>
    <v>       0.04896281       0.81049876       0.49567066 </v>
    <v>       0.04844145       0.95329877       0.49830048 </v>
    <v>       0.19048295       0.09578742       0.49243357 </v>
    <v>       0.18940871       0.23844945       0.49502059 </v>
    <v>       0.18904964       0.38083522       0.48752211 </v>
    <v>       0.19144066       0.52471303       0.49033622 </v>
    <v>       0.19093131       0.66725146       0.49222757 </v>
    <v>       0.19117233       0.81031618       0.49176521 </v>
    <v>       0.19121371       0.95320220       0.49162540 </v>
    <v>       0.33369203       0.09583742       0.49245600 </v>
    <v>       0.33283190       0.23821875       0.49400180 </v>
    <v>       0.32429104       0.37539330       0.45717676 </v>
    <v>       0.32464463       0.52121449       0.44846539 </v>
    <v>       0.33660015       0.67086320       0.48150256 </v>
    <v>       0.33329511       0.81025787       0.49131178 </v>
    <v>       0.33376166       0.95309274       0.49236529 </v>
    <v>       0.47673719       0.09569155       0.49783013 </v>
    <v>       0.47602455       0.23845203       0.50222443 </v>
    <v>       0.47196380       0.80559286       0.49564899 </v>
    <v>       0.47630034       0.95245479       0.49795171 </v>
    <v>       0.61892268       0.09471891       0.50697572 </v>
    <v>       0.61960833       0.23838492       0.50894146 </v>
    <v>       0.62434649       0.37957817       0.49048086 </v>
    <v>       0.61975900       0.81141939       0.51699923 </v>
    <v>       0.61783813       0.95036277       0.50650643 </v>
    <v>       0.76130642       0.09395647       0.51096595 </v>
    <v>       0.76205181       0.23770564       0.51163482 </v>
    <v>       0.76277314       0.38135514       0.51347580 </v>
    <v>       0.76392905       0.52672857       0.51478298 </v>
    <v>       0.76712660       0.67245683       0.52603033 </v>
    <v>       0.76287660       0.80524477       0.52194928 </v>
    <v>       0.76116983       0.95021786       0.51373478 </v>
    <v>       0.90413321       0.09444946       0.51031059 </v>
    <v>       0.90442520       0.23773932       0.51070097 </v>
    <v>       0.90513779       0.38123938       0.51066025 </v>
    <v>       0.90579583       0.52460554       0.50510057 </v>
    <v>       0.90698612       0.66804526       0.50381774 </v>
    <v>       0.90718443       0.81106338       0.50620724 </v>
    <v>       0.90496584       0.95214547       0.50901936 </v>
    <v>       0.46203968       0.36162343       0.55158786 </v>
    <v>       0.40664909       0.41244078       0.42091255 </v>
    <v>       0.40281369       0.56132518       0.40572008 </v>
    <v>       0.64117037       0.53631596       0.57073987 </v>
    <v>       0.58585947       0.42257880       0.45098641 </v>
    <v>       0.57382422       0.72273124       0.52645334 </v>
    <v>       0.42624072       0.71573296       0.48578618 </v>
    <v>       0.72015387       0.71601990       0.53267042 </v>
    <v>       0.55439459       0.60053038       0.54674442 </v>
    <v>       0.51161595       0.50359533       0.51542049 </v>
    <v>       0.49661845       0.54793446       0.53488800 </v>
   </varray>
  </structure>
  <varray name="forces" >
   <v>       0.00115594       0.00116485       0.00271617 </v>
   <v>       0.00148416       0.00065966      -0.00149119 </v>
   <v>       0.00123099      -0.00007506      -0.00436257 </v>
   <v>       0.00072124       0.00032646      -0.00107805 </v>
   <v>       0.00023600       0.00062200       0.00163267 </v>
   <v>       0.00097773       0.00140516       0.00280054 </v>
   <v>       0.00202562       0.00118308       0.00408966 </v>
   <v>       0.00186920       0.00108098      -0.00184022 </v>
   <v>       0.00017784       0.00128667      -0.00933365 </v>
   <v>      -0.00078062       0.00014692      -0.01570647 </v>
   <v>       0.00047441      -0.00361916      -0.01335730 </v>
   <v>      -0.00045947       0.00122467      -0.00857940 </v>
   <v>       0.00172149       0.00083872      -0.00239488 </v>
   <v>       0.00159069       0.00039783       0.00016091 </v>
   <v>      -0.00189086       0.00212785      -0.00420658 </v>
   <v>       0.00125946       0.00033835      -0.01036814 </v>
   <v>       0.00041294       0.00022812      -0.01619454 </v>
   <v>      -0.00450690      -0.00145769      -0.02407093 </v>
   <v>       0.00008028       0.00008038      -0.01983418 </v>
   <v>      -0.00076052       0.00010277      -0.01241587 </v>
   <v>       0.00047728      -0.00026461      -0.00496836 </v>
   <v>       0.00202465       0.00002611      -0.00285303 </v>
   <v>       0.00091672       0.00173420      -0.00688031 </v>
   <v>      -0.00025513       0.00359913      -0.01339107 </v>
   <v>       0.00099039      -0.00051184      -0.00828954 </v>
   <v>       0.00082037       0.00020740       0.00020269 </v>
   <v>       0.00099463       0.00088794       0.00000229 </v>
   <v>       0.00167276       0.00062540      -0.00321533 </v>
   <v>       0.00204313      -0.00116313      -0.00712047 </v>
   <v>       0.00321620       0.00134969       0.00331453 </v>
   <v>       0.00100575       0.00064442       0.00539733 </v>
   <v>       0.00068599       0.00072572       0.00468396 </v>
   <v>       0.00159534      -0.00042526       0.00396566 </v>
   <v>      -0.00104222       0.00130456       0.00409656 </v>
   <v>       0.00180962       0.00010982       0.00079288 </v>
   <v>       0.00180762       0.00219477       0.00416410 </v>
   <v>       0.00108798       0.00002282       0.00465638 </v>
   <v>       0.00093155       0.00072003       0.00456655 </v>
   <v>       0.00008094       0.00065640       0.00581003 </v>
   <v>       0.00044786       0.00168864       0.00944380 </v>
   <v>       0.00155129       0.00129311       0.00778621 </v>
   <v>       0.00107441       0.00182854       0.00553267 </v>
   <v>       0.00093247       0.00044562      -0.00239507 </v>
   <v>      -0.00084120       0.00054217      -0.00771772 </v>
   <v>      -0.00023977       0.00007832      -0.00685336 </v>
   <v>       0.00120244       0.00068919      -0.00427901 </v>
   <v>       0.00200557      -0.00069995      -0.00041888 </v>
   <v>       0.00120729       0.00033619       0.00197421 </v>
   <v>       0.00187195       0.00132349       0.00199859 </v>
   <v>       0.00070320       0.00050588      -0.00787751 </v>
   <v>      -0.00089290       0.00100477      -0.01491871 </v>
   <v>      -0.00164008      -0.00253271      -0.02272053 </v>
   <v>      -0.00020917      -0.00252432      -0.01519599 </v>
   <v>       0.00243867       0.00131283      -0.00707318 </v>
   <v>       0.00143160       0.00010881      -0.00115095 </v>
   <v>       0.00116358       0.00105221      -0.00169135 </v>
   <v>       0.00141482       0.00012093      -0.00682505 </v>
   <v>       0.00121783       0.00148637      -0.01063396 </v>
   <v>      -0.00321695      -0.00155455      -0.02176350 </v>
   <v>      -0.00394780       0.00020916      -0.02364014 </v>
   <v>       0.00023565      -0.00011758      -0.01638891 </v>
   <v>       0.00079858      -0.00015602      -0.00864092 </v>
   <v>       0.00190477       0.00046957      -0.00356378 </v>
   <v>       0.00069432       0.00114036      -0.00320626 </v>
   <v>      -0.00056749       0.00281983      -0.00868949 </v>
   <v>       0.00226883       0.00114330      -0.00950938 </v>
   <v>       0.00060307       0.00118674      -0.00314878 </v>
   <v>       0.00075887       0.00032478       0.00278323 </v>
   <v>       0.00130943       0.00110069       0.00053902 </v>
   <v>       0.00341485      -0.00027336      -0.00149155 </v>
   <v>      -0.00027618      -0.00013496      -0.00811756 </v>
   <v>      -0.00013085      -0.00099380      -0.00092811 </v>
   <v>       0.00040412       0.00003791       0.00559692 </v>
   <v>       0.00110309       0.00071119       0.00568275 </v>
   <v>       0.00113592       0.00123379       0.00642277 </v>
   <v>       0.00032556       0.00138005       0.00710461 </v>
   <v>       0.00242112       0.00199610       0.00544530 </v>
   <v>       0.00166264       0.00072483       0.00344288 </v>
   <v>       0.00025130      -0.00058946       0.00336352 </v>
   <v>       0.00055914       0.00104262       0.00371763 </v>
   <v>       0.00103311       0.00049196       0.00248909 </v>
   <v>       0.00144277       0.00077837       0.00351440 </v>
   <v>       0.00107069       0.00086836       0.00725043 </v>
   <v>       0.00237981       0.00133420       0.00780151 </v>
   <v>       0.00215836       0.00166032       0.00486362 </v>
   <v>       0.00163384       0.00132070       0.00532805 </v>
   <v>      -0.00298890       0.00411298      -0.01746102 </v>
   <v>      -0.00000705      -0.00357008      -0.02603302 </v>
   <v>       0.00136628       0.00231069      -0.01955012 </v>
   <v>      -0.00458545       0.00244652      -0.00428612 </v>
   <v>       0.00287131       0.00721540      -0.00560183 </v>
   <v>       0.00294474      -0.00327781      -0.01844796 </v>
   <v>       0.00125375      -0.00020248      -0.01608085 </v>
   <v>       0.00163431       0.00198640       0.00225627 </v>
   <v>      -0.03534650      -0.01220337      -0.00129361 </v>
   <v>      -0.00996481      -0.02261124       0.03927185 </v>
   <v>      -0.02133131      -0.02292838       0.32288398 </v>
  </varray>
  <varray name="stress" >
   <v>       1.87593168       0.90237614      -0.00710113 </v>
   <v>       0.90237646      -4.19799888      -0.01081114 </v>
   <v>      -0.00710262      -0.01081101      -0.21862950 </v>
  </varray>
  <energy>
   <i name="e_fr_energy">   -849.25249765 </i>
   <i name="e_wo_entrp">   -849.25249765 </i>
   <i name="e_0_energy">   -849.25249765 </i>
  </energy>
  <time name="totalsc">  497.79  501.28</time>
 </calculation>
 <calculation>
  <scstep>
   <time name="dav">   82.68   83.29</time>
   <time name="total">   96.83   97.53</time>
   <energy>
    <i name="alphaZ">    207.25300192 </i>
    <i name="ewald">  41310.42925270 </i>
    <i name="hartreedc"> -56493.24168036 </i>
    <i name="XCdc">   1483.41733526 </i>
    <i name="pawpsdc">  40894.70574929 </i>
    <i name="pawaedc"> -40989.54571588 </i>
    <i name="eentropy">     -0.00000000 </i>
    <i name="bandstr">  -4853.33836323 </i>
    <i name="atom">  17598.89992239 </i>
    <i name="e_fr_energy">   -841.42049791 </i>
    <i name="e_wo_entrp">   -841.42049791 </i>
    <i name="e_0_energy">   -841.42049791 </i>
   </energy>
  </scstep>
  <scstep>
   <time name="dav">   80.94   81.50</time>
   <time name="total">   94.84   95.50</time>
   <energy>
    <i name="e_fr_energy">   -841.42051672 </i>
    <i name="e_wo_entrp">   -841.42051672 </i>
[...]
       <r>   -17.8024     6.2952    36.3862 </r>
       <r>   -17.6783     6.3876    37.1788 </r>
       <r>   -17.5542    15.4197    39.0923 </r>
       <r>   -17.4301    10.5087    40.3963 </r>
       <r>   -17.3060    10.3140    41.6761 </r>
       <r>   -17.1819     4.0959    42.1844 </r>
       <r>   -17.0578     6.4814    42.9887 </r>
       <r>   -16.9337     8.6505    44.0621 </r>
       <r>   -16.8097     6.0010    44.8068 </r>
       <r>   -16.6856     5.5919    45.5007 </r>
       <r>   -16.5615    11.2257    46.8937 </r>
       <r>   -16.4374    14.0999    48.6433 </r>
       <r>   -16.3133     6.6738    49.4715 </r>
       <r>   -16.1892     0.2384    49.5011 </r>
       <r>   -16.0651     2.7661    49.8443 </r>
       <r>   -15.9410     1.7832    50.0656 </r>
       <r>   -15.8169     2.5193    50.3782 </r>
       <r>   -15.6928     6.5439    51.1902 </r>
       <r>   -15.5688     4.7598    51.7809 </r>
       <r>   -15.4447     7.8704    52.7575 </r>
       <r>   -15.3206     7.1028    53.6389 </r>
       <r>   -15.1965    11.0965    55.0159 </r>
       <r>   -15.0724     9.1308    56.1489 </r>
       <r>   -14.9483     8.2925    57.1779 </r>
       <r>   -14.8242     6.1409    57.9400 </r>
       <r>   -14.7001     9.3573    59.1011 </r>
       <r>   -14.5760     9.5912    60.2913 </r>
       <r>   -14.4519    13.7422    61.9965 </r>
       <r>   -14.3279    10.9493    63.3552 </r>
       <r>   -14.2038     4.8472    63.9567 </r>
       <r>   -14.0797     5.4958    64.6387 </r>
       <r>   -13.9556     4.0139    65.1368 </r>
       <r>   -13.8315     5.2658    65.7902 </r>
       <r>   -13.7074    12.0158    67.2813 </r>
       <r>   -13.5833    10.4992    68.5841 </r>
       <r>   -13.4592     8.5805    69.6489 </r>
       <r>   -13.3351     5.6002    70.3438 </r>
       <r>   -13.2110     2.4055    70.6423 </r>
       <r>   -13.0870     5.6244    71.3402 </r>
       <r>   -12.9629     6.6049    72.1598 </r>
       <r>   -12.8388     7.6183    73.1052 </r>
       <r>   -12.7147    21.6642    75.7935 </r>
       <r>   -12.5906     7.6249    76.7397 </r>
       <r>   -12.4665     7.7593    77.7025 </r>
       <r>   -12.3424    12.0845    79.2021 </r>
       <r>   -12.2183     6.7764    80.0430 </r>
       <r>   -12.0942     6.3679    80.8332 </r>
       <r>   -11.9701     7.8577    81.8082 </r>
       <r>   -11.8461    13.4673    83.4794 </r>
       <r>   -11.7220    10.6470    84.8006 </r>
       <r>   -11.5979    14.5945    86.6116 </r>
       <r>   -11.4738    10.6458    87.9327 </r>
       <r>   -11.3497    10.5822    89.2458 </r>
       <r>   -11.2256    14.2850    91.0184 </r>
       <r>   -11.1015    10.2610    92.2917 </r>
       <r>   -10.9774     9.4524    93.4647 </r>
       <r>   -10.8533     8.2925    94.4937 </r>
       <r>   -10.7292     9.4902    95.6713 </r>
       <r>   -10.6051     8.3205    96.7038 </r>
       <r>   -10.4811    12.9658    98.3128 </r>
       <r>   -10.3570    16.4716   100.3567 </r>
       <r>   -10.2329    15.5555   102.2870 </r>
       <r>   -10.1088    18.7637   104.6154 </r>
       <r>    -9.9847    22.4701   107.4037 </r>
       <r>    -9.8606    18.0957   109.6492 </r>
       <r>    -9.7365    18.5780   111.9546 </r>
       <r>    -9.6124    20.8477   114.5416 </r>
       <r>    -9.4883    20.9519   117.1415 </r>
       <r>    -9.3642    25.3881   120.2919 </r>
       <r>    -9.2402    23.3285   123.1867 </r>
       <r>    -9.1161    19.1853   125.5674 </r>
       <r>    -8.9920    22.0325   128.3015 </r>
       <r>    -8.8679    26.9831   131.6498 </r>
       <r>    -8.7438    22.9161   134.4934 </r>
       <r>    -8.6197    17.9199   136.7171 </r>
       <r>    -8.4956    11.8417   138.1866 </r>
       <r>    -8.3715    18.0454   140.4258 </r>
       <r>    -8.2474    18.5787   142.7313 </r>
       <r>    -8.1233    18.5016   145.0271 </r>
       <r>    -7.9993    21.2929   147.6694 </r>
       <r>    -7.8752    18.2504   149.9341 </r>
       <r>    -7.7511    10.1912   151.1987 </r>
       <r>    -7.6270    15.0656   153.0682 </r>
       <r>    -7.5029    14.5082   154.8685 </r>
       <r>    -7.3788    18.8531   157.2080 </r>
       <r>    -7.2547    19.4033   159.6158 </r>
       <r>    -7.1306    20.4060   162.1479 </r>
       <r>    -7.0065    21.4872   164.8143 </r>
       <r>    -6.8824     9.9498   166.0490 </r>
       <r>    -6.7584    13.6298   167.7403 </r>
       <r>    -6.6343    10.2076   169.0069 </r>
       <r>    -6.5102     8.9774   170.1210 </r>
       <r>    -6.3861     8.5872   171.1865 </r>
       <r>    -6.2620    21.9477   173.9100 </r>
       <r>    -6.1379    21.8906   176.6264 </r>
       <r>    -6.0138     7.2065   177.5207 </r>
       <r>    -5.8897    16.5043   179.5687 </r>
       <r>    -5.7656    12.0463   181.0636 </r>
       <r>    -5.6415     8.0687   182.0648 </r>
       <r>    -5.5175     4.8598   182.6679 </r>
       <r>    -5.3934     7.1985   183.5611 </r>
       <r>    -5.2693     2.3559   183.8535 </r>
       <r>    -5.1452    14.4748   185.6496 </r>
       <r>    -5.0211    17.3525   187.8029 </r>
       <r>    -4.8970    17.1140   189.9266 </r>
       <r>    -4.7729     4.5286   190.4886 </r>
       <r>    -4.6488     6.9782   191.3545 </r>
       <r>    -4.5247     4.1761   191.8727 </r>
       <r>    -4.4006    11.5261   193.3030 </r>
       <r>    -4.2766    10.3066   194.5819 </r>
       <r>    -4.1525     6.6118   195.4024 </r>
       <r>    -4.0284     9.9432   196.6362 </r>
       <r>    -3.9043    15.2503   198.5286 </r>
       <r>    -3.7802     9.3991   199.6950 </r>
       <r>    -3.6561     2.4210   199.9954 </r>
       <r>    -3.5320     0.9013   200.1072 </r>
       <r>    -3.4079     1.4505   200.2872 </r>
       <r>    -3.2838     5.2895   200.9436 </r>
       <r>    -3.1597     2.6542   201.2730 </r>
       <r>    -3.0356     1.8003   201.4964 </r>
       <r>    -2.9116     0.0327   201.5004 </r>
       <r>    -2.7875     1.5706   201.6953 </r>
       <r>    -2.6634     2.4031   201.9935 </r>
       <r>    -2.5393     0.0521   202.0000 </r>
       <r>    -2.4152     0.0039   202.0005 </r>
       <r>    -2.2911     2.4265   202.3016 </r>
       <r>    -2.1670     1.5984   202.4999 </r>
       <r>    -2.0429     0.1076   202.5133 </r>
       <r>    -1.9188     1.8787   202.7464 </r>
       <r>    -1.7947     3.3730   203.1650 </r>
       <r>    -1.6707     4.5695   203.7320 </r>
       <r>    -1.5466     2.0822   203.9904 </r>
       <r>    -1.4225     0.1361   204.0073 </r>
       <r>    -1.2984     4.7107   204.5918 </r>
       <r>    -1.1743     3.7035   205.0514 </r>
       <r>    -1.0502     9.4085   206.2189 </r>
       <r>    -0.9261    17.6334   208.4070 </r>
       <r>    -0.8020     3.7442   208.8716 </r>
       <r>    -0.6779     8.5146   209.9282 </r>
       <r>    -0.5538    12.6654   211.4999 </r>
       <r>    -0.4298     6.0381   212.2491 </r>
       <r>    -0.3057     5.5108   212.9330 </r>
       <r>    -0.1816     5.0127   213.5550 </r>
       <r>    -0.0575     9.4017   214.7217 </r>
       <r>     0.0666    13.7262   216.4249 </r>
       <r>     0.1907    11.7994   217.8891 </r>
       <r>     0.3148     1.1547   218.0324 </r>
       <r>     0.4389     5.3612   218.6977 </r>
       <r>     0.5630     5.2490   219.3491 </r>
       <r>     0.6871     5.7745   220.0656 </r>
       <r>     0.8111     7.1843   220.9571 </r>
       <r>     0.9352     6.0487   221.7077 </r>
       <r>     1.0593    10.4668   223.0065 </r>
       <r>     1.1834     6.5425   223.8184 </r>
       <r>     1.3075     8.5278   224.8766 </r>
       <r>     1.4316    20.8042   227.4582 </r>
       <r>     1.5557    16.9643   229.5633 </r>
       <r>     1.6798     6.8804   230.4171 </r>
       <r>     1.8039     7.8936   231.3966 </r>
       <r>     1.9280    11.9860   232.8839 </r>
       <r>     2.0520    25.3759   236.0328 </r>
       <r>     2.1761    13.7897   237.7440 </r>
       <r>     2.3002    10.4864   239.0453 </r>
       <r>     2.4243    20.0904   241.5383 </r>
       <r>     2.5484    22.8884   244.3785 </r>
       <r>     2.6725    10.0843   245.6299 </r>
       <r>     2.7966    16.4255   247.6681 </r>
       <r>     2.9207    35.4533   252.0675 </r>
       <r>     3.0448    44.9784   257.6489 </r>
       <r>     3.1689    11.5447   259.0815 </r>
       <r>     3.2929    14.8587   260.9253 </r>
       <r>     3.4170    15.5703   262.8574 </r>
       <r>     3.5411    26.6171   266.1604 </r>
       <r>     3.6652    15.5988   268.0960 </r>
       <r>     3.7893    20.0035   270.5782 </r>
       <r>     3.9134    28.5268   274.1181 </r>
       <r>     4.0375    26.9041   277.4567 </r>
       <r>     4.1616    16.5176   279.5063 </r>
       <r>     4.2857     3.9522   279.9968 </r>
       <r>     4.4098     0.0260   280.0000 </r>
       <r>     4.5339     0.0000   280.0000 </r>
       <r>     4.6579     0.0000   280.0000 </r>
       <r>     4.7820     0.0000   280.0000 </r>
       <r>     4.9061     0.0000   280.0000 </r>
       <r>     5.0302     0.0000   280.0000 </r>
       <r>     5.1543     0.0000   280.0000 </r>
       <r>     5.2784     0.0000   280.0000 </r>
       <r>     5.4025     0.0000   280.0000 </r>
       <r>     5.5266     0.0000   280.0000 </r>
       <r>     5.6507     0.0000   280.0000 </r>
       <r>     5.7748     0.0000   280.0000 </r>
       <r>     5.8988     0.0000   280.0000 </r>
      </set>
     </set>
    </array>
   </total>
  </dos>
 </calculation>
 <structure name="finalpos" >
  <crystal>
   <varray name="basis" >
    <v>      17.27103806       0.00000000       0.00000000 </v>
    <v>      -8.63551903      14.95715771       0.00000000 </v>
    <v>       0.00000000       0.00000000      15.00000000 </v>
   </varray>
   <i name="volume">   3874.88459904 </i>
   <varray name="rec_basis" >
    <v>       0.05790040       0.03342881      -0.00000000 </v>
    <v>       0.00000000       0.06685762       0.00000000 </v>
    <v>       0.00000000      -0.00000000       0.06666667 </v>
   </varray>
  </crystal>
  <varray name="positions" >
   <v>       0.00024189       0.00026344       0.50355989 </v>
   <v>       0.99961292       0.14277071       0.50681954 </v>
   <v>       0.99978984       0.28583925       0.50673640 </v>
   <v>       0.00047594       0.42896289       0.50597736 </v>
   <v>       0.00101445       0.57209010       0.50130570 </v>
   <v>       0.00186199       0.71541944       0.49841845 </v>
   <v>       0.00195082       0.85854605       0.49939377 </v>
   <v>       0.14360170       0.00102813       0.49326644 </v>
   <v>       0.14265864       0.14337052       0.49766841 </v>
   <v>       0.14198012       0.28593707       0.49550287 </v>
   <v>       0.14287984       0.42927479       0.49353043 </v>
   <v>       0.14368326       0.57195728       0.49548523 </v>
   <v>       0.14378353       0.71494570       0.49333255 </v>
   <v>       0.14393859       0.85811436       0.49236255 </v>
   <v>       0.28627457       0.00066988       0.49142760 </v>
   <v>       0.28579985       0.14311188       0.48964491 </v>
   <v>       0.28450804       0.28634823       0.48361431 </v>
   <v>       0.28157563       0.42704600       0.46138203 </v>
   <v>       0.28637928       0.57269770       0.47282174 </v>
   <v>       0.28603750       0.71536795       0.48788063 </v>
   <v>       0.28606202       0.85814272       0.49128251 </v>
   <v>       0.42915918       0.00053120       0.49508255 </v>
   <v>       0.42888911       0.14336773       0.49486890 </v>
   <v>       0.42405505       0.27976092       0.51225666 </v>
   <v>       0.42806103       0.85705136       0.49418738 </v>
   <v>       0.57123449       0.99937025       0.50331196 </v>
   <v>       0.57167933       0.14285333       0.50558557 </v>
   <v>       0.57247218       0.28651685       0.50220019 </v>
   <v>       0.56931997       0.85443702       0.50564343 </v>
   <v>       0.71332653       0.99791185       0.51110928 </v>
   <v>       0.71426651       0.14222651       0.51057584 </v>
   <v>       0.71482033       0.28596776       0.51186633 </v>
   <v>       0.71582727       0.42981352       0.50930511 </v>
   <v>       0.72418583       0.57796263       0.53624734 </v>
   <v>       0.71364808       0.85425697       0.51904353 </v>
   <v>       0.85675821       0.99922005       0.51201926 </v>
   <v>       0.85658825       0.14220389       0.51149918 </v>
   <v>       0.85723479       0.28562803       0.51213018 </v>
   <v>       0.85817163       0.42920271       0.51196610 </v>
   <v>       0.85921020       0.57321383       0.50651777 </v>
   <v>       0.86084986       0.71661683       0.51019975 </v>
   <v>       0.85854856       0.85714765       0.51233104 </v>
   <v>       0.04760056       0.09556015       0.50317013 </v>
   <v>       0.04695953       0.23801967       0.50398795 </v>
   <v>       0.04773536       0.38129072       0.50325083 </v>
   <v>       0.04852489       0.52426185       0.50167894 </v>
   <v>       0.04874053       0.66737764       0.49703868 </v>
   <v>       0.04902153       0.81052787       0.49592666 </v>
   <v>       0.04851147       0.95334340       0.49838832 </v>
   <v>       0.19054102       0.09584333       0.49192372 </v>
   <v>       0.18945639       0.23850694       0.49407498 </v>
   <v>       0.18899498       0.38080399       0.48629204 </v>
   <v>       0.19144954       0.52470594       0.48934020 </v>
   <v>       0.19098528       0.66726730       0.49170781 </v>
   <v>       0.19124069       0.81034590       0.49161542 </v>
   <v>       0.19128536       0.95324250       0.49147625 </v>
   <v>       0.33377310       0.09589447       0.49197433 </v>
   <v>       0.33288265       0.23827258       0.49305294 </v>
   <v>       0.32425081       0.37535697       0.45561640 </v>
   <v>       0.32450227       0.52114396       0.44693790 </v>
   <v>       0.33663325       0.67084917       0.48045275 </v>
   <v>       0.33334513       0.81025377       0.49080167 </v>
   <v>       0.33383665       0.95312605       0.49208397 </v>
   <v>       0.47679884       0.09572514       0.49756709 </v>
   <v>       0.47610903       0.23852682       0.50157756 </v>
   <v>       0.47199514       0.80556291       0.49506109 </v>
   <v>       0.47633945       0.95245471       0.49770886 </v>
   <v>       0.61893408       0.09472558       0.50708354 </v>
   <v>       0.61965362       0.23843082       0.50894827 </v>
   <v>       0.62452172       0.37968511       0.49041854 </v>
   <v>       0.61977774       0.81140108       0.51687427 </v>
   <v>       0.61785309       0.95034784       0.50652200 </v>
   <v>       0.76132839       0.09396713       0.51130839 </v>
   <v>       0.76208357       0.23773030       0.51199834 </v>
   <v>       0.76284694       0.38140542       0.51394096 </v>
   <v>       0.76397387       0.52679002       0.51545343 </v>
   <v>       0.76718026       0.67251206       0.52668107 </v>
   <v>       0.76293819       0.80529546       0.52235448 </v>
   <v>       0.76121168       0.95024265       0.51404523 </v>
   <v>       0.90418804       0.09447770       0.51047313 </v>
   <v>       0.90446217       0.23775335       0.51081198 </v>
   <v>       0.90520103       0.38125841       0.51092405 </v>
   <v>       0.90586174       0.52464357       0.50565617 </v>
   <v>       0.90704633       0.66808582       0.50446272 </v>
   <v>       0.90724843       0.81110976       0.50668242 </v>
   <v>       0.90504136       0.95218887       0.50930979 </v>
   <v>       0.46204781       0.36180841       0.55037001 </v>
   <v>       0.40651141       0.41234657       0.41909820 </v>
   <v>       0.40257504       0.56123449       0.40392748 </v>
   <v>       0.64094961       0.53636914       0.57090992 </v>
   <v>       0.58630633       0.42283180       0.45069508 </v>
   <v>       0.57379010       0.72265526       0.52607280 </v>
   <v>       0.42628509       0.71572620       0.48479765 </v>
   <v>       0.72020875       0.71608816       0.53314527 </v>
   <v>       0.55289212       0.60005447       0.54611402 </v>
   <v>       0.51073045       0.50244625       0.51727914 </v>
   <v>       0.49530731       0.54698787       0.53488800 </v>
  </varray>
  <varray name="selective"  type="logical" >
   <v type="logical" >  T  T  T </v>
   <v type="logical" >  T  T  T </v>
   <v type="logical" >  T  T  T </v>
   <v type="logical" >  T  T  T </v>
   <v type="logical" >  T  T  T </v>
   <v type="logical" >  T  T  T </v>
   <v type="logical" >  T  T  T </v>
   <v type="logical" >  T  T  T </v>
   <v type="logical" >  T  T  T </v>
   <v type="logical" >  T  T  T </v>
   <v type="logical" >  T  T  T </v>
   <v type="logical" >  T  T  T </v>
   <v type="logical" >  T  T  T </v>
   <v type="logical" >  T  T  T </v>
   <v type="logical" >  T  T  T </v>
   <v type="logical" >  T  T  T </v>
   <v type="logical" >  T  T  T </v>
   <v type="logical" >  T  T  T </v>
   <v type="logical" >  T  T  T </v>
   <v type="logical" >  T  T  T </v>
   <v type="logical" >  T  T  T </v>
   <v type="logical" >  T  T  T </v>
   <v type="logical" >  T  T  T </v>
   <v type="logical" >  T  T  T </v>
   <v type="logical" >  T  T  T </v>
   <v type="logical" >  T  T  T </v>
   <v type="logical" >  T  T  T </v>
   <v type="logical" >  T  T  T </v>
   <v type="logical" >  T  T  T </v>
   <v type="logical" >  T  T  T </v>
   <v type="logical" >  T  T  T </v>
   <v type="logical" >  T  T  T </v>
   <v type="logical" >  T  T  T </v>
   <v type="logical" >  T  T  T </v>
   <v type="logical" >  T  T  T </v>
   <v type="logical" >  T  T  T </v>
   <v type="logical" >  T  T  T </v>
   <v type="logical" >  T  T  T </v>
   <v type="logical" >  T  T  T </v>
   <v type="logical" >  T  T  T </v>
   <v type="logical" >  T  T  T </v>
   <v type="logical" >  T  T  T </v>
   <v type="logical" >  T  T  T </v>
   <v type="logical" >  T  T  T </v>
   <v type="logical" >  T  T  T </v>
   <v type="logical" >  T  T  T </v>
   <v type="logical" >  T  T  T </v>
   <v type="logical" >  T  T  T </v>
   <v type="logical" >  T  T  T </v>
   <v type="logical" >  T  T  T </v>
   <v type="logical" >  T  T  T </v>
   <v type="logical" >  T  T  T </v>
   <v type="logical" >  T  T  T </v>
   <v type="logical" >  T  T  T </v>
   <v type="logical" >  T  T  T </v>
   <v type="logical" >  T  T  T </v>
   <v type="logical" >  T  T  T </v>
   <v type="logical" >  T  T  T </v>
   <v type="logical" >  T  T  T </v>
   <v type="logical" >  T  T  T </v>
   <v type="logical" >  T  T  T </v>
   <v type="logical" >  T  T  T </v>
   <v type="logical" >  T  T  T </v>
   <v type="logical" >  T  T  T </v>
   <v type="logical" >  T  T  T </v>
   <v type="logical" >  T  T  T </v>
   <v type="logical" >  T  T  T </v>
   <v type="logical" >  T  T  T </v>
   <v type="logical" >  T  T  T </v>
   <v type="logical" >  T  T  T </v>
   <v type="logical" >  T  T  T </v>
   <v type="logical" >  T  T  T </v>
   <v type="logical" >  T  T  T </v>
   <v type="logical" >  T  T  T </v>
   <v type="logical" >  T  T  T </v>
   <v type="logical" >  T  T  T </v>
   <v type="logical" >  T  T  T </v>
   <v type="logical" >  T  T  T </v>
   <v type="logical" >  T  T  T </v>
   <v type="logical" >  T  T  T </v>
   <v type="logical" >  T  T  T </v>
   <v type="logical" >  T  T  T </v>
   <v type="logical" >  T  T  T </v>
   <v type="logical" >  T  T  T </v>
   <v type="logical" >  T  T  T </v>
   <v type="logical" >  T  T  T </v>
   <v type="logical" >  T  T  T </v>
   <v type="logical" >  T  T  T </v>
   <v type="logical" >  T  T  T </v>
   <v type="logical" >  T  T  T </v>
   <v type="logical" >  T  T  T </v>
   <v type="logical" >  T  T  T </v>
   <v type="logical" >  T  T  T </v>
   <v type="logical" >  T  T  T </v>
   <v type="logical" >  T  T  T </v>
   <v type="logical" >  T  T  T </v>
   <v type="logical" >  T  T  F </v>
  </varray>
  <nose>
   <v>      -3.00000000       0.00000000       0.00010000       0.00010000 </v>
  </nose>
 </structure>
</modeling>
