unknown system                          
            1
    17.271038    0.000000    0.000000
    -8.635519   14.957158    0.000000
     0.000000    0.000000   15.000000
   C    F    N    H    O 
    86     6     2     2     1
Direct configuration=     1
   0.00016514  0.00021224  0.50348751
   0.99956099  0.14273270  0.50700187
   0.99976546  0.28582719  0.50706602
   0.00042211  0.42893933  0.50613144
   0.00094767  0.57204988  0.50111363
   0.00180023  0.71538503  0.49801628
   0.00188192  0.85850335  0.49907836
   0.14353329  0.00097623  0.49344501
   0.14259187  0.14330112  0.49828606
   0.14197319  0.28593339  0.49646129
   0.14290063  0.42928621  0.49455023
   0.14362537  0.57193269  0.49607774
   0.14371874  0.71491596  0.49350744
   0.14387547  0.85808614  0.49234788
   0.28621783  0.00061781  0.49173662
   0.28573776  0.14306368  0.49030502
   0.28445730  0.28629985  0.48484573
   0.28170096  0.42711691  0.46290942
   0.28639739  0.57272151  0.47406840
   0.28599866  0.71538206  0.48861457
   0.28600113  0.85812459  0.49158269
   0.42909978  0.00050263  0.49535669
   0.42881044  0.14330791  0.49535370
   0.42400332  0.27967369  0.51325048
   0.42803003  0.85707091  0.49465024
   0.57120429  0.99936863  0.50334265
   0.57162897  0.14280937  0.50564229
   0.57237875  0.28643639  0.50248237
   0.56930125  0.85446964  0.50590177
   0.71331450  0.99791087  0.51086112
   0.71424519  0.14220944  0.51028209
   0.71476717  0.28592318  0.51157028
   0.71573559  0.42975054  0.50890265
   0.72420005  0.57792105  0.53564007
   0.71362219  0.85423994  0.51884218
   0.85670165  0.99919175  0.51172233
   0.85655889  0.14219305  0.51125347
   0.85719292  0.28561103  0.51183945
   0.85808720  0.42916704  0.51145018
   0.85914806  0.57316853  0.50577859
   0.86078620  0.71656510  0.50951922
   0.85848196  0.85709968  0.51189147
   0.04754167  0.09550542  0.50341737
   0.04691976  0.23799130  0.50448954
   0.04770733  0.38128547  0.50378130
   0.04846494  0.52423436  0.50190678
   0.04869135  0.66734661  0.49689433
   0.04896414  0.81049698  0.49566925
   0.04843972  0.95329615  0.49829911
   0.19048378  0.09578647  0.49243853
   0.18940903  0.23844847  0.49503006
   0.18905218  0.38084391  0.48753644
   0.19144287  0.52471766  0.49034640
   0.19092706  0.66724741  0.49223306
   0.19117532  0.81031140  0.49176662
   0.19120788  0.95319842  0.49162548
   0.33369528  0.09584056  0.49246036
   0.33283234  0.23821494  0.49400834
   0.32429874  0.37539890  0.45718821
   0.32464972  0.52121937  0.44848044
   0.33660035  0.67086470  0.48151281
   0.33329396  0.81025430  0.49131704
   0.33375971  0.95309325  0.49236757
   0.47673939  0.09569165  0.49783254
   0.47602739  0.23844728  0.50222937
   0.47196338  0.80559305  0.49565578
   0.47629759  0.95245699  0.49795306
   0.61892020  0.09471859  0.50697419
   0.61960830  0.23838119  0.50894138
   0.62434512  0.37957983  0.49048026
   0.61975440  0.81142408  0.51699984
   0.61783404  0.95035777  0.50650551
   0.76130517  0.09395539  0.51096261
   0.76205366  0.23770721  0.51163151
   0.76277504  0.38135109  0.51347135
   0.76392983  0.52672739  0.51477705
   0.76712949  0.67245576  0.52602331
   0.76287521  0.80524499  0.52194524
   0.76116902  0.95021921  0.51373209
   0.90413163  0.09444780  0.51030841
   0.90442513  0.23774337  0.51069958
   0.90514242  0.38123811  0.51065729
   0.90579763  0.52460337  0.50509567
   0.90698531  0.66804361  0.50381214
   0.90718135  0.81105991  0.50620380
   0.90496266  0.95214508  0.50901569
   0.46204146  0.36162191  0.55159914
   0.40664816  0.41244196  0.42093026
   0.40281146  0.56132284  0.40573408
   0.64116862  0.53631147  0.57073835
   0.58585643  0.42257233  0.45098961
   0.57382289  0.72272858  0.52645619
   0.42623875  0.71573272  0.48579575
   0.72015190  0.71602002  0.53266681
   0.55440990  0.60053577  0.54675020
   0.51162474  0.50360593  0.51540071
   0.49663022  0.54794771  0.53488800
Direct configuration=     2
   0.00016404  0.00021231  0.50348951
   0.99956079  0.14273333  0.50700089
   0.99976456  0.28583014  0.50706319
   0.00042238  0.42893978  0.50613087
   0.00095147  0.57204971  0.50111475
   0.00180210  0.71538522  0.49801815
   0.00188238  0.85850041  0.49908122
   0.14353489  0.00097658  0.49344380
   0.14259177  0.14330030  0.49828004
   0.14197248  0.28593732  0.49645123
   0.14289633  0.42928816  0.49454052
   0.14362520  0.57193255  0.49607155
   0.14372256  0.71491392  0.49350600
   0.14387751  0.85808194  0.49234791
   0.28621385  0.00062227  0.49173378
   0.28573868  0.14306029  0.49029803
   0.28445900  0.28630034  0.48483397
   0.28170122  0.42712095  0.46289190
   0.28639810  0.57272413  0.47405619
   0.28599249  0.71537903  0.48860695
   0.28600411  0.85812152  0.49157960
   0.42910187  0.00050433  0.49535479
   0.42881505  0.14330878  0.49534939
   0.42400805  0.27967538  0.51324215
   0.42802980  0.85707049  0.49464527
   0.57120209  0.99936712  0.50334237
   0.57162959  0.14280966  0.50564203
   0.57238195  0.28643461  0.50248100
   0.56929835  0.85446851  0.50589853
   0.71330913  0.99790586  0.51086360
   0.71424514  0.14221138  0.51028519
   0.71476834  0.28592127  0.51157332
   0.71574050  0.42974941  0.50890607
   0.72419988  0.57792089  0.53564469
   0.71362031  0.85424157  0.51884470
   0.85670040  0.99919113  0.51172601
   0.85656025  0.14219521  0.51125622
   0.85719575  0.28561452  0.51184212
   0.85809060  0.42916408  0.51145388
   0.85915046  0.57316914  0.50578500
   0.86078897  0.71656423  0.50952471
   0.85848236  0.85710143  0.51189600
   0.04754297  0.09550559  0.50341578
   0.04692082  0.23798970  0.50448439
   0.04771251  0.38128470  0.50377652
   0.04846465  0.52423649  0.50190402
   0.04868830  0.66734548  0.49689412
   0.04896281  0.81049876  0.49567066
   0.04844145  0.95329877  0.49830048
   0.19048295  0.09578742  0.49243357
   0.18940871  0.23844945  0.49502059
   0.18904964  0.38083522  0.48752211
   0.19144066  0.52471303  0.49033622
   0.19093131  0.66725146  0.49222757
   0.19117233  0.81031618  0.49176521
   0.19121371  0.95320220  0.49162540
   0.33369203  0.09583742  0.49245600
   0.33283190  0.23821875  0.49400180
   0.32429104  0.37539330  0.45717676
   0.32464463  0.52121449  0.44846539
   0.33660015  0.67086320  0.48150256
   0.33329511  0.81025787  0.49131178
   0.33376166  0.95309274  0.49236529
   0.47673719  0.09569155  0.49783013
   0.47602455  0.23845203  0.50222443
   0.47196380  0.80559286  0.49564899
   0.47630034  0.95245479  0.49795171
   0.61892268  0.09471891  0.50697572
   0.61960833  0.23838492  0.50894146
   0.62434649  0.37957817  0.49048086
   0.61975900  0.81141939  0.51699923
   0.61783813  0.95036277  0.50650643
   0.76130642  0.09395647  0.51096595
   0.76205181  0.23770564  0.51163482
   0.76277314  0.38135514  0.51347580
   0.76392905  0.52672857  0.51478298
   0.76712660  0.67245683  0.52603033
   0.76287660  0.80524477  0.52194928
   0.76116983  0.95021786  0.51373478
   0.90413321  0.09444946  0.51031059
   0.90442520  0.23773932  0.51070097
   0.90513779  0.38123938  0.51066025
   0.90579583  0.52460554  0.50510057
   0.90698612  0.66804526  0.50381774
   0.90718443  0.81106338  0.50620724
   0.90496584  0.95214547  0.50901936
   0.46203968  0.36162343  0.55158786
   0.40664909  0.41244078  0.42091255
   0.40281369  0.56132518  0.40572008
   0.64117037  0.53631596  0.57073987
   0.58585947  0.42257880  0.45098641
   0.57382422  0.72273124  0.52645334
   0.42624072  0.71573296  0.48578618
   0.72015387  0.71601990  0.53267042
   0.55439459  0.60053038  0.54674442
   0.51161595  0.50359533  0.51542049
   0.49661845  0.54793446  0.53488800
Direct configuration=     3
   0.00016551  0.00021347  0.50349317
   0.99956236  0.14273389  0.50699873
   0.99976546  0.28582981  0.50705738
   0.00042306  0.42894002  0.50612951
   0.00095183  0.57205033  0.50111697
   0.00180370  0.71538684  0.49802198
   0.00188483  0.85850163  0.49908678
   0.14353715  0.00097770  0.49344139
   0.14259225  0.14330166  0.49826799
   0.14197121  0.28593725  0.49643107
   0.14289412  0.42928326  0.49452359
   0.14362513  0.57193398  0.49606090
   0.14372468  0.71491483  0.49350293
   0.14387910  0.85808225  0.49234804
   0.28621267  0.00062485  0.49172827
   0.28573979  0.14306047  0.49028472
   0.28445905  0.28630034  0.48481310
   0.28169465  0.42711878  0.46286073
   0.28639784  0.57272408  0.47403103
   0.28599140  0.71537901  0.48859144
   0.28600408  0.85812101  0.49157312
   0.42910376  0.00050426  0.49535086
   0.42881681  0.14331099  0.49534047
   0.42400950  0.27967986  0.51322523
   0.42803021  0.85706968  0.49463527
   0.57120275  0.99936733  0.50334219
   0.57163090  0.14281075  0.50564148
   0.57238387  0.28643547  0.50247741
   0.56929941  0.85446702  0.50589281
   0.71331320  0.99790746  0.51086815
   0.71424630  0.14221207  0.51029137
   0.71476920  0.28592205  0.51157921
   0.71574186  0.42974874  0.50891278
   0.72419984  0.57792227  0.53565388
   0.71362189  0.85424157  0.51884982
   0.85670331  0.99919368  0.51173152
   0.85656104  0.14219502  0.51126165
   0.85719687  0.28561526  0.51184757
   0.85809084  0.42916473  0.51146159
   0.85915185  0.57317116  0.50579806
   0.86079107  0.71656558  0.50953635
   0.85848414  0.85710344  0.51190486
   0.04754376  0.09550585  0.50341261
   0.04691973  0.23799013  0.50447433
   0.04771190  0.38128459  0.50376774
   0.04846611  0.52423721  0.50189867
   0.04868973  0.66734439  0.49689362
   0.04896391  0.81049897  0.49567330
   0.04844385  0.95330018  0.49830317
   0.19048354  0.09578779  0.49242342
   0.18940782  0.23845046  0.49500137
   0.18904568  0.38083169  0.48749301
   0.19143842  0.52470958  0.49031713
   0.19093457  0.66725300  0.49221874
   0.19117361  0.81031615  0.49176362
   0.19121524  0.95320336  0.49162315
   0.33369326  0.09583741  0.49244718
   0.33283367  0.23822039  0.49398820
   0.32428583  0.37539097  0.45714850
   0.32463954  0.52121448  0.44843438
   0.33660012  0.67086291  0.48148228
   0.33329555  0.81025751  0.49130092
   0.33376369  0.95309320  0.49236057
   0.47673830  0.09569296  0.49782567
   0.47602531  0.23845568  0.50221355
   0.47196670  0.80559418  0.49563900
   0.47630138  0.95245622  0.49794762
   0.61892337  0.09471926  0.50697850
   0.61961012  0.23838628  0.50894202
   0.62434996  0.37957803  0.49048063
   0.61975797  0.81141960  0.51699679
   0.61783692  0.95036144  0.50650579
   0.76130647  0.09395634  0.51097261
   0.76205313  0.23770639  0.51164155
   0.76277496  0.38135655  0.51348458
   0.76393030  0.52673021  0.51479422
   0.76713032  0.67245907  0.52604050
   0.76287842  0.80524545  0.52195731
   0.76116922  0.95021684  0.51374010
   0.90413400  0.09445053  0.51031500
   0.90442625  0.23773973  0.51070369
   0.90513958  0.38124019  0.51066466
   0.90579733  0.52460646  0.50511022
   0.90698930  0.66804679  0.50382866
   0.90718735  0.81106521  0.50621461
   0.90496794  0.95214683  0.50902689
   0.46203793  0.36162846  0.55156582
   0.40664605  0.41243571  0.42087858
   0.40281510  0.56132775  0.40569307
   0.64116819  0.53631826  0.57074115
   0.58586756  0.42258932  0.45098196
   0.57382429  0.72272868  0.52644783
   0.42624178  0.71573252  0.48576732
   0.72015672  0.71602218  0.53267737
   0.55436297  0.60051881  0.54673289
   0.51159970  0.50356966  0.51545845
   0.49659367  0.54791264  0.53488800
Direct configuration=     4
   0.00016823  0.00021416  0.50349848
   0.99956309  0.14273484  0.50699534
   0.99976438  0.28583025  0.50704861
   0.00042494  0.42894145  0.50612671
   0.00095337  0.57205004  0.50112005
   0.00180709  0.71538677  0.49802807
   0.00188804  0.85850367  0.49909491
   0.14353883  0.00097907  0.49343739
   0.14259287  0.14330246  0.49824987
   0.14196775  0.28593477  0.49639998
   0.14289095  0.42928118  0.49449630
   0.14362641  0.57193289  0.49604695
   0.14372660  0.71491430  0.49349800
   0.14388109  0.85808286  0.49234820
   0.28622057  0.00062073  0.49172103
   0.28574177  0.14306213  0.49026527
   0.28445812  0.28629853  0.48478428
   0.28168662  0.42711611  0.46281531
   0.28639594  0.57272449  0.47399594
   0.28599423  0.71537945  0.48856831
   0.28600681  0.85812233  0.49156360
   0.42910526  0.00050621  0.49534451
   0.42881913  0.14331385  0.49532708
   0.42401128  0.27968532  0.51319939
   0.42803376  0.85707436  0.49462158
   0.57120379  0.99936706  0.50334175
   0.57163210  0.14281188  0.50564052
   0.57238476  0.28643680  0.50247116
   0.56929960  0.85446705  0.50588409
   0.71330256  0.99789969  0.51087549
   0.71424676  0.14221252  0.51030057
   0.71477146  0.28592337  0.51158818
   0.71574818  0.42975291  0.50892211
   0.72420106  0.57792453  0.53566719
   0.71362042  0.85424064  0.51885720
   0.85670397  0.99919377  0.51174045
   0.85656190  0.14219645  0.51126983
   0.85719655  0.28561556  0.51185339
   0.85809395  0.42916609  0.51147372
   0.85915444  0.57317301  0.50581772
   0.86079646  0.71656859  0.50955346
   0.85848809  0.85710559  0.51191806
   0.04754561  0.09550737  0.50340748
   0.04692041  0.23798944  0.50445888
   0.04771090  0.38128446  0.50375721
   0.04846657  0.52423824  0.50189138
   0.04869191  0.66734612  0.49689336
   0.04896717  0.81050071  0.49567746
   0.04844666  0.95330198  0.49830730
   0.19048539  0.09578976  0.49240801
   0.18940743  0.23845094  0.49497223
   0.18903964  0.38082857  0.48746036
   0.19143782  0.52470918  0.49029100
   0.19093483  0.66725351  0.49220473
   0.19117444  0.81031658  0.49176050
   0.19121571  0.95320367  0.49161958
   0.33369496  0.09584013  0.49243320
   0.33283341  0.23822127  0.49396511
   0.32428694  0.37539633  0.45710727
   0.32464022  0.52121265  0.44838650
   0.33660136  0.67086397  0.48145134
   0.33329612  0.81025723  0.49128404
   0.33376317  0.95309445  0.49235299
   0.47674055  0.09569511  0.49781891
   0.47602779  0.23845968  0.50219696
   0.47196566  0.80559192  0.49562502
   0.47630248  0.95245373  0.49794396
   0.61892521  0.09472029  0.50698267
   0.61961187  0.23838731  0.50894295
   0.62435335  0.37958291  0.49047759
   0.61976040  0.81141692  0.51699391
   0.61784066  0.95036259  0.50650520
   0.76130888  0.09395747  0.51098259
   0.76205432  0.23770719  0.51165180
   0.76277646  0.38135681  0.51349756
   0.76393101  0.52673112  0.51481134
   0.76713291  0.67246428  0.52605420
   0.76288177  0.80524477  0.52196692
   0.76117338  0.95021772  0.51374829
   0.90413675  0.09445219  0.51032133
   0.90442714  0.23773923  0.51070764
   0.90514015  0.38124127  0.51067141
   0.90579784  0.52460785  0.50512449
   0.90699209  0.66804915  0.50384525
   0.90719016  0.81106782  0.50622668
   0.90497074  0.95214947  0.50903800
   0.46203558  0.36163744  0.55153151
   0.40663751  0.41242692  0.42082619
   0.40281450  0.56132998  0.40565156
   0.64116410  0.53632193  0.57074380
   0.58588279  0.42260159  0.45097734
   0.57382488  0.72272713  0.52643891
   0.42624301  0.71573304  0.48574000
   0.72016062  0.71602368  0.53268795
   0.55431817  0.60050300  0.54671598
   0.51157636  0.50353101  0.51551335
   0.49655362  0.54788146  0.53488800
Direct configuration=     5
   0.00017055  0.00021720  0.50350540
   0.99956443  0.14273403  0.50699051
   0.99976549  0.28582834  0.50703803
   0.00042323  0.42894121  0.50612323
   0.00095359  0.57205267  0.50112375
   0.00180924  0.71539007  0.49803681
   0.00189166  0.85850492  0.49910543
   0.14354326  0.00098129  0.49343180
   0.14259375  0.14330318  0.49822679
   0.14196709  0.28592889  0.49636894
   0.14289223  0.42928536  0.49446527
   0.14362621  0.57193432  0.49602784
   0.14372808  0.71491622  0.49349121
   0.14388273  0.85808453  0.49234839
   0.28620850  0.00063584  0.49171298
   0.28574168  0.14306141  0.49024084
   0.28446471  0.28631300  0.48474403
   0.28167843  0.42711304  0.46276451
   0.28639852  0.57272007  0.47394719
   0.28599750  0.71538164  0.48854019
   0.28600416  0.85811880  0.49155163
   0.42910819  0.00050624  0.49533658
   0.42882023  0.14331738  0.49531010
   0.42401100  0.27968839  0.51316510
   0.42803064  0.85706655  0.49460448
   0.57120624  0.99936868  0.50334176
   0.57163512  0.14281367  0.50563958
   0.57239042  0.28644369  0.50246200
   0.56930131  0.85446115  0.50587475
   0.71333373  0.99791482  0.51088223
   0.71425031  0.14221287  0.51031249
   0.71477144  0.28592354  0.51159988
   0.71574141  0.42974802  0.50893519
   0.72420244  0.57792931  0.53568418
   0.71362865  0.85424038  0.51886634
   0.85670853  0.99919759  0.51175245
   0.85655852  0.14219390  0.51127834
   0.85720360  0.28561982  0.51185907
   0.85809371  0.42916676  0.51149027
   0.85915530  0.57317458  0.50583965
   0.86079914  0.71657386  0.50957206
   0.85849053  0.85710791  0.51193484
   0.04754655  0.09550694  0.50340066
   0.04691653  0.23799099  0.50444263
   0.04770950  0.38128390  0.50374206
   0.04846901  0.52423740  0.50188342
   0.04869379  0.66734285  0.49689413
   0.04896798  0.81049974  0.49568341
   0.04844938  0.95330253  0.49831256
   0.19048646  0.09579033  0.49238859
   0.18940491  0.23844844  0.49493854
   0.18903440  0.38082581  0.48741543
   0.19144046  0.52470896  0.49025931
   0.19093905  0.66725173  0.49218628
   0.19117933  0.81031680  0.49175568
   0.19122445  0.95320544  0.49161511
   0.33369814  0.09583837  0.49241834
   0.33283683  0.23822483  0.49393820
   0.32427940  0.37538043  0.45706222
   0.32463376  0.52122375  0.44833556
   0.33660097  0.67086176  0.48141204
   0.33330084  0.81026068  0.49126250
   0.33377370  0.95309144  0.49234337
   0.47674119  0.09569528  0.49781018
   0.47602861  0.23846391  0.50217608
   0.47196940  0.80560030  0.49561054
   0.47630581  0.95246099  0.49793802
   0.61892337  0.09471789  0.50698780
   0.61961312  0.23838918  0.50894425
   0.62436397  0.37958727  0.49047736
   0.61975614  0.81141843  0.51698911
   0.61782907  0.95035442  0.50650419
   0.76130169  0.09395032  0.51099543
   0.76205381  0.23770851  0.51166109
   0.76278109  0.38135943  0.51351366
   0.76393548  0.52673556  0.51483365
   0.76713936  0.67246278  0.52607262
   0.76288428  0.80524873  0.52198033
   0.76116495  0.95021394  0.51375942
   0.90413611  0.09445211  0.51032946
   0.90442618  0.23774152  0.51071219
   0.90514352  0.38124172  0.51067953
   0.90580162  0.52460911  0.50514239
   0.90699721  0.66804999  0.50386644
   0.90719652  0.81107031  0.50624318
   0.90497393  0.95214997  0.50905206
   0.46204063  0.36165387  0.55148987
   0.40662933  0.41241853  0.42075353
   0.40281756  0.56133323  0.40559274
   0.64115793  0.53632634  0.57074783
   0.58590120  0.42261792  0.45096972
   0.57382381  0.72272049  0.52642801
   0.42624405  0.71573198  0.48570711
   0.72016208  0.71602626  0.53270114
   0.55426060  0.60048117  0.54669437
   0.51154567  0.50348764  0.51558293
   0.49650626  0.54784094  0.53488800
Direct configuration=     6
   0.00017340  0.00021401  0.50351117
   0.99956380  0.14273687  0.50698666
   0.99976190  0.28583233  0.50702959
   0.00043048  0.42894281  0.50612268
   0.00095739  0.57204822  0.50112770
   0.00181278  0.71538502  0.49804555
   0.00189504  0.85850645  0.49911522
   0.14354243  0.00097895  0.49342692
   0.14259519  0.14330692  0.49820849
   0.14195928  0.28592621  0.49634275
   0.14288717  0.42928165  0.49443774
   0.14363113  0.57193136  0.49601016
   0.14373233  0.71491139  0.49348498
   0.14388870  0.85808193  0.49234854
   0.28624034  0.00061140  0.49170408
   0.28574783  0.14306846  0.49022076
   0.28445112  0.28628491  0.48471649
   0.28167734  0.42711523  0.46272057
   0.28639189  0.57273190  0.47391065
   0.28600043  0.71538016  0.48851516
   0.28602146  0.85812903  0.49154164
   0.42911051  0.00050807  0.49532945
   0.42882677  0.14331719  0.49529621
   0.42401750  0.27970023  0.51314015
   0.42804230  0.85708611  0.49459130
   0.57120242  0.99936258  0.50334178
   0.57163185  0.14281164  0.50563860
   0.57238811  0.28644063  0.50245429
   0.56929592  0.85446759  0.50586605
   0.71327527  0.99788301  0.51088993
   0.71423844  0.14220987  0.51031949
   0.71477466  0.28592609  0.51160993
   0.71576373  0.42976263  0.50894963
   0.72420183  0.57792581  0.53569964
   0.71361169  0.85423688  0.51887336
   0.85670272  0.99919058  0.51176406
   0.85655934  0.14219633  0.51128435
   0.85719374  0.28561579  0.51186823
   0.85809976  0.42916866  0.51150504
   0.85916048  0.57317513  0.50586004
   0.86080727  0.71657118  0.50958916
   0.85849675  0.85710926  0.51194955
   0.04754914  0.09551056  0.50339455
   0.04692160  0.23798492  0.50443068
   0.04770854  0.38128377  0.50373150
   0.04846742  0.52423975  0.50187732
   0.04869580  0.66735064  0.49689538
   0.04897407  0.81050501  0.49568905
   0.04845422  0.95330676  0.49831724
   0.19048559  0.09579168  0.49237478
   0.18940293  0.23844533  0.49491370
   0.18903247  0.38082676  0.48738021
   0.19144008  0.52470987  0.49023089
   0.19093855  0.66725705  0.49216987
   0.19116843  0.81031656  0.49174915
   0.19121062  0.95320635  0.49161160
   0.33369591  0.09585289  0.49240420
   0.33283178  0.23822570  0.49390971
   0.32428876  0.37540766  0.45701116
   0.32464189  0.52120749  0.44828076
   0.33660674  0.67086601  0.48137814
   0.33329518  0.81025217  0.49124374
   0.33375373  0.95310188  0.49233479
   0.47674536  0.09570289  0.49780297
   0.47603822  0.23847181  0.50216284
   0.47196061  0.80558046  0.49559191
   0.47630385  0.95244942  0.49793182
   0.61893322  0.09472586  0.50699331
   0.61961377  0.23839180  0.50894551
   0.62435875  0.37959138  0.49047163
   0.61976941  0.81140846  0.51698763
   0.61786422  0.95037318  0.50650845
   0.76132024  0.09396456  0.51100625
   0.76206031  0.23770923  0.51167065
   0.76277624  0.38135717  0.51352843
   0.76392988  0.52673150  0.51485321
   0.76714064  0.67247595  0.52608646
   0.76288933  0.80524616  0.52199264
   0.76119114  0.95021988  0.51376927
   0.90413753  0.09445343  0.51033620
   0.90442794  0.23773582  0.51071524
   0.90514196  0.38124437  0.51068668
   0.90579939  0.52461007  0.50515774
   0.90699700  0.66805536  0.50388454
   0.90719642  0.81107462  0.50625846
   0.90497575  0.95215427  0.50906462
   0.46204060  0.36166050  0.55144753
   0.40661959  0.41240938  0.42069685
   0.40281013  0.56133316  0.40554383
   0.64115456  0.53633206  0.57075072
   0.58592106  0.42262925  0.45096480
   0.57382498  0.72272137  0.52641597
   0.42624686  0.71573868  0.48568047
   0.72016734  0.71602580  0.53271231
   0.55421332  0.60046411  0.54667764
   0.51152098  0.50344627  0.51563861
   0.49647005  0.54782079  0.53488800
Direct configuration=     7
   0.00017399  0.00021738  0.50351238
   0.99956299  0.14273367  0.50698542
   0.99976384  0.28582869  0.50702665
   0.00042674  0.42894262  0.50612145
   0.00095649  0.57205202  0.50112918
   0.00181322  0.71539024  0.49804911
   0.00189636  0.85850797  0.49911916
   0.14354414  0.00098281  0.49342525
   0.14259335  0.14330424  0.49820229
   0.14196269  0.28592801  0.49633222
   0.14288853  0.42928146  0.49442710
   0.14362954  0.57193376  0.49600384
   0.14373007  0.71491585  0.49348337
   0.14388489  0.85808574  0.49234863
   0.28622072  0.00062825  0.49170115
   0.28574327  0.14306634  0.49021344
   0.28445758  0.28630387  0.48469918
   0.28167700  0.42711449  0.46270340
   0.28639945  0.57272247  0.47389259
   0.28600015  0.71538038  0.48850692
   0.28600838  0.85812231  0.49153745
   0.42910886  0.00050971  0.49532666
   0.42882267  0.14332277  0.49529156
   0.42401558  0.27969777  0.51312762
   0.42803252  0.85707048  0.49458563
   0.57120948  0.99936851  0.50334255
   0.57163632  0.14281628  0.50563874
   0.57239230  0.28644661  0.50245127
   0.56930341  0.85446231  0.50586488
   0.71331422  0.99790218  0.51089375
   0.71424897  0.14221376  0.51032293
   0.71477388  0.28592530  0.51161366
   0.71575154  0.42975526  0.50895201
   0.72420339  0.57793137  0.53570515
   0.71362674  0.85423953  0.51887682
   0.85670983  0.99919648  0.51176829
   0.85656231  0.14219459  0.51128697
   0.85720017  0.28561733  0.51187053
   0.85809733  0.42916828  0.51151094
   0.85915870  0.57317685  0.50586729
   0.86080416  0.71657647  0.50959660
   0.85849557  0.85710980  0.51195455
   0.04754839  0.09550904  0.50339239
   0.04691813  0.23798897  0.50442619
   0.04770868  0.38128378  0.50372728
   0.04847115  0.52423885  0.50187524
   0.04869695  0.66734512  0.49689629
   0.04897306  0.81050163  0.49569158
   0.04845318  0.95330437  0.49831910
   0.19048729  0.09579321  0.49236932
   0.18940185  0.23844517  0.49490354
   0.18902716  0.38082364  0.48736869
   0.19144033  0.52471034  0.49021955
   0.19094144  0.66725345  0.49216344
   0.19118156  0.81031762  0.49174754
   0.19122529  0.95320599  0.49161109
   0.33370139  0.09584424  0.49239882
   0.33283695  0.23822755  0.49390043
   0.32427930  0.37538725  0.45700059
   0.32463383  0.52121687  0.44826736
   0.33660476  0.67086526  0.48136588
   0.33330446  0.81026119  0.49123838
   0.33377224  0.95309579  0.49233197
   0.47674429  0.09569722  0.49780016
   0.47603307  0.23846977  0.50215635
   0.47196711  0.80559530  0.49558704
   0.47630546  0.95245660  0.49793058
   0.61892355  0.09471705  0.50699371
   0.61961452  0.23839041  0.50894614
   0.62436975  0.37959399  0.49047551
   0.61975754  0.81141320  0.51698490
   0.61783800  0.95035797  0.50650811
   0.76130432  0.09395422  0.51100891
   0.76205438  0.23770878  0.51167372
   0.76278177  0.38135975  0.51353410
   0.76393586  0.52673555  0.51486066
   0.76714358  0.67246995  0.52609208
   0.76288788  0.80524821  0.52199755
   0.76117209  0.95021483  0.51377318
   0.90413700  0.09445150  0.51033783
   0.90442684  0.23774021  0.51071647
   0.90514446  0.38124379  0.51068972
   0.90580266  0.52461034  0.50516360
   0.90700023  0.66805333  0.50389030
   0.90720142  0.81107452  0.50626202
   0.90497770  0.95215262  0.50906944
   0.46204222  0.36166723  0.55143258
   0.40662171  0.41240803  0.42067630
   0.40281103  0.56133191  0.40552418
   0.64115167  0.53633318  0.57075294
   0.58592413  0.42263387  0.45096267
   0.57382425  0.72271658  0.52641284
   0.42624547  0.71573327  0.48566983
   0.72016765  0.71602870  0.53271672
   0.55420101  0.60046184  0.54667195
   0.51151083  0.50343710  0.51566078
   0.49645440  0.54780389  0.53488800
Direct configuration=     8
   0.00017498  0.00021744  0.50351432
   0.99956426  0.14273461  0.50698317
   0.99976382  0.28582969  0.50702211
   0.00042801  0.42894324  0.50612095
   0.00095764  0.57205145  0.50113179
   0.00181442  0.71538923  0.49805477
   0.00189827  0.85850766  0.49912522
   0.14354682  0.00098278  0.49342260
   0.14259328  0.14330493  0.49819193
   0.14196253  0.28592835  0.49631741
   0.14288699  0.42928413  0.49441219
   0.14363085  0.57193400  0.49599301
   0.14373343  0.71491492  0.49347912
   0.14388904  0.85808488  0.49234868
   0.28622729  0.00062799  0.49169728
   0.28574587  0.14306693  0.49020166
   0.28445863  0.28630323  0.48468082
   0.28167238  0.42711145  0.46267717
   0.28639613  0.57272482  0.47386884
   0.28600310  0.71538343  0.48849334
   0.28601335  0.85812369  0.49153096
   0.42911218  0.00050870  0.49532240
   0.42882667  0.14332198  0.49528355
   0.42401595  0.27970054  0.51311027
   0.42803825  0.85707553  0.49457738
   0.57120483  0.99936480  0.50334277
   0.57163478  0.14281369  0.50563819
   0.57239387  0.28644759  0.50244706
   0.56929943  0.85446133  0.50586051
   0.71330925  0.99790178  0.51089877
   0.71424460  0.14221174  0.51032767
   0.71477381  0.28592609  0.51161973
   0.71575559  0.42975761  0.50895875
   0.72420354  0.57793171  0.53571439
   0.71362270  0.85423777  0.51888169
   0.85670822  0.99919468  0.51177535
   0.85655910  0.14219384  0.51129108
   0.85720103  0.28561953  0.51187440
   0.85809866  0.42916905  0.51152019
   0.85916044  0.57317715  0.50587863
   0.86080592  0.71657726  0.50960719
   0.85849736  0.85710956  0.51196230
   0.04754901  0.09551075  0.50338988
   0.04691709  0.23798757  0.50441844
   0.04770843  0.38128114  0.50372162
   0.04847127  0.52423920  0.50187196
   0.04869730  0.66734667  0.49689763
   0.04897392  0.81050349  0.49569560
   0.04845529  0.95330634  0.49832185
   0.19048673  0.09579310  0.49236046
   0.18940147  0.23844629  0.49488716
   0.18902836  0.38082317  0.48734756
   0.19144224  0.52470908  0.49020107
   0.19094153  0.66725466  0.49215329
   0.19117869  0.81031776  0.49174496
   0.19122260  0.95320771  0.49160859
   0.33369933  0.09584675  0.49238996
   0.33283615  0.23822918  0.49388307
   0.32427928  0.37538698  0.45697279
   0.32463358  0.52121506  0.44823760
   0.33660505  0.67086334  0.48134546
   0.33329922  0.81025733  0.49122717
   0.33376877  0.95309642  0.49232672
   0.47674491  0.09570258  0.49779585
   0.47603679  0.23847448  0.50214739
   0.47196870  0.80559273  0.49557741
   0.47630722  0.95245743  0.49792672
   0.61892765  0.09472007  0.50699555
   0.61961526  0.23839337  0.50894688
   0.62437159  0.37959657  0.49047420
   0.61976227  0.81141168  0.51698381
   0.61784240  0.95035812  0.50650800
   0.76130869  0.09395583  0.51101357
   0.76205569  0.23771015  0.51167885
   0.76278199  0.38136020  0.51354317
   0.76393592  0.52673714  0.51487292
   0.76714470  0.67247193  0.52610171
   0.76289067  0.80524980  0.52200508
   0.76117703  0.95021642  0.51377788
   0.90413784  0.09445214  0.51034195
   0.90442694  0.23773856  0.51071829
   0.90514457  0.38124321  0.51069463
   0.90580341  0.52461144  0.50517295
   0.90700119  0.66805701  0.50390022
   0.90720378  0.81107776  0.50626871
   0.90497885  0.95215348  0.50907703
   0.46204630  0.36167144  0.55141337
   0.40661694  0.41240006  0.42065018
   0.40280736  0.56132909  0.40549503
   0.64114911  0.53633661  0.57075550
   0.58593222  0.42263932  0.45096134
   0.57382374  0.72271466  0.52640652
   0.42624795  0.71573645  0.48565422
   0.72016854  0.71602879  0.53272368
   0.55417464  0.60045235  0.54666168
   0.51149635  0.50341589  0.51569323
   0.49643280  0.54778874  0.53488800
Direct configuration=     9