  99  99   0   0
  0.3914025E+02  0.1727104E-08  0.1727104E-08  0.1500000E-08  0.0000000E+00
  1.000000000000000E-004
  CAR 
 unknown system                          
      6.30753974    -25.65035291  301     -2.33514014      1.00000000
    -25.650  0.0000E+00  0.0000E+00  0.0000E+00  0.0000E+00
    -25.544  0.0000E+00  0.0000E+00  0.0000E+00  0.0000E+00
    -25.437  0.0000E+00  0.0000E+00  0.0000E+00  0.0000E+00
    -25.331  0.0000E+00  0.0000E+00  0.0000E+00  0.0000E+00
    -25.224  0.0000E+00  0.0000E+00  0.0000E+00  0.0000E+00
    -25.118  0.0000E+00  0.0000E+00  0.0000E+00  0.0000E+00
    -25.011  0.0000E+00  0.0000E+00  0.0000E+00  0.0000E+00
    -24.905  0.0000E+00  0.0000E+00  0.0000E+00  0.0000E+00
    -24.798  0.0000E+00  0.0000E+00  0.0000E+00  0.0000E+00
    -24.692  0.0000E+00  0.0000E+00  0.0000E+00  0.0000E+00
    -24.585  0.0000E+00  0.0000E+00  0.0000E+00  0.0000E+00
    -24.479  0.9380E-17  0.9380E-17  0.9992E-18  0.9992E-18
    -24.372  0.3848E-08  0.3848E-08  0.4099E-09  0.4099E-09
    -24.266  0.2589E-03  0.2589E-03  0.2758E-04  0.2758E-04
    -24.159  0.7846E-02  0.7846E-02  0.8633E-03  0.8633E-03
    -24.052  0.1283E-02  0.1283E-02  0.1000E-02  0.1000E-02
    -23.946  0.1869E-06  0.1869E-06  0.1000E-02  0.1000E-02
    -23.839  0.5012E-14  0.5012E-14  0.1000E-02  0.1000E-02
    -23.733  0.0000E+00  0.0000E+00  0.1000E-02  0.1000E-02
    -23.626  0.0000E+00  0.0000E+00  0.1000E-02  0.1000E-02
    -23.520  0.0000E+00  0.0000E+00  0.1000E-02  0.1000E-02
    -23.413  0.0000E+00  0.0000E+00  0.1000E-02  0.1000E-02
    -23.307  0.0000E+00  0.0000E+00  0.1000E-02  0.1000E-02
    -23.200  0.0000E+00  0.0000E+00  0.1000E-02  0.1000E-02
    -23.094  0.0000E+00  0.0000E+00  0.1000E-02  0.1000E-02
    -22.987  0.0000E+00  0.0000E+00  0.1000E-02  0.1000E-02
    -22.881  0.0000E+00  0.0000E+00  0.1000E-02  0.1000E-02
    -22.774  0.0000E+00  0.0000E+00  0.1000E-02  0.1000E-02
    -22.668  0.0000E+00  0.0000E+00  0.1000E-02  0.1000E-02
    -22.561  0.0000E+00  0.0000E+00  0.1000E-02  0.1000E-02
    -22.455  0.0000E+00  0.0000E+00  0.1000E-02  0.1000E-02
    -22.348  0.0000E+00  0.0000E+00  0.1000E-02  0.1000E-02
    -22.242  0.0000E+00  0.0000E+00  0.1000E-02  0.1000E-02
    -22.135  0.0000E+00  0.0000E+00  0.1000E-02  0.1000E-02
    -22.028  0.0000E+00  0.0000E+00  0.1000E-02  0.1000E-02
    -21.922  0.8883E-10  0.8883E-10  0.1000E-02  0.1000E-02
    -21.815  0.2130E-04  0.2130E-04  0.1002E-02  0.1002E-02
    -21.709  0.2455E-02  0.2455E-02  0.1264E-02  0.1264E-02
    -21.602  0.8666E-02  0.8666E-02  0.2187E-02  0.2187E-02
    -21.496  0.5226E-02  0.5226E-02  0.2744E-02  0.2744E-02
    -21.389  0.2398E-02  0.2398E-02  0.2999E-02  0.2999E-02
    -21.283  0.1110E-01  0.1110E-01  0.4182E-02  0.4182E-02
    -21.176  0.8236E-02  0.8236E-02  0.5059E-02  0.5059E-02
    -21.070  0.3610E-02  0.3610E-02  0.5443E-02  0.5443E-02
    -20.963  0.1307E-02  0.1307E-02  0.5583E-02  0.5583E-02
    -20.857  0.1276E-01  0.1276E-01  0.6942E-02  0.6942E-02
    -20.750  0.1135E-01  0.1135E-01  0.8151E-02  0.8151E-02
    -20.644  0.4974E-02  0.4974E-02  0.8681E-02  0.8681E-02
    -20.537  0.7760E-03  0.7760E-03  0.8764E-02  0.8764E-02
    -20.431  0.4727E-02  0.4727E-02  0.9267E-02  0.9267E-02
    -20.324  0.6651E-02  0.6651E-02  0.9976E-02  0.9976E-02
    -20.218  0.1270E-01  0.1270E-01  0.1133E-01  0.1133E-01
    -20.111  0.1453E-01  0.1453E-01  0.1288E-01  0.1288E-01
    -20.004  0.2945E-02  0.2945E-02  0.1319E-01  0.1319E-01
    -19.898  0.9301E-03  0.9301E-03  0.1329E-01  0.1329E-01
    -19.791  0.5460E-02  0.5460E-02  0.1387E-01  0.1387E-01
    -19.685  0.7779E-02  0.7779E-02  0.1470E-01  0.1470E-01
    -19.578  0.2998E-02  0.2998E-02  0.1502E-01  0.1502E-01
    -19.472  0.1091E-01  0.1091E-01  0.1618E-01  0.1618E-01
    -19.365  0.1560E-01  0.1560E-01  0.1784E-01  0.1784E-01
    -19.259  0.7658E-02  0.7658E-02  0.1866E-01  0.1866E-01
    -19.152  0.1163E-02  0.1163E-02  0.1878E-01  0.1878E-01
    -19.046  0.5491E-02  0.5491E-02  0.1937E-01  0.1937E-01
    -18.939  0.7899E-02  0.7899E-02  0.2021E-01  0.2021E-01
    -18.833  0.6884E-02  0.6884E-02  0.2094E-01  0.2094E-01
    -18.726  0.2998E-02  0.2998E-02  0.2126E-01  0.2126E-01
    -18.620  0.6335E-02  0.6335E-02  0.2194E-01  0.2194E-01
    -18.513  0.8321E-02  0.8321E-02  0.2282E-01  0.2282E-01
    -18.407  0.1875E-01  0.1875E-01  0.2482E-01  0.2482E-01
    -18.300  0.3782E-02  0.3782E-02  0.2522E-01  0.2522E-01
    -18.194  0.5262E-02  0.5262E-02  0.2578E-01  0.2578E-01
    -18.087  0.5927E-02  0.5927E-02  0.2642E-01  0.2642E-01
    -17.980  0.1052E-01  0.1052E-01  0.2754E-01  0.2754E-01
    -17.874  0.6890E-02  0.6890E-02  0.2827E-01  0.2827E-01
    -17.767  0.5254E-02  0.5254E-02  0.2883E-01  0.2883E-01
    -17.661  0.3615E-02  0.3615E-02  0.2922E-01  0.2922E-01
    -17.554  0.3439E-02  0.3439E-02  0.2958E-01  0.2958E-01
    -17.448  0.5999E-02  0.5999E-02  0.3022E-01  0.3022E-01
    -17.341  0.1994E-01  0.1994E-01  0.3235E-01  0.3235E-01
    -17.235  0.7672E-02  0.7672E-02  0.3316E-01  0.3316E-01
    -17.128  0.1043E-01  0.1043E-01  0.3427E-01  0.3427E-01
    -17.022  0.8885E-02  0.8885E-02  0.3522E-01  0.3522E-01
    -16.915  0.5475E-02  0.5475E-02  0.3580E-01  0.3580E-01
    -16.809  0.8710E-02  0.8710E-02  0.3673E-01  0.3673E-01
    -16.702  0.1020E-01  0.1020E-01  0.3782E-01  0.3782E-01
    -16.596  0.2010E-02  0.2010E-02  0.3803E-01  0.3803E-01
    -16.489  0.4334E-02  0.4334E-02  0.3849E-01  0.3849E-01
    -16.383  0.6011E-02  0.6011E-02  0.3913E-01  0.3913E-01
    -16.276  0.1537E-01  0.1537E-01  0.4077E-01  0.4077E-01
    -16.170  0.1122E-01  0.1122E-01  0.4197E-01  0.4197E-01
    -16.063  0.7573E-02  0.7573E-02  0.4277E-01  0.4277E-01
    -15.956  0.2095E-02  0.2095E-02  0.4300E-01  0.4300E-01
    -15.850  0.1092E-02  0.1092E-02  0.4311E-01  0.4311E-01
    -15.743  0.5781E-02  0.5781E-02  0.4373E-01  0.4373E-01
    -15.637  0.1410E-02  0.1410E-02  0.4388E-01  0.4388E-01
    -15.530  0.3446E-02  0.3446E-02  0.4425E-01  0.4425E-01
    -15.424  0.2272E-02  0.2272E-02  0.4449E-01  0.4449E-01
    -15.317  0.8081E-02  0.8081E-02  0.4535E-01  0.4535E-01
    -15.211  0.7749E-02  0.7749E-02  0.4617E-01  0.4617E-01
    -15.104  0.8601E-02  0.8601E-02  0.4709E-01  0.4709E-01
    -14.998  0.6434E-02  0.6434E-02  0.4778E-01  0.4778E-01
    -14.891  0.6572E-02  0.6572E-02  0.4848E-01  0.4848E-01
    -14.785  0.1778E-01  0.1778E-01  0.5037E-01  0.5037E-01
    -14.678  0.5932E-02  0.5932E-02  0.5100E-01  0.5100E-01
    -14.572  0.2310E-02  0.2310E-02  0.5125E-01  0.5125E-01
    -14.465  0.1246E-01  0.1246E-01  0.5258E-01  0.5258E-01
    -14.359  0.1203E-01  0.1203E-01  0.5386E-01  0.5386E-01
    -14.252  0.6429E-02  0.6429E-02  0.5454E-01  0.5454E-01
    -14.146  0.6665E-02  0.6665E-02  0.5525E-01  0.5525E-01
    -14.039  0.1136E-01  0.1136E-01  0.5646E-01  0.5646E-01
    -13.932  0.1140E-01  0.1140E-01  0.5768E-01  0.5768E-01
    -13.826  0.4822E-02  0.4822E-02  0.5819E-01  0.5819E-01
    -13.719  0.5425E-02  0.5425E-02  0.5877E-01  0.5877E-01
    -13.613  0.4511E-02  0.4511E-02  0.5925E-01  0.5925E-01
    -13.506  0.5270E-02  0.5270E-02  0.5981E-01  0.5981E-01
    -13.400  0.9313E-02  0.9313E-02  0.6080E-01  0.6080E-01
    -13.293  0.8741E-02  0.8741E-02  0.6173E-01  0.6173E-01
    -13.187  0.7335E-02  0.7335E-02  0.6251E-01  0.6251E-01
    -13.080  0.8024E-02  0.8024E-02  0.6337E-01  0.6337E-01
    -12.974  0.3567E-02  0.3567E-02  0.6375E-01  0.6375E-01
    -12.867  0.6654E-02  0.6654E-02  0.6446E-01  0.6446E-01
    -12.761  0.1522E-02  0.1522E-02  0.6462E-01  0.6462E-01
    -12.654  0.9308E-02  0.9308E-02  0.6561E-01  0.6561E-01
    -12.548  0.8202E-02  0.8202E-02  0.6649E-01  0.6649E-01
    -12.441  0.8025E-02  0.8025E-02  0.6734E-01  0.6734E-01
    -12.335  0.1388E-01  0.1388E-01  0.6882E-01  0.6882E-01
    -12.228  0.1441E-01  0.1441E-01  0.7035E-01  0.7035E-01
    -12.122  0.8954E-02  0.8954E-02  0.7131E-01  0.7131E-01
    -12.015  0.1038E-01  0.1038E-01  0.7241E-01  0.7241E-01
    -11.908  0.5576E-02  0.5576E-02  0.7301E-01  0.7301E-01
    -11.802  0.6110E-02  0.6110E-02  0.7366E-01  0.7366E-01
    -11.695  0.7706E-02  0.7706E-02  0.7448E-01  0.7448E-01
    -11.589  0.6297E-02  0.6297E-02  0.7515E-01  0.7515E-01
    -11.482  0.1038E-01  0.1038E-01  0.7626E-01  0.7626E-01
    -11.376  0.1106E-01  0.1106E-01  0.7743E-01  0.7743E-01
    -11.269  0.9712E-02  0.9712E-02  0.7847E-01  0.7847E-01
    -11.163  0.1269E-01  0.1269E-01  0.7982E-01  0.7982E-01
    -11.056  0.1336E-01  0.1336E-01  0.8124E-01  0.8124E-01
    -10.950  0.7053E-02  0.7053E-02  0.8200E-01  0.8200E-01
    -10.843  0.6694E-02  0.6694E-02  0.8271E-01  0.8271E-01
    -10.737  0.1572E-01  0.1572E-01  0.8438E-01  0.8438E-01
    -10.630  0.1038E-01  0.1038E-01  0.8549E-01  0.8549E-01
    -10.524  0.6001E-02  0.6001E-02  0.8613E-01  0.8613E-01
    -10.417  0.7516E-02  0.7516E-02  0.8693E-01  0.8693E-01
    -10.311  0.2367E-02  0.2367E-02  0.8718E-01  0.8718E-01
    -10.204  0.1342E-02  0.1342E-02  0.8732E-01  0.8732E-01
    -10.098  0.1359E-01  0.1359E-01  0.8877E-01  0.8877E-01
     -9.991  0.1733E-01  0.1733E-01  0.9062E-01  0.9062E-01
     -9.884  0.1509E-01  0.1509E-01  0.9222E-01  0.9222E-01
     -9.778  0.1831E-01  0.1831E-01  0.9417E-01  0.9417E-01
     -9.671  0.1985E-01  0.1985E-01  0.9629E-01  0.9629E-01
     -9.565  0.2073E-01  0.2073E-01  0.9850E-01  0.9850E-01
     -9.458  0.8625E-02  0.8625E-02  0.9942E-01  0.9942E-01
     -9.352  0.1674E-01  0.1674E-01  0.1012E+00  0.1012E+00
     -9.245  0.1491E-01  0.1491E-01  0.1028E+00  0.1028E+00
     -9.139  0.1421E-01  0.1421E-01  0.1043E+00  0.1043E+00
     -9.032  0.1878E-01  0.1878E-01  0.1063E+00  0.1063E+00
     -8.926  0.1666E-01  0.1666E-01  0.1081E+00  0.1081E+00
     -8.819  0.3694E-01  0.3694E-01  0.1120E+00  0.1120E+00
     -8.713  0.2791E-01  0.2791E-01  0.1150E+00  0.1150E+00
     -8.606  0.2498E-01  0.2498E-01  0.1176E+00  0.1176E+00
     -8.500  0.1781E-01  0.1781E-01  0.1195E+00  0.1195E+00
     -8.393  0.1340E-01  0.1340E-01  0.1210E+00  0.1210E+00
     -8.287  0.2343E-01  0.2343E-01  0.1235E+00  0.1235E+00
     -8.180  0.2381E-01  0.2381E-01  0.1260E+00  0.1260E+00
     -8.074  0.2554E-01  0.2554E-01  0.1287E+00  0.1287E+00
     -7.967  0.1990E-01  0.1990E-01  0.1308E+00  0.1308E+00
     -7.860  0.1418E-01  0.1418E-01  0.1324E+00  0.1324E+00
     -7.754  0.1399E-01  0.1399E-01  0.1338E+00  0.1338E+00
     -7.647  0.2085E-01  0.2085E-01  0.1361E+00  0.1361E+00
     -7.541  0.2046E-01  0.2046E-01  0.1382E+00  0.1382E+00
     -7.434  0.9304E-02  0.9304E-02  0.1392E+00  0.1392E+00
     -7.328  0.2487E-02  0.2487E-02  0.1395E+00  0.1395E+00
     -7.221  0.1066E-01  0.1066E-01  0.1406E+00  0.1406E+00
     -7.115  0.3119E-01  0.3119E-01  0.1440E+00  0.1440E+00
     -7.008  0.1637E-01  0.1637E-01  0.1457E+00  0.1457E+00
     -6.902  0.2151E-01  0.2151E-01  0.1480E+00  0.1480E+00
     -6.795  0.9288E-02  0.9288E-02  0.1490E+00  0.1490E+00
     -6.689  0.1111E-01  0.1111E-01  0.1502E+00  0.1502E+00
     -6.582  0.1220E-01  0.1220E-01  0.1515E+00  0.1515E+00
     -6.476  0.8375E-02  0.8375E-02  0.1524E+00  0.1524E+00
     -6.369  0.1405E-01  0.1405E-01  0.1539E+00  0.1539E+00
     -6.263  0.1290E-01  0.1290E-01  0.1552E+00  0.1552E+00
     -6.156  0.1799E-01  0.1799E-01  0.1571E+00  0.1571E+00
     -6.050  0.2515E-01  0.2515E-01  0.1598E+00  0.1598E+00
     -5.943  0.1305E-01  0.1305E-01  0.1612E+00  0.1612E+00
     -5.836  0.8781E-02  0.8781E-02  0.1622E+00  0.1622E+00
     -5.730  0.1688E-01  0.1688E-01  0.1640E+00  0.1640E+00
     -5.623  0.1584E-01  0.1584E-01  0.1656E+00  0.1656E+00
     -5.517  0.1170E-01  0.1170E-01  0.1669E+00  0.1669E+00
     -5.410  0.9432E-02  0.9432E-02  0.1679E+00  0.1679E+00
     -5.304  0.4958E-02  0.4958E-02  0.1684E+00  0.1684E+00
     -5.197  0.3260E-02  0.3260E-02  0.1688E+00  0.1688E+00
     -5.091  0.2160E-02  0.2160E-02  0.1690E+00  0.1690E+00
     -4.984  0.7909E-02  0.7909E-02  0.1698E+00  0.1698E+00
     -4.878  0.2555E-01  0.2555E-01  0.1726E+00  0.1726E+00
     -4.771  0.1410E-01  0.1410E-01  0.1741E+00  0.1741E+00
     -4.665  0.1301E-01  0.1301E-01  0.1754E+00  0.1754E+00
     -4.558  0.6227E-02  0.6227E-02  0.1761E+00  0.1761E+00
     -4.452  0.8746E-02  0.8746E-02  0.1770E+00  0.1770E+00
     -4.345  0.1943E-02  0.1943E-02  0.1772E+00  0.1772E+00
     -4.239  0.5748E-03  0.5748E-03  0.1773E+00  0.1773E+00
     -4.132  0.8716E-02  0.8716E-02  0.1782E+00  0.1782E+00
     -4.026  0.6391E-02  0.6391E-02  0.1789E+00  0.1789E+00
     -3.919  0.7471E-02  0.7471E-02  0.1797E+00  0.1797E+00
     -3.812  0.6810E-02  0.6810E-02  0.1804E+00  0.1804E+00
     -3.706  0.8030E-02  0.8030E-02  0.1813E+00  0.1813E+00
     -3.599  0.6142E-02  0.6142E-02  0.1820E+00  0.1820E+00
     -3.493  0.4568E-03  0.4568E-03  0.1820E+00  0.1820E+00
     -3.386  0.6525E-06  0.6525E-06  0.1820E+00  0.1820E+00
     -3.280  0.8015E-03  0.8015E-03  0.1821E+00  0.1821E+00
     -3.173  0.5046E-02  0.5046E-02  0.1826E+00  0.1826E+00
     -3.067  0.5258E-02  0.5258E-02  0.1832E+00  0.1832E+00
     -2.960  0.1198E-02  0.1198E-02  0.1833E+00  0.1833E+00
     -2.854  0.1752E-02  0.1752E-02  0.1835E+00  0.1835E+00
     -2.747  0.2406E-04  0.2406E-04  0.1835E+00  0.1835E+00
     -2.641  0.2223E-05  0.2223E-05  0.1835E+00  0.1835E+00
     -2.534  0.1804E-02  0.1804E-02  0.1837E+00  0.1837E+00
     -2.428  0.2872E-02  0.2872E-02  0.1840E+00  0.1840E+00
     -2.321  0.1532E-04  0.1532E-04  0.1840E+00  0.1840E+00
     -2.215  0.1269E-03  0.1269E-03  0.1840E+00  0.1840E+00
     -2.108  0.3915E-02  0.3915E-02  0.1844E+00  0.1844E+00
     -2.002  0.6513E-03  0.6513E-03  0.1845E+00  0.1845E+00
     -1.895  0.9795E-07  0.9795E-07  0.1845E+00  0.1845E+00
     -1.788  0.2316E-04  0.2316E-04  0.1845E+00  0.1845E+00
     -1.682  0.2139E-02  0.2139E-02  0.1847E+00  0.1847E+00
     -1.575  0.2719E-02  0.2719E-02  0.1850E+00  0.1850E+00
     -1.469  0.7068E-02  0.7068E-02  0.1858E+00  0.1858E+00
     -1.362  0.2131E-02  0.2131E-02  0.1860E+00  0.1860E+00
     -1.256  0.9002E-05  0.9002E-05  0.1860E+00  0.1860E+00
     -1.149  0.3577E-02  0.3577E-02  0.1864E+00  0.1864E+00
     -1.043  0.9258E-02  0.9258E-02  0.1874E+00  0.1874E+00
     -0.936  0.1297E-02  0.1297E-02  0.1875E+00  0.1875E+00
     -0.830  0.4093E-02  0.4093E-02  0.1879E+00  0.1879E+00
     -0.723  0.1572E-01  0.1572E-01  0.1896E+00  0.1896E+00
     -0.617  0.1194E-01  0.1194E-01  0.1909E+00  0.1909E+00
     -0.510  0.5497E-02  0.5497E-02  0.1915E+00  0.1915E+00
     -0.404  0.1111E-01  0.1111E-01  0.1927E+00  0.1927E+00
     -0.297  0.9058E-02  0.9058E-02  0.1936E+00  0.1936E+00
     -0.191  0.5760E-02  0.5760E-02  0.1942E+00  0.1942E+00
     -0.084  0.3252E-02  0.3252E-02  0.1946E+00  0.1946E+00
      0.022  0.1129E-01  0.1129E-01  0.1958E+00  0.1958E+00
      0.129  0.7965E-02  0.7965E-02  0.1966E+00  0.1966E+00
      0.236  0.1066E-01  0.1066E-01  0.1978E+00  0.1978E+00
      0.342  0.1187E-01  0.1187E-01  0.1990E+00  0.1990E+00
      0.449  0.7542E-02  0.7542E-02  0.1998E+00  0.1998E+00
      0.555  0.8634E-02  0.8634E-02  0.2008E+00  0.2008E+00
      0.662  0.2737E-02  0.2737E-02  0.2010E+00  0.2010E+00
      0.768  0.7570E-02  0.7570E-02  0.2019E+00  0.2019E+00
      0.875  0.8093E-02  0.8093E-02  0.2027E+00  0.2027E+00
      0.981  0.8265E-02  0.8265E-02  0.2036E+00  0.2036E+00
      1.088  0.9788E-02  0.9788E-02  0.2046E+00  0.2046E+00
      1.194  0.7699E-02  0.7699E-02  0.2055E+00  0.2055E+00
      1.301  0.7674E-02  0.7674E-02  0.2063E+00  0.2063E+00
      1.407  0.1127E-01  0.1127E-01  0.2075E+00  0.2075E+00
      1.514  0.9900E-02  0.9900E-02  0.2085E+00  0.2085E+00
      1.620  0.1785E-01  0.1785E-01  0.2104E+00  0.2104E+00
      1.727  0.1652E-01  0.1652E-01  0.2122E+00  0.2122E+00
      1.833  0.1328E-01  0.1328E-01  0.2136E+00  0.2136E+00
      1.940  0.1032E-01  0.1032E-01  0.2147E+00  0.2147E+00
      2.046  0.1754E-01  0.1754E-01  0.2166E+00  0.2166E+00
      2.153  0.2047E-01  0.2047E-01  0.2188E+00  0.2188E+00
      2.260  0.1597E-01  0.1597E-01  0.2205E+00  0.2205E+00
      2.366  0.2008E-01  0.2008E-01  0.2226E+00  0.2226E+00
      2.473  0.2718E-01  0.2718E-01  0.2255E+00  0.2255E+00
      2.579  0.8802E-02  0.8802E-02  0.2264E+00  0.2264E+00
      2.686  0.1354E-01  0.1354E-01  0.2279E+00  0.2279E+00
      2.792  0.2340E-01  0.2340E-01  0.2304E+00  0.2304E+00
      2.899  0.2860E-01  0.2860E-01  0.2334E+00  0.2334E+00
      3.005  0.2768E-01  0.2768E-01  0.2364E+00  0.2364E+00
      3.112  0.2269E-01  0.2269E-01  0.2388E+00  0.2388E+00
      3.218  0.2209E-01  0.2209E-01  0.2411E+00  0.2411E+00
      3.325  0.1974E-01  0.1974E-01  0.2432E+00  0.2432E+00
      3.431  0.2114E-01  0.2114E-01  0.2455E+00  0.2455E+00
      3.538  0.2535E-01  0.2535E-01  0.2482E+00  0.2482E+00
      3.644  0.1142E-01  0.1142E-01  0.2494E+00  0.2494E+00
      3.751  0.2177E-01  0.2177E-01  0.2517E+00  0.2517E+00
      3.857  0.2703E-01  0.2703E-01  0.2546E+00  0.2546E+00
      3.964  0.2053E-01  0.2053E-01  0.2568E+00  0.2568E+00
      4.070  0.2027E-01  0.2027E-01  0.2589E+00  0.2589E+00
      4.177  0.1379E-01  0.1379E-01  0.2604E+00  0.2604E+00
      4.284  0.2983E-01  0.2983E-01  0.2636E+00  0.2636E+00
      4.390  0.3358E-01  0.3358E-01  0.2672E+00  0.2672E+00
      4.497  0.3072E-01  0.3072E-01  0.2704E+00  0.2704E+00
      4.603  0.2597E-01  0.2597E-01  0.2732E+00  0.2732E+00
      4.710  0.2122E-01  0.2122E-01  0.2755E+00  0.2755E+00
      4.816  0.2760E-01  0.2760E-01  0.2784E+00  0.2784E+00
      4.923  0.1478E-01  0.1478E-01  0.2800E+00  0.2800E+00
      5.029  0.1524E-03  0.1524E-03  0.2800E+00  0.2800E+00
      5.136  0.1494E-08  0.1494E-08  0.2800E+00  0.2800E+00
      5.242  0.3127E-17  0.3127E-17  0.2800E+00  0.2800E+00
      5.349  0.0000E+00  0.0000E+00  0.2800E+00  0.2800E+00
      5.455  0.0000E+00  0.0000E+00  0.2800E+00  0.2800E+00
      5.562  0.0000E+00  0.0000E+00  0.2800E+00  0.2800E+00
      5.668  0.0000E+00  0.0000E+00  0.2800E+00  0.2800E+00
      5.775  0.0000E+00  0.0000E+00  0.2800E+00  0.2800E+00
      5.881  0.0000E+00  0.0000E+00  0.2800E+00  0.2800E+00
      5.988  0.0000E+00  0.0000E+00  0.2800E+00  0.2800E+00
      6.094  0.0000E+00  0.0000E+00  0.2800E+00  0.2800E+00
      6.201  0.0000E+00  0.0000E+00  0.2800E+00  0.2800E+00
      6.308  0.0000E+00  0.0000E+00  0.2800E+00  0.2800E+00
