       N       E                     dE             d eps       ncg     rms          rms(c)
DAV:   1     0.318442128166E+04    0.31844E+04   -0.13424E+05  4720   0.963E+02
DAV:   2    -0.302170983885E+03   -0.34866E+04   -0.32886E+04  6920   0.244E+02
DAV:   3    -0.877930045662E+03   -0.57576E+03   -0.57319E+03  5540   0.103E+02
DAV:   4    -0.897819455017E+03   -0.19889E+02   -0.19820E+02  5700   0.244E+01
DAV:   5    -0.898416035122E+03   -0.59658E+00   -0.59586E+00  6560   0.375E+00    0.523E+01
DAV:   6    -0.737316895908E+03    0.16110E+03   -0.17104E+02  5340   0.188E+01    0.291E+01
DAV:   7    -0.780629926920E+03   -0.43313E+02   -0.65501E+01  5020   0.117E+01    0.142E+01
DAV:   8    -0.809973282196E+03   -0.29343E+02   -0.21177E+01  5320   0.674E+00    0.740E+00
DAV:   9    -0.827456973347E+03   -0.17484E+02   -0.69098E+00  5140   0.360E+00    0.430E+00
DAV:  10    -0.840250580445E+03   -0.12794E+02   -0.46894E+00  5060   0.256E+00    0.231E+00
DAV:  11    -0.846834278590E+03   -0.65837E+01   -0.25685E+00  4920   0.176E+00    0.137E+00
DAV:  12    -0.849823058336E+03   -0.29888E+01   -0.11765E+00  4820   0.120E+00    0.726E-01
DAV:  13    -0.851278511821E+03   -0.14555E+01   -0.42646E-01  5320   0.714E-01    0.224E-01
DAV:  14    -0.851510309426E+03   -0.23180E+00   -0.45606E-02  5100   0.247E-01    0.116E-01
DAV:  15    -0.851521332964E+03   -0.11024E-01   -0.83621E-03  5100   0.113E-01    0.804E-02
DAV:  16    -0.851534618553E+03   -0.13286E-01   -0.27329E-03  4800   0.823E-02    0.603E-02
DAV:  17    -0.851562267223E+03   -0.27649E-01   -0.30457E-03  4960   0.709E-02    0.432E-02
DAV:  18    -0.851572070949E+03   -0.98037E-02   -0.10438E-03  4920   0.467E-02    0.306E-02
DAV:  19    -0.851576177361E+03   -0.41064E-02   -0.31439E-04  5100   0.314E-02    0.180E-02
DAV:  20    -0.851578225465E+03   -0.20481E-02   -0.11378E-04  5000   0.200E-02    0.971E-03
DAV:  21    -0.851579131324E+03   -0.90586E-03   -0.27556E-05  4960   0.120E-02    0.457E-03
DAV:  22    -0.851579540243E+03   -0.40892E-03   -0.10794E-05  4720   0.737E-03    0.242E-03
DAV:  23    -0.851579687523E+03   -0.14728E-03   -0.36084E-06  4680   0.484E-03    0.146E-03
DAV:  24    -0.851579781843E+03   -0.94319E-04   -0.19626E-06  4280   0.312E-03    0.882E-04
DAV:  25    -0.851579819590E+03   -0.37747E-04   -0.10997E-06  4100   0.200E-03    0.575E-04
DAV:  26    -0.851579828063E+03   -0.84729E-05   -0.27965E-07  3540   0.112E-03    0.466E-04
DAV:  27    -0.851579834066E+03   -0.60030E-05   -0.14729E-07  3560   0.641E-04    0.381E-04
DAV:  28    -0.851579835415E+03   -0.13489E-05   -0.68879E-08  3620   0.432E-04    0.368E-04
DAV:  29    -0.851579836029E+03   -0.61400E-06   -0.20091E-08  3740   0.241E-04
   1 F= -.85944981E+03 E0= -.85944981E+03  d E =-.859450E+03  mag=     0.0000
       N       E                     dE             d eps       ncg     rms          rms(c)
DAV:   1    -0.851580604559E+03   -0.76914E-03   -0.15913E-01  4800   0.572E-01    0.102E-01
DAV:   2    -0.851580838434E+03   -0.23388E-03   -0.29034E-03  5020   0.717E-02    0.592E-02
DAV:   3    -0.851580826647E+03    0.11786E-04   -0.11753E-04  5120   0.212E-02    0.288E-02
DAV:   4    -0.851580838607E+03   -0.11960E-04   -0.27548E-05  4900   0.935E-03    0.108E-02
DAV:   5    -0.851580839391E+03   -0.78405E-06   -0.54115E-06  4760   0.485E-03    0.314E-03
DAV:   6    -0.851580839711E+03   -0.31960E-06   -0.94550E-07  4080   0.176E-03
   2 F= -.85945061E+03 E0= -.85945061E+03  d E =-.807253E-03  mag=     0.0000
       N       E                     dE             d eps       ncg     rms          rms(c)
DAV:   1    -0.851580354192E+03    0.48520E-03   -0.64609E-01  4600   0.105E+00    0.201E-01
DAV:   2    -0.851581326007E+03   -0.97181E-03   -0.11612E-02  5000   0.127E-01    0.111E-01
DAV:   3    -0.851581291650E+03    0.34358E-04   -0.27397E-04  5040   0.322E-02    0.569E-02
DAV:   4    -0.851581342871E+03   -0.51221E-04   -0.12113E-04  4800   0.178E-02    0.171E-02
DAV:   5    -0.851581343735E+03   -0.86468E-06   -0.25474E-05  5160   0.101E-02    0.569E-03
DAV:   6    -0.851581345130E+03   -0.13944E-05   -0.34796E-06  4600   0.331E-03    0.275E-03
DAV:   7    -0.851581346008E+03   -0.87838E-06   -0.40365E-07  3980   0.133E-03
   3 F= -.85945072E+03 E0= -.85945072E+03  d E =-.104613E-03  mag=     0.0000
       N       E                     dE             d eps       ncg     rms          rms(c)
DAV:   1    -0.851580371580E+03    0.97355E-03   -0.15432E+00  4480   0.151E+00    0.303E-01
DAV:   2    -0.851582681458E+03   -0.23099E-02   -0.28104E-02  4960   0.180E-01    0.161E-01
DAV:   3    -0.851582594089E+03    0.87369E-04   -0.44232E-04  5060   0.378E-02    0.859E-02
DAV:   4    -0.851582696019E+03   -0.10193E-03   -0.33321E-04  4840   0.262E-02    0.203E-02
DAV:   5    -0.851582695577E+03    0.44199E-06   -0.75423E-05  5040   0.154E-02    0.835E-03
DAV:   6    -0.851582697247E+03   -0.16699E-05   -0.69029E-06  4920   0.467E-03    0.468E-03
DAV:   7    -0.851582699235E+03   -0.19879E-05   -0.10331E-06  4320   0.179E-03    0.180E-03
DAV:   8    -0.851582700488E+03   -0.12533E-05   -0.63008E-07  4520   0.144E-03    0.722E-04
DAV:   9    -0.851582701596E+03   -0.11080E-05   -0.15890E-07  3600   0.968E-04    0.479E-04
DAV:  10    -0.851582702612E+03   -0.10159E-05   -0.11279E-07  3520   0.809E-04    0.310E-04
DAV:  11    -0.851582703236E+03   -0.62383E-06   -0.34591E-08  3560   0.392E-04
   4 F= -.85945147E+03 E0= -.85945147E+03  d E =-.755392E-03  mag=    -0.0000
       N       E                     dE             d eps       ncg     rms          rms(c)
DAV:   1    -0.851580537997E+03    0.21646E-02   -0.25786E+00  4480   0.189E+00    0.390E-01
DAV:   2    -0.851584337075E+03   -0.37991E-02   -0.47873E-02  5000   0.228E-01    0.201E-01
DAV:   3    -0.851584186750E+03    0.15033E-03   -0.70555E-04  5000   0.434E-02    0.109E-01
DAV:   4    -0.851584322797E+03   -0.13605E-03   -0.56659E-04  4800   0.318E-02    0.226E-02
DAV:   5    -0.851584322798E+03   -0.72760E-09   -0.12133E-04  5000   0.172E-02    0.101E-02
DAV:   6    -0.851584324051E+03   -0.12534E-05   -0.65603E-06  5200   0.394E-03    0.688E-03
DAV:   7    -0.851584326438E+03   -0.23872E-05   -0.40261E-06  4360   0.283E-03    0.307E-03
DAV:   8    -0.851584327287E+03   -0.84878E-06   -0.60910E-07  4480   0.135E-03
   5 F= -.85945233E+03 E0= -.85945233E+03  d E =-.851590E-03  mag=    -0.0000
       N       E                     dE             d eps       ncg     rms          rms(c)
DAV:   1    -0.851581645204E+03    0.26812E-02   -0.29132E+00  4480   0.198E+00    0.415E-01
DAV:   2    -0.851586047701E+03   -0.44025E-02   -0.54568E-02  4960   0.240E-01    0.213E-01
DAV:   3    -0.851585889260E+03    0.15844E-03   -0.78282E-04  5080   0.447E-02    0.115E-01
DAV:   4    -0.851586042740E+03   -0.15348E-03   -0.63027E-04  4800   0.330E-02    0.230E-02
DAV:   5    -0.851586043862E+03   -0.11217E-05   -0.13256E-04  5080   0.175E-02    0.106E-02
DAV:   6    -0.851586045733E+03   -0.18712E-05   -0.68091E-06  5040   0.390E-03    0.746E-03
DAV:   7    -0.851586049550E+03   -0.38168E-05   -0.49822E-06  4400   0.319E-03    0.307E-03
DAV:   8    -0.851586050731E+03   -0.11815E-05   -0.63521E-07  4480   0.151E-03    0.128E-03
DAV:   9    -0.851586053307E+03   -0.25755E-05   -0.25139E-07  3700   0.105E-03    0.604E-04
DAV:  10    -0.851586055248E+03   -0.19414E-05   -0.24921E-07  3640   0.122E-03    0.542E-04
DAV:  11    -0.851586056602E+03   -0.13543E-05   -0.11323E-07  3520   0.748E-04    0.537E-04
DAV:  12    -0.851586057999E+03   -0.13965E-05   -0.42460E-08  3520   0.327E-04    0.472E-04
DAV:  13    -0.851586058975E+03   -0.97581E-06   -0.30080E-08  3500   0.278E-04
   6 F= -.85945318E+03 E0= -.85945318E+03  d E =-.853564E-03  mag=     0.0000
       N       E                     dE             d eps       ncg     rms          rms(c)
DAV:   1    -0.851585869748E+03    0.18825E-03   -0.19915E+00  4480   0.172E+00    0.347E-01
DAV:   2    -0.851589103513E+03   -0.32338E-02   -0.37458E-02  4800   0.211E-01    0.185E-01
DAV:   3    -0.851589024309E+03    0.79204E-04   -0.60128E-04  5160   0.443E-02    0.970E-02
DAV:   4    -0.851589156182E+03   -0.13187E-03   -0.42019E-04  4720   0.298E-02    0.220E-02
DAV:   5    -0.851589157416E+03   -0.12342E-05   -0.90195E-05  5120   0.163E-02    0.949E-03
DAV:   6    -0.851589160264E+03   -0.28475E-05   -0.72147E-06  5040   0.477E-03    0.541E-03
DAV:   7    -0.851589163633E+03   -0.33694E-05   -0.13312E-06  4280   0.186E-03    0.221E-03
DAV:   8    -0.851589166165E+03   -0.25322E-05   -0.66455E-07  4440   0.123E-03    0.831E-04
DAV:   9    -0.851589169492E+03   -0.33271E-05   -0.10320E-07  3480   0.566E-04    0.589E-04
DAV:  10    -0.851589172814E+03   -0.33213E-05   -0.11432E-07  3500   0.540E-04    0.489E-04
DAV:  11    -0.851589174732E+03   -0.19184E-05   -0.93392E-08  3520   0.621E-04    0.467E-04
DAV:  12    -0.851589176273E+03   -0.15414E-05   -0.70186E-08  3480   0.477E-04    0.430E-04
DAV:  13    -0.851589177255E+03   -0.98139E-06   -0.29646E-08  3480   0.258E-04
   7 F= -.85945546E+03 E0= -.85945546E+03  d E =-.227800E-02  mag=    -0.0000
       N       E                     dE             d eps       ncg     rms          rms(c)
DAV:   1    -0.851589383618E+03   -0.20734E-03   -0.18099E-03  4960   0.650E-02    0.102E-02
DAV:   2    -0.851589385901E+03   -0.22826E-05   -0.36159E-05  5080   0.877E-03    0.576E-03
DAV:   3    -0.851589385797E+03    0.10338E-06   -0.12064E-06  4200   0.208E-03    0.327E-03
DAV:   4    -0.851589386034E+03   -0.23664E-06   -0.55102E-07  3960   0.131E-03    0.976E-04
DAV:   5    -0.851589386126E+03   -0.92230E-07   -0.94576E-08  3400   0.625E-04    0.541E-04
DAV:   6    -0.851589386161E+03   -0.35245E-07   -0.21905E-08  3280   0.299E-04
   8 F= -.85945567E+03 E0= -.85945567E+03  d E =-.216395E-03  mag=    -0.0000
       N       E                     dE             d eps       ncg     rms          rms(c)
DAV:   1    -0.851589706783E+03   -0.32066E-03   -0.63738E-03  4560   0.119E-01    0.192E-02
DAV:   2    -0.851589714170E+03   -0.73874E-05   -0.12367E-04  4960   0.159E-02    0.106E-02
DAV:   3    -0.851589713527E+03    0.64327E-06   -0.41222E-06  4560   0.375E-03    0.603E-03
DAV:   4    -0.851589713875E+03   -0.34845E-06   -0.17290E-06  4280   0.222E-03    0.172E-03
DAV:   5    -0.851589713968E+03   -0.93154E-07   -0.28240E-07  3800   0.107E-03    0.772E-04
DAV:   6    -0.851589713995E+03   -0.26885E-07   -0.56888E-08  3360   0.488E-04
   9 F= -.85945602E+03 E0= -.85945602E+03  d E =-.341584E-03  mag=    -0.0000
       N       E                     dE             d eps       ncg     rms          rms(c)
DAV:   1    -0.851590037792E+03   -0.32382E-03   -0.11328E-02  4560   0.152E-01    0.257E-02
DAV:   2    -0.851590050121E+03   -0.12328E-04   -0.20583E-04  4840   0.197E-02    0.138E-02
DAV:   3    -0.851590049265E+03    0.85604E-06   -0.62317E-06  4680   0.460E-03    0.781E-03
DAV:   4    -0.851590049997E+03   -0.73227E-06   -0.29317E-06  4200   0.282E-03    0.218E-03
DAV:   5    -0.851590050131E+03   -0.13410E-06   -0.50859E-07  4040   0.152E-03    0.947E-04
DAV:   6    -0.851590050177E+03   -0.46217E-07   -0.11460E-07  3320   0.751E-04
  10 F= -.85945637E+03 E0= -.85945637E+03  d E =-.353813E-03  mag=    -0.0000
       N       E                     dE             d eps       ncg     rms          rms(c)
DAV:   1    -0.851590340766E+03   -0.29063E-03   -0.14950E-02  4600   0.163E-01    0.295E-02
DAV:   2    -0.851590355983E+03   -0.15218E-04   -0.24833E-04  5060   0.201E-02    0.154E-02
DAV:   3    -0.851590355339E+03    0.64437E-06   -0.62897E-06  4680   0.460E-03    0.868E-03
DAV:   4    -0.851590356546E+03   -0.12067E-05   -0.38905E-06  4340   0.317E-03    0.238E-03
DAV:   5    -0.851590356731E+03   -0.18537E-06   -0.85065E-07  4120   0.211E-03    0.103E-03
DAV:   6    -0.851590356754E+03   -0.22643E-07   -0.20571E-07  3480   0.108E-03
  11 F= -.85945669E+03 E0= -.85945669E+03  d E =-.325286E-03  mag=    -0.0000
       N       E                     dE             d eps       ncg     rms          rms(c)
DAV:   1    -0.851590651588E+03   -0.29486E-03   -0.16365E-02  4480   0.161E-01    0.308E-02
DAV:   2    -0.851590667686E+03   -0.16098E-04   -0.25080E-04  5060   0.188E-02    0.160E-02
DAV:   3    -0.851590667247E+03    0.43901E-06   -0.53981E-06  4560   0.418E-03    0.897E-03
DAV:   4    -0.851590668717E+03   -0.14696E-05   -0.42202E-06  4300   0.318E-03    0.246E-03
DAV:   5    -0.851590669006E+03   -0.28974E-06   -0.11573E-06  4160   0.250E-03    0.103E-03
DAV:   6    -0.851590668977E+03    0.28769E-07   -0.26971E-07  3640   0.127E-03
  12 F= -.85945702E+03 E0= -.85945702E+03  d E =-.327938E-03  mag=    -0.0000
       N       E                     dE             d eps       ncg     rms          rms(c)
DAV:   1    -0.851590966389E+03   -0.29738E-03   -0.16343E-02  4520   0.166E-01    0.306E-02
DAV:   2    -0.851590982834E+03   -0.16445E-04   -0.24696E-04  4960   0.194E-02    0.164E-02
DAV:   3    -0.851590982235E+03    0.59914E-06   -0.56507E-06  4560   0.427E-03    0.914E-03
DAV:   4    -0.851590983603E+03   -0.13683E-05   -0.42238E-06  4340   0.325E-03    0.247E-03
DAV:   5    -0.851590983936E+03   -0.33302E-06   -0.11501E-06  4140   0.247E-03    0.106E-03
DAV:   6    -0.851590983975E+03   -0.38737E-07   -0.25713E-07  3600   0.124E-03
  13 F= -.85945735E+03 E0= -.85945735E+03  d E =-.323977E-03  mag=    -0.0000
       N       E                     dE             d eps       ncg     rms          rms(c)
DAV:   1    -0.851591253732E+03   -0.26980E-03   -0.17663E-02  4520   0.186E-01    0.314E-02
DAV:   2    -0.851591272443E+03   -0.18710E-04   -0.27395E-04  4920   0.227E-02    0.175E-02
DAV:   3    -0.851591271547E+03    0.89569E-06   -0.78860E-06  4840   0.514E-03    0.972E-03
DAV:   4    -0.851591272766E+03   -0.12194E-05   -0.43744E-06  4380   0.354E-03    0.256E-03
DAV:   5    -0.851591273134E+03   -0.36752E-06   -0.10668E-06  4120   0.241E-03    0.118E-03
DAV:   6    -0.851591273266E+03   -0.13191E-06   -0.25880E-07  3640   0.127E-03
  14 F= -.85945763E+03 E0= -.85945763E+03  d E =-.285226E-03  mag=    -0.0000
       N       E                     dE             d eps       ncg     rms          rms(c)
DAV:   1    -0.851591481293E+03   -0.20816E-03   -0.15396E-02  4520   0.178E-01    0.287E-02
DAV:   2    -0.851591498301E+03   -0.17008E-04   -0.23306E-04  5160   0.217E-02    0.161E-02
DAV:   3    -0.851591498090E+03    0.21118E-06   -0.72892E-06  4800   0.507E-03    0.882E-03
DAV:   4    -0.851591499293E+03   -0.12033E-05   -0.33891E-06  4240   0.342E-03    0.222E-03
DAV:   5    -0.851591499694E+03   -0.40037E-06   -0.87259E-07  3960   0.233E-03    0.119E-03
DAV:   6    -0.851591499882E+03   -0.18801E-06   -0.27134E-07  3600   0.135E-03
  15 F= -.85945783E+03 E0= -.85945783E+03  d E =-.202117E-03  mag=    -0.0000
       N       E                     dE             d eps       ncg     rms          rms(c)
DAV:   1    -0.851591729782E+03   -0.23009E-03   -0.14807E-02  4520   0.168E-01    0.269E-02
DAV:   2    -0.851591748138E+03   -0.18356E-04   -0.21718E-04  5080   0.195E-02    0.153E-02
DAV:   3    -0.851591749283E+03   -0.11449E-05   -0.56785E-06  4680   0.464E-03    0.796E-03
DAV:   4    -0.851591750878E+03   -0.15953E-05   -0.25881E-06  4160   0.310E-03    0.178E-03
DAV:   5    -0.851591751282E+03   -0.40388E-06   -0.62706E-07  3880   0.193E-03    0.115E-03
DAV:   6    -0.851591751601E+03   -0.31906E-06   -0.23121E-07  3440   0.130E-03
  16 F= -.85945804E+03 E0= -.85945804E+03  d E =-.205732E-03  mag=    -0.0000
       N       E                     dE             d eps       ncg     rms          rms(c)
DAV:   1    -0.851592105325E+03   -0.35404E-03   -0.22432E-02  4480   0.203E-01    0.332E-02
DAV:   2    -0.851592137320E+03   -0.31995E-04   -0.38044E-04  4760   0.244E-02    0.190E-02
DAV:   3    -0.851592138867E+03   -0.15466E-05   -0.86012E-06  4800   0.551E-03    0.978E-03
DAV:   4    -0.851592141475E+03   -0.26086E-05   -0.39347E-06  4200   0.345E-03    0.212E-03
DAV:   5    -0.851592141883E+03   -0.40721E-06   -0.75164E-07  4080   0.172E-03    0.125E-03
DAV:   6    -0.851592142212E+03   -0.32943E-06   -0.16869E-07  3340   0.110E-03
  17 F= -.85945836E+03 E0= -.85945836E+03  d E =-.321951E-03  mag=    -0.0000
       N       E                     dE             d eps       ncg     rms          rms(c)
DAV:   1    -0.851592624184E+03   -0.48230E-03   -0.46902E-02  4480   0.274E-01    0.495E-02
DAV:   2    -0.851592692307E+03   -0.68123E-04   -0.87412E-04  4680   0.335E-02    0.265E-02
DAV:   3    -0.851592693169E+03   -0.86187E-06   -0.15228E-05  4920   0.685E-03    0.145E-02
DAV:   4    -0.851592698809E+03   -0.56400E-05   -0.10234E-05  4440   0.484E-03    0.307E-03
DAV:   5    -0.851592699127E+03   -0.31752E-06   -0.19599E-06  4220   0.248E-03    0.168E-03
DAV:   6    -0.851592699323E+03   -0.19602E-06   -0.20767E-07  3460   0.108E-03
  18 F= -.85945882E+03 E0= -.85945882E+03  d E =-.462943E-03  mag=    -0.0000
       N       E                     dE             d eps       ncg     rms          rms(c)
DAV:   1    -0.851593437544E+03   -0.73842E-03   -0.91546E-02  4480   0.351E-01    0.697E-02
DAV:   2    -0.851593568405E+03   -0.13086E-03   -0.17002E-03  4800   0.419E-02    0.356E-02
DAV:   3    -0.851593566994E+03    0.14117E-05   -0.23607E-05  4720   0.789E-03    0.198E-02
DAV:   4    -0.851593577404E+03   -0.10410E-04   -0.21015E-05  4520   0.631E-03    0.436E-03
DAV:   5    -0.851593577699E+03   -0.29550E-06   -0.47612E-06  4400   0.403E-03    0.211E-03
DAV:   6    -0.851593577692E+03    0.75815E-08   -0.49095E-07  4200   0.167E-03
  19 F= -.85945958E+03 E0= -.85945958E+03  d E =-.754839E-03  mag=    -0.0000
       N       E                     dE             d eps       ncg     rms          rms(c)
DAV:   1    -0.851594490769E+03   -0.91307E-03   -0.15986E-01  4480   0.463E-01    0.915E-02
DAV:   2    -0.851594726475E+03   -0.23571E-03   -0.29659E-03  4720   0.556E-02    0.474E-02
DAV:   3    -0.851594718008E+03    0.84675E-05   -0.42198E-05  4800   0.106E-02    0.265E-02
DAV:   4    -0.851594731930E+03   -0.13922E-04   -0.36056E-05  4720   0.811E-03    0.604E-03
DAV:   5    -0.851594732568E+03   -0.63848E-06   -0.83053E-06  4520   0.538E-03    0.276E-03
DAV:   6    -0.851594732513E+03    0.55086E-07   -0.89433E-07  4200   0.229E-03
  20 F= -.85946058E+03 E0= -.85946058E+03  d E =-.999248E-03  mag=    -0.0000
       N       E                     dE             d eps       ncg     rms          rms(c)
DAV:   1    -0.851595718614E+03   -0.98605E-03   -0.22756E-01  4480   0.540E-01    0.108E-01
DAV:   2    -0.851596051663E+03   -0.33305E-03   -0.39982E-03  4680   0.625E-02    0.571E-02
DAV:   3    -0.851596039628E+03    0.12035E-04   -0.57065E-05  4920   0.122E-02    0.311E-02
DAV:   4    -0.851596056020E+03   -0.16391E-04   -0.43090E-05  4720   0.889E-03    0.731E-03
DAV:   5    -0.851596057890E+03   -0.18703E-05   -0.11797E-05  4580   0.674E-03    0.336E-03
DAV:   6    -0.851596057714E+03    0.17542E-06   -0.18709E-06  4360   0.353E-03
  21 F= -.85946171E+03 E0= -.85946171E+03  d E =-.113439E-02  mag=    -0.0000
       N       E                     dE             d eps       ncg     rms          rms(c)
DAV:   1    -0.851596903122E+03   -0.84523E-03   -0.32243E-01  4480   0.650E-01    0.128E-01
DAV:   2    -0.851597373750E+03   -0.47063E-03   -0.56427E-03  4620   0.757E-02    0.681E-02
DAV:   3    -0.851597357277E+03    0.16473E-04   -0.83760E-05  5000   0.150E-02    0.371E-02
DAV:   4    -0.851597378379E+03   -0.21102E-04   -0.60658E-05  4640   0.107E-02    0.861E-03
DAV:   5    -0.851597381228E+03   -0.28492E-05   -0.15750E-05  4760   0.755E-03    0.391E-03
DAV:   6    -0.851597381214E+03    0.14501E-07   -0.20890E-06  4440   0.366E-03
  22 F= -.85946281E+03 E0= -.85946281E+03  d E =-.109321E-02  mag=    -0.0000
       N       E                     dE             d eps       ncg     rms          rms(c)
DAV:   1    -0.851598148023E+03   -0.76679E-03   -0.43341E-01  4480   0.739E-01    0.150E-01
DAV:   2    -0.851598786308E+03   -0.63829E-03   -0.78530E-03  4800   0.872E-02    0.769E-02
DAV:   3    -0.851598771713E+03    0.14595E-04   -0.10454E-04  4880   0.161E-02    0.429E-02
DAV:   4    -0.851598802423E+03   -0.30710E-04   -0.94314E-05  4720   0.132E-02    0.915E-03
DAV:   5    -0.851598805586E+03   -0.31633E-05   -0.24090E-05  4720   0.979E-03    0.448E-03
DAV:   6    -0.851598804741E+03    0.84528E-06   -0.32133E-06  4400   0.460E-03
  23 F= -.85946397E+03 E0= -.85946397E+03  d E =-.116044E-02  mag=    -0.0000
       N       E                     dE             d eps       ncg     rms          rms(c)
DAV:   1    -0.851599784917E+03   -0.97933E-03   -0.43080E-01  4480   0.760E-01    0.153E-01
DAV:   2    -0.851600434980E+03   -0.65006E-03   -0.78657E-03  4840   0.920E-02    0.802E-02
DAV:   3    -0.851600433808E+03    0.11717E-05   -0.11717E-04  5000   0.180E-02    0.440E-02
DAV:   4    -0.851600472919E+03   -0.39111E-04   -0.96072E-05  4640   0.146E-02    0.915E-03
DAV:   5    -0.851600476795E+03   -0.38754E-05   -0.26304E-05  4720   0.115E-02    0.473E-03
DAV:   6    -0.851600474891E+03    0.19039E-05   -0.52055E-06  4480   0.609E-03    0.317E-03
DAV:   7    -0.851600478664E+03   -0.37732E-05   -0.28100E-06  4480   0.469E-03    0.177E-03
DAV:   8    -0.851600479084E+03   -0.41998E-06   -0.18959E-06  4600   0.383E-03
  24 F= -.85946537E+03 E0= -.85946537E+03  d E =-.140226E-02  mag=    -0.0000
       N       E                     dE             d eps       ncg     rms          rms(c)
DAV:   1    -0.851602130037E+03   -0.16514E-02   -0.28044E-01  4480   0.682E-01    0.131E-01
DAV:   2    -0.851602511841E+03   -0.38180E-03   -0.43692E-03  4920   0.824E-02    0.769E-02
DAV:   3    -0.851602546429E+03   -0.34588E-04   -0.16165E-04  4800   0.224E-02    0.344E-02
DAV:   4    -0.851602573356E+03   -0.26927E-04   -0.32098E-05  4980   0.965E-03    0.103E-02
DAV:   5    -0.851602577765E+03   -0.44091E-05   -0.66342E-06  4600   0.427E-03    0.383E-03
DAV:   6    -0.851602581019E+03   -0.32538E-05   -0.11528E-06  4360   0.230E-03    0.183E-03
DAV:   7    -0.851602583556E+03   -0.25366E-05   -0.73123E-07  4240   0.215E-03    0.694E-04
DAV:   8    -0.851602585607E+03   -0.20516E-05   -0.61704E-07  4020   0.204E-03    0.711E-04
DAV:   9    -0.851602586976E+03   -0.13684E-05   -0.32147E-07  3800   0.150E-03    0.459E-04
DAV:  10    -0.851602588543E+03   -0.15676E-05   -0.10497E-07  3380   0.590E-04    0.299E-04
DAV:  11    -0.851602589668E+03   -0.11245E-05   -0.41313E-08  3460   0.267E-04    0.280E-04
DAV:  12    -0.851602590277E+03   -0.60890E-06   -0.22203E-08  3480   0.235E-04
  25 F= -.85946724E+03 E0= -.85946724E+03  d E =-.187177E-02  mag=     0.0000
       N       E                     dE             d eps       ncg     rms          rms(c)
DAV:   1    -0.851604104861E+03   -0.15152E-02   -0.40403E-01  4480   0.841E-01    0.158E-01
DAV:   2    -0.851604741472E+03   -0.63661E-03   -0.72436E-03  4880   0.108E-01    0.931E-02
DAV:   3    -0.851604773210E+03   -0.31738E-04   -0.17888E-04  4760   0.245E-02    0.462E-02
DAV:   4    -0.851604818126E+03   -0.44916E-04   -0.84037E-05  4880   0.145E-02    0.969E-03
DAV:   5    -0.851604820304E+03   -0.21786E-05   -0.12234E-05  5040   0.591E-03    0.490E-03
DAV:   6    -0.851604822081E+03   -0.17762E-05   -0.13115E-06  4440   0.186E-03    0.263E-03
DAV:   7    -0.851604824854E+03   -0.27737E-05   -0.62368E-07  3960   0.120E-03    0.113E-03
DAV:   8    -0.851604825710E+03   -0.85576E-06   -0.96401E-08  3680   0.588E-04
  26 F= -.85946920E+03 E0= -.85946920E+03  d E =-.196005E-02  mag=     0.0000
       N       E                     dE             d eps       ncg     rms          rms(c)
DAV:   1    -0.851605221523E+03   -0.39667E-03   -0.57801E-01  4480   0.113E+00    0.191E-01
DAV:   2    -0.851606068780E+03   -0.84726E-03   -0.10609E-02  5080   0.151E-01    0.121E-01
DAV:   3    -0.851606056205E+03    0.12575E-04   -0.45786E-04  4840   0.403E-02    0.550E-02
DAV:   4    -0.851606101777E+03   -0.45572E-04   -0.13457E-04  5000   0.187E-02    0.150E-02
DAV:   5    -0.851606108788E+03   -0.70112E-05   -0.14883E-05  4960   0.676E-03    0.639E-03
DAV:   6    -0.851606113104E+03   -0.43156E-05   -0.16036E-06  4440   0.224E-03    0.308E-03
DAV:   7    -0.851606119251E+03   -0.61468E-05   -0.84721E-07  4140   0.159E-03    0.108E-03
DAV:   8    -0.851606122139E+03   -0.28879E-05   -0.32472E-07  4120   0.128E-03    0.665E-04
DAV:   9    -0.851606125989E+03   -0.38501E-05   -0.32020E-07  3640   0.121E-03    0.558E-04
DAV:  10    -0.851606128252E+03   -0.22637E-05   -0.26096E-07  3800   0.121E-03    0.389E-04
DAV:  11    -0.851606130033E+03   -0.17811E-05   -0.13061E-07  3320   0.718E-04    0.345E-04
DAV:  12    -0.851606131673E+03   -0.16392E-05   -0.59969E-08  3400   0.289E-04    0.305E-04
DAV:  13    -0.851606132115E+03   -0.44218E-06   -0.16608E-08  3740   0.192E-04
  27 F= -.85947027E+03 E0= -.85947027E+03  d E =-.107408E-02  mag=    -0.0000
       N       E                     dE             d eps       ncg     rms          rms(c)
DAV:   1    -0.851607587173E+03   -0.14555E-02   -0.70821E-02  4840   0.488E-01    0.601E-02
DAV:   2    -0.851607697878E+03   -0.11071E-03   -0.18948E-03  4840   0.715E-02    0.433E-02
DAV:   3    -0.851607670183E+03    0.27695E-04   -0.10501E-04  5280   0.187E-02    0.234E-02
DAV:   4    -0.851607665534E+03    0.46494E-05   -0.20531E-05  4760   0.771E-03    0.800E-03
DAV:   5    -0.851607665745E+03   -0.21105E-06   -0.32709E-06  4520   0.343E-03    0.196E-03
DAV:   6    -0.851607665857E+03   -0.11201E-06   -0.55890E-07  3520   0.139E-03
  28 F= -.85947181E+03 E0= -.85947181E+03  d E =-.153688E-02  mag=    -0.0000
       N       E                     dE             d eps       ncg     rms          rms(c)
DAV:   1    -0.851606785072E+03    0.88067E-03   -0.63671E-02  4840   0.466E-01    0.583E-02
DAV:   2    -0.851606882183E+03   -0.97111E-04   -0.16682E-03  4880   0.680E-02    0.415E-02
DAV:   3    -0.851606857493E+03    0.24690E-04   -0.97966E-05  5400   0.183E-02    0.220E-02
DAV:   4    -0.851606853948E+03    0.35443E-05   -0.18404E-05  4920   0.752E-03    0.754E-03
DAV:   5    -0.851606854325E+03   -0.37616E-06   -0.27826E-06  4280   0.321E-03    0.197E-03
DAV:   6    -0.851606854449E+03   -0.12493E-06   -0.47358E-07  3560   0.131E-03
  29 F= -.85947100E+03 E0= -.85947100E+03  d E =0.813832E-03  mag=    -0.0000
       N       E                     dE             d eps       ncg     rms          rms(c)
DAV:   1    -0.851607353965E+03   -0.49964E-03   -0.39109E-03  4720   0.112E-01    0.140E-02
DAV:   2    -0.851607360058E+03   -0.60923E-05   -0.10132E-04  5020   0.164E-02    0.100E-02
DAV:   3    -0.851607358687E+03    0.13704E-05   -0.54370E-06  4860   0.422E-03    0.546E-03
DAV:   4    -0.851607358501E+03    0.18650E-06   -0.11207E-06  3920   0.181E-03    0.182E-03
DAV:   5    -0.851607358574E+03   -0.73735E-07   -0.20907E-07  3520   0.918E-04    0.522E-04
DAV:   6    -0.851607358616E+03   -0.41175E-07   -0.51713E-08  3380   0.488E-04
  30 F= -.85947150E+03 E0= -.85947150E+03  d E =-.503149E-03  mag=    -0.0000
       N       E                     dE             d eps       ncg     rms          rms(c)
DAV:   1    -0.851607921020E+03   -0.56245E-03   -0.12346E-02  4680   0.198E-01    0.249E-02
DAV:   2    -0.851607940362E+03   -0.19342E-04   -0.31837E-04  4760   0.288E-02    0.176E-02
DAV:   3    -0.851607935836E+03    0.45262E-05   -0.16001E-05  5280   0.726E-03    0.967E-03
DAV:   4    -0.851607934972E+03    0.86363E-06   -0.37042E-06  4320   0.324E-03    0.308E-03
DAV:   5    -0.851607935028E+03   -0.55363E-07   -0.59227E-07  3760   0.146E-03    0.860E-04
DAV:   6    -0.851607935062E+03   -0.34321E-07   -0.10560E-07  3300   0.720E-04
  31 F= -.85947207E+03 E0= -.85947207E+03  d E =-.572304E-03  mag=    -0.0000
       N       E                     dE             d eps       ncg     rms          rms(c)
DAV:   1    -0.851608096899E+03   -0.16187E-03   -0.18030E-02  4600   0.236E-01    0.301E-02
DAV:   2    -0.851608125009E+03   -0.28110E-04   -0.45662E-04  4840   0.340E-02    0.211E-02
DAV:   3    -0.851608118645E+03    0.63648E-05   -0.21734E-05  5320   0.846E-03    0.117E-02
DAV:   4    -0.851608117420E+03    0.12251E-05   -0.56380E-06  4700   0.398E-03    0.353E-03
DAV:   5    -0.851608117537E+03   -0.11722E-06   -0.85722E-07  3680   0.173E-03    0.106E-03
DAV:   6    -0.851608117601E+03   -0.63854E-07   -0.14374E-07  3360   0.886E-04
  32 F= -.85947225E+03 E0= -.85947225E+03  d E =-.172186E-03  mag=    -0.0000
       N       E                     dE             d eps       ncg     rms          rms(c)
DAV:   1    -0.851608130686E+03   -0.13150E-04   -0.18068E-05  4600   0.684E-03    0.106E-03
DAV:   2    -0.851608130728E+03   -0.41626E-07   -0.44216E-07  3820   0.121E-03    0.713E-04
DAV:   3    -0.851608130757E+03   -0.29366E-07   -0.58473E-08  3240   0.610E-04    0.446E-04
DAV:   4    -0.851608130825E+03   -0.67281E-07   -0.51228E-08  3200   0.593E-04    0.310E-04
DAV:   5    -0.851608130825E+03   -0.82946E-09   -0.34298E-08  3320   0.485E-04    0.292E-04
DAV:   6    -0.851608130849E+03   -0.23159E-07   -0.15598E-09  3080   0.141E-04
  33 F= -.85947226E+03 E0= -.85947226E+03  d E =-.119178E-04  mag=     0.0000
       N       E                     dE             d eps       ncg     rms          rms(c)
DAV:   1    -0.851608155626E+03   -0.24800E-04   -0.73000E-05  4960   0.136E-02    0.211E-03
DAV:   2    -0.851608155733E+03   -0.10728E-06   -0.16018E-06  3940   0.186E-03    0.131E-03
DAV:   3    -0.851608155729E+03    0.41910E-08   -0.80649E-08  3280   0.571E-04    0.745E-04
DAV:   4    -0.851608155744E+03   -0.15272E-07   -0.35273E-08  3040   0.357E-04    0.340E-04
DAV:   5    -0.851608155751E+03   -0.65775E-08   -0.46225E-09  3360   0.180E-04    0.291E-04
DAV:   6    -0.851608155754E+03   -0.29759E-08    0.11986E-09  3300   0.842E-05
  34 F= -.85947228E+03 E0= -.85947228E+03  d E =-.221204E-04  mag=     0.0000
       N       E                     dE             d eps       ncg     rms          rms(c)
DAV:   1    -0.851608190077E+03   -0.34326E-04   -0.15979E-04  4680   0.198E-02    0.312E-03
DAV:   2    -0.851608190306E+03   -0.22911E-06   -0.34627E-06  4080   0.268E-03    0.190E-03
DAV:   3    -0.851608190282E+03    0.24265E-07   -0.16048E-07  3320   0.807E-04    0.106E-03
DAV:   4    -0.851608190292E+03   -0.10266E-07   -0.77473E-08  3120   0.514E-04    0.398E-04
DAV:   5    -0.851608190292E+03    0.81491E-09   -0.13642E-08  3240   0.272E-04    0.301E-04
DAV:   6    -0.851608190292E+03   -0.34197E-09   -0.11917E-09  3200   0.128E-04
  35 F= -.85947231E+03 E0= -.85947231E+03  d E =-.302445E-04  mag=     0.0000
       N       E                     dE             d eps       ncg     rms          rms(c)
DAV:   1    -0.851608231325E+03   -0.41034E-04   -0.27101E-04  4640   0.253E-02    0.407E-03
DAV:   2    -0.851608231723E+03   -0.39727E-06   -0.58111E-06  4480   0.338E-03    0.245E-03
DAV:   3    -0.851608231677E+03    0.46064E-07   -0.18733E-07  3240   0.886E-04    0.135E-03
DAV:   4    -0.851608231693E+03   -0.16596E-07   -0.12695E-07  3240   0.626E-04    0.466E-04
DAV:   5    -0.851608231693E+03    0.72760E-09   -0.25512E-08  3040   0.361E-04    0.312E-04
DAV:   6    -0.851608231691E+03    0.10477E-08   -0.42366E-09  3160   0.165E-04
  36 F= -.85947235E+03 E0= -.85947235E+03  d E =-.356139E-04  mag=     0.0000
       N       E                     dE             d eps       ncg     rms          rms(c)
DAV:   1    -0.851608277158E+03   -0.45465E-04   -0.39228E-04  4560   0.296E-02    0.493E-03
DAV:   2    -0.851608277724E+03   -0.56578E-06   -0.81299E-06  4680   0.390E-03    0.290E-03
DAV:   3    -0.851608277665E+03    0.59190E-07   -0.22657E-07  3280   0.968E-04    0.158E-03
DAV:   4    -0.851608277687E+03   -0.22672E-07   -0.15667E-07  3260   0.702E-04    0.509E-04
DAV:   5    -0.851608277688E+03   -0.54570E-09   -0.36791E-08  3120   0.451E-04    0.322E-04
DAV:   6    -0.851608277684E+03    0.39799E-08   -0.83118E-09  3220   0.219E-04
  37 F= -.85947238E+03 E0= -.85947238E+03  d E =-.387280E-04  mag=     0.0000
       N       E                     dE             d eps       ncg     rms          rms(c)
DAV:   1    -0.851608324903E+03   -0.47215E-04   -0.52645E-04  4560   0.329E-02    0.574E-03
DAV:   2    -0.851608325646E+03   -0.74318E-06   -0.10435E-05  4720   0.424E-03    0.331E-03
DAV:   3    -0.851608325580E+03    0.65847E-07   -0.26627E-07  3360   0.103E-03    0.179E-03
DAV:   4    -0.851608325613E+03   -0.32327E-07   -0.19069E-07  3360   0.753E-04    0.561E-04
DAV:   5    -0.851608325614E+03   -0.15207E-08   -0.48238E-08  3160   0.509E-04    0.330E-04
DAV:   6    -0.851608325609E+03    0.53551E-08   -0.11166E-08  3280   0.247E-04
  38 F= -.85947242E+03 E0= -.85947242E+03  d E =-.391686E-04  mag=     0.0000
       N       E                     dE             d eps       ncg     rms          rms(c)
DAV:   1    -0.851608380634E+03   -0.55020E-04   -0.80789E-04  4560   0.387E-02    0.715E-03
DAV:   2    -0.851608381748E+03   -0.11142E-05   -0.15282E-05  4640   0.486E-03    0.406E-03
DAV:   3    -0.851608381672E+03    0.76128E-07   -0.36350E-07  3640   0.116E-03    0.218E-03
DAV:   4    -0.851608381725E+03   -0.53144E-07   -0.24884E-07  3400   0.827E-04    0.660E-04
DAV:   5    -0.851608381727E+03   -0.18335E-08   -0.69725E-08  3160   0.606E-04    0.346E-04
DAV:   6    -0.851608381719E+03    0.78580E-08   -0.19575E-08  3240   0.315E-04
  39 F= -.85947247E+03 E0= -.85947247E+03  d E =-.447657E-04  mag=     0.0000
       N       E                     dE             d eps       ncg     rms          rms(c)
DAV:   1    -0.851608450318E+03   -0.68591E-04   -0.12387E-03  4560   0.452E-02    0.888E-03
DAV:   2    -0.851608451988E+03   -0.16696E-05   -0.22318E-05  4680   0.547E-03    0.496E-03
DAV:   3    -0.851608451892E+03    0.95111E-07   -0.48168E-07  3800   0.128E-03    0.264E-03
DAV:   4    -0.851608451983E+03   -0.90498E-07   -0.32222E-07  3480   0.906E-04    0.750E-04
DAV:   5    -0.851608451988E+03   -0.53260E-08   -0.10068E-07  3200   0.726E-04    0.364E-04
DAV:   6    -0.851608451977E+03    0.11198E-07   -0.34110E-08  3240   0.428E-04
  40 F= -.85947252E+03 E0= -.85947252E+03  d E =-.557707E-04  mag=     0.0000
       N       E                     dE             d eps       ncg     rms          rms(c)
DAV:   1    -0.851608536880E+03   -0.84892E-04   -0.19409E-03  4560   0.540E-02    0.111E-02
DAV:   2    -0.851608539435E+03   -0.25549E-05   -0.33962E-05  4720   0.636E-03    0.614E-03
DAV:   3    -0.851608539316E+03    0.11861E-06   -0.67494E-07  3960   0.144E-03    0.326E-03
DAV:   4    -0.851608539457E+03   -0.14088E-06   -0.47982E-07  3840   0.104E-03    0.895E-04
DAV:   5    -0.851608539469E+03   -0.12398E-07   -0.16015E-07  3480   0.863E-04    0.412E-04
DAV:   6    -0.851608539461E+03    0.87821E-08   -0.51637E-08  3240   0.556E-04
  41 F= -.85947259E+03 E0= -.85947259E+03  d E =-.692365E-04  mag=     0.0000
       N       E                     dE             d eps       ncg     rms          rms(c)
DAV:   1    -0.851608639718E+03   -0.10025E-03   -0.29498E-03  4500   0.663E-02    0.137E-02
DAV:   2    -0.851608643578E+03   -0.38599E-05   -0.51288E-05  4700   0.777E-03    0.760E-03
DAV:   3    -0.851608643408E+03    0.16952E-06   -0.10286E-06  4120   0.177E-03    0.403E-03
DAV:   4    -0.851608643634E+03   -0.22571E-06   -0.72096E-07  3880   0.126E-03    0.107E-03
DAV:   5    -0.851608643651E+03   -0.17135E-07   -0.24324E-07  3520   0.105E-03    0.467E-04
DAV:   6    -0.851608643644E+03    0.66648E-08   -0.79174E-08  3320   0.704E-04
  42 F= -.85947267E+03 E0= -.85947267E+03  d E =-.817670E-04  mag=     0.0000
       N       E                     dE             d eps       ncg     rms          rms(c)
DAV:   1    -0.851608762620E+03   -0.11897E-03   -0.44065E-03  4480   0.827E-02    0.167E-02
DAV:   2    -0.851608768434E+03   -0.58137E-05   -0.77143E-05  4640   0.981E-03    0.939E-03
DAV:   3    -0.851608768174E+03    0.25949E-06   -0.16255E-06  4160   0.225E-03    0.497E-03
DAV:   4    -0.851608768510E+03   -0.33604E-06   -0.11220E-06  4040   0.159E-03    0.132E-03
DAV:   5    -0.851608768541E+03   -0.30195E-07   -0.38040E-07  3720   0.129E-03    0.559E-04
DAV:   6    -0.851608768522E+03    0.18241E-07   -0.99687E-08  3320   0.809E-04
  43 F= -.85947277E+03 E0= -.85947277E+03  d E =-.975296E-04  mag=     0.0000
       N       E                     dE             d eps       ncg     rms          rms(c)
DAV:   1    -0.851608894848E+03   -0.12631E-03   -0.60202E-03  4480   0.990E-02    0.196E-02
DAV:   2    -0.851608902855E+03   -0.80071E-05   -0.10514E-04  4640   0.118E-02    0.112E-02
DAV:   3    -0.851608902509E+03    0.34578E-06   -0.24353E-06  4360   0.282E-03    0.584E-03
DAV:   4    -0.851608903010E+03   -0.50079E-06   -0.14865E-06  4000   0.193E-03    0.157E-03
DAV:   5    -0.851608903078E+03   -0.68088E-07   -0.55899E-07  3760   0.164E-03    0.636E-04
DAV:   6    -0.851608903033E+03    0.44492E-07   -0.17100E-07  3440   0.108E-03
  44 F= -.85947287E+03 E0= -.85947287E+03  d E =-.101500E-03  mag=     0.0000
       N       E                     dE             d eps       ncg     rms          rms(c)
DAV:   1    -0.851609057454E+03   -0.15438E-03   -0.82201E-03  4480   0.116E-01    0.230E-02
DAV:   2    -0.851609068423E+03   -0.10969E-04   -0.14287E-04  4640   0.139E-02    0.132E-02
DAV:   3    -0.851609068027E+03    0.39595E-06   -0.34050E-06  4420   0.334E-03    0.682E-03
DAV:   4    -0.851609068757E+03   -0.73006E-06   -0.19503E-06  4080   0.222E-03    0.182E-03
DAV:   5    -0.851609068851E+03   -0.94216E-07   -0.73023E-07  3840   0.186E-03    0.727E-04
DAV:   6    -0.851609068823E+03    0.28027E-07   -0.22532E-07  3560   0.126E-03
  45 F= -.85947300E+03 E0= -.85947300E+03  d E =-.126008E-03  mag=     0.0000
       N       E                     dE             d eps       ncg     rms          rms(c)
DAV:   1    -0.851609262157E+03   -0.19331E-03   -0.11645E-02  4480   0.137E-01    0.275E-02
DAV:   2    -0.851609277815E+03   -0.15658E-04   -0.20388E-04  4640   0.163E-02    0.155E-02
DAV:   3    -0.851609277375E+03    0.44033E-06   -0.44257E-06  4440   0.380E-03    0.808E-03
DAV:   4    -0.851609278484E+03   -0.11090E-05   -0.28322E-06  4160   0.262E-03    0.207E-03
DAV:   5    -0.851609278632E+03   -0.14794E-06   -0.10429E-06  3940   0.220E-03    0.858E-04
DAV:   6    -0.851609278589E+03    0.42666E-07   -0.31361E-07  3760   0.151E-03
  46 F= -.85947316E+03 E0= -.85947316E+03  d E =-.160964E-03  mag=     0.0000
       N       E                     dE             d eps       ncg     rms          rms(c)
DAV:   1    -0.851609527647E+03   -0.24902E-03   -0.16580E-02  4480   0.163E-01    0.329E-02
DAV:   2    -0.851609550183E+03   -0.22536E-04   -0.29596E-04  4720   0.196E-02    0.182E-02
DAV:   3    -0.851609549687E+03    0.49647E-06   -0.59226E-06  4680   0.438E-03    0.959E-03
DAV:   4    -0.851609551315E+03   -0.16281E-05   -0.41925E-06  4180   0.315E-03    0.234E-03
DAV:   5    -0.851609551567E+03   -0.25237E-06   -0.15563E-06  4020   0.272E-03    0.104E-03
DAV:   6    -0.851609551419E+03    0.14865E-06   -0.40200E-07  3800   0.171E-03
  47 F= -.85947337E+03 E0= -.85947337E+03  d E =-.213069E-03  mag=     0.0000
       N       E                     dE             d eps       ncg     rms          rms(c)
DAV:   1    -0.851609845450E+03   -0.29388E-03   -0.21613E-02  4480   0.189E-01    0.377E-02
DAV:   2    -0.851609875041E+03   -0.29591E-04   -0.38860E-04  4760   0.230E-02    0.209E-02
DAV:   3    -0.851609874651E+03    0.38982E-06   -0.79094E-06  4720   0.513E-03    0.110E-02
DAV:   4    -0.851609876850E+03   -0.21990E-05   -0.55682E-06  4280   0.375E-03    0.260E-03
DAV:   5    -0.851609877295E+03   -0.44461E-06   -0.21963E-06  4160   0.340E-03    0.119E-03
DAV:   6    -0.851609876941E+03    0.35390E-06   -0.57567E-07  3800   0.207E-03
  48 F= -.85947363E+03 E0= -.85947363E+03  d E =-.254680E-03  mag=     0.0000
       N       E                     dE             d eps       ncg     rms          rms(c)
DAV:   1    -0.851610241132E+03   -0.36384E-03   -0.25752E-02  4480   0.212E-01    0.413E-02
DAV:   2    -0.851610275895E+03   -0.34763E-04   -0.44888E-04  4800   0.257E-02    0.234E-02
DAV:   3    -0.851610275830E+03    0.65120E-07   -0.10015E-05  4840   0.592E-03    0.119E-02
DAV:   4    -0.851610278448E+03   -0.26180E-05   -0.64087E-06  4300   0.419E-03    0.281E-03
DAV:   5    -0.851610279119E+03   -0.67063E-06   -0.26841E-06  4360   0.389E-03    0.131E-03
DAV:   6    -0.851610278643E+03    0.47612E-06   -0.79073E-07  3800   0.247E-03
  49 F= -.85947395E+03 E0= -.85947395E+03  d E =-.323084E-03  mag=     0.0000
       N       E                     dE             d eps       ncg     rms          rms(c)
DAV:   1    -0.851610735549E+03   -0.45643E-03   -0.29202E-02  4480   0.231E-01    0.438E-02
DAV:   2    -0.851610773183E+03   -0.37634E-04   -0.47412E-04  4720   0.278E-02    0.258E-02
DAV:   3    -0.851610773770E+03   -0.58724E-06   -0.12364E-05  4880   0.672E-03    0.124E-02
DAV:   4    -0.851610776585E+03   -0.28147E-05   -0.68690E-06  4680   0.445E-03    0.301E-03
DAV:   5    -0.851610777453E+03   -0.86820E-06   -0.28159E-06  4340   0.406E-03    0.139E-03
DAV:   6    -0.851610777147E+03    0.30664E-06   -0.11084E-06  3940   0.296E-03
  50 F= -.85947437E+03 E0= -.85947437E+03  d E =-.418827E-03  mag=     0.0000
       N       E                     dE             d eps       ncg     rms          rms(c)
DAV:   1    -0.851611331345E+03   -0.55389E-03   -0.35818E-02  4480   0.263E-01    0.479E-02
DAV:   2    -0.851611375866E+03   -0.44521E-04   -0.55588E-04  4880   0.318E-02    0.290E-02
DAV:   3    -0.851611376836E+03   -0.97012E-06   -0.16568E-05  5100   0.789E-03    0.132E-02
DAV:   4    -0.851611379989E+03   -0.31537E-05   -0.81481E-06  4820   0.481E-03    0.330E-03
DAV:   5    -0.851611380960E+03   -0.97030E-06   -0.27049E-06  4400   0.389E-03    0.150E-03
DAV:   6    -0.851611381074E+03   -0.11439E-06   -0.11037E-06  4000   0.297E-03
  51 F= -.85947490E+03 E0= -.85947490E+03  d E =-.529647E-03  mag=     0.0000
       N       E                     dE             d eps       ncg     rms          rms(c)
DAV:   1    -0.851612023456E+03   -0.64250E-03   -0.44427E-02  4480   0.296E-01    0.527E-02
DAV:   2    -0.851612076919E+03   -0.53463E-04   -0.65514E-04  4960   0.356E-02    0.325E-02
DAV:   3    -0.851612079188E+03   -0.22687E-05   -0.20751E-05  4960   0.891E-03    0.140E-02
DAV:   4    -0.851612082954E+03   -0.37663E-05   -0.95825E-06  4840   0.533E-03    0.350E-03
DAV:   5    -0.851612084493E+03   -0.15387E-05   -0.33960E-06  4480   0.458E-03    0.162E-03
DAV:   6    -0.851612084475E+03    0.18154E-07   -0.16360E-06  4480   0.363E-03
  52 F= -.85947554E+03 E0= -.85947554E+03  d E =-.636098E-03  mag=     0.0000
       N       E                     dE             d eps       ncg     rms          rms(c)
DAV:   1    -0.851612828422E+03   -0.74393E-03   -0.57913E-02  4480   0.341E-01    0.592E-02
DAV:   2    -0.851612897866E+03   -0.69445E-04   -0.82900E-04  5000   0.407E-02    0.366E-02
DAV:   3    -0.851612901816E+03   -0.39501E-05   -0.26903E-05  4920   0.102E-02    0.154E-02
DAV:   4    -0.851612906472E+03   -0.46561E-05   -0.11294E-05  4840   0.580E-03    0.381E-03
DAV:   5    -0.851612908236E+03   -0.17638E-05   -0.33905E-06  4440   0.456E-03    0.173E-03
DAV:   6    -0.851612908618E+03   -0.38229E-06   -0.16651E-06  4520   0.367E-03
  53 F= -.85947631E+03 E0= -.85947631E+03  d E =-.770483E-03  mag=     0.0000
       N       E                     dE             d eps       ncg     rms          rms(c)
DAV:   1    -0.851613777349E+03   -0.86911E-03   -0.83565E-02  4480   0.403E-01    0.693E-02
DAV:   2    -0.851613877926E+03   -0.10058E-03   -0.11751E-03  5000   0.476E-02    0.433E-02
DAV:   3    -0.851613882188E+03   -0.42620E-05   -0.37209E-05  4960   0.118E-02    0.185E-02
DAV:   4    -0.851613888572E+03   -0.63845E-05   -0.16490E-05  4840   0.689E-03    0.448E-03
DAV:   5    -0.851613891040E+03   -0.24675E-05   -0.48364E-06  4520   0.543E-03    0.201E-03
DAV:   6    -0.851613891415E+03   -0.37535E-06   -0.23512E-06  4440   0.438E-03
  54 F= -.85947726E+03 E0= -.85947726E+03  d E =-.952232E-03  mag=     0.0000
       N       E                     dE             d eps       ncg     rms          rms(c)
DAV:   1    -0.851614879715E+03   -0.98867E-03   -0.12155E-01  4480   0.487E-01    0.820E-02
DAV:   2    -0.851615027331E+03   -0.14762E-03   -0.16970E-03  5000   0.571E-02    0.515E-02
DAV:   3    -0.851615033039E+03   -0.57080E-05   -0.54947E-05  4920   0.144E-02    0.219E-02
DAV:   4    -0.851615041929E+03   -0.88900E-05   -0.22538E-05  4860   0.809E-03    0.535E-03
DAV:   5    -0.851615044839E+03   -0.29093E-05   -0.59430E-06  4620   0.585E-03    0.241E-03
DAV:   6    -0.851615046099E+03   -0.12601E-05   -0.31056E-06  4480   0.506E-03    0.141E-03
DAV:   7    -0.851615047616E+03   -0.15176E-05   -0.15818E-06  4480   0.355E-03    0.836E-04
DAV:   8    -0.851615048789E+03   -0.11730E-05   -0.31405E-07  3800   0.153E-03    0.507E-04
DAV:   9    -0.851615051286E+03   -0.24967E-05   -0.10057E-07  3320   0.458E-04    0.492E-04
DAV:  10    -0.851615052786E+03   -0.14999E-05   -0.49519E-08  3520   0.457E-04    0.371E-04
DAV:  11    -0.851615053999E+03   -0.12132E-05   -0.53844E-08  3320   0.455E-04    0.374E-04
DAV:  12    -0.851615054602E+03   -0.60262E-06   -0.30614E-08  3520   0.367E-04
  55 F= -.85947842E+03 E0= -.85947842E+03  d E =-.116235E-02  mag=    -0.0000
       N       E                     dE             d eps       ncg     rms          rms(c)
DAV:   1    -0.851616112113E+03   -0.10581E-02   -0.16641E-01  4480   0.575E-01    0.965E-02
DAV:   2    -0.851616316666E+03   -0.20455E-03   -0.23109E-03  4760   0.673E-02    0.603E-02
DAV:   3    -0.851616328212E+03   -0.11546E-04   -0.76723E-05  4960   0.171E-02    0.252E-02
DAV:   4    -0.851616339220E+03   -0.11008E-04   -0.26568E-05  4880   0.851E-03    0.627E-03
DAV:   5    -0.851616340190E+03   -0.97029E-06   -0.48735E-06  4380   0.409E-03    0.271E-03
DAV:   6    -0.851616341413E+03   -0.12225E-05   -0.61594E-07  4120   0.151E-03    0.136E-03
DAV:   7    -0.851616342770E+03   -0.13575E-05   -0.16203E-07  3340   0.732E-04    0.604E-04
DAV:   8    -0.851616344127E+03   -0.13567E-05   -0.12333E-07  3580   0.588E-04    0.562E-04
DAV:   9    -0.851616345217E+03   -0.10902E-05   -0.69340E-08  3340   0.565E-04    0.394E-04
DAV:  10    -0.851616346064E+03   -0.84723E-06   -0.77052E-08  3540   0.572E-04
  56 F= -.85947972E+03 E0= -.85947972E+03  d E =-.129888E-02  mag=    -0.0000
       N       E                     dE             d eps       ncg     rms          rms(c)
DAV:   1    -0.851617561043E+03   -0.12158E-02   -0.22289E-01  4480   0.686E-01    0.115E-01
DAV:   2    -0.851617825948E+03   -0.26491E-03   -0.30902E-03  4800   0.819E-02    0.716E-02
DAV:   3    -0.851617843154E+03   -0.17206E-04   -0.11178E-04  4960   0.210E-02    0.291E-02
DAV:   4    -0.851617859576E+03   -0.16422E-04   -0.38721E-05  4960   0.102E-02    0.766E-03
DAV:   5    -0.851617861217E+03   -0.16407E-05   -0.78400E-06  4840   0.525E-03    0.319E-03
DAV:   6    -0.851617862819E+03   -0.16024E-05   -0.97450E-07  4280   0.187E-03    0.157E-03
DAV:   7    -0.851617865039E+03   -0.22199E-05   -0.27316E-07  3560   0.102E-03    0.759E-04
DAV:   8    -0.851617866854E+03   -0.18148E-05   -0.25265E-07  3880   0.116E-03    0.548E-04
DAV:   9    -0.851617868418E+03   -0.15643E-05   -0.27856E-07  3580   0.129E-03    0.480E-04
DAV:  10    -0.851617869465E+03   -0.10465E-05   -0.12880E-07  3480   0.808E-04    0.371E-04
DAV:  11    -0.851617870488E+03   -0.10235E-05   -0.44753E-08  3400   0.297E-04    0.371E-04
DAV:  12    -0.851617871223E+03   -0.73449E-06   -0.23012E-08  3440   0.193E-04
  57 F= -.85948123E+03 E0= -.85948123E+03  d E =-.150943E-02  mag=    -0.0000
       N       E                     dE             d eps       ncg     rms          rms(c)
DAV:   1    -0.851619225769E+03   -0.13553E-02   -0.32019E-01  4480   0.837E-01    0.142E-01
DAV:   2    -0.851619609866E+03   -0.38410E-03   -0.47017E-03  4840   0.103E-01    0.866E-02
DAV:   3    -0.851619632366E+03   -0.22500E-04   -0.16962E-04  4960   0.258E-02    0.368E-02
DAV:   4    -0.851619657985E+03   -0.25620E-04   -0.60547E-05  5000   0.129E-02    0.944E-03
DAV:   5    -0.851619659885E+03   -0.18990E-05   -0.11673E-05  5000   0.649E-03    0.395E-03
DAV:   6    -0.851619661663E+03   -0.17783E-05   -0.13144E-06  4440   0.200E-03    0.211E-03
DAV:   7    -0.851619664405E+03   -0.27424E-05   -0.48955E-07  3920   0.109E-03    0.107E-03
DAV:   8    -0.851619666170E+03   -0.17643E-05   -0.13422E-07  3800   0.672E-04    0.559E-04
DAV:   9    -0.851619668359E+03   -0.21900E-05   -0.10415E-07  3340   0.520E-04    0.464E-04
DAV:  10    -0.851619669905E+03   -0.15458E-05   -0.11094E-07  3520   0.669E-04    0.391E-04
DAV:  11    -0.851619670726E+03   -0.82065E-06   -0.74324E-08  3580   0.564E-04
  58 F= -.85948297E+03 E0= -.85948297E+03  d E =-.173557E-02  mag=    -0.0000
       N       E                     dE             d eps       ncg     rms          rms(c)
DAV:   1    -0.851620912815E+03   -0.12429E-02   -0.45488E-01  4480   0.103E+00    0.169E-01
DAV:   2    -0.851621497267E+03   -0.58445E-03   -0.71289E-03  4840   0.130E-01    0.105E-01
DAV:   3    -0.851621524483E+03   -0.27215E-04   -0.30933E-04  5000   0.354E-02    0.432E-02
DAV:   4    -0.851621559133E+03   -0.34651E-04   -0.84714E-05  4840   0.157E-02    0.128E-02
DAV:   5    -0.851621561067E+03   -0.19332E-05   -0.15875E-05  4880   0.754E-03    0.506E-03
DAV:   6    -0.851621563620E+03   -0.25538E-05   -0.20673E-06  4440   0.259E-03    0.228E-03
DAV:   7    -0.851621566477E+03   -0.28571E-05   -0.37197E-07  3640   0.108E-03    0.105E-03
DAV:   8    -0.851621569153E+03   -0.26757E-05   -0.21634E-07  3720   0.807E-04    0.643E-04
DAV:   9    -0.851621571693E+03   -0.25401E-05   -0.14684E-07  3400   0.735E-04    0.470E-04
DAV:  10    -0.851621573255E+03   -0.15620E-05   -0.16633E-07  3720   0.870E-04    0.415E-04
DAV:  11    -0.851621574091E+03   -0.83519E-06   -0.95193E-08  3360   0.654E-04
  59 F= -.85948473E+03 E0= -.85948473E+03  d E =-.176656E-02  mag=     0.0000
       N       E                     dE             d eps       ncg     rms          rms(c)
DAV:   1    -0.851620995334E+03    0.57792E-03   -0.87978E-01  4480   0.154E+00    0.232E-01
DAV:   2    -0.851622197235E+03   -0.12019E-02   -0.16437E-02  4960   0.205E-01    0.149E-01
DAV:   3    -0.851622116324E+03    0.80911E-04   -0.80440E-04  5040   0.548E-02    0.683E-02
DAV:   4    -0.851622160221E+03   -0.43897E-04   -0.21023E-04  4740   0.250E-02    0.195E-02
DAV:   5    -0.851622166468E+03   -0.62466E-05   -0.26455E-05  5000   0.949E-03    0.773E-03
DAV:   6    -0.851622169830E+03   -0.33628E-05   -0.26141E-06  4480   0.298E-03    0.400E-03
DAV:   7    -0.851622175369E+03   -0.55383E-05   -0.11778E-06  4120   0.187E-03    0.141E-03
DAV:   8    -0.851622178332E+03   -0.29637E-05   -0.29568E-07  4080   0.979E-04    0.765E-04
DAV:   9    -0.851622182258E+03   -0.39255E-05   -0.16471E-07  3320   0.608E-04    0.634E-04
DAV:  10    -0.851622185802E+03   -0.35444E-05   -0.16902E-07  3560   0.718E-04    0.460E-04
DAV:  11    -0.851622187613E+03   -0.18112E-05   -0.16231E-07  3600   0.898E-04    0.447E-04
DAV:  12    -0.851622188894E+03   -0.12805E-05   -0.10517E-07  3320   0.672E-04    0.410E-04
DAV:  13    -0.851622189557E+03   -0.66342E-06   -0.27710E-08  3520   0.242E-04
  60 F= -.85948511E+03 E0= -.85948511E+03  d E =-.380758E-03  mag=     0.0000
       N       E                     dE             d eps       ncg     rms          rms(c)
DAV:   1    -0.851624885623E+03   -0.26967E-02   -0.15158E-01  4760   0.735E-01    0.877E-02
DAV:   2    -0.851625105194E+03   -0.21957E-03   -0.38568E-03  4840   0.107E-01    0.624E-02
DAV:   3    -0.851625042747E+03    0.62447E-04   -0.23203E-04  5200   0.284E-02    0.319E-02
DAV:   4    -0.851625033236E+03    0.95114E-05   -0.43767E-05  5040   0.117E-02    0.109E-02
DAV:   5    -0.851625033549E+03   -0.31277E-06   -0.61307E-06  5000   0.478E-03    0.284E-03
DAV:   6    -0.851625033646E+03   -0.97301E-07   -0.88707E-07  3760   0.183E-03
  61 F= -.85948794E+03 E0= -.85948794E+03  d E =-.282460E-02  mag=    -0.0000
       N       E                     dE             d eps       ncg     rms          rms(c)
DAV:   1    -0.851625070651E+03   -0.37102E-04   -0.11867E-04  4880   0.185E-02    0.269E-03
DAV:   2    -0.851625070929E+03   -0.27758E-06   -0.24301E-06  4480   0.254E-03    0.166E-03
DAV:   3    -0.851625071002E+03   -0.73313E-07   -0.16205E-07  3400   0.838E-04    0.881E-04
DAV:   4    -0.851625071101E+03   -0.99106E-07   -0.59258E-08  3480   0.514E-04    0.449E-04
DAV:   5    -0.851625071164E+03   -0.63264E-07   -0.20428E-08  3440   0.379E-04    0.402E-04
DAV:   6    -0.851625071186E+03   -0.21479E-07   -0.64493E-09  3460   0.239E-04
  62 F= -.85948797E+03 E0= -.85948797E+03  d E =-.320964E-04  mag=     0.0000
       N       E                     dE             d eps       ncg     rms          rms(c)
DAV:   1    -0.851625140021E+03   -0.68856E-04   -0.47538E-04  4800   0.356E-02    0.522E-03
DAV:   2    -0.851625140793E+03   -0.77253E-06   -0.93934E-06  5000   0.468E-03    0.315E-03
DAV:   3    -0.851625140776E+03    0.16735E-07   -0.31557E-07  3400   0.119E-03    0.163E-03
DAV:   4    -0.851625140830E+03   -0.53515E-07   -0.17986E-07  3240   0.810E-04    0.567E-04
DAV:   5    -0.851625140838E+03   -0.80836E-08   -0.38474E-08  3400   0.448E-04    0.430E-04
DAV:   6    -0.851625140842E+03   -0.37689E-08   -0.77339E-09  3300   0.222E-04
  63 F= -.85948803E+03 E0= -.85948803E+03  d E =-.579772E-04  mag=    -0.0000
       N       E                     dE             d eps       ncg     rms          rms(c)
DAV:   1    -0.851625235345E+03   -0.94507E-04   -0.99162E-04  4680   0.491E-02    0.758E-03
DAV:   2    -0.851625236903E+03   -0.15583E-05   -0.19242E-05  5020   0.632E-03    0.445E-03
DAV:   3    -0.851625236863E+03    0.39814E-07   -0.57346E-07  3840   0.156E-03    0.232E-03
DAV:   4    -0.851625236955E+03   -0.92339E-07   -0.30469E-07  3460   0.105E-03    0.696E-04
DAV:   5    -0.851625236964E+03   -0.82800E-08   -0.86061E-08  3360   0.700E-04    0.465E-04
DAV:   6    -0.851625236957E+03    0.71377E-08   -0.28500E-08  3280   0.412E-04
  64 F= -.85948811E+03 E0= -.85948811E+03  d E =-.785393E-04  mag=    -0.0000
       N       E                     dE             d eps       ncg     rms          rms(c)
DAV:   1    -0.851625355924E+03   -0.11896E-03   -0.16303E-03  4560   0.594E-02    0.976E-03
DAV:   2    -0.851625358497E+03   -0.25733E-05   -0.30984E-05  4800   0.743E-03    0.559E-03
DAV:   3    -0.851625358475E+03    0.22868E-07   -0.75131E-07  4040   0.175E-03    0.292E-03
DAV:   4    -0.851625358651E+03   -0.17646E-06   -0.43492E-07  3840   0.121E-03    0.798E-04
DAV:   5    -0.851625358669E+03   -0.17899E-07   -0.13376E-07  3400   0.892E-04    0.494E-04
DAV:   6    -0.851625358657E+03    0.11911E-07   -0.54583E-08  3320   0.568E-04
  65 F= -.85948820E+03 E0= -.85948820E+03  d E =-.983934E-04  mag=    -0.0000
       N       E                     dE             d eps       ncg     rms          rms(c)
DAV:   1    -0.851625502369E+03   -0.14370E-03   -0.24155E-03  4480   0.688E-02    0.119E-02
DAV:   2    -0.851625506198E+03   -0.38295E-05   -0.45507E-05  4680   0.841E-03    0.669E-03
DAV:   3    -0.851625506209E+03   -0.10317E-07   -0.90035E-07  4040   0.187E-03    0.353E-03
DAV:   4    -0.851625506498E+03   -0.28900E-06   -0.63218E-07  4120   0.138E-03    0.900E-04
DAV:   5    -0.851625506534E+03   -0.36642E-07   -0.22447E-07  3700   0.114E-03    0.530E-04
DAV:   6    -0.851625506503E+03    0.31927E-07   -0.82999E-08  3160   0.720E-04
  66 F= -.85948832E+03 E0= -.85948832E+03  d E =-.118811E-03  mag=     0.0000
       N       E                     dE             d eps       ncg     rms          rms(c)
DAV:   1    -0.851625673919E+03   -0.16738E-03   -0.33253E-03  4480   0.791E-02    0.140E-02
DAV:   2    -0.851625679220E+03   -0.53017E-05   -0.62808E-05  4660   0.964E-03    0.781E-03
DAV:   3    -0.851625679253E+03   -0.32640E-07   -0.11720E-06  4200   0.209E-03    0.413E-03
DAV:   4    -0.851625679659E+03   -0.40585E-06   -0.82512E-07  4040   0.156E-03    0.100E-03
DAV:   5    -0.851625679725E+03   -0.66517E-07   -0.32795E-07  3800   0.137E-03    0.574E-04
DAV:   6    -0.851625679663E+03    0.62857E-07   -0.10757E-07  3240   0.847E-04
  67 F= -.85948846E+03 E0= -.85948846E+03  d E =-.138886E-03  mag=     0.0000
       N       E                     dE             d eps       ncg     rms          rms(c)
DAV:   1    -0.851625882322E+03   -0.20260E-03   -0.48970E-03  4480   0.976E-02    0.171E-02
DAV:   2    -0.851625890039E+03   -0.77171E-05   -0.91107E-05  4640   0.120E-02    0.973E-03
DAV:   3    -0.851625890130E+03   -0.90826E-07   -0.19114E-06  4360   0.268E-03    0.502E-03
DAV:   4    -0.851625890701E+03   -0.57136E-06   -0.11155E-06  4040   0.186E-03    0.122E-03
DAV:   5    -0.851625890795E+03   -0.94173E-07   -0.44126E-07  3860   0.160E-03    0.640E-04
DAV:   6    -0.851625890723E+03    0.72614E-07   -0.14905E-07  3280   0.101E-03
  68 F= -.85948863E+03 E0= -.85948863E+03  d E =-.169540E-03  mag=     0.0000
       N       E                     dE             d eps       ncg     rms          rms(c)
DAV:   1    -0.851626137382E+03   -0.24659E-03   -0.71863E-03  4480   0.118E-01    0.209E-02
DAV:   2    -0.851626148570E+03   -0.11188E-04   -0.13200E-04  4640   0.146E-02    0.120E-02
DAV:   3    -0.851626148774E+03   -0.20424E-06   -0.29162E-06  4400   0.331E-03    0.608E-03
DAV:   4    -0.851626149616E+03   -0.84185E-06   -0.15662E-06  4040   0.223E-03    0.147E-03
DAV:   5    -0.851626149762E+03   -0.14623E-06   -0.63765E-07  4000   0.192E-03    0.730E-04
DAV:   6    -0.851626149659E+03    0.10353E-06   -0.21300E-07  3360   0.123E-03
  69 F= -.85948884E+03 E0= -.85948884E+03  d E =-.208147E-03  mag=     0.0000
       N       E                     dE             d eps       ncg     rms          rms(c)
DAV:   1    -0.851626455192E+03   -0.30543E-03   -0.10545E-02  4480   0.141E-01    0.254E-02
DAV:   2    -0.851626471527E+03   -0.16335E-04   -0.19175E-04  4640   0.174E-02    0.145E-02
DAV:   3    -0.851626471925E+03   -0.39754E-06   -0.40768E-06  4380   0.390E-03    0.735E-03
DAV:   4    -0.851626473198E+03   -0.12739E-05   -0.22837E-06  4060   0.267E-03    0.173E-03
DAV:   5    -0.851626473435E+03   -0.23641E-06   -0.95985E-07  3960   0.237E-03    0.842E-04
DAV:   6    -0.851626473265E+03    0.16965E-06   -0.32986E-07  3600   0.154E-03
  70 F= -.85948910E+03 E0= -.85948910E+03  d E =-.262609E-03  mag=     0.0000
       N       E                     dE             d eps       ncg     rms          rms(c)
DAV:   1    -0.851626839322E+03   -0.36589E-03   -0.16056E-02  4480   0.173E-01    0.313E-02
DAV:   2    -0.851626864233E+03   -0.24911E-04   -0.29527E-04  4700   0.214E-02    0.177E-02
DAV:   3    -0.851626864774E+03   -0.54084E-06   -0.59735E-06  4680   0.463E-03    0.914E-03
DAV:   4    -0.851626866707E+03   -0.19327E-05   -0.36660E-06  3940   0.328E-03    0.206E-03
DAV:   5    -0.851626867038E+03   -0.33103E-06   -0.14511E-06  4080   0.288E-03    0.100E-03
DAV:   6    -0.851626866766E+03    0.27204E-06   -0.41736E-07  3740   0.174E-03
  71 F= -.85948942E+03 E0= -.85948942E+03  d E =-.322979E-03  mag=     0.0000
       N       E                     dE             d eps       ncg     rms          rms(c)
DAV:   1    -0.851627308123E+03   -0.44109E-03   -0.22742E-02  4480   0.207E-01    0.372E-02
DAV:   2    -0.851627342796E+03   -0.34673E-04   -0.41183E-04  4720   0.255E-02    0.210E-02
DAV:   3    -0.851627343748E+03   -0.95164E-06   -0.84219E-06  4720   0.552E-03    0.108E-02
DAV:   4    -0.851627346486E+03   -0.27385E-05   -0.51660E-06  4040   0.401E-03    0.238E-03
DAV:   5    -0.851627347090E+03   -0.60362E-06   -0.23011E-06  4280   0.377E-03    0.118E-03
DAV:   6    -0.851627346510E+03    0.57986E-06   -0.69818E-07  3700   0.229E-03
  72 F= -.85948983E+03 E0= -.85948983E+03  d E =-.403040E-03  mag=     0.0000
       N       E                     dE             d eps       ncg     rms          rms(c)
DAV:   1    -0.851627873396E+03   -0.52631E-03   -0.30851E-02  4480   0.243E-01    0.431E-02
DAV:   2    -0.851627919420E+03   -0.46024E-04   -0.54365E-04  4740   0.299E-02    0.246E-02
DAV:   3    -0.851627921128E+03   -0.17083E-05   -0.11683E-05  4720   0.660E-03    0.125E-02
DAV:   4    -0.851627924783E+03   -0.36548E-05   -0.68044E-06  4320   0.466E-03    0.278E-03
DAV:   5    -0.851627925595E+03   -0.81229E-06   -0.29519E-06  4360   0.432E-03    0.136E-03
DAV:   6    -0.851627924900E+03    0.69499E-06   -0.96923E-07  3800   0.272E-03
  73 F= -.85949033E+03 E0= -.85949033E+03  d E =-.499411E-03  mag=     0.0000
       N       E                     dE             d eps       ncg     rms          rms(c)
DAV:   1    -0.851628536283E+03   -0.61069E-03   -0.41731E-02  4480   0.286E-01    0.499E-02
DAV:   2    -0.851628597518E+03   -0.61234E-04   -0.71758E-04  4760   0.352E-02    0.290E-02
DAV:   3    -0.851628600164E+03   -0.26464E-05   -0.16514E-05  4860   0.788E-03    0.145E-02
DAV:   4    -0.851628604996E+03   -0.48322E-05   -0.89674E-06  4760   0.539E-03    0.326E-03
DAV:   5    -0.851628606030E+03   -0.10341E-05   -0.36707E-06  4360   0.488E-03    0.156E-03
DAV:   6    -0.851628605266E+03    0.76427E-06   -0.12863E-06  3940   0.315E-03
  74 F= -.85949093E+03 E0= -.85949093E+03  d E =-.601746E-03  mag=     0.0000
       N       E                     dE             d eps       ncg     rms          rms(c)
DAV:   1    -0.851629321073E+03   -0.71504E-03   -0.53796E-02  4480   0.329E-01    0.565E-02
DAV:   2    -0.851629395914E+03   -0.74841E-04   -0.85811E-04  4860   0.397E-02    0.336E-02
DAV:   3    -0.851629401007E+03   -0.50932E-05   -0.22622E-05  4880   0.937E-03    0.156E-02
DAV:   4    -0.851629406820E+03   -0.58132E-05   -0.98316E-06  4840   0.591E-03    0.365E-03
DAV:   5    -0.851629408383E+03   -0.15625E-05   -0.44153E-06  4380   0.545E-03    0.174E-03
DAV:   6    -0.851629407624E+03    0.75910E-06   -0.21693E-06  4320   0.414E-03
  75 F= -.85949166E+03 E0= -.85949166E+03  d E =-.729283E-03  mag=     0.0000
       N       E                     dE             d eps       ncg     rms          rms(c)
DAV:   1    -0.851630221478E+03   -0.81310E-03   -0.71636E-02  4480   0.391E-01    0.655E-02
DAV:   2    -0.851630315707E+03   -0.94228E-04   -0.10790E-03  4920   0.469E-02    0.399E-02
DAV:   3    -0.851630324233E+03   -0.85265E-05   -0.35701E-05  4960   0.119E-02    0.169E-02
DAV:   4    -0.851630330960E+03   -0.67269E-05   -0.11209E-05  4880   0.621E-03    0.438E-03
DAV:   5    -0.851630332321E+03   -0.13607E-05   -0.34824E-06  4400   0.455E-03    0.192E-03
DAV:   6    -0.851630333217E+03   -0.89594E-06   -0.23293E-06  4520   0.429E-03
  76 F= -.85949252E+03 E0= -.85949252E+03  d E =-.861327E-03  mag=     0.0000
       N       E                     dE             d eps       ncg     rms          rms(c)
DAV:   1    -0.851631246569E+03   -0.91425E-03   -0.10975E-01  4480   0.481E-01    0.815E-02
DAV:   2    -0.851631391258E+03   -0.14469E-03   -0.17051E-03  4960   0.586E-02    0.486E-02
DAV:   3    -0.851631401411E+03   -0.10153E-04   -0.48508E-05  4920   0.138E-02    0.220E-02
DAV:   4    -0.851631412511E+03   -0.11100E-04   -0.20087E-05  4900   0.793E-03    0.515E-03
DAV:   5    -0.851631414617E+03   -0.21056E-05   -0.58750E-06  4560   0.580E-03    0.233E-03
DAV:   6    -0.851631414507E+03    0.10949E-06   -0.18496E-06  4440   0.373E-03
  77 F= -.85949353E+03 E0= -.85949353E+03  d E =-.101469E-02  mag=     0.0000
       N       E                     dE             d eps       ncg     rms          rms(c)
DAV:   1    -0.851632434031E+03   -0.10194E-02   -0.15331E-01  4480   0.570E-01    0.973E-02
DAV:   2    -0.851632638872E+03   -0.20484E-03   -0.23871E-03  5000   0.698E-02    0.586E-02
DAV:   3    -0.851632653637E+03   -0.14765E-04   -0.70933E-05  4920   0.170E-02    0.259E-02
DAV:   4    -0.851632669593E+03   -0.15956E-04   -0.29824E-05  4840   0.103E-02    0.626E-03
DAV:   5    -0.851632674050E+03   -0.44565E-05   -0.12096E-05  4760   0.909E-03    0.291E-03
DAV:   6    -0.851632671953E+03    0.20962E-05   -0.54716E-06  4520   0.657E-03    0.173E-03
DAV:   7    -0.851632673859E+03   -0.19058E-05   -0.22651E-06  4400   0.415E-03    0.111E-03
DAV:   8    -0.851632673952E+03   -0.93154E-07   -0.86250E-07  4000   0.262E-03
  78 F= -.85949472E+03 E0= -.85949472E+03  d E =-.118668E-02  mag=     0.0000
       N       E                     dE             d eps       ncg     rms          rms(c)
DAV:   1    -0.851633810397E+03   -0.11365E-02   -0.20719E-01  4480   0.679E-01    0.115E-01
DAV:   2    -0.851634073264E+03   -0.26287E-03   -0.30683E-03  5000   0.826E-02    0.708E-02
DAV:   3    -0.851634094293E+03   -0.21029E-04   -0.12797E-04  4880   0.227E-02    0.276E-02
DAV:   4    -0.851634110762E+03   -0.16469E-04   -0.33567E-05  4880   0.985E-03    0.837E-03
DAV:   5    -0.851634112501E+03   -0.17388E-05   -0.69952E-06  4840   0.496E-03    0.338E-03
DAV:   6    -0.851634114721E+03   -0.22197E-05   -0.13325E-06  4240   0.228E-03    0.164E-03
DAV:   7    -0.851634116425E+03   -0.17046E-05   -0.48252E-07  4020   0.170E-03    0.687E-04
DAV:   8    -0.851634118132E+03   -0.17070E-05   -0.44757E-07  3780   0.170E-03    0.678E-04
DAV:   9    -0.851634119040E+03   -0.90778E-06   -0.30684E-07  3760   0.147E-03
  79 F= -.85949607E+03 E0= -.85949607E+03  d E =-.135182E-02  mag=    -0.0000
       N       E                     dE             d eps       ncg     rms          rms(c)
DAV:   1    -0.851635199950E+03   -0.10818E-02   -0.37482E-01  4480   0.898E-01    0.153E-01
DAV:   2    -0.851635722704E+03   -0.52275E-03   -0.63852E-03  4840   0.113E-01    0.905E-02
DAV:   3    -0.851635733295E+03   -0.10591E-04   -0.18232E-04  5120   0.262E-02    0.429E-02
DAV:   4    -0.851635766296E+03   -0.33002E-04   -0.78045E-05  4680   0.148E-02    0.102E-02
DAV:   5    -0.851635767898E+03   -0.16020E-05   -0.16044E-05  4960   0.738E-03    0.431E-03
DAV:   6    -0.851635769291E+03   -0.13927E-05   -0.14159E-06  4480   0.202E-03    0.261E-03
DAV:   7    -0.851635771768E+03   -0.24775E-05   -0.70595E-07  4000   0.132E-03    0.131E-03
DAV:   8    -0.851635773034E+03   -0.12661E-05   -0.17779E-07  3920   0.904E-04    0.568E-04
DAV:   9    -0.851635774777E+03   -0.17428E-05   -0.14739E-07  3440   0.831E-04    0.471E-04
DAV:  10    -0.851635775901E+03   -0.11238E-05   -0.17049E-07  3600   0.103E-03    0.424E-04
DAV:  11    -0.851635776677E+03   -0.77615E-06   -0.80679E-08  3400   0.634E-04
  80 F= -.85949759E+03 E0= -.85949759E+03  d E =-.151204E-02  mag=     0.0000
       N       E                     dE             d eps       ncg     rms          rms(c)
DAV:   1    -0.851636162082E+03   -0.38618E-03   -0.62599E-01  4480   0.122E+00    0.194E-01
DAV:   2    -0.851637035282E+03   -0.87320E-03   -0.11046E-02  5040   0.156E-01    0.121E-01
DAV:   3    -0.851637000491E+03    0.34791E-04   -0.40421E-04  4880   0.389E-02    0.563E-02
DAV:   4    -0.851637041094E+03   -0.40603E-04   -0.14647E-04  4960   0.199E-02    0.150E-02
DAV:   5    -0.851637043717E+03   -0.26239E-05   -0.25783E-05  5000   0.896E-03    0.605E-03
DAV:   6    -0.851637045797E+03   -0.20798E-05   -0.21892E-06  4440   0.254E-03    0.338E-03
DAV:   7    -0.851637049252E+03   -0.34553E-05   -0.93043E-07  4040   0.156E-03    0.154E-03
DAV:   8    -0.851637050934E+03   -0.16813E-05   -0.26869E-07  4120   0.889E-04    0.649E-04
DAV:   9    -0.851637053188E+03   -0.22541E-05   -0.96025E-08  3360   0.485E-04    0.532E-04
DAV:  10    -0.851637055463E+03   -0.22753E-05   -0.10544E-07  3400   0.548E-04    0.400E-04
DAV:  11    -0.851637056588E+03   -0.11251E-05   -0.90558E-08  3600   0.638E-04    0.380E-04
DAV:  12    -0.851637057547E+03   -0.95907E-06   -0.51991E-08  3320   0.411E-04
  81 F= -.85949863E+03 E0= -.85949863E+03  d E =-.104970E-02  mag=    -0.0000
       N       E                     dE             d eps       ncg     rms          rms(c)
DAV:   1    -0.851638073578E+03   -0.10170E-02   -0.47053E-02  4920   0.398E-01    0.476E-02
DAV:   2    -0.851638151850E+03   -0.78272E-04   -0.12399E-03  4920   0.574E-02    0.349E-02
DAV:   3    -0.851638133909E+03    0.17940E-04   -0.57291E-05  5160   0.140E-02    0.192E-02
DAV:   4    -0.851638130032E+03    0.38774E-05   -0.14868E-05  5000   0.683E-03    0.548E-03
DAV:   5    -0.851638130278E+03   -0.24555E-06   -0.23523E-06  3960   0.273E-03    0.162E-03
DAV:   6    -0.851638130366E+03   -0.88599E-07   -0.23230E-07  3400   0.955E-04
  82 F= -.85949970E+03 E0= -.85949970E+03  d E =-.106974E-02  mag=    -0.0000
       N       E                     dE             d eps       ncg     rms          rms(c)
DAV:   1    -0.851637486037E+03    0.64424E-03   -0.48278E-02  4800   0.405E-01    0.489E-02
DAV:   2    -0.851637566248E+03   -0.80211E-04   -0.12519E-03  4800   0.582E-02    0.353E-02
DAV:   3    -0.851637548967E+03    0.17281E-04   -0.59993E-05  5360   0.144E-02    0.193E-02
DAV:   4    -0.851637545752E+03    0.32148E-05   -0.14888E-05  4920   0.698E-03    0.556E-03
DAV:   5    -0.851637546116E+03   -0.36419E-06   -0.22996E-06  4040   0.273E-03    0.171E-03
DAV:   6    -0.851637546240E+03   -0.12431E-06   -0.20678E-07  3480   0.919E-04
  83 F= -.85949910E+03 E0= -.85949910E+03  d E =0.606994E-03  mag=    -0.0000
       N       E                     dE             d eps       ncg     rms          rms(c)
DAV:   1    -0.851637873608E+03   -0.32749E-03   -0.22907E-03  4840   0.870E-02    0.106E-02
DAV:   2    -0.851637877270E+03   -0.36617E-05   -0.58168E-05  5080   0.125E-02    0.773E-03
DAV:   3    -0.851637876456E+03    0.81371E-06   -0.27944E-06  4600   0.313E-03    0.415E-03
DAV:   4    -0.851637876362E+03    0.94435E-07   -0.77020E-07  3880   0.158E-03    0.121E-03
DAV:   5    -0.851637876428E+03   -0.66131E-07   -0.15586E-07  3420   0.753E-04    0.488E-04
DAV:   6    -0.851637876468E+03   -0.39603E-07   -0.32839E-08  3480   0.405E-04
  84 F= -.85949942E+03 E0= -.85949942E+03  d E =-.325169E-03  mag=    -0.0000
       N       E                     dE             d eps       ncg     rms          rms(c)
DAV:   1    -0.851638252766E+03   -0.37634E-03   -0.73162E-03  4800   0.155E-01    0.189E-02
DAV:   2    -0.851638264487E+03   -0.11721E-04   -0.18621E-04  4880   0.222E-02    0.137E-02
DAV:   3    -0.851638261682E+03    0.28050E-05   -0.86771E-06  5120   0.547E-03    0.742E-03
DAV:   4    -0.851638261113E+03    0.56851E-06   -0.23040E-06  4080   0.267E-03    0.209E-03
DAV:   5    -0.851638261154E+03   -0.40985E-07   -0.39013E-07  3640   0.120E-03    0.714E-04
DAV:   6    -0.851638261177E+03   -0.22570E-07   -0.71964E-08  3360   0.619E-04
  85 F= -.85949980E+03 E0= -.85949980E+03  d E =-.374384E-03  mag=    -0.0000
       N       E                     dE             d eps       ncg     rms          rms(c)
DAV:   1    -0.851638380973E+03   -0.11982E-03   -0.10489E-02  4720   0.185E-01    0.227E-02
DAV:   2    -0.851638397713E+03   -0.16740E-04   -0.26420E-04  4800   0.264E-02    0.164E-02
DAV:   3    -0.851638393753E+03    0.39601E-05   -0.12138E-05  5200   0.648E-03    0.886E-03
DAV:   4    -0.851638392970E+03    0.78243E-06   -0.34136E-06  4360   0.324E-03    0.244E-03
DAV:   5    -0.851638393039E+03   -0.68765E-07   -0.53506E-07  3600   0.143E-03    0.844E-04
DAV:   6    -0.851638393076E+03   -0.36380E-07   -0.92464E-08  3360   0.779E-04
  86 F= -.85949991E+03 E0= -.85949991E+03  d E =-.116256E-03  mag=    -0.0000
       N       E                     dE             d eps       ncg     rms          rms(c)
DAV:   1    -0.851638399581E+03   -0.65413E-05   -0.69220E-06  4320   0.442E-03    0.728E-04
DAV:   2    -0.851638399605E+03   -0.24360E-07   -0.19408E-07  3520   0.923E-04    0.540E-04
DAV:   3    -0.851638399631E+03   -0.26186E-07   -0.38140E-08  3240   0.518E-04    0.406E-04
DAV:   4    -0.851638399667E+03   -0.35907E-07   -0.29604E-08  3280   0.473E-04    0.355E-04
DAV:   5    -0.851638399671E+03   -0.38417E-08   -0.88661E-09  3260   0.269E-04    0.342E-04
DAV:   6    -0.851638399700E+03   -0.28922E-07    0.20265E-09  3160   0.609E-05
  87 F= -.85949992E+03 E0= -.85949992E+03  d E =-.578482E-05  mag=     0.0000
       N       E                     dE             d eps       ncg     rms          rms(c)
DAV:   1    -0.851638411993E+03   -0.12323E-04   -0.26961E-05  4880   0.867E-03    0.128E-03
DAV:   2    -0.851638412048E+03   -0.54461E-07   -0.59628E-07  3760   0.119E-03    0.851E-04
DAV:   3    -0.851638412051E+03   -0.28376E-08   -0.36428E-08  3320   0.388E-04    0.533E-04
DAV:   4    -0.851638412060E+03   -0.90149E-08   -0.11041E-08  3160   0.229E-04    0.352E-04
DAV:   5    -0.851638412065E+03   -0.53260E-08   -0.12736E-10  3320   0.115E-04    0.343E-04
DAV:   6    -0.851638412069E+03   -0.38563E-08    0.22325E-09  3240   0.646E-05
  88 F= -.85949993E+03 E0= -.85949993E+03  d E =-.106960E-04  mag=    -0.0000
       N       E                     dE             d eps       ncg     rms          rms(c)
DAV:   1    -0.851638429322E+03   -0.17257E-04   -0.57238E-05  4840   0.125E-02    0.184E-03
DAV:   2    -0.851638429421E+03   -0.99702E-07   -0.12626E-06  3760   0.170E-03    0.119E-03
DAV:   3    -0.851638429414E+03    0.67957E-08   -0.70948E-08  3200   0.536E-04    0.692E-04
DAV:   4    -0.851638429417E+03   -0.24229E-08   -0.26300E-08  3200   0.327E-04    0.365E-04
DAV:   5    -0.851638429418E+03   -0.12151E-08   -0.34625E-09  3200   0.165E-04    0.346E-04
DAV:   6    -0.851638429419E+03   -0.74942E-09    0.13855E-09  3160   0.889E-05
  89 F= -.85949994E+03 E0= -.85949994E+03  d E =-.147880E-04  mag=    -0.0000
       N       E                     dE             d eps       ncg     rms          rms(c)
DAV:   1    -0.851638450676E+03   -0.21258E-04   -0.94559E-05  4620   0.159E-02    0.237E-03
DAV:   2    -0.851638450834E+03   -0.15862E-06   -0.20569E-06  3760   0.215E-03    0.149E-03
DAV:   3    -0.851638450823E+03    0.11212E-07   -0.10494E-07  3240   0.651E-04    0.842E-04
DAV:   4    -0.851638450825E+03   -0.21755E-08   -0.43369E-08  3120   0.411E-04    0.380E-04
DAV:   5    -0.851638450826E+03   -0.46566E-09   -0.81846E-09  3160   0.227E-04    0.349E-04
DAV:   6    -0.851638450826E+03   -0.52387E-09   -0.13780E-10  3200   0.127E-04
  90 F= -.85949996E+03 E0= -.85949996E+03  d E =-.179484E-04  mag=    -0.0000
       N       E                     dE             d eps       ncg     rms          rms(c)
DAV:   1    -0.851638475116E+03   -0.24291E-04   -0.13524E-04  4560   0.187E-02    0.285E-03
DAV:   2    -0.851638475339E+03   -0.22220E-06   -0.28695E-06  3920   0.250E-03    0.176E-03
DAV:   3    -0.851638475325E+03    0.13963E-07   -0.12943E-07  3320   0.733E-04    0.972E-04
DAV:   4    -0.851638475329E+03   -0.39363E-08   -0.58634E-08  3160   0.475E-04    0.394E-04
DAV:   5    -0.851638475330E+03   -0.13606E-08   -0.12552E-08  3000   0.276E-04    0.353E-04
DAV:   6    -0.851638475329E+03    0.57480E-09   -0.15636E-09  3160   0.155E-04
  91 F= -.85949998E+03 E0= -.85949998E+03  d E =-.201516E-04  mag=    -0.0000
       N       E                     dE             d eps       ncg     rms          rms(c)
DAV:   1    -0.851638502000E+03   -0.26669E-04   -0.17536E-04  4480   0.208E-02    0.327E-03
DAV:   2    -0.851638502278E+03   -0.27828E-06   -0.35676E-06  3840   0.273E-03    0.198E-03
DAV:   3    -0.851638502265E+03    0.12660E-07   -0.15185E-07  3360   0.797E-04    0.107E-03
DAV:   4    -0.851638502274E+03   -0.90222E-08   -0.72511E-08  3200   0.522E-04    0.407E-04
DAV:   5    -0.851638502275E+03   -0.11860E-08   -0.17718E-08  3120   0.329E-04    0.355E-04
DAV:   6    -0.851638502275E+03    0.79308E-09   -0.35854E-09  3100   0.188E-04
  92 F= -.85950000E+03 E0= -.85950000E+03  d E =-.216697E-04  mag=     0.0000
       N       E                     dE             d eps       ncg     rms          rms(c)
DAV:   1    -0.851638534965E+03   -0.32690E-04   -0.26509E-04  4480   0.247E-02    0.406E-03
DAV:   2    -0.851638535368E+03   -0.40260E-06   -0.51535E-06  4160   0.317E-03    0.241E-03
DAV:   3    -0.851638535353E+03    0.14814E-07   -0.15147E-07  3360   0.802E-04    0.127E-03
DAV:   4    -0.851638535372E+03   -0.18779E-07   -0.10090E-07  3080   0.581E-04    0.435E-04
DAV:   5    -0.851638535374E+03   -0.23865E-08   -0.26820E-08  3020   0.392E-04    0.359E-04
DAV:   6    -0.851638535372E+03    0.20154E-08   -0.65368E-09  3300   0.218E-04
  93 F= -.85950003E+03 E0= -.85950003E+03  d E =-.262748E-04  mag=     0.0000
       N       E                     dE             d eps       ncg     rms          rms(c)
DAV:   1    -0.851638576747E+03   -0.41373E-04   -0.39779E-04  4480   0.293E-02    0.501E-03
DAV:   2    -0.851638577315E+03   -0.56752E-06   -0.72867E-06  4360   0.366E-03    0.291E-03
DAV:   3    -0.851638577302E+03    0.12900E-07   -0.18265E-07  3380   0.890E-04    0.150E-03
DAV:   4    -0.851638577338E+03   -0.36409E-07   -0.14306E-07  3220   0.668E-04    0.490E-04
DAV:   5    -0.851638577343E+03   -0.47512E-08   -0.46592E-08  3020   0.517E-04    0.366E-04
DAV:   6    -0.851638577336E+03    0.64247E-08   -0.13102E-08  3280   0.287E-04
  94 F= -.85950006E+03 E0= -.85950006E+03  d E =-.333072E-04  mag=     0.0000
       N       E                     dE             d eps       ncg     rms          rms(c)
DAV:   1    -0.851638630807E+03   -0.53464E-04   -0.60371E-04  4480   0.353E-02    0.620E-03
DAV:   2    -0.851638631622E+03   -0.81467E-06   -0.10517E-05  4480   0.431E-03    0.357E-03
DAV:   3    -0.851638631609E+03    0.13402E-07   -0.24847E-07  3560   0.103E-03    0.180E-03
DAV:   4    -0.851638631666E+03   -0.56927E-07   -0.17928E-07  3260   0.770E-04    0.523E-04
DAV:   5    -0.851638631684E+03   -0.18241E-07   -0.77266E-08  3040   0.684E-04    0.375E-04
DAV:   6    -0.851638631667E+03    0.16604E-07   -0.27797E-08  3220   0.420E-04
  95 F= -.85950011E+03 E0= -.85950011E+03  d E =-.435078E-04  mag=     0.0000
       N       E                     dE             d eps       ncg     rms          rms(c)
DAV:   1    -0.851638700918E+03   -0.69234E-04   -0.93650E-04  4480   0.438E-02    0.770E-03
DAV:   2    -0.851638702146E+03   -0.12276E-05   -0.15953E-05  4640   0.530E-03    0.446E-03
DAV:   3    -0.851638702121E+03    0.24615E-07   -0.38403E-07  3760   0.123E-03    0.223E-03
DAV:   4    -0.851638702205E+03   -0.84183E-07   -0.26706E-07  3480   0.891E-04    0.622E-04
DAV:   5    -0.851638702226E+03   -0.20867E-07   -0.10455E-07  3040   0.757E-04    0.396E-04
DAV:   6    -0.851638702212E+03    0.14006E-07   -0.37251E-08  3300   0.475E-04
  96 F= -.85950016E+03 E0= -.85950016E+03  d E =-.572790E-04  mag=     0.0000
       N       E                     dE             d eps       ncg     rms          rms(c)
DAV:   1    -0.851638789781E+03   -0.87555E-04   -0.14691E-03  4480   0.551E-02    0.958E-03
DAV:   2    -0.851638791677E+03   -0.18967E-05   -0.24989E-05  4720   0.669E-03    0.563E-03
DAV:   3    -0.851638791623E+03    0.54250E-07   -0.63680E-07  3980   0.157E-03    0.280E-03
DAV:   4    -0.851638791747E+03   -0.12387E-06   -0.40663E-07  3700   0.112E-03    0.730E-04
DAV:   5    -0.851638791789E+03   -0.42572E-07   -0.16837E-07  3120   0.994E-04    0.428E-04
DAV:   6    -0.851638791759E+03    0.29991E-07   -0.71345E-08  3220   0.665E-04
  97 F= -.85950024E+03 E0= -.85950024E+03  d E =-.733977E-04  mag=     0.0000
       N       E                     dE             d eps       ncg     rms          rms(c)
DAV:   1    -0.851638899350E+03   -0.10756E-03   -0.22716E-03  4480   0.686E-02    0.118E-02
DAV:   2    -0.851638902267E+03   -0.29176E-05   -0.38620E-05  4760   0.835E-03    0.704E-03
DAV:   3    -0.851638902158E+03    0.10957E-06   -0.99955E-07  4040   0.195E-03    0.350E-03
[...]
DAV:   2    -0.851672893433E+03   -0.18944E-06   -0.25092E-06  3960   0.260E-03    0.194E-03
DAV:   3    -0.851672893429E+03    0.41036E-08   -0.15344E-07  3160   0.836E-04    0.804E-04
DAV:   4    -0.851672893437E+03   -0.79890E-08   -0.46012E-08  3000   0.421E-04    0.439E-04
DAV:   5    -0.851672893439E+03   -0.16080E-08   -0.12411E-08  2960   0.272E-04    0.392E-04
DAV:   6    -0.851672893442E+03   -0.33324E-08   -0.57227E-09  3120   0.230E-04
 250 F= -.85953166E+03 E0= -.85953166E+03  d E =-.150394E-04  mag=     0.0000
       N       E                     dE             d eps       ncg     rms          rms(c)
DAV:   1    -0.851672915774E+03   -0.22335E-04   -0.28960E-04  4480   0.289E-02    0.385E-03
DAV:   2    -0.851672916101E+03   -0.32751E-06   -0.44739E-06  4240   0.348E-03    0.249E-03
DAV:   3    -0.851672916084E+03    0.17404E-07   -0.22057E-07  3200   0.101E-03    0.107E-03
DAV:   4    -0.851672916097E+03   -0.12857E-07   -0.83105E-08  3080   0.563E-04    0.478E-04
DAV:   5    -0.851672916100E+03   -0.33251E-08   -0.23821E-08  3040   0.373E-04    0.399E-04
DAV:   6    -0.851672916102E+03   -0.17244E-08   -0.87927E-09  3180   0.263E-04
 251 F= -.85953168E+03 E0= -.85953168E+03  d E =-.192054E-04  mag=    -0.0000
       N       E                     dE             d eps       ncg     rms          rms(c)
DAV:   1    -0.851672942473E+03   -0.26373E-04   -0.46331E-04  4480   0.365E-02    0.488E-03
DAV:   2    -0.851672943004E+03   -0.53061E-06   -0.74052E-06  4520   0.444E-03    0.312E-03
DAV:   3    -0.851672942972E+03    0.32138E-07   -0.31068E-07  3160   0.121E-03    0.138E-03
DAV:   4    -0.851672942994E+03   -0.22206E-07   -0.13341E-07  3120   0.738E-04    0.517E-04
DAV:   5    -0.851672943004E+03   -0.10157E-07   -0.49208E-08  3040   0.559E-04    0.410E-04
DAV:   6    -0.851672942998E+03    0.63956E-08   -0.19943E-08  3140   0.375E-04
 252 F= -.85953170E+03 E0= -.85953170E+03  d E =-.224288E-04  mag=    -0.0000
       N       E                     dE             d eps       ncg     rms          rms(c)
DAV:   1    -0.851672974490E+03   -0.31486E-04   -0.68652E-04  4480   0.435E-02    0.598E-03
DAV:   2    -0.851672975271E+03   -0.78059E-06   -0.10855E-05  4720   0.526E-03    0.374E-03
DAV:   3    -0.851672975234E+03    0.36911E-07   -0.37921E-07  3120   0.133E-03    0.168E-03
DAV:   4    -0.851672975271E+03   -0.37311E-07   -0.18336E-07  3140   0.853E-04    0.541E-04
DAV:   5    -0.851672975287E+03   -0.16269E-07   -0.71759E-08  3100   0.664E-04    0.417E-04
DAV:   6    -0.851672975278E+03    0.95097E-08   -0.27175E-08  3140   0.428E-04
 253 F= -.85953173E+03 E0= -.85953173E+03  d E =-.265575E-04  mag=    -0.0000
       N       E                     dE             d eps       ncg     rms          rms(c)
DAV:   1    -0.851673013498E+03   -0.38210E-04   -0.99551E-04  4480   0.515E-02    0.722E-03
DAV:   2    -0.851673014606E+03   -0.11086E-05   -0.15486E-05  4800   0.616E-03    0.446E-03
DAV:   3    -0.851673014571E+03    0.35179E-07   -0.49368E-07  3460   0.150E-03    0.199E-03
DAV:   4    -0.851673014628E+03   -0.56527E-07   -0.22715E-07  3200   0.949E-04    0.565E-04
DAV:   5    -0.851673014657E+03   -0.29038E-07   -0.10185E-07  3080   0.795E-04    0.422E-04
DAV:   6    -0.851673014640E+03    0.17033E-07   -0.40102E-08  3160   0.520E-04
 254 F= -.85953176E+03 E0= -.85953176E+03  d E =-.326580E-04  mag=    -0.0000
       N       E                     dE             d eps       ncg     rms          rms(c)
DAV:   1    -0.851673062828E+03   -0.48171E-04   -0.14470E-03  4480   0.621E-02    0.869E-03
DAV:   2    -0.851673064431E+03   -0.16032E-05   -0.22420E-05  4880   0.742E-03    0.539E-03
DAV:   3    -0.851673064386E+03    0.45140E-07   -0.75208E-07  3680   0.181E-03    0.235E-03
DAV:   4    -0.851673064468E+03   -0.82109E-07   -0.31317E-07  3360   0.106E-03    0.643E-04
DAV:   5    -0.851673064495E+03   -0.26746E-07   -0.10654E-07  3080   0.792E-04    0.436E-04
DAV:   6    -0.851673064490E+03    0.44893E-08   -0.45099E-08  3200   0.547E-04
 255 F= -.85953180E+03 E0= -.85953180E+03  d E =-.421453E-04  mag=    -0.0000
       N       E                     dE             d eps       ncg     rms          rms(c)
DAV:   1    -0.851673119890E+03   -0.55395E-04   -0.21350E-03  4480   0.763E-02    0.105E-02
DAV:   2    -0.851673122243E+03   -0.23532E-05   -0.33099E-05  4880   0.918E-03    0.663E-03
DAV:   3    -0.851673122155E+03    0.88665E-07   -0.12697E-06  3800   0.237E-03    0.274E-03
DAV:   4    -0.851673122274E+03   -0.11951E-06   -0.47855E-07  3640   0.132E-03    0.773E-04
DAV:   5    -0.851673122320E+03   -0.46282E-07   -0.14896E-07  3060   0.978E-04    0.471E-04
DAV:   6    -0.851673122323E+03   -0.30195E-08   -0.97612E-08  3240   0.800E-04
 256 F= -.85953185E+03 E0= -.85953185E+03  d E =-.490808E-04  mag=     0.0000
       N       E                     dE             d eps       ncg     rms          rms(c)
DAV:   1    -0.851673182684E+03   -0.60364E-04   -0.26392E-03  4480   0.871E-02    0.117E-02
DAV:   2    -0.851673185280E+03   -0.25958E-05   -0.37383E-05  4840   0.103E-02    0.757E-03
DAV:   3    -0.851673185296E+03   -0.16320E-07   -0.20557E-06  3960   0.309E-03    0.224E-03
DAV:   4    -0.851673185406E+03   -0.10976E-06   -0.54045E-07  3160   0.139E-03    0.861E-04
DAV:   5    -0.851673185449E+03   -0.42681E-07   -0.13614E-07  3200   0.872E-04    0.502E-04
DAV:   6    -0.851673185514E+03   -0.65018E-07   -0.11307E-07  3320   0.888E-04
 257 F= -.85953191E+03 E0= -.85953191E+03  d E =-.555925E-04  mag=    -0.0000
       N       E                     dE             d eps       ncg     rms          rms(c)
DAV:   1    -0.851673258285E+03   -0.72836E-04   -0.36348E-03  4480   0.103E-01    0.139E-02
DAV:   2    -0.851673261545E+03   -0.32596E-05   -0.50686E-05  4840   0.121E-02    0.891E-03
DAV:   3    -0.851673261615E+03   -0.70060E-07   -0.30361E-06  4360   0.366E-03    0.268E-03
DAV:   4    -0.851673261759E+03   -0.14411E-06   -0.69554E-07  3240   0.150E-03    0.993E-04
DAV:   5    -0.851673261815E+03   -0.56687E-07   -0.13292E-07  3320   0.814E-04    0.535E-04
DAV:   6    -0.851673261882E+03   -0.66728E-07   -0.79366E-08  3260   0.751E-04
 258 F= -.85953198E+03 E0= -.85953198E+03  d E =-.708905E-04  mag=     0.0000
       N       E                     dE             d eps       ncg     rms          rms(c)
DAV:   1    -0.851673346907E+03   -0.85092E-04   -0.53343E-03  4480   0.125E-01    0.165E-02
DAV:   2    -0.851673352053E+03   -0.51454E-05   -0.75018E-05  4840   0.147E-02    0.107E-02
DAV:   3    -0.851673352116E+03   -0.63890E-07   -0.43863E-06  4720   0.447E-03    0.308E-03
DAV:   4    -0.851673352341E+03   -0.22481E-06   -0.11145E-06  3620   0.184E-03    0.121E-03
DAV:   5    -0.851673352426E+03   -0.84838E-07   -0.18394E-07  3340   0.108E-03    0.580E-04
DAV:   6    -0.851673352522E+03   -0.96014E-07   -0.18963E-07  3400   0.114E-03
 259 F= -.85953206E+03 E0= -.85953206E+03  d E =-.833294E-04  mag=    -0.0000
       N       E                     dE             d eps       ncg     rms          rms(c)
DAV:   1    -0.851673463260E+03   -0.11083E-03   -0.76995E-03  4480   0.149E-01    0.196E-02
DAV:   2    -0.851673470717E+03   -0.74572E-05   -0.10747E-04  4900   0.175E-02    0.128E-02
DAV:   3    -0.851673470757E+03   -0.39603E-07   -0.59465E-06  4680   0.518E-03    0.362E-03
DAV:   4    -0.851673471085E+03   -0.32844E-06   -0.15785E-06  3760   0.211E-03    0.135E-03
DAV:   5    -0.851673471195E+03   -0.10971E-06   -0.21424E-07  3240   0.116E-03    0.615E-04
DAV:   6    -0.851673471322E+03   -0.12669E-06   -0.20424E-07  3480   0.117E-03
 260 F= -.85953217E+03 E0= -.85953217E+03  d E =-.107560E-03  mag=    -0.0000
       N       E                     dE             d eps       ncg     rms          rms(c)
DAV:   1    -0.851673588727E+03   -0.11753E-03   -0.11067E-02  4480   0.181E-01    0.242E-02
DAV:   2    -0.851673598061E+03   -0.93333E-05   -0.15430E-04  5000   0.216E-02    0.155E-02
DAV:   3    -0.851673597951E+03    0.10903E-06   -0.10169E-05  4840   0.670E-03    0.458E-03
DAV:   4    -0.851673598355E+03   -0.40354E-06   -0.25013E-06  4360   0.272E-03    0.179E-03
DAV:   5    -0.851673598520E+03   -0.16537E-06   -0.26534E-07  3420   0.128E-03    0.781E-04
DAV:   6    -0.851673598700E+03   -0.17986E-06   -0.24430E-07  3520   0.132E-03
 261 F= -.85953228E+03 E0= -.85953228E+03  d E =-.117188E-03  mag=    -0.0000
       N       E                     dE             d eps       ncg     rms          rms(c)
DAV:   1    -0.851673722120E+03   -0.12360E-03   -0.14836E-02  4480   0.209E-01    0.273E-02
DAV:   2    -0.851673735527E+03   -0.13407E-04   -0.20289E-04  4880   0.247E-02    0.178E-02
DAV:   3    -0.851673735686E+03   -0.15963E-06   -0.12807E-05  4900   0.772E-03    0.463E-03
DAV:   4    -0.851673736302E+03   -0.61570E-06   -0.35095E-06  4220   0.328E-03    0.198E-03
DAV:   5    -0.851673736596E+03   -0.29439E-06   -0.58229E-07  3600   0.201E-03    0.828E-04
DAV:   6    -0.851673736859E+03   -0.26257E-06   -0.66026E-07  3600   0.219E-03
 262 F= -.85953242E+03 E0= -.85953242E+03  d E =-.138406E-03  mag=    -0.0000
       N       E                     dE             d eps       ncg     rms          rms(c)
DAV:   1    -0.851673867172E+03   -0.13058E-03   -0.20387E-02  4480   0.246E-01    0.326E-02
DAV:   2    -0.851673884383E+03   -0.17211E-04   -0.27767E-04  4880   0.294E-02    0.212E-02
DAV:   3    -0.851673884293E+03    0.89647E-07   -0.19610E-05  4880   0.956E-03    0.548E-03
DAV:   4    -0.851673885094E+03   -0.80109E-06   -0.51182E-06  4240   0.377E-03    0.247E-03
DAV:   5    -0.851673885400E+03   -0.30611E-06   -0.55980E-07  3560   0.182E-03    0.101E-03
DAV:   6    -0.851673885744E+03   -0.34316E-06   -0.46050E-07  3600   0.182E-03
 263 F= -.85953258E+03 E0= -.85953258E+03  d E =-.154686E-03  mag=    -0.0000
       N       E                     dE             d eps       ncg     rms          rms(c)
DAV:   1    -0.851674037824E+03   -0.15242E-03   -0.26176E-02  4480   0.278E-01    0.372E-02
DAV:   2    -0.851674060232E+03   -0.22408E-04   -0.34524E-04  4880   0.329E-02    0.244E-02
DAV:   3    -0.851674060739E+03   -0.50736E-06   -0.26661E-05  4840   0.114E-02    0.515E-03
DAV:   4    -0.851674061475E+03   -0.73588E-06   -0.75882E-06  4760   0.495E-03    0.284E-03
DAV:   5    -0.851674062027E+03   -0.55229E-06   -0.11154E-06  3860   0.283E-03    0.121E-03
DAV:   6    -0.851674062551E+03   -0.52329E-06   -0.13137E-06  4160   0.317E-03
 264 F= -.85953276E+03 E0= -.85953276E+03  d E =-.183632E-03  mag=     0.0000
       N       E                     dE             d eps       ncg     rms          rms(c)
DAV:   1    -0.851674221234E+03   -0.15921E-03   -0.36450E-02  4480   0.327E-01    0.445E-02
DAV:   2    -0.851674253085E+03   -0.31852E-04   -0.48985E-04  5000   0.391E-02    0.291E-02
DAV:   3    -0.851674253308E+03   -0.22281E-06   -0.36556E-05  4880   0.131E-02    0.696E-03
DAV:   4    -0.851674254589E+03   -0.12805E-05   -0.95988E-06  4840   0.537E-03    0.346E-03
DAV:   5    -0.851674255318E+03   -0.72952E-06   -0.12203E-06  3760   0.284E-03    0.140E-03
DAV:   6    -0.851674256100E+03   -0.78154E-06   -0.12288E-06  4120   0.307E-03
 265 F= -.85953296E+03 E0= -.85953296E+03  d E =-.197958E-03  mag=    -0.0000
       N       E                     dE             d eps       ncg     rms          rms(c)
DAV:   1    -0.851674388959E+03   -0.13364E-03   -0.50679E-02  4480   0.387E-01    0.535E-02
DAV:   2    -0.851674434921E+03   -0.45962E-04   -0.72281E-04  4880   0.471E-02    0.348E-02
DAV:   3    -0.851674434464E+03    0.45783E-06   -0.54052E-05  4880   0.156E-02    0.958E-03
DAV:   4    -0.851674436424E+03   -0.19602E-05   -0.12873E-05  4800   0.643E-03    0.424E-03
DAV:   5    -0.851674437539E+03   -0.11148E-05   -0.18025E-06  4120   0.350E-03    0.172E-03
DAV:   6    -0.851674438555E+03   -0.10168E-05   -0.18861E-06  4400   0.387E-03    0.855E-04
DAV:   7    -0.851674438537E+03    0.17979E-07   -0.11429E-06  4180   0.301E-03
 266 F= -.85953317E+03 E0= -.85953317E+03  d E =-.209466E-03  mag=    -0.0000
       N       E                     dE             d eps       ncg     rms          rms(c)
DAV:   1    -0.851674535699E+03   -0.97144E-04   -0.78930E-02  4480   0.484E-01    0.669E-02
DAV:   2    -0.851674614192E+03   -0.78492E-04   -0.12254E-03  4980   0.606E-02    0.444E-02
DAV:   3    -0.851674608163E+03    0.60291E-05   -0.89480E-05  4940   0.194E-02    0.135E-02
DAV:   4    -0.851674611447E+03   -0.32843E-05   -0.19649E-05  5000   0.711E-03    0.552E-03
DAV:   5    -0.851674612357E+03   -0.90991E-06   -0.14807E-06  4020   0.236E-03    0.212E-03
DAV:   6    -0.851674613269E+03   -0.91219E-06   -0.38850E-07  3480   0.142E-03
 267 F= -.85953335E+03 E0= -.85953335E+03  d E =-.182492E-03  mag=     0.0000
       N       E                     dE             d eps       ncg     rms          rms(c)
DAV:   1    -0.851674746855E+03   -0.13450E-03   -0.50226E-03  4840   0.130E-01    0.161E-02
DAV:   2    -0.851674754322E+03   -0.74679E-05   -0.12718E-04  4840   0.189E-02    0.114E-02
DAV:   3    -0.851674752581E+03    0.17412E-05   -0.73975E-06  5100   0.517E-03    0.583E-03
DAV:   4    -0.851674752737E+03   -0.15613E-06   -0.17352E-06  4100   0.260E-03    0.191E-03
DAV:   5    -0.851674753144E+03   -0.40700E-06   -0.49476E-07  3880   0.184E-03    0.683E-04
DAV:   6    -0.851674753345E+03   -0.20018E-06   -0.29878E-07  3480   0.152E-03
 268 F= -.85953349E+03 E0= -.85953349E+03  d E =-.137487E-03  mag=    -0.0000
       N       E                     dE             d eps       ncg     rms          rms(c)
DAV:   1    -0.851674710945E+03    0.42199E-04   -0.65508E-03  4520   0.149E-01    0.183E-02
DAV:   2    -0.851674720207E+03   -0.92623E-05   -0.16104E-04  4880   0.213E-02    0.128E-02
DAV:   3    -0.851674717721E+03    0.24869E-05   -0.92800E-06  5280   0.577E-03    0.653E-03
DAV:   4    -0.851674717473E+03    0.24796E-06   -0.20703E-06  4100   0.264E-03    0.211E-03
DAV:   5    -0.851674717611E+03   -0.13875E-06   -0.35446E-07  3600   0.133E-03    0.744E-04
DAV:   6    -0.851674717685E+03   -0.73400E-07   -0.11948E-07  3380   0.925E-04
 269 F= -.85953345E+03 E0= -.85953345E+03  d E =0.433488E-04  mag=    -0.0000
       N       E                     dE             d eps       ncg     rms          rms(c)
DAV:   1    -0.851674747241E+03   -0.29630E-04   -0.16690E-04  4760   0.241E-02    0.304E-03
DAV:   2    -0.851674747483E+03   -0.24180E-06   -0.41982E-06  4560   0.362E-03    0.216E-03
DAV:   3    -0.851674747443E+03    0.39792E-07   -0.30416E-07  3360   0.123E-03    0.108E-03
DAV:   4    -0.851674747495E+03   -0.51798E-07   -0.16091E-07  3280   0.997E-04    0.495E-04
DAV:   5    -0.851674747536E+03   -0.41531E-07   -0.13415E-07  3420   0.992E-04    0.419E-04
DAV:   6    -0.851674747501E+03    0.35005E-07   -0.38726E-08  3320   0.518E-04
 270 F= -.85953347E+03 E0= -.85953347E+03  d E =-.291372E-04  mag=    -0.0000
       N       E                     dE             d eps       ncg     rms          rms(c)
DAV:   1    -0.851674785814E+03   -0.38277E-04   -0.55460E-04  4920   0.440E-02    0.551E-03
DAV:   2    -0.851674786585E+03   -0.77070E-06   -0.13809E-05  4800   0.640E-03    0.386E-03
DAV:   3    -0.851674786341E+03    0.24335E-06   -0.76602E-07  3600   0.177E-03    0.189E-03
DAV:   4    -0.851674786325E+03    0.16385E-07   -0.26717E-07  3280   0.998E-04    0.661E-04
DAV:   5    -0.851674786335E+03   -0.96625E-08   -0.59847E-08  3320   0.478E-04    0.431E-04
DAV:   6    -0.851674786342E+03   -0.69194E-08   -0.11203E-08  3320   0.232E-04
 271 F= -.85953351E+03 E0= -.85953351E+03  d E =-.371311E-04  mag=    -0.0000
       N       E                     dE             d eps       ncg     rms          rms(c)
DAV:   1    -0.851674805913E+03   -0.19579E-04   -0.84035E-04  4680   0.539E-02    0.680E-03
DAV:   2    -0.851674807065E+03   -0.11512E-05   -0.20665E-05  4720   0.780E-03    0.476E-03
DAV:   3    -0.851674806702E+03    0.36243E-06   -0.11621E-06  3880   0.217E-03    0.232E-03
DAV:   4    -0.851674806674E+03    0.28340E-07   -0.41392E-07  3600   0.119E-03    0.814E-04
DAV:   5    -0.851674806682E+03   -0.83746E-08   -0.75052E-08  3120   0.547E-04    0.455E-04
DAV:   6    -0.851674806687E+03   -0.46057E-08   -0.19020E-08  3280   0.319E-04
 272 F= -.85953353E+03 E0= -.85953353E+03  d E =-.173609E-04  mag=    -0.0000
       N       E                     dE             d eps       ncg     rms          rms(c)
DAV:   1    -0.851674804932E+03    0.17506E-05   -0.73871E-04  4620   0.497E-02    0.643E-03
DAV:   2    -0.851674805945E+03   -0.10138E-05   -0.17289E-05  4720   0.704E-03    0.445E-03
DAV:   3    -0.851674805665E+03    0.27993E-06   -0.92220E-07  3840   0.195E-03    0.217E-03
DAV:   4    -0.851674805651E+03    0.14465E-07   -0.35745E-07  3520   0.113E-03    0.743E-04
DAV:   5    -0.851674805662E+03   -0.11096E-07   -0.75862E-08  3040   0.591E-04    0.452E-04
DAV:   6    -0.851674805665E+03   -0.27867E-08   -0.26871E-08  3280   0.395E-04
 273 F= -.85953352E+03 E0= -.85953352E+03  d E =0.581187E-05  mag=    -0.0000
       N       E                     dE             d eps       ncg     rms          rms(c)
DAV:   1    -0.851674803406E+03    0.22561E-05   -0.46134E-04  4480   0.371E-02    0.516E-03
DAV:   2    -0.851674804020E+03   -0.61367E-06   -0.92214E-06  4640   0.493E-03    0.341E-03
DAV:   3    -0.851674803916E+03    0.10399E-06   -0.41659E-07  3600   0.136E-03    0.166E-03
DAV:   4    -0.851674803929E+03   -0.12871E-07   -0.19321E-07  3240   0.873E-04    0.566E-04
DAV:   5    -0.851674803941E+03   -0.12027E-07   -0.62073E-08  3000   0.580E-04    0.430E-04
DAV:   6    -0.851674803934E+03    0.61627E-08   -0.19285E-08  3320   0.345E-04
 274 F= -.85953352E+03 E0= -.85953352E+03  d E =0.773118E-05  mag=    -0.0000
       N       E                     dE             d eps       ncg     rms          rms(c)
DAV:   1    -0.851674820426E+03   -0.16485E-04   -0.39387E-04  4480   0.310E-02    0.478E-03
DAV:   2    -0.851674820937E+03   -0.51068E-06   -0.65082E-06  4240   0.376E-03    0.286E-03
DAV:   3    -0.851674820927E+03    0.94151E-08   -0.22382E-07  3280   0.102E-03    0.140E-03
DAV:   4    -0.851674820958E+03   -0.30639E-07   -0.13360E-07  3160   0.706E-04    0.501E-04
DAV:   5    -0.851674820972E+03   -0.13890E-07   -0.54666E-08  3020   0.571E-04    0.410E-04
DAV:   6    -0.851674820962E+03    0.98953E-08   -0.20317E-08  3380   0.353E-04
 275 F= -.85953353E+03 E0= -.85953353E+03  d E =-.999016E-05  mag=    -0.0000
       N       E                     dE             d eps       ncg     rms          rms(c)
DAV:   1    -0.851674856996E+03   -0.36024E-04   -0.79732E-04  4480   0.460E-02    0.657E-03
DAV:   2    -0.851674858182E+03   -0.11863E-05   -0.15922E-05  4680   0.600E-03    0.412E-03
DAV:   3    -0.851674858071E+03    0.11097E-06   -0.50161E-07  3640   0.147E-03    0.213E-03
DAV:   4    -0.851674858107E+03   -0.35754E-07   -0.27483E-07  3320   0.100E-03    0.610E-04
DAV:   5    -0.851674858115E+03   -0.83674E-08   -0.68439E-08  3000   0.570E-04    0.445E-04
DAV:   6    -0.851674858115E+03    0.00000E+00   -0.15232E-08  3420   0.303E-04
 276 F= -.85953355E+03 E0= -.85953355E+03  d E =-.286017E-04  mag=    -0.0000
       N       E                     dE             d eps       ncg     rms          rms(c)
DAV:   1    -0.851674892233E+03   -0.34118E-04   -0.15095E-03  4480   0.653E-02    0.890E-03
DAV:   2    -0.851674894556E+03   -0.23230E-05   -0.32914E-05  4680   0.886E-03    0.584E-03
DAV:   3    -0.851674894232E+03    0.32327E-06   -0.12705E-06  4040   0.224E-03    0.305E-03
DAV:   4    -0.851674894262E+03   -0.29097E-07   -0.54414E-07  3720   0.143E-03    0.829E-04
DAV:   5    -0.851674894288E+03   -0.26310E-07   -0.14469E-07  3040   0.881E-04    0.504E-04
DAV:   6    -0.851674894283E+03    0.51077E-08   -0.57059E-08  3360   0.593E-04
 277 F= -.85953358E+03 E0= -.85953358E+03  d E =-.263859E-04  mag=    -0.0000
