unknown system                          
           1
    17.271038    0.000000    0.000000
    -8.635519   14.957158    0.000000
     0.000000    0.000000   15.000000
   C    H    O 
    88    10     1
Direct configuration=     1
   0.00086443  0.00021352  0.50157769
   0.00033853  0.14279602  0.50259705
   0.00005861  0.28558227  0.50232648
   0.00031156  0.42862350  0.50145525
   0.00084366  0.57172604  0.50012126
   0.00185853  0.71496037  0.49952768
   0.00183664  0.85799255  0.50016688
   0.14400667  0.00057514  0.49917301
   0.14341460  0.14314245  0.49809031
   0.14242385  0.28521923  0.49595201
   0.14239974  0.42827374  0.49557383
   0.14337781  0.57135235  0.49707896
   0.14399126  0.71451827  0.49850981
   0.14420371  0.85765435  0.49946541
   0.28652384  0.00009814  0.49819066
   0.28629530  0.14279584  0.49471126
   0.28601610  0.28682386  0.48738482
   0.28368582  0.42746385  0.48201347
   0.28599004  0.57024770  0.48715938
   0.28631950  0.71460398  0.49446209
   0.28654022  0.85754767  0.49814412
   0.42944442  0.00029953  0.49870198
   0.42917036  0.14275904  0.49674646
   0.42731735  0.28224592  0.49174137
   0.42735753  0.71611201  0.49142951
   0.42917298  0.85751172  0.49664562
   0.57208405  0.00043226  0.50009007
   0.57212084  0.14287154  0.50009776
   0.57292092  0.28621362  0.49706738
   0.57290727  0.85786271  0.49680244
   0.71497653  0.00019363  0.50182202
   0.71505256  0.14308652  0.50318763
   0.71498220  0.28589812  0.50143414
   0.71457382  0.42806273  0.49781653
   0.71863019  0.57392717  0.49506909
   0.71869356  0.71578953  0.49508982
   0.71458682  0.85763586  0.49814844
   0.85792782  0.00025141  0.50259172
   0.85753487  0.14287902  0.50445446
   0.85750999  0.28569941  0.50387685
   0.85792563  0.42876107  0.50135483
   0.85856694  0.57219937  0.49850111
   0.86012611  0.71561022  0.49781544
   0.85853520  0.85745152  0.49961874
   0.04832264  0.09544735  0.50124404
   0.04732953  0.23768964  0.50095615
   0.04732003  0.38073598  0.50043928
   0.04829079  0.52394222  0.49991122
   0.04884549  0.66704893  0.49952423
   0.04912645  0.81012083  0.49981376
   0.04883944  0.95287346  0.50054475
   0.19113034  0.09534375  0.49714003
   0.19045404  0.23811670  0.49440740
   0.18885840  0.37998345  0.49195224
   0.19042155  0.52341367  0.49370098
   0.19113790  0.66689039  0.49648694
   0.19159910  0.80993952  0.49872970
   0.19158935  0.95274630  0.49895191
   0.33407502  0.09545133  0.49653068
   0.33440632  0.23796855  0.49068028
   0.32951953  0.37919259  0.47797099
   0.32964929  0.52152096  0.47835929
   0.33441664  0.66753590  0.49049864
   0.33409086  0.80975746  0.49647341
   0.33406378  0.95259689  0.49845189
   0.47697320  0.09526940  0.49868337
   0.47617778  0.23783901  0.49513987
   0.47616405  0.80941576  0.49486992
   0.47695185  0.95282276  0.49863908
   0.61963076  0.09539716  0.50142562
   0.61989570  0.23812520  0.49978324
   0.62170590  0.37947889  0.49614308
   0.62172318  0.81341051  0.49582091
   0.61988589  0.95291955  0.49979814
   0.76256706  0.09555029  0.50369959
   0.76254025  0.23812155  0.50333026
   0.76275741  0.38105339  0.50043341
   0.76277220  0.52531039  0.49693646
   0.76489142  0.66794854  0.49572294
   0.76276707  0.80853901  0.49749642
   0.76275533  0.95281685  0.50116281
   0.90516366  0.09505582  0.50384648
   0.90494890  0.23801940  0.50427613
   0.90514124  0.38116064  0.50272974
   0.90571828  0.52428587  0.50015142
   0.90665365  0.66734058  0.49854918
   0.90663700  0.81041129  0.49928836
   0.90572485  0.95249683  0.50158528
   0.46351580  0.35478836  0.49012812
   0.40134337  0.41748444  0.46639736
   0.40188482  0.55488596  0.47064757
   0.64607339  0.67623640  0.49326524
   0.64600606  0.54088519  0.49498410
   0.58585792  0.41610950  0.49406942
   0.58573598  0.74094562  0.49279605
   0.46326035  0.67945253  0.48980416
   0.51649894  0.58640328  0.61570177
   0.46935875  0.48704045  0.58932992
   0.51615673  0.54609621  0.57005035
Direct configuration=     2
   0.00086762  0.00021177  0.50158015
   0.00033403  0.14282191  0.50259546
   0.00007269  0.28556966  0.50231760
   0.00030353  0.42861405  0.50142983
   0.00082892  0.57173780  0.50008073
   0.00187956  0.71496765  0.49949224
   0.00181882  0.85796135  0.50013554
   0.14402794  0.00056383  0.49915977
   0.14344441  0.14319034  0.49807918
   0.14242846  0.28521406  0.49594038
   0.14240398  0.42825865  0.49553660
   0.14338896  0.57136506  0.49707599
   0.14400151  0.71454933  0.49848121
   0.14420370  0.85763884  0.49944657
   0.28651557  0.00007312  0.49817330
   0.28630803  0.14279377  0.49469683
   0.28599988  0.28683592  0.48740925
   0.28370102  0.42745836  0.48207565
   0.28598793  0.57023697  0.48718754
   0.28632375  0.71461139  0.49446417
   0.28651885  0.85753514  0.49813412
   0.42941735  0.00029665  0.49870163
   0.42917630  0.14274829  0.49673281
   0.42730829  0.28223294  0.49166805
   0.42736325  0.71615091  0.49142400
   0.42913901  0.85748465  0.49665177
   0.57207604  0.00043834  0.50010729
   0.57213662  0.14291651  0.50009149
   0.57293062  0.28619245  0.49700194
   0.57291540  0.85783680  0.49678582
   0.71499645  0.00018881  0.50183089
   0.71507661  0.14311505  0.50319362
   0.71498815  0.28589185  0.50140582
   0.71459418  0.42805408  0.49774552
   0.71862568  0.57392628  0.49502376
   0.71869215  0.71580758  0.49504240
   0.71460346  0.85764493  0.49814038
   0.85789002  0.00024623  0.50259978
   0.85752110  0.14286699  0.50443817
   0.85749255  0.28568491  0.50388580
   0.85788505  0.42874094  0.50131810
   0.85854351  0.57217337  0.49844717
   0.86013620  0.71563021  0.49777362
   0.85849432  0.85742920  0.49960120
   0.04833831  0.09547621  0.50123116
   0.04735675  0.23770324  0.50094945
   0.04735107  0.38075699  0.50042585
   0.04828666  0.52394360  0.49987317
   0.04888376  0.66706099  0.49949622
   0.04915417  0.81014056  0.49979047
   0.04883979  0.95285048  0.50053579
   0.19109731  0.09533515  0.49714124
   0.19045221  0.23813658  0.49438770
   0.18886110  0.37997669  0.49198489
   0.19042095  0.52340932  0.49369673
   0.19111300  0.66690050  0.49646634
   0.19158935  0.80992205  0.49870908
   0.19157405  0.95271525  0.49895034
   0.33405299  0.09542235  0.49656054
   0.33439782  0.23800171  0.49066157
   0.32954403  0.37919402  0.47804052
   0.32969178  0.52152705  0.47845267
   0.33440871  0.66753663  0.49049896
   0.33406131  0.80977234  0.49646377
   0.33405003  0.95256444  0.49845406
   0.47698177  0.09526036  0.49867497
   0.47617763  0.23784160  0.49510416
   0.47618144  0.80942386  0.49485384
   0.47692033  0.95279613  0.49865880
   0.61963267  0.09541775  0.50143576
   0.61991351  0.23814969  0.49975858
   0.62171796  0.37950298  0.49606802
   0.62173742  0.81340005  0.49578179
   0.61990250  0.95289313  0.49980112
   0.76256104  0.09554412  0.50368238
   0.76251583  0.23813881  0.50332638
   0.76276928  0.38107067  0.50039014
   0.76274248  0.52527558  0.49685999
   0.76487291  0.66794246  0.49564654
   0.76275976  0.80853968  0.49746718
   0.76274503  0.95279281  0.50117198
   0.90516639  0.09504649  0.50382929
   0.90495927  0.23802467  0.50423388
   0.90513858  0.38117993  0.50270357
   0.90570473  0.52425299  0.50010539
   0.90663992  0.66732752  0.49849640
   0.90662319  0.81042955  0.49926440
   0.90570390  0.95247872  0.50157618
   0.46352063  0.35478917  0.49005088
   0.40137590  0.41754367  0.46655618
   0.40191778  0.55486734  0.47081039
   0.64606419  0.67623165  0.49321070
   0.64599474  0.54087958  0.49491303
   0.58585927  0.41610290  0.49396720
   0.58573105  0.74094741  0.49275679
   0.46325594  0.67945795  0.48978155
   0.51677262  0.58686301  0.61596161
   0.46929509  0.48681514  0.59041878
   0.51600220  0.54591688  0.57063672
Direct configuration=     3
   0.00087281  0.00021201  0.50158173
   0.00034340  0.14284263  0.50258906
   0.00010512  0.28558378  0.50230375
   0.00030479  0.42861837  0.50139164
   0.00082214  0.57173941  0.50002133
   0.00190219  0.71497209  0.49944176
   0.00180996  0.85794530  0.50009569
   0.14402889  0.00054582  0.49914581
   0.14345827  0.14322551  0.49806280
   0.14243943  0.28522110  0.49592559
   0.14241890  0.42825611  0.49549007
   0.14338845  0.57137502  0.49706900
   0.14401224  0.71456952  0.49843905
   0.14420729  0.85762312  0.49941997
   0.28649594  0.00003430  0.49815206
   0.28629431  0.14279650  0.49468369
   0.28598912  0.28685703  0.48744060
   0.28372898  0.42745843  0.48216527
   0.28599869  0.57022792  0.48722660
   0.28630392  0.71461571  0.49446432
   0.28648469  0.85751758  0.49811900
   0.42939260  0.00027703  0.49870292
   0.42917364  0.14273264  0.49671570
   0.42730407  0.28224661  0.49156464
   0.42736255  0.71616926  0.49141172
   0.42911330  0.85746770  0.49666349
   0.57206768  0.00042740  0.50013166
   0.57215278  0.14294776  0.50008268
   0.57294862  0.28622023  0.49690842
   0.57293388  0.85781078  0.49676015
   0.71500204  0.00016909  0.50184194
   0.71507858  0.14312934  0.50320029
   0.71499445  0.28591618  0.50136525
   0.71459450  0.42804297  0.49764183
   0.71860525  0.57391283  0.49495437
   0.71867275  0.71580536  0.49497175
   0.71460949  0.85763810  0.49812637
   0.85786809  0.00023150  0.50260953
   0.85751903  0.14285999  0.50440928
   0.85748585  0.28569419  0.50389258
   0.85786488  0.42872793  0.50126538
   0.85851744  0.57213760  0.49836881
   0.86012857  0.71563887  0.49771151
   0.85846464  0.85741810  0.49957822
   0.04835241  0.09551325  0.50121457
   0.04737577  0.23771334  0.50093976
   0.04736558  0.38075450  0.50040453
   0.04827869  0.52394853  0.49981932
   0.04889949  0.66707799  0.49945536
   0.04916585  0.81013733  0.49975451
   0.04884304  0.95282219  0.50052258
   0.19109419  0.09534010  0.49714004
   0.19045885  0.23816642  0.49435999
   0.18887628  0.37996815  0.49202529
   0.19042457  0.52340649  0.49368862
   0.19111274  0.66691868  0.49643861
   0.19158186  0.80992219  0.49867716
   0.19157482  0.95268455  0.49894642
   0.33404819  0.09539373  0.49659508
   0.33438314  0.23800894  0.49063453
   0.32957284  0.37920879  0.47813839
   0.32972779  0.52151714  0.47858533
   0.33440234  0.66754472  0.49050157
   0.33402954  0.80976587  0.49645732
   0.33402629  0.95253531  0.49845453
   0.47699196  0.09526390  0.49866211
   0.47617656  0.23781949  0.49504821
   0.47619203  0.80944041  0.49483146
   0.47688914  0.95277623  0.49868645
   0.61964315  0.09545242  0.50145101
   0.61993956  0.23817657  0.49972014
   0.62172578  0.37948828  0.49596071
   0.62176157  0.81338905  0.49572533
   0.61991303  0.95288110  0.49980793
   0.76255964  0.09554557  0.50365958
   0.76251217  0.23815671  0.50332460
   0.76276430  0.38105473  0.50032757
   0.76272242  0.52525097  0.49675467
   0.76486627  0.66794981  0.49554032
   0.76274219  0.80853935  0.49742680
   0.76273518  0.95277700  0.50118637
   0.90515034  0.09504081  0.50380969
   0.90495838  0.23801576  0.50417988
   0.90511655  0.38117129  0.50266787
   0.90568217  0.52423278  0.50003975
   0.90663728  0.66732029  0.49842184
   0.90660254  0.81043556  0.49922881
   0.90567194  0.95246491  0.50156498
   0.46352387  0.35478212  0.48993935
   0.40142439  0.41762606  0.46678449
   0.40197428  0.55484659  0.47104310
   0.64605508  0.67622954  0.49313288
   0.64598099  0.54087367  0.49481307
   0.58585742  0.41610120  0.49382101
   0.58572361  0.74094351  0.49269905
   0.46324370  0.67947375  0.48974984
   0.51714621  0.58742734  0.61627439
   0.46929624  0.48663607  0.59196073
   0.51570518  0.54560753  0.57156807
Direct configuration=     4
   0.00087472  0.00021525  0.50158031
   0.00035382  0.14284818  0.50257562
   0.00013224  0.28561008  0.50228066
   0.00031135  0.42863064  0.50134342
   0.00082137  0.57172719  0.49994953
   0.00190842  0.71496999  0.49938127
   0.00181305  0.85794359  0.50005764
   0.14401355  0.00052618  0.49913357
   0.14345191  0.14323401  0.49804088
   0.14245172  0.28524266  0.49591494
   0.14244317  0.42827021  0.49544457
   0.14337784  0.57138016  0.49705473
   0.14401629  0.71456911  0.49838474
   0.14420654  0.85761187  0.49938888
   0.28648058  0.00000669  0.49813571
   0.28626566  0.14279706  0.49467623
   0.28599641  0.28688369  0.48747191
   0.28376374  0.42746196  0.48227925
   0.28602719  0.57022829  0.48727254
   0.28626703  0.71461406  0.49445899
   0.28645052  0.85749997  0.49809845
   0.42938028  0.00025170  0.49870973
   0.42916129  0.14271163  0.49669834
   0.42730685  0.28225972  0.49143812
   0.42734981  0.71616350  0.49139301
   0.42909964  0.85746604  0.49667672
   0.57206331  0.00040886  0.50016254
   0.57216757  0.14295694  0.50007316
   0.57295884  0.28626099  0.49679780
   0.57295891  0.85779829  0.49672422
   0.71499317  0.00015219  0.50185234
   0.71505817  0.14312179  0.50320433
   0.71499932  0.28595662  0.50131557
   0.71457356  0.42802744  0.49751354
   0.71858507  0.57389323  0.49486417
   0.71864755  0.71579127  0.49487898
   0.71460440  0.85761665  0.49810550
   0.85787083  0.00021601  0.50261925
   0.85752635  0.14286293  0.50436286
   0.85749282  0.28571603  0.50389143
   0.85787042  0.42872312  0.50120078
   0.85849589  0.57211583  0.49827063
   0.86010377  0.71562623  0.49763078
   0.85845305  0.85742379  0.49955035
   0.04835421  0.09553341  0.50119852
   0.04738032  0.23772098  0.50092774
   0.04736234  0.38073862  0.50037332
   0.04827408  0.52395798  0.49975623
   0.04888446  0.66708381  0.49940299
   0.04914893  0.81010561  0.49971083
   0.04884909  0.95280644  0.50050719
   0.19111552  0.09535243  0.49713509
   0.19047376  0.23819701  0.49433425
   0.18890971  0.37997257  0.49205996
   0.19043728  0.52341308  0.49367671
   0.19113190  0.66693306  0.49640935
   0.19157470  0.80993499  0.49863345
   0.19158524  0.95266301  0.49893667
   0.33405471  0.09537590  0.49662509
   0.33436667  0.23799044  0.49059749
   0.32960890  0.37924336  0.47825938
   0.32975757  0.52150613  0.47874765
   0.33439799  0.66755731  0.49050760
   0.33400250  0.80973606  0.49645449
   0.33399687  0.95251419  0.49845004
   0.47699749  0.09527092  0.49864507
   0.47617050  0.23779949  0.49496964
   0.47619168  0.80945723  0.49480356
   0.47687196  0.95276958  0.49871774
   0.61965140  0.09547481  0.50147071
   0.61996175  0.23820551  0.49966625
   0.62172612  0.37945489  0.49583759
   0.62178291  0.81337288  0.49565760
   0.61990713  0.95288577  0.49981694
   0.76255944  0.09554588  0.50363765
   0.76252984  0.23816846  0.50332429
   0.76274465  0.38102239  0.50024635
   0.76271039  0.52524421  0.49663254
   0.76486874  0.66796463  0.49541652
   0.76271500  0.80852713  0.49737954
   0.76272882  0.95277020  0.50120567
   0.90512736  0.09503961  0.50378875
   0.90495517  0.23800759  0.50412221
   0.90509289  0.38114464  0.50262630
   0.90565963  0.52423141  0.49995660
   0.90664964  0.66731966  0.49833755
   0.90658274  0.81042525  0.49918206
   0.90565296  0.95246518  0.50155673
   0.46352885  0.35477627  0.48980040
   0.40148445  0.41772117  0.46706660
   0.40204673  0.55482491  0.47132873
   0.64604141  0.67622798  0.49303785
   0.64596139  0.54086590  0.49469465
   0.58585807  0.41610034  0.49364329
   0.58571489  0.74092977  0.49262523
   0.46322527  0.67949795  0.48971169
   0.51756745  0.58798100  0.61660623
   0.46937423  0.48657465  0.59385910
   0.51528789  0.54520200  0.57277523
Direct configuration=     5
   0.00086963  0.00021964  0.50157431
   0.00033427  0.14283680  0.50255604
   0.00011543  0.28561069  0.50224808
   0.00030758  0.42862976  0.50129616
   0.00081148  0.57171771  0.49986976
   0.00187813  0.71495219  0.49931536
   0.00181270  0.85793528  0.50002532
   0.14401142  0.00052050  0.49912531
   0.14344278  0.14322453  0.49801195
   0.14246033  0.28527056  0.49591567
   0.14246867  0.42828982  0.49541054
   0.14337594  0.57138298  0.49702932
   0.14400207  0.71455039  0.49832060
   0.14418823  0.85760838  0.49935312
   0.28648556  0.00001132  0.49813087
   0.28626529  0.14278475  0.49467290
   0.28603221  0.28690882  0.48749364
   0.28379530  0.42746849  0.48240506
   0.28606940  0.57024399  0.48732446
   0.28625137  0.71460473  0.49444551
   0.28644103  0.85749121  0.49807670
   0.42938114  0.00024399  0.49872306
   0.42914860  0.14269538  0.49668280
   0.42731023  0.28223886  0.49130995
   0.42732123  0.71616097  0.49136657
   0.42909513  0.85747376  0.49668917
   0.57206105  0.00040644  0.50019918
   0.57216839  0.14294848  0.50006082
   0.57293754  0.28624047  0.49668904
   0.57296910  0.85781127  0.49669178
   0.71497871  0.00015885  0.50185993
   0.71504434  0.14311112  0.50320384
   0.71500434  0.28596445  0.50126867
   0.71455169  0.42800947  0.49736901
   0.71858411  0.57389542  0.49475665
   0.71863326  0.71577374  0.49476924
   0.71459867  0.85759730  0.49807799
   0.85788537  0.00021840  0.50262816
   0.85752990  0.14287609  0.50429932
   0.85750500  0.28571433  0.50387634
   0.85788395  0.42871977  0.50112678
   0.85849283  0.57213221  0.49816246
   0.86009305  0.71559969  0.49754058
   0.85845378  0.85743336  0.49951871
   0.04834156  0.09551448  0.50118543
   0.04737755  0.23773092  0.50091178
   0.04736486  0.38074990  0.50032925
   0.04827626  0.52396353  0.49969019
   0.04885651  0.66706126  0.49934611
   0.04911889  0.81007693  0.49966448
   0.04884820  0.95281857  0.50049061
   0.19111772  0.09534861  0.49712664
   0.19048618  0.23821206  0.49431861
   0.18894948  0.38000473  0.49207920
   0.19045466  0.52343047  0.49365948
   0.19113096  0.66692212  0.49638218
   0.19155877  0.80992835  0.49857790
   0.19157991  0.95265751  0.49891832
   0.33404618  0.09537233  0.49663640
   0.33435679  0.23797098  0.49054946
   0.32965259  0.37928852  0.47839146
   0.32980227  0.52151756  0.47892516
   0.33439075  0.66755955  0.49051719
   0.33399053  0.80970997  0.49645411
   0.33397894  0.95250103  0.49843734
   0.47699369  0.09525988  0.49862585
   0.47614878  0.23780229  0.49487188
   0.47618528  0.80945769  0.49477291
   0.47687857  0.95277185  0.49874437
   0.61963808  0.09544892  0.50149406
   0.61996119  0.23822795  0.49959772
   0.62171492  0.37945872  0.49570382
   0.62178213  0.81335446  0.49558579
   0.61988533  0.95288848  0.49982624
   0.76255165  0.09553718  0.50361619
   0.76254546  0.23817082  0.50332424
   0.76273793  0.38103219  0.50016075
   0.76269530  0.52524654  0.49650380
   0.76485368  0.66795463  0.49528619
   0.76268951  0.80849358  0.49733583
   0.76272735  0.95276301  0.50122825
   0.90512616  0.09504022  0.50376539
   0.90496871  0.23802484  0.50406573
   0.90510620  0.38114241  0.50258329
   0.90565329  0.52423977  0.49986645
   0.90665489  0.66731626  0.49825347
   0.90657546  0.81040881  0.49912611
   0.90567565  0.95248278  0.50155531
   0.46353821  0.35478258  0.48964511
   0.40155011  0.41781507  0.46737812
   0.40211370  0.55480094  0.47164130
   0.64601613  0.67622298  0.49293504
   0.64593479  0.54085539  0.49457482
   0.58586993  0.41609220  0.49345506
   0.58570637  0.74090287  0.49253937
   0.46320808  0.67952047  0.48967120
   0.51796162  0.58841373  0.61698189
   0.46945080  0.48662592  0.59600275
   0.51491480  0.54481609  0.57405517
Direct configuration=     6
   0.00087068  0.00021988  0.50156410
   0.00031912  0.14283059  0.50252655
   0.00008570  0.28560445  0.50220692
   0.00031114  0.42862597  0.50125235
   0.00079002  0.57172141  0.49979743
   0.00183210  0.71491899  0.49925332
   0.00179921  0.85792573  0.50000249
   0.14402236  0.00053523  0.49912221
   0.14344944  0.14321303  0.49798429
   0.14246804  0.28529238  0.49592933
   0.14248478  0.42831207  0.49539933
   0.14338805  0.57137653  0.49699517
   0.14396234  0.71451825  0.49825661
   0.14415269  0.85759883  0.49932129
   0.28649496  0.00003463  0.49813975
   0.28628614  0.14276680  0.49467595
   0.28607933  0.28692149  0.48749587
   0.28382227  0.42749228  0.48251824
   0.28609731  0.57026502  0.48738258
   0.28626594  0.71458281  0.49442344
   0.28645158  0.85748088  0.49805194
   0.42938371  0.00024826  0.49873661
   0.42914081  0.14269698  0.49666640
   0.42730102  0.28221812  0.49119776
   0.42730270  0.71619492  0.49133334
   0.42909933  0.85747479  0.49669686
   0.57204770  0.00041220  0.50023799
   0.57215924  0.14294283  0.50004533
   0.57289070  0.28619081  0.49659088
   0.57294504  0.85782409  0.49666041
   0.71496555  0.00017032  0.50186212
   0.71506188  0.14312124  0.50319698
   0.71501088  0.28593727  0.50122959
   0.71454321  0.42801468  0.49722885
   0.71857434  0.57390765  0.49464388
   0.71862757  0.71574369  0.49466632
   0.71459287  0.85758600  0.49804700
   0.85789434  0.00024109  0.50263566
   0.85752463  0.14288758  0.50422612
   0.85751722  0.28569278  0.50384320
   0.85788959  0.42872575  0.50105025
   0.85849872  0.57215642  0.49806095
   0.86009787  0.71558101  0.49745048
   0.85845909  0.85742539  0.49949091
   0.04832069  0.09547787  0.50117617
   0.04736419  0.23773506  0.50089111
   0.04738541  0.38078860  0.50027428
   0.04827821  0.52395151  0.49963696
   0.04883132  0.66702083  0.49928633
   0.04909381  0.81007150  0.49962035
   0.04883664  0.95283918  0.50047547
   0.19109280  0.09532282  0.49711924
   0.19049162  0.23820367  0.49432003
   0.18897293  0.38004802  0.49207693
   0.19047524  0.52345256  0.49364236
   0.19109570  0.66689182  0.49636174
   0.19153377  0.80990068  0.49851453
   0.19155799  0.95266943  0.49889222
   0.33403216  0.09537911  0.49662507
   0.33437120  0.23796814  0.49050084
   0.32969379  0.37932453  0.47850777
   0.32986976  0.52156001  0.47909781
   0.33438255  0.66754522  0.49052746
   0.33400128  0.80971773  0.49645307
   0.33399439  0.95251110  0.49841544
   0.47698247  0.09523691  0.49861710
   0.47612780  0.23778547  0.49477320
   0.47617647  0.80944686  0.49474491
   0.47689742  0.95277856  0.49876464
   0.61961127  0.09539826  0.50151938
   0.61993160  0.23820295  0.49952759
   0.62168721  0.37946629  0.49557526
   0.62174515  0.81334005  0.49551827
   0.61987073  0.95287823  0.49983624
   0.76254433  0.09553537  0.50359180
   0.76253801  0.23815488  0.50332211
   0.76275935  0.38107895  0.50008060
   0.76268910  0.52525150  0.49638693
   0.76482716  0.66791475  0.49518335
   0.76270806  0.80848169  0.49729648
   0.76272894  0.95275775  0.50124963
   0.90514605  0.09505388  0.50374283
   0.90498029  0.23804638  0.50401325
   0.90514110  0.38116200  0.50254891
   0.90566542  0.52424573  0.49977913
   0.90662962  0.66730708  0.49818761
   0.90657974  0.81039274  0.49906658
   0.90571487  0.95249526  0.50156373
   0.46353971  0.35478243  0.48949521
   0.40161392  0.41788880  0.46767534
   0.40215802  0.55478045  0.47193374
   0.64598494  0.67621586  0.49284032
   0.64591731  0.54084863  0.49448002
   0.58588144  0.41608780  0.49329001
   0.58570026  0.74086669  0.49245039
   0.46319467  0.67953269  0.48963561
   0.51824361  0.58865355  0.61747682
   0.46942536  0.48677511  0.59814986
   0.51476553  0.54454320  0.57504952
Direct configuration=     7
   0.00087159  0.00021897  0.50156439
   0.00032331  0.14283205  0.50252557
   0.00009073  0.28560882  0.50220531
   0.00031384  0.42862892  0.50125293
   0.00079164  0.57171900  0.49979842
   0.00183523  0.71492160  0.49925540
   0.00179929  0.85792881  0.50000318
   0.14401862  0.00053431  0.49912300
   0.14344783  0.14321194  0.49798546
   0.14246881  0.28529109  0.49592994
   0.14248421  0.42831373  0.49540100
   0.14338661  0.57137486  0.49699437
   0.14396199  0.71451747  0.49825737
   0.14415381  0.85759927  0.49932115
   0.28649246  0.00003261  0.49814036
   0.28628256  0.14276804  0.49467617
   0.28607668  0.28692045  0.48749320
   0.28382340  0.42749549  0.48251569
   0.28609606  0.57026405  0.48738315
   0.28626422  0.71458274  0.49442303
   0.28645049  0.85748143  0.49805145
   0.42938417  0.00024761  0.49873633
   0.42914145  0.14269692  0.49666579
   0.42730193  0.28222225  0.49119932
   0.42730499  0.71619240  0.49133224
   0.42910073  0.85747525  0.49669615
   0.57204688  0.00040878  0.50023769
   0.57215746  0.14293960  0.50004491
   0.57289233  0.28619551  0.49659181
   0.57294322  0.85782177  0.49666032
   0.71496585  0.00016758  0.50186149
   0.71505845  0.14311704  0.50319644
   0.71500999  0.28593949  0.50123052
   0.71454326  0.42801713  0.49723181
   0.71857209  0.57390449  0.49464402
   0.71862770  0.71574375  0.49466865
   0.71459129  0.85758562  0.49804725
   0.85789444  0.00023952  0.50263586
   0.85752578  0.14288672  0.50422538
   0.85751691  0.28569615  0.50384130
   0.85789041  0.42872750  0.50105071
   0.85849753  0.57215231  0.49806237
   0.86009587  0.71558233  0.49745110
   0.85846171  0.85742525  0.49949199
   0.04832367  0.09548266  0.50117582
   0.04736421  0.23773503  0.50089040
   0.04738537  0.38078611  0.50027364
   0.04827834  0.52395202  0.49963927
   0.04883130  0.66702365  0.49928568
   0.04909334  0.81007121  0.49962121
   0.04883714  0.95283655  0.50047580
   0.19109637  0.09532508  0.49711930
   0.19049276  0.23820426  0.49432088
   0.18897045  0.38004619  0.49207554
   0.19047639  0.52345088  0.49364317
   0.19109808  0.66689377  0.49636203
   0.19153420  0.80990143  0.49851442
   0.19155928  0.95266971  0.49889196
   0.33403508  0.09537974  0.49662380
   0.33437260  0.23796761  0.49050102
   0.32969289  0.37932214  0.47850416
   0.32986596  0.52155845  0.47909682
   0.33438338  0.66754644  0.49052720
   0.33400243  0.80971798  0.49645217
   0.33399516  0.95251153  0.49841511
   0.47698208  0.09523923  0.49861835
   0.47612817  0.23778350  0.49477348
   0.47617595  0.80944916  0.49474541
   0.47689505  0.95277765  0.49876419
   0.61961416  0.09540367  0.50151908
   0.61993209  0.23819963  0.49952768
   0.62168705  0.37946087  0.49557654
   0.62174476  0.81334140  0.49551893
   0.61987284  0.95287885  0.49983612
   0.76254619  0.09553771  0.50359073
   0.76253824  0.23815460  0.50332135
   0.76275845  0.38107495  0.50008167
   0.76269037  0.52525250  0.49638911
   0.76483093  0.66791755  0.49518737
   0.76270935  0.80848265  0.49729710
   0.76272879  0.95275900  0.50124861
   0.90514360  0.09505422  0.50374177
   0.90497728  0.23804283  0.50401278
   0.90513817  0.38115919  0.50255021
   0.90566402  0.52424594  0.49978010
   0.90662923  0.66730756  0.49818928
   0.90657965  0.81039249  0.49906682
   0.90570996  0.95249281  0.50156434
   0.46353786  0.35478008  0.48949661
   0.40161357  0.41788596  0.46767233
   0.40215791  0.55478303  0.47192952
   0.64598608  0.67621663  0.49284178
   0.64591863  0.54084927  0.49448392
   0.58587924  0.41609003  0.49329396
   0.58570085  0.74086737  0.49245027
   0.46319410  0.67953298  0.48963647
   0.51823229  0.58863019  0.61748934
   0.46942146  0.48679940  0.59813249
   0.51477896  0.54454131  0.57502169
Direct configuration=     8
   0.00087310  0.00021732  0.50156497
   0.00033079  0.14283485  0.50252362
   0.00009963  0.28561648  0.50220208
   0.00031858  0.42863398  0.50125407
   0.00079455  0.57171481  0.49980031
   0.00184078  0.71492650  0.49925943
   0.00179931  0.85793413  0.50000453
   0.14401204  0.00053271  0.49912453
   0.14344592  0.14321043  0.49798765
   0.14247025  0.28528862  0.49593111
   0.14248313  0.42831653  0.49540425
   0.14338425  0.57137189  0.49699278
   0.14396142  0.71451619  0.49825880
   0.14415583  0.85760006  0.49932084
   0.28648809  0.00002909  0.49814153
   0.28627641  0.14277037  0.49467658
   0.28607179  0.28691836  0.48748791
   0.28382519  0.42750104  0.48251074
   0.28609365  0.57026235  0.48738435
   0.28626133  0.71458285  0.49442220
   0.28644863  0.85748249  0.49805043
   0.42938500  0.00024665  0.49873581
   0.42914271  0.14269688  0.49666457
   0.42730362  0.28222944  0.49120235
   0.42730914  0.71618799  0.49133008
   0.42910313  0.85747606  0.49669474
   0.57204551  0.00040274  0.50023713
   0.57215411  0.14293370  0.50004409
   0.57289520  0.28620332  0.49659357
   0.57293973  0.85781762  0.49666015
   0.71496668  0.00016287  0.50186022
   0.71505292  0.14311094  0.50319554
   0.71500819  0.28594306  0.50123231
   0.71454348  0.42802139  0.49723758
   0.71856831  0.57389901  0.49464426
   0.71862817  0.71574401  0.49467324
   0.71458842  0.85758503  0.49804771
   0.85789442  0.00023669  0.50263624
   0.85752781  0.14288516  0.50422388
   0.85751606  0.28570191  0.50383752
   0.85789170  0.42873045  0.50105159
   0.85849546  0.57214498  0.49806508
   0.86009240  0.71558481  0.49745230
   0.85846639  0.85742480  0.49949410
   0.04832921  0.09549124  0.50117513
   0.04736454  0.23773510  0.50088894
   0.04738545  0.38078197  0.50027234
   0.04827873  0.52395292  0.49964375
   0.04883134  0.66702863  0.49928438
   0.04909264  0.81007108  0.49962291
   0.04883789  0.95283184  0.50047646
   0.19110244  0.09532901  0.49711947
   0.19049472  0.23820512  0.49432257
   0.18896585  0.38004291  0.49207278
   0.19047837  0.52344780  0.49364480
   0.19110222  0.66689710  0.49636255
   0.19153490  0.80990273  0.49851418
   0.19156131  0.95267021  0.49889145
   0.33404011  0.09538084  0.49662127
   0.33437515  0.23796686  0.49050131
   0.32969108  0.37931775  0.47849708
   0.32985912  0.52155580  0.47909493
   0.33438505  0.66754867  0.49052667
   0.33400448  0.80971849  0.49645036
   0.33399651  0.95251227  0.49841444
   0.47698124  0.09524320  0.49862081
   0.47612890  0.23778030  0.49477393
   0.47617494  0.80945309  0.49474635
   0.47689079  0.95277594  0.49876332
   0.61961904  0.09541294  0.50151847
   0.61993276  0.23819347  0.49952780
   0.62168673  0.37945160  0.49557895
   0.62174384  0.81334372  0.49552020
   0.61987665  0.95287967  0.49983588
   0.76254943  0.09554161  0.50358860
   0.76253841  0.23815400  0.50331981
   0.76275680  0.38106799  0.50008373
   0.76269251  0.52525416  0.49639330
   0.76483754  0.66792239  0.49519520
   0.76271175  0.80848441  0.49729831
   0.76272851  0.95276105  0.50124660
   0.90513948  0.09505471  0.50373964
   0.90497211  0.23803667  0.50401177
   0.90513316  0.38115453  0.50255269
   0.90566166  0.52424622  0.49978194