  99  99   0   0
  0.3914025E+02  0.1727104E-08  0.1727104E-08  0.1500000E-08  0.0000000E+00
  1.000000000000000E-004
  CAR 
 unknown system                          
      4.56441787    -31.23130455  301     -2.39036156      1.00000000
    -31.231  0.0000E+00  0.0000E+00  0.0000E+00  0.0000E+00
    -31.112  0.0000E+00  0.0000E+00  0.0000E+00  0.0000E+00
    -30.993  0.0000E+00  0.0000E+00  0.0000E+00  0.0000E+00
    -30.873  0.0000E+00  0.0000E+00  0.0000E+00  0.0000E+00
    -30.754  0.0000E+00  0.0000E+00  0.0000E+00  0.0000E+00
    -30.635  0.0000E+00  0.0000E+00  0.0000E+00  0.0000E+00
    -30.515  0.0000E+00  0.0000E+00  0.0000E+00  0.0000E+00
    -30.396  0.0000E+00  0.0000E+00  0.0000E+00  0.0000E+00
    -30.277  0.0000E+00  0.0000E+00  0.0000E+00  0.0000E+00
    -30.157  0.0000E+00  0.0000E+00  0.0000E+00  0.0000E+00
    -30.038  0.0000E+00  0.0000E+00  0.0000E+00  0.0000E+00
    -29.919  0.0000E+00  0.0000E+00  0.0000E+00  0.0000E+00
    -29.799  0.2790E-09  0.2790E-09  0.3329E-10  0.3329E-10
    -29.680  0.2656E-03  0.2656E-03  0.3169E-04  0.3169E-04
    -29.561  0.1465E-01  0.1465E-01  0.1780E-02  0.1780E-02
    -29.442  0.1844E-02  0.1844E-02  0.2000E-02  0.2000E-02
    -29.322  0.3097E-02  0.3097E-02  0.2369E-02  0.2369E-02
    -29.203  0.1355E-01  0.1355E-01  0.3987E-02  0.3987E-02
    -29.084  0.1109E-03  0.1109E-03  0.4000E-02  0.4000E-02
    -28.964  0.4063E-10  0.4063E-10  0.4000E-02  0.4000E-02
    -28.845  0.0000E+00  0.0000E+00  0.4000E-02  0.4000E-02
    -28.726  0.0000E+00  0.0000E+00  0.4000E-02  0.4000E-02
    -28.606  0.0000E+00  0.0000E+00  0.4000E-02  0.4000E-02
    -28.487  0.0000E+00  0.0000E+00  0.4000E-02  0.4000E-02
    -28.368  0.0000E+00  0.0000E+00  0.4000E-02  0.4000E-02
    -28.248  0.0000E+00  0.0000E+00  0.4000E-02  0.4000E-02
    -28.129  0.0000E+00  0.0000E+00  0.4000E-02  0.4000E-02
    -28.010  0.0000E+00  0.0000E+00  0.4000E-02  0.4000E-02
    -27.890  0.0000E+00  0.0000E+00  0.4000E-02  0.4000E-02
    -27.771  0.0000E+00  0.0000E+00  0.4000E-02  0.4000E-02
    -27.652  0.0000E+00  0.0000E+00  0.4000E-02  0.4000E-02
    -27.532  0.0000E+00  0.0000E+00  0.4000E-02  0.4000E-02
    -27.413  0.0000E+00  0.0000E+00  0.4000E-02  0.4000E-02
    -27.294  0.0000E+00  0.0000E+00  0.4000E-02  0.4000E-02
    -27.174  0.0000E+00  0.0000E+00  0.4000E-02  0.4000E-02
    -27.055  0.0000E+00  0.0000E+00  0.4000E-02  0.4000E-02
    -26.936  0.0000E+00  0.0000E+00  0.4000E-02  0.4000E-02
    -26.816  0.0000E+00  0.0000E+00  0.4000E-02  0.4000E-02
    -26.697  0.0000E+00  0.0000E+00  0.4000E-02  0.4000E-02
    -26.578  0.0000E+00  0.0000E+00  0.4000E-02  0.4000E-02
    -26.459  0.0000E+00  0.0000E+00  0.4000E-02  0.4000E-02
    -26.339  0.0000E+00  0.0000E+00  0.4000E-02  0.4000E-02
    -26.220  0.0000E+00  0.0000E+00  0.4000E-02  0.4000E-02
    -26.101  0.0000E+00  0.0000E+00  0.4000E-02  0.4000E-02
    -25.981  0.0000E+00  0.0000E+00  0.4000E-02  0.4000E-02
    -25.862  0.0000E+00  0.0000E+00  0.4000E-02  0.4000E-02
    -25.743  0.0000E+00  0.0000E+00  0.4000E-02  0.4000E-02
    -25.623  0.0000E+00  0.0000E+00  0.4000E-02  0.4000E-02
    -25.504  0.0000E+00  0.0000E+00  0.4000E-02  0.4000E-02
    -25.385  0.0000E+00  0.0000E+00  0.4000E-02  0.4000E-02
    -25.265  0.0000E+00  0.0000E+00  0.4000E-02  0.4000E-02
    -25.146  0.0000E+00  0.0000E+00  0.4000E-02  0.4000E-02
    -25.027  0.0000E+00  0.0000E+00  0.4000E-02  0.4000E-02
    -24.907  0.0000E+00  0.0000E+00  0.4000E-02  0.4000E-02
    -24.788  0.0000E+00  0.0000E+00  0.4000E-02  0.4000E-02
    -24.669  0.0000E+00  0.0000E+00  0.4000E-02  0.4000E-02
    -24.549  0.0000E+00  0.0000E+00  0.4000E-02  0.4000E-02
    -24.430  0.0000E+00  0.0000E+00  0.4000E-02  0.4000E-02
    -24.311  0.0000E+00  0.0000E+00  0.4000E-02  0.4000E-02
    -24.191  0.0000E+00  0.0000E+00  0.4000E-02  0.4000E-02
    -24.072  0.0000E+00  0.0000E+00  0.4000E-02  0.4000E-02
    -23.953  0.4439E-14  0.4439E-14  0.4000E-02  0.4000E-02
    -23.834  0.1020E-05  0.1020E-05  0.4000E-02  0.4000E-02
    -23.714  0.5362E-02  0.5362E-02  0.4640E-02  0.4640E-02
    -23.595  0.1137E-01  0.1137E-01  0.5996E-02  0.5996E-02
    -23.476  0.3057E-04  0.3057E-04  0.6000E-02  0.6000E-02
    -23.356  0.2802E-11  0.2802E-11  0.6000E-02  0.6000E-02
    -23.237  0.0000E+00  0.0000E+00  0.6000E-02  0.6000E-02
    -23.118  0.0000E+00  0.0000E+00  0.6000E-02  0.6000E-02
    -22.998  0.0000E+00  0.0000E+00  0.6000E-02  0.6000E-02
    -22.879  0.0000E+00  0.0000E+00  0.6000E-02  0.6000E-02
    -22.760  0.0000E+00  0.0000E+00  0.6000E-02  0.6000E-02
    -22.640  0.0000E+00  0.0000E+00  0.6000E-02  0.6000E-02
    -22.521  0.0000E+00  0.0000E+00  0.6000E-02  0.6000E-02
    -22.402  0.0000E+00  0.0000E+00  0.6000E-02  0.6000E-02
    -22.282  0.0000E+00  0.0000E+00  0.6000E-02  0.6000E-02
    -22.163  0.0000E+00  0.0000E+00  0.6000E-02  0.6000E-02
    -22.044  0.2458E-14  0.2458E-14  0.6000E-02  0.6000E-02
    -21.924  0.3962E-06  0.3962E-06  0.6000E-02  0.6000E-02
    -21.805  0.1733E-02  0.1733E-02  0.6207E-02  0.6207E-02
    -21.686  0.1500E-01  0.1500E-01  0.7997E-02  0.7997E-02
    -21.566  0.1201E-01  0.1201E-01  0.9431E-02  0.9431E-02
    -21.447  0.5812E-02  0.5812E-02  0.1012E-01  0.1012E-01
    -21.328  0.2336E-01  0.2336E-01  0.1291E-01  0.1291E-01
    -21.209  0.1252E-01  0.1252E-01  0.1440E-01  0.1440E-01
    -21.089  0.4610E-02  0.4610E-02  0.1495E-01  0.1495E-01
    -20.970  0.1418E-01  0.1418E-01  0.1665E-01  0.1665E-01
    -20.851  0.2253E-01  0.2253E-01  0.1933E-01  0.1933E-01
    -20.731  0.1666E-01  0.1666E-01  0.2132E-01  0.2132E-01
    -20.612  0.1693E-02  0.1693E-02  0.2152E-01  0.2152E-01
    -20.493  0.1021E-01  0.1021E-01  0.2274E-01  0.2274E-01
    -20.373  0.1671E-01  0.1671E-01  0.2474E-01  0.2474E-01
    -20.254  0.2162E-01  0.2162E-01  0.2732E-01  0.2732E-01
    -20.135  0.2199E-01  0.2199E-01  0.2994E-01  0.2994E-01
    -20.015  0.4643E-02  0.4643E-02  0.3049E-01  0.3049E-01
    -19.896  0.6528E-02  0.6528E-02  0.3127E-01  0.3127E-01
    -19.777  0.1732E-01  0.1732E-01  0.3334E-01  0.3334E-01
    -19.657  0.5792E-02  0.5792E-02  0.3403E-01  0.3403E-01
    -19.538  0.1848E-01  0.1848E-01  0.3624E-01  0.3624E-01
    -19.419  0.2931E-01  0.2931E-01  0.3973E-01  0.3973E-01
    -19.299  0.1371E-01  0.1371E-01  0.4137E-01  0.4137E-01
    -19.180  0.5087E-02  0.5087E-02  0.4198E-01  0.4198E-01
    -19.061  0.1781E-01  0.1781E-01  0.4410E-01  0.4410E-01
    -18.941  0.8736E-02  0.8736E-02  0.4514E-01  0.4514E-01
    -18.822  0.9366E-02  0.9366E-02  0.4626E-01  0.4626E-01
    -18.703  0.1034E-01  0.1034E-01  0.4750E-01  0.4750E-01
    -18.583  0.1826E-01  0.1826E-01  0.4967E-01  0.4967E-01
    -18.464  0.3319E-01  0.3319E-01  0.5363E-01  0.5363E-01
    -18.345  0.8150E-02  0.8150E-02  0.5461E-01  0.5461E-01
    -18.226  0.1434E-01  0.1434E-01  0.5632E-01  0.5632E-01
    -18.106  0.1516E-01  0.1516E-01  0.5813E-01  0.5813E-01
    -17.987  0.1432E-01  0.1432E-01  0.5984E-01  0.5984E-01
    -17.868  0.1055E-01  0.1055E-01  0.6109E-01  0.6109E-01
    -17.748  0.9277E-02  0.9277E-02  0.6220E-01  0.6220E-01
    -17.629  0.7256E-02  0.7256E-02  0.6307E-01  0.6307E-01
    -17.510  0.1643E-01  0.1643E-01  0.6503E-01  0.6503E-01
    -17.390  0.3264E-01  0.3264E-01  0.6892E-01  0.6892E-01
    -17.271  0.1908E-01  0.1908E-01  0.7120E-01  0.7120E-01
    -17.152  0.2434E-01  0.2434E-01  0.7410E-01  0.7410E-01
    -17.032  0.5514E-02  0.5514E-02  0.7476E-01  0.7476E-01
    -16.913  0.1549E-01  0.1549E-01  0.7661E-01  0.7661E-01
    -16.794  0.1981E-01  0.1981E-01  0.7897E-01  0.7897E-01
    -16.674  0.9227E-02  0.9227E-02  0.8007E-01  0.8007E-01
    -16.555  0.1442E-01  0.1442E-01  0.8180E-01  0.8180E-01
    -16.436  0.5666E-02  0.5666E-02  0.8247E-01  0.8247E-01
    -16.316  0.3382E-01  0.3382E-01  0.8651E-01  0.8651E-01
    -16.197  0.2106E-01  0.2106E-01  0.8902E-01  0.8902E-01
    -16.078  0.7622E-02  0.7622E-02  0.8993E-01  0.8993E-01
    -15.958  0.6374E-02  0.6374E-02  0.9069E-01  0.9069E-01
    -15.839  0.6773E-02  0.6773E-02  0.9150E-01  0.9150E-01
    -15.720  0.2098E-02  0.2098E-02  0.9175E-01  0.9175E-01
    -15.601  0.6200E-02  0.6200E-02  0.9249E-01  0.9249E-01
    -15.481  0.5353E-02  0.5353E-02  0.9313E-01  0.9313E-01
    -15.362  0.1520E-01  0.1520E-01  0.9494E-01  0.9494E-01
    -15.243  0.2154E-01  0.2154E-01  0.9751E-01  0.9751E-01
    -15.123  0.1090E-01  0.1090E-01  0.9881E-01  0.9881E-01
    -15.004  0.1439E-01  0.1439E-01  0.1005E+00  0.1005E+00
    -14.885  0.3000E-01  0.3000E-01  0.1041E+00  0.1041E+00
    -14.765  0.1575E-01  0.1575E-01  0.1060E+00  0.1060E+00
    -14.646  0.5678E-02  0.5678E-02  0.1067E+00  0.1067E+00
    -14.527  0.2204E-01  0.2204E-01  0.1093E+00  0.1093E+00
    -14.407  0.2284E-01  0.2284E-01  0.1120E+00  0.1120E+00
    -14.288  0.1668E-01  0.1668E-01  0.1140E+00  0.1140E+00
    -14.169  0.2063E-01  0.2063E-01  0.1165E+00  0.1165E+00
    -14.049  0.2339E-01  0.2339E-01  0.1193E+00  0.1193E+00
    -13.930  0.7160E-02  0.7160E-02  0.1201E+00  0.1201E+00
    -13.811  0.1210E-01  0.1210E-01  0.1216E+00  0.1216E+00
    -13.691  0.1083E-01  0.1083E-01  0.1229E+00  0.1229E+00
    -13.572  0.1287E-01  0.1287E-01  0.1244E+00  0.1244E+00
    -13.453  0.2129E-01  0.2129E-01  0.1269E+00  0.1269E+00
    -13.333  0.1431E-01  0.1431E-01  0.1286E+00  0.1286E+00
    -13.214  0.1432E-01  0.1432E-01  0.1303E+00  0.1303E+00
    -13.095  0.1329E-01  0.1329E-01  0.1319E+00  0.1319E+00
    -12.975  0.8840E-02  0.8840E-02  0.1330E+00  0.1330E+00
    -12.856  0.9943E-02  0.9943E-02  0.1342E+00  0.1342E+00
    -12.737  0.2035E-01  0.2035E-01  0.1366E+00  0.1366E+00
    -12.618  0.1148E-01  0.1148E-01  0.1380E+00  0.1380E+00
    -12.498  0.2867E-01  0.2867E-01  0.1414E+00  0.1414E+00
    -12.379  0.2165E-01  0.2165E-01  0.1440E+00  0.1440E+00
    -12.260  0.2387E-01  0.2387E-01  0.1468E+00  0.1468E+00
    -12.140  0.1344E-01  0.1344E-01  0.1484E+00  0.1484E+00
    -12.021  0.1500E-01  0.1500E-01  0.1502E+00  0.1502E+00
    -11.902  0.8702E-02  0.8702E-02  0.1513E+00  0.1513E+00
    -11.782  0.1964E-01  0.1964E-01  0.1536E+00  0.1536E+00
    -11.663  0.1754E-01  0.1754E-01  0.1557E+00  0.1557E+00
    -11.544  0.2210E-01  0.2210E-01  0.1583E+00  0.1583E+00
    -11.424  0.2881E-01  0.2881E-01  0.1618E+00  0.1618E+00
    -11.305  0.2002E-01  0.2002E-01  0.1642E+00  0.1642E+00
    -11.186  0.2340E-01  0.2340E-01  0.1669E+00  0.1669E+00
    -11.066  0.2238E-01  0.2238E-01  0.1696E+00  0.1696E+00
    -10.947  0.1885E-01  0.1885E-01  0.1719E+00  0.1719E+00
    -10.828  0.3191E-01  0.3191E-01  0.1757E+00  0.1757E+00
    -10.708  0.1802E-01  0.1802E-01  0.1778E+00  0.1778E+00
    -10.589  0.7428E-02  0.7428E-02  0.1787E+00  0.1787E+00
    -10.470  0.9295E-02  0.9295E-02  0.1798E+00  0.1798E+00
    -10.350  0.1811E-01  0.1811E-01  0.1820E+00  0.1820E+00
    -10.231  0.2140E-01  0.2140E-01  0.1845E+00  0.1845E+00
    -10.112  0.4134E-01  0.4134E-01  0.1895E+00  0.1895E+00
     -9.993  0.3496E-01  0.3496E-01  0.1936E+00  0.1936E+00
     -9.873  0.3624E-01  0.3624E-01  0.1980E+00  0.1980E+00
     -9.754  0.3666E-01  0.3666E-01  0.2023E+00  0.2023E+00
     -9.635  0.3557E-01  0.3557E-01  0.2066E+00  0.2066E+00
     -9.515  0.2173E-01  0.2173E-01  0.2092E+00  0.2092E+00
     -9.396  0.3319E-01  0.3319E-01  0.2131E+00  0.2131E+00
     -9.277  0.3664E-01  0.3664E-01  0.2175E+00  0.2175E+00
     -9.157  0.3328E-01  0.3328E-01  0.2215E+00  0.2215E+00
     -9.038  0.4524E-01  0.4524E-01  0.2269E+00  0.2269E+00
     -8.919  0.4506E-01  0.4506E-01  0.2322E+00  0.2322E+00
     -8.799  0.5787E-01  0.5787E-01  0.2392E+00  0.2392E+00
     -8.680  0.5046E-01  0.5046E-01  0.2452E+00  0.2452E+00
     -8.561  0.3844E-01  0.3844E-01  0.2498E+00  0.2498E+00
     -8.441  0.3594E-01  0.3594E-01  0.2540E+00  0.2540E+00
     -8.322  0.3732E-01  0.3732E-01  0.2585E+00  0.2585E+00
     -8.203  0.3587E-01  0.3587E-01  0.2628E+00  0.2628E+00
     -8.083  0.4027E-01  0.4027E-01  0.2676E+00  0.2676E+00
     -7.964  0.4811E-01  0.4811E-01  0.2733E+00  0.2733E+00
     -7.845  0.3550E-01  0.3550E-01  0.2776E+00  0.2776E+00
     -7.725  0.3288E-01  0.3288E-01  0.2815E+00  0.2815E+00
     -7.606  0.3449E-01  0.3449E-01  0.2856E+00  0.2856E+00
     -7.487  0.3116E-01  0.3116E-01  0.2893E+00  0.2893E+00
     -7.367  0.1802E-01  0.1802E-01  0.2915E+00  0.2915E+00
     -7.248  0.2698E-01  0.2698E-01  0.2947E+00  0.2947E+00
     -7.129  0.5060E-01  0.5060E-01  0.3007E+00  0.3007E+00
     -7.010  0.3703E-01  0.3703E-01  0.3051E+00  0.3051E+00
     -6.890  0.2906E-01  0.2906E-01  0.3086E+00  0.3086E+00
     -6.771  0.2650E-01  0.2650E-01  0.3118E+00  0.3118E+00
     -6.652  0.1898E-01  0.1898E-01  0.3140E+00  0.3140E+00
     -6.532  0.2616E-01  0.2616E-01  0.3172E+00  0.3172E+00
     -6.413  0.2149E-01  0.2149E-01  0.3197E+00  0.3197E+00
     -6.294  0.2497E-01  0.2497E-01  0.3227E+00  0.3227E+00
     -6.174  0.2821E-01  0.2821E-01  0.3261E+00  0.3261E+00
     -6.055  0.4005E-01  0.4005E-01  0.3308E+00  0.3308E+00
     -5.936  0.2136E-01  0.2136E-01  0.3334E+00  0.3334E+00
     -5.816  0.2983E-01  0.2983E-01  0.3370E+00  0.3370E+00
     -5.697  0.2780E-01  0.2780E-01  0.3403E+00  0.3403E+00
     -5.578  0.3809E-01  0.3809E-01  0.3448E+00  0.3448E+00
     -5.458  0.2132E-01  0.2132E-01  0.3474E+00  0.3474E+00
     -5.339  0.1209E-01  0.1209E-01  0.3488E+00  0.3488E+00
     -5.220  0.6797E-02  0.6797E-02  0.3496E+00  0.3496E+00
     -5.100  0.4170E-02  0.4170E-02  0.3501E+00  0.3501E+00
     -4.981  0.3363E-01  0.3363E-01  0.3541E+00  0.3541E+00
     -4.862  0.4096E-01  0.4096E-01  0.3590E+00  0.3590E+00
     -4.742  0.2904E-01  0.2904E-01  0.3625E+00  0.3625E+00
     -4.623  0.8370E-02  0.8370E-02  0.3635E+00  0.3635E+00
     -4.504  0.1778E-01  0.1778E-01  0.3656E+00  0.3656E+00
     -4.385  0.7543E-02  0.7543E-02  0.3665E+00  0.3665E+00
     -4.265  0.4656E-02  0.4656E-02  0.3671E+00  0.3671E+00
     -4.146  0.1620E-01  0.1620E-01  0.3690E+00  0.3690E+00
     -4.027  0.1275E-01  0.1275E-01  0.3705E+00  0.3705E+00
     -3.907  0.1578E-01  0.1578E-01  0.3724E+00  0.3724E+00
     -3.788  0.1414E-01  0.1414E-01  0.3741E+00  0.3741E+00
     -3.669  0.1359E-01  0.1359E-01  0.3757E+00  0.3757E+00
     -3.549  0.2504E-02  0.2504E-02  0.3760E+00  0.3760E+00
     -3.430  0.3897E-05  0.3897E-05  0.3760E+00  0.3760E+00
     -3.311  0.2650E-02  0.2650E-02  0.3763E+00  0.3763E+00
     -3.191  0.1160E-01  0.1160E-01  0.3777E+00  0.3777E+00
     -3.072  0.6636E-02  0.6636E-02  0.3785E+00  0.3785E+00
     -2.953  0.2768E-02  0.2768E-02  0.3788E+00  0.3788E+00
     -2.833  0.1490E-02  0.1490E-02  0.3790E+00  0.3790E+00
     -2.714  0.2284E-05  0.2284E-05  0.3790E+00  0.3790E+00
     -2.595  0.3206E-02  0.3206E-02  0.3794E+00  0.3794E+00
     -2.475  0.5157E-02  0.5157E-02  0.3800E+00  0.3800E+00
     -2.356  0.1609E-04  0.1609E-04  0.3800E+00  0.3800E+00
     -2.237  0.1054E-02  0.1054E-02  0.3801E+00  0.3801E+00
     -2.117  0.6993E-02  0.6993E-02  0.3810E+00  0.3810E+00
     -1.998  0.3338E-03  0.3338E-03  0.3810E+00  0.3810E+00
     -1.879  0.2275E-05  0.2275E-05  0.3810E+00  0.3810E+00
     -1.759  0.2354E-02  0.2354E-02  0.3813E+00  0.3813E+00
     -1.640  0.5695E-02  0.5695E-02  0.3820E+00  0.3820E+00
     -1.521  0.1215E-01  0.1215E-01  0.3834E+00  0.3834E+00
     -1.402  0.4939E-02  0.4939E-02  0.3840E+00  0.3840E+00
     -1.282  0.1844E-03  0.1844E-03  0.3840E+00  0.3840E+00
     -1.163  0.7648E-02  0.7648E-02  0.3849E+00  0.3849E+00
     -1.044  0.1464E-01  0.1464E-01  0.3867E+00  0.3867E+00
     -0.924  0.6803E-02  0.6803E-02  0.3875E+00  0.3875E+00
     -0.805  0.2372E-01  0.2372E-01  0.3903E+00  0.3903E+00
     -0.686  0.2776E-01  0.2776E-01  0.3936E+00  0.3936E+00
     -0.566  0.8305E-02  0.8305E-02  0.3946E+00  0.3946E+00
     -0.447  0.2485E-01  0.2485E-01  0.3976E+00  0.3976E+00
     -0.328  0.1616E-01  0.1616E-01  0.3995E+00  0.3995E+00
     -0.208  0.9615E-02  0.9615E-02  0.4007E+00  0.4007E+00
     -0.089  0.1285E-01  0.1285E-01  0.4022E+00  0.4022E+00
      0.030  0.1848E-01  0.1848E-01  0.4044E+00  0.4044E+00
      0.150  0.1834E-01  0.1834E-01  0.4066E+00  0.4066E+00
      0.269  0.2557E-01  0.2557E-01  0.4096E+00  0.4096E+00
      0.388  0.1517E-01  0.1517E-01  0.4115E+00  0.4115E+00
      0.508  0.4501E-02  0.4501E-02  0.4120E+00  0.4120E+00
      0.627  0.7115E-02  0.7115E-02  0.4128E+00  0.4128E+00
      0.746  0.2544E-01  0.2544E-01  0.4159E+00  0.4159E+00
      0.866  0.1941E-01  0.1941E-01  0.4182E+00  0.4182E+00
      0.985  0.1175E-01  0.1175E-01  0.4196E+00  0.4196E+00
      1.104  0.1992E-01  0.1992E-01  0.4220E+00  0.4220E+00
      1.223  0.1316E-01  0.1316E-01  0.4235E+00  0.4235E+00
      1.343  0.1868E-01  0.1868E-01  0.4258E+00  0.4258E+00
      1.462  0.1849E-01  0.1849E-01  0.4280E+00  0.4280E+00
      1.581  0.3594E-01  0.3594E-01  0.4323E+00  0.4323E+00
      1.701  0.2975E-01  0.2975E-01  0.4358E+00  0.4358E+00
      1.820  0.3137E-01  0.3137E-01  0.4396E+00  0.4396E+00
      1.939  0.1823E-01  0.1823E-01  0.4417E+00  0.4417E+00
      2.059  0.3396E-01  0.3396E-01  0.4458E+00  0.4458E+00
      2.178  0.3519E-01  0.3519E-01  0.4500E+00  0.4500E+00
      2.297  0.3714E-01  0.3714E-01  0.4544E+00  0.4544E+00
      2.417  0.4383E-01  0.4383E-01  0.4596E+00  0.4596E+00
      2.536  0.4072E-01  0.4072E-01  0.4645E+00  0.4645E+00
      2.655  0.1156E-01  0.1156E-01  0.4659E+00  0.4659E+00
      2.775  0.3405E-01  0.3405E-01  0.4699E+00  0.4699E+00
      2.894  0.5392E-01  0.5392E-01  0.4764E+00  0.4764E+00
      3.013  0.3018E-01  0.3018E-01  0.4800E+00  0.4800E+00
      3.133  0.1468E-03  0.1468E-03  0.4800E+00  0.4800E+00
      3.252  0.9369E-10  0.9370E-10  0.4800E+00  0.4800E+00
      3.371  0.0000E+00  0.0000E+00  0.4800E+00  0.4800E+00
      3.491  0.0000E+00  0.0000E+00  0.4800E+00  0.4800E+00
      3.610  0.0000E+00  0.0000E+00  0.4800E+00  0.4800E+00
      3.729  0.0000E+00  0.0000E+00  0.4800E+00  0.4800E+00
      3.849  0.0000E+00  0.0000E+00  0.4800E+00  0.4800E+00
      3.968  0.0000E+00  0.0000E+00  0.4800E+00  0.4800E+00
      4.087  0.0000E+00  0.0000E+00  0.4800E+00  0.4800E+00
      4.206  0.0000E+00  0.0000E+00  0.4800E+00  0.4800E+00
      4.326  0.0000E+00  0.0000E+00  0.4800E+00  0.4800E+00
      4.445  0.0000E+00  0.0000E+00  0.4800E+00  0.4800E+00
      4.564  0.0000E+00  0.0000E+00  0.4800E+00  0.4800E+00
