       N       E                     dE             d eps       ncg     rms          rms(c)
DAV:   1     0.356307128787E+04    0.35631E+04   -0.14450E+05  4190   0.120E+03
DAV:   2    -0.200272588499E+03   -0.37633E+04   -0.35795E+04  5630   0.290E+02
DAV:   3    -0.887384029981E+03   -0.68711E+03   -0.68421E+03  4600   0.130E+02
DAV:   4    -0.912844100631E+03   -0.25460E+02   -0.25316E+02  4560   0.318E+01
DAV:   5    -0.913625937020E+03   -0.78184E+00   -0.78022E+00  5360   0.484E+00    0.439E+01
DAV:   6    -0.880359257635E+03    0.33267E+02   -0.21635E+01  4380   0.916E+00    0.334E+01
DAV:   7    -0.852108172172E+03    0.28251E+02   -0.10630E+02  4280   0.184E+01    0.134E+01
DAV:   8    -0.851780989705E+03    0.32718E+00   -0.67067E+00  4600   0.580E+00    0.653E+00
DAV:   9    -0.851858974561E+03   -0.77985E-01   -0.11423E+00  4350   0.247E+00    0.272E+00
DAV:  10    -0.851725999151E+03    0.13298E+00   -0.44082E-01  4510   0.149E+00    0.105E+00
DAV:  11    -0.851713884091E+03    0.12115E-01   -0.11144E-01  4360   0.759E-01    0.314E-01
DAV:  12    -0.851712158583E+03    0.17255E-02   -0.21590E-02  4410   0.392E-01    0.142E-01
DAV:  13    -0.851712308397E+03   -0.14981E-03   -0.32262E-03  4600   0.134E-01    0.114E-01
DAV:  14    -0.851712289483E+03    0.18913E-04   -0.12823E-03  4480   0.873E-02    0.536E-02
DAV:  15    -0.851712315176E+03   -0.25693E-04   -0.13451E-04  4790   0.351E-02    0.368E-02
DAV:  16    -0.851712347647E+03   -0.32471E-04   -0.13743E-04  4880   0.364E-02    0.189E-02
DAV:  17    -0.851712340316E+03    0.73311E-05   -0.61758E-05  4370   0.210E-02    0.898E-03
DAV:  18    -0.851712341831E+03   -0.15147E-05   -0.18776E-05  4500   0.101E-02    0.485E-03
DAV:  19    -0.851712341466E+03    0.36418E-06   -0.17438E-06  3080   0.438E-03
   1 F= -.85960552E+03 E0= -.85960552E+03  d E =-.859606E+03  mag=     0.0000
       N       E                     dE             d eps       ncg     rms          rms(c)
DAV:   1    -0.851712362674E+03   -0.20844E-04   -0.10926E-03  4000   0.756E-02    0.715E-03
DAV:   2    -0.851712364472E+03   -0.17976E-05   -0.25923E-05  4660   0.106E-02    0.650E-03
DAV:   3    -0.851712363972E+03    0.49967E-06   -0.95694E-07  2320   0.236E-03
   2 F= -.85960555E+03 E0= -.85960555E+03  d E =-.267245E-04  mag=     0.0000
       N       E                     dE             d eps       ncg     rms          rms(c)
DAV:   1    -0.851712372104E+03   -0.76321E-05   -0.21524E-03  4000   0.102E-01    0.104E-02
DAV:   2    -0.851712374840E+03   -0.27362E-05   -0.39688E-05  4250   0.130E-02    0.882E-03
DAV:   3    -0.851712374310E+03    0.53015E-06   -0.13038E-06  2800   0.288E-03
   3 F= -.85960557E+03 E0= -.85960557E+03  d E =-.198381E-04  mag=    -0.0000
       N       E                     dE             d eps       ncg     rms          rms(c)
DAV:   1    -0.851712408409E+03   -0.33569E-04   -0.39001E-03  4020   0.133E-01    0.131E-02
DAV:   2    -0.851712412980E+03   -0.45702E-05   -0.66258E-05  4080   0.165E-02    0.109E-02
DAV:   3    -0.851712412401E+03    0.57873E-06   -0.19819E-06  3250   0.339E-03
   4 F= -.85960562E+03 E0= -.85960562E+03  d E =-.528032E-04  mag=    -0.0000
       N       E                     dE             d eps       ncg     rms          rms(c)
DAV:   1    -0.851712443807E+03   -0.30828E-04   -0.74275E-03  4000   0.186E-01    0.183E-02
DAV:   2    -0.851712453087E+03   -0.92794E-05   -0.13120E-04  4120   0.234E-02    0.154E-02
DAV:   3    -0.851712451893E+03    0.11935E-05   -0.44385E-06  4080   0.485E-03    0.112E-02
DAV:   4    -0.851712453011E+03   -0.11178E-05   -0.59681E-06  3820   0.590E-03    0.293E-03
DAV:   5    -0.851712453054E+03   -0.42550E-07   -0.15618E-06  2710   0.248E-03
   5 F= -.85960568E+03 E0= -.85960568E+03  d E =-.602801E-04  mag=     0.0000
       N       E                     dE             d eps       ncg     rms          rms(c)
DAV:   1    -0.851712488954E+03   -0.35943E-04   -0.10453E-02  4000   0.216E-01    0.205E-02
DAV:   2    -0.851712501327E+03   -0.12372E-04   -0.18058E-04  4040   0.273E-02    0.170E-02
DAV:   3    -0.851712499347E+03    0.19797E-05   -0.55681E-06  4220   0.565E-03    0.123E-02
DAV:   4    -0.851712500700E+03   -0.13527E-05   -0.86061E-06  3780   0.692E-03    0.331E-03
DAV:   5    -0.851712500709E+03   -0.97061E-08   -0.23732E-06  3110   0.299E-03
   6 F= -.85960575E+03 E0= -.85960575E+03  d E =-.721408E-04  mag=     0.0000
       N       E                     dE             d eps       ncg     rms          rms(c)
DAV:   1    -0.851712540560E+03   -0.39860E-04   -0.15329E-02  3980   0.263E-01    0.251E-02
DAV:   2    -0.851712558860E+03   -0.18300E-04   -0.26674E-04  4060   0.332E-02    0.208E-02
DAV:   3    -0.851712555850E+03    0.30101E-05   -0.86949E-06  4460   0.692E-03    0.152E-02
DAV:   4    -0.851712557457E+03   -0.16073E-05   -0.12098E-05  3820   0.824E-03    0.431E-03
DAV:   5    -0.851712557605E+03   -0.14801E-06   -0.33139E-06  3340   0.348E-03
   7 F= -.85960584E+03 E0= -.85960584E+03  d E =-.881678E-04  mag=     0.0000
       N       E                     dE             d eps       ncg     rms          rms(c)
DAV:   1    -0.851712590664E+03   -0.33207E-04   -0.25870E-02  4000   0.339E-01    0.327E-02
DAV:   2    -0.851712621222E+03   -0.30557E-04   -0.44354E-04  4000   0.427E-02    0.268E-02
DAV:   3    -0.851712616508E+03    0.47132E-05   -0.13527E-05  4540   0.877E-03    0.194E-02
DAV:   4    -0.851712619453E+03   -0.29442E-05   -0.19722E-05  3800   0.105E-02    0.517E-03
DAV:   5    -0.851712619634E+03   -0.18125E-06   -0.55318E-06  3880   0.445E-03
   8 F= -.85960595E+03 E0= -.85960595E+03  d E =-.106339E-03  mag=     0.0000
       N       E                     dE             d eps       ncg     rms          rms(c)
DAV:   1    -0.851712647786E+03   -0.28333E-04   -0.44119E-02  4000   0.443E-01    0.428E-02
DAV:   2    -0.851712702567E+03   -0.54782E-04   -0.77746E-04  3960   0.564E-02    0.348E-02
DAV:   3    -0.851712694759E+03    0.78089E-05   -0.22945E-05  4620   0.114E-02    0.253E-02
DAV:   4    -0.851712699543E+03   -0.47846E-05   -0.33389E-05  3850   0.137E-02    0.670E-03
DAV:   5    -0.851712699852E+03   -0.30933E-06   -0.95151E-06  4290   0.589E-03
   9 F= -.85960609E+03 E0= -.85960609E+03  d E =-.137392E-03  mag=    -0.0000
       N       E                     dE             d eps       ncg     rms          rms(c)
DAV:   1    -0.851712711440E+03   -0.11897E-04   -0.71722E-02  3940   0.565E-01    0.547E-02
DAV:   2    -0.851712801423E+03   -0.89983E-04   -0.12692E-03  3960   0.721E-02    0.441E-02
DAV:   3    -0.851712789403E+03    0.12020E-04   -0.36384E-05  4600   0.143E-02    0.321E-02
DAV:   4    -0.851712797127E+03   -0.77243E-05   -0.53665E-05  3900   0.173E-02    0.844E-03
DAV:   5    -0.851712797692E+03   -0.56530E-06   -0.14582E-05  4280   0.732E-03    0.498E-03
DAV:   6    -0.851712797678E+03    0.14472E-07   -0.26633E-06  3360   0.360E-03
  10 F= -.85960626E+03 E0= -.85960626E+03  d E =-.170565E-03  mag=    -0.0000
       N       E                     dE             d eps       ncg     rms          rms(c)
DAV:   1    -0.851712765629E+03    0.32063E-04   -0.11076E-01  3940   0.707E-01    0.672E-02
DAV:   2    -0.851712903435E+03   -0.13781E-03   -0.19444E-03  3980   0.899E-02    0.549E-02
DAV:   3    -0.851712883720E+03    0.19715E-04   -0.56547E-05  4580   0.180E-02    0.398E-02
DAV:   4    -0.851712895117E+03   -0.11397E-04   -0.88662E-05  4160   0.219E-02    0.106E-02
DAV:   5    -0.851712895158E+03   -0.40942E-07   -0.23771E-05  4260   0.965E-03    0.609E-03
DAV:   6    -0.851712895399E+03   -0.24086E-06   -0.41701E-06  3660   0.429E-03
  11 F= -.85960644E+03 E0= -.85960644E+03  d E =-.183576E-03  mag=    -0.0000
       N       E                     dE             d eps       ncg     rms          rms(c)
DAV:   1    -0.851712783321E+03    0.11184E-03   -0.17549E-01  3920   0.893E-01    0.848E-02
DAV:   2    -0.851713011518E+03   -0.22820E-03   -0.31600E-03  3960   0.115E-01    0.688E-02
DAV:   3    -0.851712980516E+03    0.31001E-04   -0.91495E-05  4660   0.227E-02    0.499E-02
DAV:   4    -0.851712996035E+03   -0.15519E-04   -0.13203E-04  4360   0.270E-02    0.132E-02
DAV:   5    -0.851712997075E+03   -0.10397E-05   -0.35564E-05  4280   0.116E-02    0.757E-03
DAV:   6    -0.851712997373E+03   -0.29781E-06   -0.57270E-06  3720   0.513E-03
  12 F= -.85960664E+03 E0= -.85960664E+03  d E =-.204218E-03  mag=     0.0000
       N       E                     dE             d eps       ncg     rms          rms(c)
DAV:   1    -0.851712707191E+03    0.28988E-03   -0.26777E-01  3880   0.111E+00    0.105E-01
DAV:   2    -0.851713064983E+03   -0.35779E-03   -0.49471E-03  4020   0.144E-01    0.856E-02
DAV:   3    -0.851713015690E+03    0.49294E-04   -0.15026E-04  4700   0.285E-02    0.625E-02
DAV:   4    -0.851713033602E+03   -0.17913E-04   -0.19984E-04  4210   0.336E-02    0.175E-02
DAV:   5    -0.851713036655E+03   -0.30526E-05   -0.55916E-05  4260   0.142E-02    0.975E-03
DAV:   6    -0.851713037060E+03   -0.40468E-06   -0.85457E-06  3780   0.622E-03
  13 F= -.85960681E+03 E0= -.85960681E+03  d E =-.165970E-03  mag=     0.0000
       N       E                     dE             d eps       ncg     rms          rms(c)
DAV:   1    -0.851712033917E+03    0.10027E-02   -0.40540E-01  3840   0.140E+00    0.130E-01
DAV:   2    -0.851712642266E+03   -0.60835E-03   -0.82571E-03  4110   0.188E-01    0.110E-01
DAV:   3    -0.851712549966E+03    0.92301E-04   -0.29947E-04  4780   0.384E-02    0.821E-02
DAV:   4    -0.851712540905E+03    0.90607E-05   -0.32229E-04  4220   0.434E-02    0.278E-02
DAV:   5    -0.851712551171E+03   -0.10266E-04   -0.87397E-05  4300   0.179E-02    0.149E-02
DAV:   6    -0.851712551823E+03   -0.65201E-06   -0.15711E-05  4180   0.835E-03    0.607E-03
DAV:   7    -0.851712551973E+03   -0.15006E-06   -0.16508E-06  2960   0.284E-03
  14 F= -.85960647E+03 E0= -.85960647E+03  d E =0.344613E-03  mag=     0.0000
       N       E                     dE             d eps       ncg     rms          rms(c)
DAV:   1    -0.851713263693E+03   -0.71187E-03   -0.40802E-02  3960   0.466E-01    0.463E-02
DAV:   2    -0.851713333881E+03   -0.70188E-04   -0.10363E-03  4700   0.672E-02    0.412E-02
DAV:   3    -0.851713311199E+03    0.22682E-04   -0.60251E-05  5020   0.159E-02    0.301E-02
DAV:   4    -0.851713296140E+03    0.15059E-04   -0.38114E-05  4120   0.144E-02    0.142E-02
DAV:   5    -0.851713295055E+03    0.10845E-05   -0.10951E-05  4140   0.679E-03    0.515E-03
DAV:   6    -0.851713295235E+03   -0.17926E-06   -0.89719E-07  2320   0.235E-03
  15 F= -.85960722E+03 E0= -.85960722E+03  d E =-.753244E-03  mag=     0.0000
       N       E                     dE             d eps       ncg     rms          rms(c)
DAV:   1    -0.851713299949E+03   -0.48936E-05   -0.43112E-05  4000   0.149E-02    0.206E-03
DAV:   2    -0.851713299980E+03   -0.30668E-07   -0.92208E-07  2280   0.212E-03
  16 F= -.85960722E+03 E0= -.85960722E+03  d E =-.578230E-05  mag=    -0.0000
       N       E                     dE             d eps       ncg     rms          rms(c)
DAV:   1    -0.851713307432E+03   -0.74832E-05   -0.15614E-04  3960   0.282E-02    0.319E-03
DAV:   2    -0.851713307598E+03   -0.16570E-06   -0.31715E-06  3690   0.380E-03
  17 F= -.85960723E+03 E0= -.85960723E+03  d E =-.970645E-05  mag=     0.0000
       N       E                     dE             d eps       ncg     rms          rms(c)
DAV:   1    -0.851713315530E+03   -0.80981E-05   -0.30785E-04  3880   0.392E-02    0.514E-03
DAV:   2    -0.851713315802E+03   -0.27160E-06   -0.61231E-06  4460   0.516E-03
  18 F= -.85960725E+03 E0= -.85960725E+03  d E =-.114121E-04  mag=     0.0000
       N       E                     dE             d eps       ncg     rms          rms(c)
DAV:   1    -0.851713324129E+03   -0.85986E-05   -0.47080E-04  3890   0.479E-02    0.669E-03
DAV:   2    -0.851713324504E+03   -0.37519E-06   -0.86950E-06  4440   0.611E-03
  19 F= -.85960726E+03 E0= -.85960726E+03  d E =-.130299E-04  mag=     0.0000
       N       E                     dE             d eps       ncg     rms          rms(c)
DAV:   1    -0.851713334759E+03   -0.10630E-04   -0.66152E-04  3860   0.562E-02    0.797E-03
DAV:   2    -0.851713335305E+03   -0.54564E-06   -0.11787E-05  4420   0.708E-03    0.660E-03
DAV:   3    -0.851713335196E+03    0.10882E-06   -0.53869E-07  2370   0.201E-03
  20 F= -.85960727E+03 E0= -.85960727E+03  d E =-.161653E-04  mag=    -0.0000
       N       E                     dE             d eps       ncg     rms          rms(c)
DAV:   1    -0.851713347843E+03   -0.12538E-04   -0.89775E-04  3860   0.654E-02    0.621E-03
DAV:   2    -0.851713349045E+03   -0.12023E-05   -0.15912E-05  4240   0.811E-03    0.504E-03
DAV:   3    -0.851713348979E+03    0.66371E-07   -0.33833E-07  2520   0.154E-03
  21 F= -.85960730E+03 E0= -.85960730E+03  d E =-.203259E-04  mag=    -0.0000
       N       E                     dE             d eps       ncg     rms          rms(c)
DAV:   1    -0.851713364599E+03   -0.15554E-04   -0.14804E-03  3860   0.840E-02    0.787E-03
DAV:   2    -0.851713366597E+03   -0.19974E-05   -0.26694E-05  4200   0.105E-02    0.646E-03
DAV:   3    -0.851713366421E+03    0.17610E-06   -0.59907E-07  2660   0.204E-03
  22 F= -.85960732E+03 E0= -.85960732E+03  d E =-.255813E-04  mag=     0.0000
       N       E                     dE             d eps       ncg     rms          rms(c)
DAV:   1    -0.851713383526E+03   -0.16929E-04   -0.23581E-03  3860   0.106E-01    0.999E-03
DAV:   2    -0.851713386625E+03   -0.30994E-05   -0.41764E-05  4080   0.131E-02    0.822E-03
DAV:   3    -0.851713386354E+03    0.27071E-06   -0.95758E-07  2780   0.256E-03
  23 F= -.85960735E+03 E0= -.85960735E+03  d E =-.306178E-04  mag=    -0.0000
       N       E                     dE             d eps       ncg     rms          rms(c)
DAV:   1    -0.851713407375E+03   -0.20749E-04   -0.36175E-03  3860   0.130E-01    0.124E-02
DAV:   2    -0.851713411944E+03   -0.45699E-05   -0.62283E-05  4040   0.159E-02    0.102E-02
DAV:   3    -0.851713411531E+03    0.41354E-06   -0.16519E-06  3220   0.318E-03
  24 F= -.85960739E+03 E0= -.85960739E+03  d E =-.388258E-04  mag=     0.0000
       N       E                     dE             d eps       ncg     rms          rms(c)
DAV:   1    -0.851713437909E+03   -0.25965E-04   -0.56352E-03  3840   0.162E-01    0.156E-02
DAV:   2    -0.851713444875E+03   -0.69662E-05   -0.96017E-05  3980   0.198E-02    0.129E-02
DAV:   3    -0.851713444251E+03    0.62399E-06   -0.27064E-06  3600   0.398E-03
  25 F= -.85960744E+03 E0= -.85960744E+03  d E =-.493011E-04  mag=     0.0000
       N       E                     dE             d eps       ncg     rms          rms(c)
DAV:   1    -0.851713474047E+03   -0.29172E-04   -0.85831E-03  3840   0.199E-01    0.195E-02
DAV:   2    -0.851713484382E+03   -0.10335E-04   -0.14385E-04  3980   0.243E-02    0.161E-02
DAV:   3    -0.851713483367E+03    0.10149E-05   -0.43961E-06  4120   0.499E-03    0.117E-02
DAV:   4    -0.851713484569E+03   -0.12022E-05   -0.54487E-06  3560   0.569E-03    0.285E-03
DAV:   5    -0.851713484648E+03   -0.78624E-07   -0.16219E-06  2820   0.242E-03
  26 F= -.85960750E+03 E0= -.85960750E+03  d E =-.598420E-04  mag=    -0.0000
       N       E                     dE             d eps       ncg     rms          rms(c)
DAV:   1    -0.851713518072E+03   -0.33503E-04   -0.13179E-02  3860   0.246E-01    0.226E-02
DAV:   2    -0.851713534832E+03   -0.16760E-04   -0.23337E-04  3920   0.311E-02    0.188E-02
DAV:   3    -0.851713532550E+03    0.22816E-05   -0.70693E-06  4460   0.628E-03    0.139E-02
DAV:   4    -0.851713533495E+03   -0.94489E-06   -0.96516E-06  3660   0.751E-03
  27 F= -.85960757E+03 E0= -.85960757E+03  d E =-.725909E-04  mag=     0.0000
       N       E                     dE             d eps       ncg     rms          rms(c)
DAV:   1    -0.851713570205E+03   -0.37654E-04   -0.19387E-02  3900   0.297E-01    0.284E-02
DAV:   2    -0.851713593205E+03   -0.23000E-04   -0.32267E-04  3920   0.366E-02    0.233E-02
DAV:   3    -0.851713590353E+03    0.28516E-05   -0.98044E-06  4560   0.746E-03    0.169E-02
DAV:   4    -0.851713592473E+03   -0.21199E-05   -0.12310E-05  3740   0.853E-03    0.436E-03
DAV:   5    -0.851713592663E+03   -0.18995E-06   -0.38987E-06  3420   0.370E-03
  28 F= -.85960766E+03 E0= -.85960766E+03  d E =-.874825E-04  mag=     0.0000
       N       E                     dE             d eps       ncg     rms          rms(c)
DAV:   1    -0.851713629865E+03   -0.37392E-04   -0.28730E-02  3860   0.361E-01    0.335E-02
DAV:   2    -0.851713665544E+03   -0.35679E-04   -0.50091E-04  3900   0.454E-02    0.278E-02
DAV:   3    -0.851713660390E+03    0.51541E-05   -0.15659E-05  4680   0.941E-03    0.202E-02
DAV:   4    -0.851713662547E+03   -0.21578E-05   -0.20334E-05  3720   0.108E-02    0.543E-03
DAV:   5    -0.851713662780E+03   -0.23271E-06   -0.62721E-06  3960   0.472E-03
  29 F= -.85960776E+03 E0= -.85960776E+03  d E =-.103530E-03  mag=     0.0000
       N       E                     dE             d eps       ncg     rms          rms(c)
DAV:   1    -0.851713698811E+03   -0.36264E-04   -0.41860E-02  3860   0.434E-01    0.407E-02
DAV:   2    -0.851713750008E+03   -0.51196E-04   -0.72297E-04  3900   0.545E-02    0.338E-02
DAV:   3    -0.851713742442E+03    0.75660E-05   -0.23090E-05  4640   0.114E-02    0.245E-02
DAV:   4    -0.851713745555E+03   -0.31136E-05   -0.29087E-05  3760   0.129E-02    0.659E-03
DAV:   5    -0.851713745950E+03   -0.39496E-06   -0.91478E-06  4280   0.566E-03
  30 F= -.85960789E+03 E0= -.85960789E+03  d E =-.125312E-03  mag=     0.0000
       N       E                     dE             d eps       ncg     rms          rms(c)
DAV:   1    -0.851713783475E+03   -0.37920E-04   -0.59676E-02  3860   0.515E-01    0.487E-02
DAV:   2    -0.851713854288E+03   -0.70813E-04   -0.10114E-03  3860   0.642E-02    0.405E-02
DAV:   3    -0.851713843135E+03    0.11154E-04   -0.32994E-05  4600   0.136E-02    0.291E-02
DAV:   4    -0.851713847997E+03   -0.48623E-05   -0.42301E-05  3780   0.154E-02    0.776E-03
DAV:   5    -0.851713848290E+03   -0.29326E-06   -0.13728E-05  4280   0.695E-03    0.423E-03
DAV:   6    -0.851713848449E+03   -0.15845E-06   -0.17369E-06  3000   0.279E-03
  31 F= -.85960804E+03 E0= -.85960804E+03  d E =-.151267E-03  mag=     0.0000
       N       E                     dE             d eps       ncg     rms          rms(c)
DAV:   1    -0.851713880436E+03   -0.32146E-04   -0.85789E-02  3840   0.618E-01    0.581E-02
DAV:   2    -0.851713983878E+03   -0.10344E-03   -0.14750E-03  3860   0.776E-02    0.485E-02
DAV:   3    -0.851713967004E+03    0.16874E-04   -0.48304E-05  4600   0.165E-02    0.348E-02
DAV:   4    -0.851713973577E+03   -0.65727E-05   -0.64112E-05  4020   0.188E-02    0.937E-03
DAV:   5    -0.851713973732E+03   -0.15517E-06   -0.20249E-05  4260   0.868E-03    0.504E-03
DAV:   6    -0.851713974032E+03   -0.29992E-06   -0.25321E-06  3400   0.331E-03
  32 F= -.85960822E+03 E0= -.85960822E+03  d E =-.177212E-03  mag=     0.0000
       N       E                     dE             d eps       ncg     rms          rms(c)
DAV:   1    -0.851713976140E+03   -0.24083E-05   -0.12556E-01  3840   0.748E-01    0.706E-02
DAV:   2    -0.851714132413E+03   -0.15627E-03   -0.22008E-03  3860   0.950E-02    0.586E-02
DAV:   3    -0.851714108452E+03    0.23961E-04   -0.70760E-05  4640   0.198E-02    0.425E-02
DAV:   4    -0.851714117552E+03   -0.91007E-05   -0.92990E-05  4200   0.229E-02    0.114E-02
DAV:   5    -0.851714118266E+03   -0.71310E-06   -0.27254E-05  4260   0.100E-02    0.636E-03
DAV:   6    -0.851714118481E+03   -0.21500E-06   -0.39049E-06  3720   0.422E-03
  33 F= -.85960842E+03 E0= -.85960842E+03  d E =-.199452E-03  mag=     0.0000
       N       E                     dE             d eps       ncg     rms          rms(c)
DAV:   1    -0.851714056164E+03    0.62101E-04   -0.18284E-01  3840   0.906E-01    0.858E-02
DAV:   2    -0.851714294009E+03   -0.23784E-03   -0.33157E-03  3860   0.116E-01    0.706E-02
DAV:   3    -0.851714258872E+03    0.35137E-04   -0.10438E-04  4660   0.240E-02    0.516E-02
DAV:   4    -0.851714268957E+03   -0.10084E-04   -0.13124E-04  4220   0.273E-02    0.143E-02
DAV:   5    -0.851714271095E+03   -0.21383E-05   -0.38723E-05  4260   0.118E-02    0.785E-03
DAV:   6    -0.851714271310E+03   -0.21487E-06   -0.57152E-06  3820   0.520E-03
  34 F= -.85960863E+03 E0= -.85960863E+03  d E =-.215727E-03  mag=     0.0000
       N       E                     dE             d eps       ncg     rms          rms(c)
DAV:   1    -0.851714002270E+03    0.26882E-03   -0.26528E-01  3840   0.111E+00    0.103E-01
DAV:   2    -0.851714375230E+03   -0.37296E-03   -0.50860E-03  3960   0.145E-01    0.862E-02
DAV:   3    -0.851714320590E+03    0.54640E-04   -0.16618E-04  4760   0.294E-02    0.644E-02
DAV:   4    -0.851714323311E+03   -0.27207E-05   -0.19739E-04  4260   0.342E-02    0.193E-02
DAV:   5    -0.851714328582E+03   -0.52709E-05   -0.56449E-05  4260   0.142E-02    0.107E-02
DAV:   6    -0.851714328602E+03   -0.20154E-07   -0.91877E-06  3900   0.684E-03
  35 F= -.85960876E+03 E0= -.85960876E+03  d E =-.124914E-03  mag=     0.0000
       N       E                     dE             d eps       ncg     rms          rms(c)
DAV:   1    -0.851714557919E+03   -0.22934E-03   -0.10302E-02  3920   0.234E-01    0.233E-02
DAV:   2    -0.851714575835E+03   -0.17916E-04   -0.26236E-04  4640   0.335E-02    0.212E-02
DAV:   3    -0.851714570366E+03    0.54692E-05   -0.14004E-05  4980   0.776E-03    0.159E-02
DAV:   4    -0.851714565457E+03    0.49087E-05   -0.10978E-05  3900   0.800E-03    0.641E-03
DAV:   5    -0.851714565284E+03    0.17320E-06   -0.32332E-06  2860   0.366E-03
  36 F= -.85960900E+03 E0= -.85960900E+03  d E =-.239636E-03  mag=     0.0000
       N       E                     dE             d eps       ncg     rms          rms(c)
DAV:   1    -0.851714415329E+03    0.15013E-03   -0.11575E-02  3860   0.249E-01    0.239E-02
DAV:   2    -0.851714436838E+03   -0.21510E-04   -0.29102E-04  4660   0.357E-02    0.214E-02
DAV:   3    -0.851714431934E+03    0.49044E-05   -0.14086E-05  5000   0.780E-03    0.165E-02
DAV:   4    -0.851714427484E+03    0.44498E-05   -0.13181E-05  4120   0.867E-03    0.644E-03
DAV:   5    -0.851714427423E+03    0.61664E-07   -0.32154E-06  2960   0.370E-03
  37 F= -.85960886E+03 E0= -.85960886E+03  d E =0.134298E-03  mag=     0.0000
       N       E                     dE             d eps       ncg     rms          rms(c)
DAV:   1    -0.851714500653E+03   -0.73169E-04   -0.49880E-04  3940   0.515E-02    0.520E-03
DAV:   2    -0.851714501498E+03   -0.84461E-06   -0.13571E-05  4660   0.761E-03    0.487E-03
DAV:   3    -0.851714501174E+03    0.32382E-06   -0.54568E-07  2180   0.173E-03
  38 F= -.85960894E+03 E0= -.85960894E+03  d E =-.736755E-04  mag=     0.0000
       N       E                     dE             d eps       ncg     rms          rms(c)
DAV:   1    -0.851714582864E+03   -0.81367E-04   -0.15083E-03  3920   0.896E-02    0.952E-03
DAV:   2    -0.851714585351E+03   -0.24865E-05   -0.36132E-05  4720   0.125E-02    0.853E-03
DAV:   3    -0.851714584436E+03    0.91529E-06   -0.15514E-06  2580   0.295E-03
  39 F= -.85960902E+03 E0= -.85960902E+03  d E =-.831192E-04  mag=     0.0000
       N       E                     dE             d eps       ncg     rms          rms(c)
DAV:   1    -0.851714606014E+03   -0.20663E-04   -0.21821E-03  3840   0.108E-01    0.114E-02
DAV:   2    -0.851714609753E+03   -0.37384E-05   -0.50969E-05  4740   0.149E-02    0.102E-02
DAV:   3    -0.851714608620E+03    0.11325E-05   -0.22775E-06  3000   0.343E-03    0.751E-03
DAV:   4    -0.851714607865E+03    0.75561E-06   -0.40756E-06  3540   0.470E-03
  40 F= -.85960904E+03 E0= -.85960904E+03  d E =-.232670E-04  mag=     0.0000
       N       E                     dE             d eps       ncg     rms          rms(c)
DAV:   1    -0.851714609047E+03   -0.42635E-06   -0.23736E-06  2500   0.363E-03    0.149E-03
DAV:   2    -0.851714609061E+03   -0.14152E-07   -0.19292E-07  2100   0.102E-03
  41 F= -.85960904E+03 E0= -.85960904E+03  d E =-.123962E-05  mag=     0.0000
       N       E                     dE             d eps       ncg     rms          rms(c)
DAV:   1    -0.851714611340E+03   -0.22930E-05   -0.72664E-06  3720   0.624E-03    0.860E-04
DAV:   2    -0.851714611355E+03   -0.15556E-07   -0.18267E-07  2100   0.964E-04
  42 F= -.85960905E+03 E0= -.85960905E+03  d E =-.238012E-05  mag=     0.0000
       N       E                     dE             d eps       ncg     rms          rms(c)
DAV:   1    -0.851714614447E+03   -0.31071E-05   -0.15089E-05  3760   0.898E-03    0.122E-03
DAV:   2    -0.851714614470E+03   -0.23152E-07   -0.35817E-07  2040   0.135E-03
  43 F= -.85960905E+03 E0= -.85960905E+03  d E =-.324780E-05  mag=     0.0000
       N       E                     dE             d eps       ncg     rms          rms(c)
DAV:   1    -0.851714618014E+03   -0.35675E-05   -0.24866E-05  3820   0.115E-02    0.163E-03
DAV:   2    -0.851714618045E+03   -0.30763E-07   -0.54188E-07  1980   0.165E-03
  44 F= -.85960905E+03 E0= -.85960905E+03  d E =-.375464E-05  mag=     0.0000
       N       E                     dE             d eps       ncg     rms          rms(c)
DAV:   1    -0.851714622029E+03   -0.40151E-05   -0.35612E-05  3880   0.137E-02    0.194E-03
DAV:   2    -0.851714622069E+03   -0.40192E-07   -0.73463E-07  2160   0.189E-03
  45 F= -.85960906E+03 E0= -.85960906E+03  d E =-.426714E-05  mag=     0.0000
       N       E                     dE             d eps       ncg     rms          rms(c)
DAV:   1    -0.851714626245E+03   -0.42162E-05   -0.47154E-05  3880   0.156E-02    0.223E-03
DAV:   2    -0.851714626294E+03   -0.48472E-07   -0.93465E-07  2290   0.213E-03
  46 F= -.85960906E+03 E0= -.85960906E+03  d E =-.446494E-05  mag=    -0.0000
       N       E                     dE             d eps       ncg     rms          rms(c)
DAV:   1    -0.851714631178E+03   -0.49328E-05   -0.72731E-05  3880   0.192E-02    0.263E-03
DAV:   2    -0.851714631258E+03   -0.79752E-07   -0.14202E-06  2530   0.260E-03
  47 F= -.85960907E+03 E0= -.85960907E+03  d E =-.529127E-05  mag=     0.0000
       N       E                     dE             d eps       ncg     rms          rms(c)
DAV:   1    -0.851714637178E+03   -0.59998E-05   -0.11031E-04  3880   0.234E-02    0.318E-03
DAV:   2    -0.851714637302E+03   -0.12403E-06   -0.21579E-06  2900   0.314E-03
  48 F= -.85960907E+03 E0= -.85960907E+03  d E =-.644099E-05  mag=     0.0000
       N       E                     dE             d eps       ncg     rms          rms(c)
DAV:   1    -0.851714644730E+03   -0.75524E-05   -0.16574E-04  3880   0.284E-02    0.387E-03
DAV:   2    -0.851714644926E+03   -0.19546E-06   -0.33397E-06  3680   0.379E-03
  49 F= -.85960908E+03 E0= -.85960908E+03  d E =-.810890E-05  mag=     0.0000
       N       E                     dE             d eps       ncg     rms          rms(c)
DAV:   1    -0.851714654801E+03   -0.10070E-04   -0.25361E-04  3900   0.350E-02    0.481E-03
DAV:   2    -0.851714655066E+03   -0.26547E-06   -0.48991E-06  3840   0.459E-03
  50 F= -.85960909E+03 E0= -.85960909E+03  d E =-.107461E-04  mag=     0.0000
       N       E                     dE             d eps       ncg     rms          rms(c)
DAV:   1    -0.851714667743E+03   -0.12942E-04   -0.39424E-04  3900   0.437E-02    0.596E-03
DAV:   2    -0.851714668163E+03   -0.42074E-06   -0.77186E-06  4220   0.575E-03
  51 F= -.85960911E+03 E0= -.85960911E+03  d E =-.138615E-04  mag=     0.0000
       N       E                     dE             d eps       ncg     rms          rms(c)
DAV:   1    -0.851714683987E+03   -0.16244E-04   -0.61777E-04  3860   0.548E-02    0.747E-03
DAV:   2    -0.851714684647E+03   -0.66035E-06   -0.12281E-05  3980   0.726E-03    0.614E-03
DAV:   3    -0.851714684615E+03    0.32705E-07   -0.40634E-07  2440   0.172E-03
  52 F= -.85960912E+03 E0= -.85960912E+03  d E =-.171370E-04  mag=     0.0000
       N       E                     dE             d eps       ncg     rms          rms(c)
DAV:   1    -0.851714702575E+03   -0.17928E-04   -0.93705E-04  3880   0.673E-02    0.629E-03
DAV:   2    -0.851714704037E+03   -0.14613E-05   -0.18273E-05  3960   0.872E-03    0.493E-03
DAV:   3    -0.851714703977E+03    0.60019E-07   -0.32508E-07  2460   0.150E-03
  53 F= -.85960914E+03 E0= -.85960914E+03  d E =-.200743E-04  mag=     0.0000
       N       E                     dE             d eps       ncg     rms          rms(c)
DAV:   1    -0.851714724444E+03   -0.20407E-04   -0.13667E-03  3860   0.809E-02    0.745E-03
DAV:   2    -0.851714726543E+03   -0.20997E-05   -0.26515E-05  3900   0.105E-02    0.590E-03
DAV:   3    -0.851714726418E+03    0.12539E-06   -0.48129E-07  2480   0.183E-03
  54 F= -.85960917E+03 E0= -.85960917E+03  d E =-.233469E-04  mag=     0.0000
       N       E                     dE             d eps       ncg     rms          rms(c)
DAV:   1    -0.851714751474E+03   -0.24931E-04   -0.19940E-03  3860   0.976E-02    0.897E-03
DAV:   2    -0.851714754506E+03   -0.30317E-05   -0.38247E-05  3860   0.126E-02    0.708E-03
DAV:   3    -0.851714754337E+03    0.16881E-06   -0.67298E-07  2680   0.217E-03
  55 F= -.85960920E+03 E0= -.85960920E+03  d E =-.288351E-04  mag=    -0.0000
       N       E                     dE             d eps       ncg     rms          rms(c)
DAV:   1    -0.851714784644E+03   -0.30139E-04   -0.29709E-03  3860   0.119E-01    0.109E-02
DAV:   2    -0.851714789215E+03   -0.45705E-05   -0.57213E-05  3860   0.154E-02    0.859E-03
DAV:   3    -0.851714788956E+03    0.25883E-06   -0.10146E-06  2880   0.264E-03
  56 F= -.85960923E+03 E0= -.85960923E+03  d E =-.355659E-04  mag=     0.0000
       N       E                     dE             d eps       ncg     rms          rms(c)
DAV:   1    -0.851714823825E+03   -0.34610E-04   -0.44697E-03  3860   0.146E-01    0.134E-02
DAV:   2    -0.851714830788E+03   -0.69634E-05   -0.86708E-05  3860   0.189E-02    0.105E-02
DAV:   3    -0.851714830404E+03    0.38443E-06   -0.16834E-06  3280   0.321E-03
  57 F= -.85960927E+03 E0= -.85960927E+03  d E =-.418762E-04  mag=     0.0000
       N       E                     dE             d eps       ncg     rms          rms(c)
DAV:   1    -0.851714871345E+03   -0.40557E-04   -0.63612E-03  3860   0.173E-01    0.162E-02
DAV:   2    -0.851714880842E+03   -0.94961E-05   -0.12047E-04  3860   0.223E-02    0.127E-02
DAV:   3    -0.851714880300E+03    0.54129E-06   -0.25230E-06  3680   0.387E-03
  58 F= -.85960932E+03 E0= -.85960932E+03  d E =-.498822E-04  mag=     0.0000
       N       E                     dE             d eps       ncg     rms          rms(c)
DAV:   1    -0.851714928882E+03   -0.48040E-04   -0.92480E-03  3860   0.209E-01    0.197E-02
DAV:   2    -0.851714942462E+03   -0.13580E-04   -0.17422E-04  3860   0.269E-02    0.155E-02
DAV:   3    -0.851714941694E+03    0.76798E-06   -0.39000E-06  4100   0.472E-03
  59 F= -.85960938E+03 E0= -.85960938E+03  d E =-.602748E-04  mag=     0.0000
       N       E                     dE             d eps       ncg     rms          rms(c)
DAV:   1    -0.851714999244E+03   -0.56783E-04   -0.12775E-02  3860   0.245E-01    0.234E-02
DAV:   2    -0.851715016880E+03   -0.17636E-04   -0.23176E-04  3860   0.312E-02    0.188E-02
DAV:   3    -0.851715015731E+03    0.11491E-05   -0.56675E-06  4360   0.569E-03    0.138E-02
DAV:   4    -0.851715017666E+03   -0.19353E-05   -0.74474E-06  3580   0.665E-03    0.321E-03
DAV:   5    -0.851715017729E+03   -0.62668E-07   -0.23702E-06  3100   0.294E-03
  60 F= -.85960946E+03 E0= -.85960946E+03  d E =-.734061E-04  mag=     0.0000
       N       E                     dE             d eps       ncg     rms          rms(c)
DAV:   1    -0.851715085604E+03   -0.67938E-04   -0.18249E-02  3880   0.291E-01    0.261E-02
DAV:   2    -0.851715111965E+03   -0.26361E-04   -0.34676E-04  3860   0.383E-02    0.211E-02
DAV:   3    -0.851715109276E+03    0.26884E-05   -0.87959E-06  4460   0.705E-03    0.157E-02
DAV:   4    -0.851715110869E+03   -0.15929E-05   -0.12834E-05  3680   0.849E-03    0.412E-03
DAV:   5    -0.851715110908E+03   -0.38723E-07   -0.37535E-06  3480   0.372E-03
  61 F= -.85960955E+03 E0= -.85960955E+03  d E =-.888218E-04  mag=    -0.0000
       N       E                     dE             d eps       ncg     rms          rms(c)
DAV:   1    -0.851715185461E+03   -0.74592E-04   -0.25864E-02  3880   0.345E-01    0.313E-02
DAV:   2    -0.851715221572E+03   -0.36111E-04   -0.48049E-04  3860   0.451E-02    0.254E-02
DAV:   3    -0.851715217491E+03    0.40813E-05   -0.12719E-05  4440   0.848E-03    0.188E-02
DAV:   4    -0.851715219676E+03   -0.21857E-05   -0.17799E-05  3700   0.998E-03    0.493E-03
DAV:   5    -0.851715219770E+03   -0.93620E-07   -0.55258E-06  3880   0.445E-03
  62 F= -.85960965E+03 E0= -.85960965E+03  d E =-.104885E-03  mag=    -0.0000
       N       E                     dE             d eps       ncg     rms          rms(c)
DAV:   1    -0.851715306795E+03   -0.87118E-04   -0.36927E-02  3880   0.412E-01    0.374E-02
DAV:   2    -0.851715357932E+03   -0.51137E-04   -0.68247E-04  3860   0.539E-02    0.305E-02
DAV:   3    -0.851715351856E+03    0.60761E-05   -0.18561E-05  4580   0.102E-02    0.225E-02
DAV:   4    -0.851715354756E+03   -0.28996E-05   -0.25186E-05  3700   0.119E-02    0.598E-03
DAV:   5    -0.851715354993E+03   -0.23748E-06   -0.78947E-06  4240   0.527E-03
  63 F= -.85960978E+03 E0= -.85960978E+03  d E =-.130368E-03  mag=     0.0000
       N       E                     dE             d eps       ncg     rms          rms(c)
DAV:   1    -0.851715445797E+03   -0.91041E-04   -0.53319E-02  3880   0.496E-01    0.447E-02
DAV:   2    -0.851715519105E+03   -0.73308E-04   -0.98070E-04  3860   0.647E-02    0.366E-02
DAV:   3    -0.851715510285E+03    0.88196E-05   -0.26559E-05  4500   0.123E-02    0.269E-02
DAV:   4    -0.851715514855E+03   -0.45691E-05   -0.36113E-05  3760   0.142E-02    0.711E-03
DAV:   5    -0.851715515165E+03   -0.31024E-06   -0.11503E-05  4260   0.636E-03    0.382E-03
DAV:   6    -0.851715515298E+03   -0.13363E-06   -0.12497E-06  2700   0.237E-03
  64 F= -.85960993E+03 E0= -.85960993E+03  d E =-.151580E-03  mag=     0.0000
       N       E                     dE             d eps       ncg     rms          rms(c)
DAV:   1    -0.851715616642E+03   -0.10148E-03   -0.72436E-02  3880   0.577E-01    0.516E-02
DAV:   2    -0.851715710353E+03   -0.93711E-04   -0.12926E-03  3860   0.745E-02    0.433E-02
DAV:   3    -0.851715696372E+03    0.13980E-04   -0.38360E-05  4620   0.148E-02    0.316E-02
DAV:   4    -0.851715701691E+03   -0.53192E-05   -0.52400E-05  3900   0.170E-02    0.855E-03
DAV:   5    -0.851715701927E+03   -0.23562E-06   -0.17616E-05  4200   0.794E-03    0.442E-03
DAV:   6    -0.851715702241E+03   -0.31429E-06   -0.15735E-06  3020   0.259E-03
  65 F= -.85961010E+03 E0= -.85961010E+03  d E =-.169707E-03  mag=     0.0000
       N       E                     dE             d eps       ncg     rms          rms(c)
DAV:   1    -0.851715786135E+03   -0.84208E-04   -0.10143E-01  3880   0.680E-01    0.615E-02
DAV:   2    -0.851715914395E+03   -0.12826E-03   -0.17882E-03  3860   0.872E-02    0.519E-02
DAV:   3    -0.851715893696E+03    0.20699E-04   -0.56085E-05  4580   0.177E-02    0.377E-02
DAV:   4    -0.851715899536E+03   -0.58395E-05   -0.72444E-05  4040   0.200E-02    0.102E-02
DAV:   5    -0.851715900155E+03   -0.61902E-06   -0.24056E-05  4220   0.925E-03    0.528E-03
DAV:   6    -0.851715900571E+03   -0.41604E-06   -0.22280E-06  3240   0.307E-03
  66 F= -.85961029E+03 E0= -.85961029E+03  d E =-.191743E-03  mag=     0.0000
       N       E                     dE             d eps       ncg     rms          rms(c)
DAV:   1    -0.851715978397E+03   -0.78243E-04   -0.13827E-01  3880   0.798E-01    0.717E-02
DAV:   2    -0.851716148397E+03   -0.17000E-03   -0.24180E-03  3900   0.102E-01    0.616E-02
DAV:   3    -0.851716118118E+03    0.30280E-04   -0.82146E-05  4700   0.211E-02    0.450E-02
DAV:   4    -0.851716123533E+03   -0.54151E-05   -0.10285E-04  4160   0.238E-02    0.127E-02
DAV:   5    -0.851716124596E+03   -0.10631E-05   -0.32482E-05  4240   0.108E-02    0.663E-03
DAV:   6    -0.851716125205E+03   -0.60922E-06   -0.36606E-06  3740   0.383E-03
  67 F= -.85961050E+03 E0= -.85961050E+03  d E =-.205300E-03  mag=    -0.0000
       N       E                     dE             d eps       ncg     rms          rms(c)
DAV:   1    -0.851716031882E+03    0.92714E-04   -0.20293E-01  3840   0.972E-01    0.881E-02
DAV:   2    -0.851716303564E+03   -0.27168E-03   -0.38005E-03  4040   0.127E-01    0.764E-02
DAV:   3    -0.851716255232E+03    0.48333E-04   -0.13528E-04  4820   0.265E-02    0.565E-02
DAV:   4    -0.851716253719E+03    0.15124E-05   -0.15444E-04  4200   0.301E-02    0.170E-02
DAV:   5    -0.851716256999E+03   -0.32797E-05   -0.49186E-05  4240   0.132E-02    0.883E-03
DAV:   6    -0.851716258031E+03   -0.10323E-05   -0.51649E-06  3820   0.474E-03    0.430E-03
DAV:   7    -0.851716258003E+03    0.28478E-07   -0.74553E-07  2660   0.200E-03
  68 F= -.85961062E+03 E0= -.85961062E+03  d E =-.121142E-03  mag=    -0.0000
       N       E                     dE             d eps       ncg     rms          rms(c)
DAV:   1    -0.851716453430E+03   -0.19540E-03   -0.90893E-03  3840   0.221E-01    0.219E-02
DAV:   2    -0.851716470105E+03   -0.16675E-04   -0.23759E-04  4680   0.324E-02    0.199E-02
DAV:   3    -0.851716465522E+03    0.45830E-05   -0.12309E-05  5000   0.735E-03    0.152E-02
DAV:   4    -0.851716461235E+03    0.42870E-05   -0.10499E-05  4140   0.779E-03    0.640E-03
DAV:   5    -0.851716461060E+03    0.17518E-06   -0.27374E-06  2740   0.347E-03
  69 F= -.85961082E+03 E0= -.85961082E+03  d E =-.200289E-03  mag=     0.0000
       N       E                     dE             d eps       ncg     rms          rms(c)
DAV:   1    -0.851716336971E+03    0.12426E-03   -0.94730E-03  3840   0.226E-01    0.223E-02
DAV:   2    -0.851716354340E+03   -0.17369E-04   -0.24227E-04  4680   0.329E-02    0.200E-02
DAV:   3    -0.851716349974E+03    0.43656E-05   -0.12553E-05  4940   0.752E-03    0.154E-02
DAV:   4    -0.851716346250E+03    0.37245E-05   -0.11045E-05  4220   0.795E-03    0.648E-03
DAV:   5    -0.851716346163E+03    0.87515E-07   -0.26831E-06  2840   0.349E-03
  70 F= -.85961070E+03 E0= -.85961070E+03  d E =0.117411E-03  mag=    -0.0000
       N       E                     dE             d eps       ncg     rms          rms(c)
DAV:   1    -0.851716408706E+03   -0.62456E-04   -0.45167E-04  3880   0.494E-02    0.507E-03
DAV:   2    -0.851716409434E+03   -0.72725E-06   -0.12607E-05  4660   0.745E-03    0.471E-03
DAV:   3    -0.851716409126E+03    0.30775E-06   -0.56543E-07  2180   0.178E-03
  71 F= -.85961077E+03 E0= -.85961077E+03  d E =-.640941E-04  mag=     0.0000
       N       E                     dE             d eps       ncg     rms          rms(c)
DAV:   1    -0.851716478142E+03   -0.68708E-04   -0.13666E-03  3880   0.860E-02    0.927E-03
DAV:   2    -0.851716480400E+03   -0.22585E-05   -0.33746E-05  4720   0.122E-02    0.831E-03
DAV:   3    -0.851716479569E+03    0.83115E-06   -0.16011E-06  2720   0.298E-03
  72 F= -.85961084E+03 E0= -.85961084E+03  d E =-.724581E-04  mag=    -0.0000
       N       E                     dE             d eps       ncg     rms          rms(c)
DAV:   1    -0.851716492936E+03   -0.12535E-04   -0.19763E-03  3840   0.103E-01    0.112E-02
DAV:   2    -0.851716496329E+03   -0.33927E-05   -0.47213E-05  4720   0.145E-02    0.992E-03
DAV:   3    -0.851716495306E+03    0.10226E-05   -0.22142E-06  3000   0.344E-03    0.739E-03
DAV:   4    -0.851716494707E+03    0.59920E-06   -0.43806E-06  3600   0.484E-03
  73 F= -.85961086E+03 E0= -.85961086E+03  d E =-.177396E-04  mag=    -0.0000
       N       E                     dE             d eps       ncg     rms          rms(c)
DAV:   1    -0.851716495896E+03   -0.59041E-06   -0.21912E-06  2120   0.351E-03    0.160E-03
DAV:   2    -0.851716495917E+03   -0.20395E-07   -0.22981E-07  2100   0.113E-03
  74 F= -.85961086E+03 E0= -.85961086E+03  d E =-.121516E-05  mag=     0.0000
       N       E                     dE             d eps       ncg     rms          rms(c)
DAV:   1    -0.851716498226E+03   -0.23293E-05   -0.70956E-06  3720   0.616E-03    0.765E-04
DAV:   2    -0.851716498242E+03   -0.16349E-07   -0.18667E-07  2090   0.961E-04
  75 F= -.85961086E+03 E0= -.85961086E+03  d E =-.234152E-05  mag=     0.0000
       N       E                     dE             d eps       ncg     rms          rms(c)
DAV:   1    -0.851716501331E+03   -0.31051E-05   -0.14289E-05  3800   0.872E-03    0.118E-03
DAV:   2    -0.851716501347E+03   -0.15745E-07   -0.32514E-07  1980   0.128E-03
  76 F= -.85961086E+03 E0= -.85961086E+03  d E =-.313541E-05  mag=     0.0000
       N       E                     dE             d eps       ncg     rms          rms(c)
DAV:   1    -0.851716504958E+03   -0.36275E-05   -0.22764E-05  3880   0.110E-02    0.156E-03
DAV:   2    -0.851716504976E+03   -0.17601E-07   -0.44915E-07  1980   0.151E-03
  77 F= -.85961087E+03 E0= -.85961087E+03  d E =-.367518E-05  mag=    -0.0000
       N       E                     dE             d eps       ncg     rms          rms(c)
DAV:   1    -0.851716508602E+03   -0.36436E-05   -0.31230E-05  3880   0.128E-02    0.179E-03
DAV:   2    -0.851716508628E+03   -0.26012E-07   -0.58089E-07  2000   0.172E-03
  78 F= -.85961087E+03 E0= -.85961087E+03  d E =-.372749E-05  mag=    -0.0000
       N       E                     dE             d eps       ncg     rms          rms(c)
DAV:   1    -0.851716512260E+03   -0.36581E-05   -0.39234E-05  3880   0.143E-02    0.197E-03
DAV:   2    -0.851716512292E+03   -0.32407E-07   -0.72358E-07  2180   0.191E-03
  79 F= -.85961087E+03 E0= -.85961087E+03  d E =-.376915E-05  mag=    -0.0000
       N       E                     dE             d eps       ncg     rms          rms(c)
DAV:   1    -0.851716516344E+03   -0.40835E-05   -0.57490E-05  3880   0.171E-02    0.227E-03
DAV:   2    -0.851716516389E+03   -0.45438E-07   -0.99471E-07  2380   0.224E-03
  80 F= -.85961088E+03 E0= -.85961088E+03  d E =-.424591E-05  mag=     0.0000
       N       E                     dE             d eps       ncg     rms          rms(c)
DAV:   1    -0.851716521410E+03   -0.50665E-05   -0.82238E-05  3840   0.203E-02    0.264E-03
DAV:   2    -0.851716521477E+03   -0.67055E-07   -0.14002E-06  2360   0.261E-03
  81 F= -.85961088E+03 E0= -.85961088E+03  d E =-.535275E-05  mag=     0.0000
       N       E                     dE             d eps       ncg     rms          rms(c)
DAV:   1    -0.851716527851E+03   -0.64413E-05   -0.11976E-04  3860   0.242E-02    0.315E-03
DAV:   2    -0.851716527936E+03   -0.85063E-07   -0.19509E-06  2680   0.304E-03
  82 F= -.85961089E+03 E0= -.85961089E+03  d E =-.683786E-05  mag=     0.0000
       N       E                     dE             d eps       ncg     rms          rms(c)
DAV:   1    -0.851716536520E+03   -0.86686E-05   -0.18010E-04  3860   0.296E-02    0.387E-03
DAV:   2    -0.851716536632E+03   -0.11159E-06   -0.28070E-06  3060   0.362E-03
  83 F= -.85961090E+03 E0= -.85961090E+03  d E =-.913430E-05  mag=     0.0000
       N       E                     dE             d eps       ncg     rms          rms(c)
DAV:   1    -0.851716547740E+03   -0.11220E-04   -0.27910E-04  3840   0.367E-02    0.481E-03
DAV:   2    -0.851716547924E+03   -0.18356E-06   -0.45196E-06  3500   0.452E-03
  84 F= -.85961091E+03 E0= -.85961091E+03  d E =-.117502E-04  mag=    -0.0000
       N       E                     dE             d eps       ncg     rms          rms(c)
DAV:   1    -0.851716561187E+03   -0.13447E-04   -0.42914E-04  3840   0.455E-02    0.613E-03
DAV:   2    -0.851716561457E+03   -0.27059E-06   -0.70673E-06  3960   0.561E-03
  85 F= -.85961093E+03 E0= -.85961093E+03  d E =-.138943E-04  mag=    -0.0000
       N       E                     dE             d eps       ncg     rms          rms(c)
DAV:   1    -0.851716577265E+03   -0.16079E-04   -0.64457E-04  3840   0.555E-02    0.759E-03
DAV:   2    -0.851716577640E+03   -0.37458E-06   -0.10363E-05  4080   0.676E-03    0.656E-03
DAV:   3    -0.851716577468E+03    0.17162E-06   -0.69963E-07  2500   0.228E-03
  86 F= -.85961094E+03 E0= -.85961094E+03  d E =-.162068E-04  mag=     0.0000
       N       E                     dE             d eps       ncg     rms          rms(c)
DAV:   1    -0.851716595935E+03   -0.18295E-04   -0.95403E-04  3840   0.670E-02    0.635E-03
DAV:   2    -0.851716596932E+03   -0.99707E-06   -0.14929E-05  3940   0.799E-03    0.561E-03
DAV:   3    -0.851716596782E+03    0.15005E-06   -0.44409E-07  2220   0.177E-03
  87 F= -.85961096E+03 E0= -.85961096E+03  d E =-.193755E-04  mag=    -0.0000
       N       E                     dE             d eps       ncg     rms          rms(c)
DAV:   1    -0.851716619880E+03   -0.22948E-04   -0.14020E-03  3840   0.811E-02    0.765E-03
DAV:   2    -0.851716621271E+03   -0.13915E-05   -0.21637E-05  4120   0.958E-03    0.677E-03
DAV:   3    -0.851716621009E+03    0.26226E-06   -0.66203E-07  2560   0.216E-03
  88 F= -.85961099E+03 E0= -.85961099E+03  d E =-.240358E-04  mag=     0.0000
       N       E                     dE             d eps       ncg     rms          rms(c)
DAV:   1    -0.851716648741E+03   -0.27469E-04   -0.21079E-03  3840   0.996E-02    0.940E-03
DAV:   2    -0.851716650875E+03   -0.21344E-05   -0.32896E-05  4140   0.118E-02    0.836E-03
DAV:   3    -0.851716650478E+03    0.39707E-06   -0.10675E-06  2760   0.264E-03
  89 F= -.85961101E+03 E0= -.85961101E+03  d E =-.288510E-04  mag=     0.0000
       N       E                     dE             d eps       ncg     rms          rms(c)
DAV:   1    -0.851716683659E+03   -0.32784E-04   -0.31049E-03  3840   0.121E-01    0.114E-02
DAV:   2    -0.851716686723E+03   -0.30638E-05   -0.47648E-05  4100   0.142E-02    0.102E-02
DAV:   3    -0.851716686140E+03    0.58241E-06   -0.16622E-06  2920   0.325E-03
  90 F= -.85961105E+03 E0= -.85961105E+03  d E =-.341918E-04  mag=     0.0000
       N       E                     dE             d eps       ncg     rms          rms(c)
DAV:   1    -0.851716727656E+03   -0.40933E-04   -0.45184E-03  3840   0.144E-01    0.136E-02
DAV:   2    -0.851716732020E+03   -0.43646E-05   -0.68081E-05  4000   0.170E-02    0.122E-02
DAV:   3    -0.851716731185E+03    0.83513E-06   -0.25214E-06  3260   0.395E-03
  91 F= -.85961109E+03 E0= -.85961109E+03  d E =-.414417E-04  mag=    -0.0000
       N       E                     dE             d eps       ncg     rms          rms(c)
DAV:   1    -0.851716784378E+03   -0.52357E-04   -0.66894E-03  3840   0.175E-01    0.164E-02
DAV:   2    -0.851716790861E+03   -0.64833E-05   -0.10028E-04  3980   0.206E-02    0.147E-02
DAV:   3    -0.851716789619E+03    0.12419E-05   -0.38637E-06  3680   0.479E-03    0.102E-02
DAV:   4    -0.851716790389E+03   -0.76954E-06   -0.45681E-06  3460   0.507E-03
  92 F= -.85961114E+03 E0= -.85961114E+03  d E =-.529733E-04  mag=     0.0000
       N       E                     dE             d eps       ncg     rms          rms(c)
DAV:   1    -0.851716852101E+03   -0.62482E-04   -0.10021E-02  3860   0.214E-01    0.189E-02
DAV:   2    -0.851716862326E+03   -0.10225E-04   -0.15689E-04  3900   0.257E-02    0.170E-02
DAV:   3    -0.851716860150E+03    0.21764E-05   -0.60255E-06  4260   0.589E-03    0.121E-02
DAV:   4    -0.851716860820E+03   -0.67033E-06   -0.63428E-06  3540   0.608E-03
  93 F= -.85961121E+03 E0= -.85961121E+03  d E =-.627247E-04  mag=     0.0000
       N       E                     dE             d eps       ncg     rms          rms(c)
DAV:   1    -0.851716933627E+03   -0.73477E-04   -0.14455E-02  3860   0.256E-01    0.228E-02
DAV:   2    -0.851716948025E+03   -0.14398E-04   -0.22291E-04  3860   0.307E-02    0.205E-02
DAV:   3    -0.851716944863E+03    0.31622E-05   -0.88026E-06  4380   0.712E-03    0.143E-02
DAV:   4    -0.851716945874E+03   -0.10112E-05   -0.87158E-06  3620   0.715E-03    0.403E-03
DAV:   5    -0.851716946059E+03   -0.18503E-06   -0.39199E-06  3360   0.357E-03
  94 F= -.85961128E+03 E0= -.85961128E+03  d E =-.738494E-04  mag=     0.0000
       N       E                     dE             d eps       ncg     rms          rms(c)
DAV:   1    -0.851717034984E+03   -0.89110E-04   -0.20899E-02  3840   0.309E-01    0.262E-02
DAV:   2    -0.851717057113E+03   -0.22129E-04   -0.33602E-04  3880   0.377E-02    0.238E-02
DAV:   3    -0.851717052343E+03    0.47706E-05   -0.13087E-05  4520   0.844E-03    0.170E-02
DAV:   4    -0.851717053164E+03   -0.82158E-06   -0.13158E-05  3720   0.874E-03    0.493E-03
DAV:   5    -0.851717053441E+03   -0.27664E-06   -0.55196E-06  3720   0.420E-03
  95 F= -.85961137E+03 E0= -.85961137E+03  d E =-.882257E-04  mag=    -0.0000
       N       E                     dE             d eps       ncg     rms          rms(c)
DAV:   1    -0.851717154335E+03   -0.10117E-03   -0.29961E-02  3840   0.370E-01    0.314E-02
DAV:   2    -0.851717185793E+03   -0.31458E-04   -0.47923E-04  3860   0.450E-02    0.285E-02
DAV:   3    -0.851717178952E+03    0.68418E-05   -0.18803E-05  4540   0.102E-02    0.203E-02
DAV:   4    -0.851717180269E+03   -0.13177E-05   -0.18463E-05  3780   0.104E-02    0.587E-03
DAV:   5    -0.851717180683E+03   -0.41371E-06   -0.79938E-06  4140   0.503E-03
  96 F= -.85961147E+03 E0= -.85961147E+03  d E =-.102514E-03  mag=    -0.0000
       N       E                     dE             d eps       ncg     rms          rms(c)
DAV:   1    -0.851717290004E+03   -0.10973E-03   -0.42825E-02  3840   0.442E-01    0.375E-02
DAV:   2    -0.851717335154E+03   -0.45149E-04   -0.68665E-04  3840   0.540E-02    0.340E-02
DAV:   3    -0.851717325422E+03    0.97317E-05   -0.26820E-05  4560   0.122E-02    0.242E-02
DAV:   4    -0.851717327379E+03   -0.19574E-05   -0.26470E-05  3860   0.123E-02    0.703E-03
DAV:   5    -0.851717327978E+03   -0.59868E-06   -0.11296E-05  4180   0.604E-03    0.329E-03
DAV:   6    -0.851717328354E+03   -0.37583E-06   -0.51374E-07  2480   0.161E-03
  97 F= -.85961159E+03 E0= -.85961159E+03  d E =-.122082E-03  mag=    -0.0000
       N       E                     dE             d eps       ncg     rms          rms(c)
DAV:   1    -0.851717447629E+03   -0.11965E-03   -0.61183E-02  3840   0.530E-01    0.452E-02
DAV:   2    -0.851717512610E+03   -0.64981E-04   -0.99868E-04  3840   0.655E-02    0.409E-02
DAV:   3    -0.851717497861E+03    0.14749E-04   -0.39254E-05  4520   0.147E-02    0.292E-02
DAV:   4    -0.851717499565E+03   -0.17039E-05   -0.38814E-05  3880   0.150E-02    0.875E-03
DAV:   5    -0.851717500594E+03   -0.10292E-05   -0.15837E-05  4220   0.710E-03    0.407E-03
DAV:   6    -0.851717501099E+03   -0.50517E-06   -0.83119E-07  2400   0.204E-03
  98 F= -.85961173E+03 E0= -.85961173E+03  d E =-.139770E-03  mag=    -0.0000
       N       E                     dE             d eps       ncg     rms          rms(c)
DAV:   1    -0.851717629036E+03   -0.12844E-03   -0.87528E-02  3840   0.638E-01    0.541E-02
DAV:   2    -0.851717726564E+03   -0.97528E-04   -0.14697E-03  3860   0.800E-02    0.489E-02
DAV:   3    -0.851717706030E+03    0.20534E-04   -0.55582E-05  4580   0.175E-02    0.354E-02
DAV:   4    -0.851717707753E+03   -0.17231E-05   -0.57473E-05  3960   0.184E-02    0.105E-02
DAV:   5    -0.851717709235E+03   -0.14820E-05   -0.22109E-05  4200   0.846E-03    0.499E-03
DAV:   6    -0.851717709939E+03   -0.70439E-06   -0.12610E-06  2440   0.254E-03
  99 F= -.85961189E+03 E0= -.85961189E+03  d E =-.159826E-03  mag=     0.0000
       N       E                     dE             d eps       ncg     rms          rms(c)
DAV:   1    -0.851717827074E+03   -0.11784E-03   -0.12442E-01  3840   0.764E-01    0.647E-02
DAV:   2    -0.851717971414E+03   -0.14434E-03   -0.21456E-03  3840   0.969E-02    0.584E-02
DAV:   3    -0.851717942232E+03    0.29181E-04   -0.80427E-05  4720   0.207E-02    0.429E-02
DAV:   4    -0.851717942556E+03   -0.32388E-06   -0.86102E-05  4060   0.224E-02    0.129E-02
DAV:   5    -0.851717944681E+03   -0.21248E-05   -0.29854E-05  4180   0.997E-03    0.632E-03
DAV:   6    -0.851717945571E+03   -0.89048E-06   -0.24934E-06  3140   0.340E-03
 100 F= -.85961208E+03 E0= -.85961208E+03  d E =-.189477E-03  mag=     0.0000
       N       E                     dE             d eps       ncg     rms          rms(c)
DAV:   1    -0.851717896590E+03    0.48091E-04   -0.18950E-01  3840   0.953E-01    0.804E-02
DAV:   2    -0.851718137893E+03   -0.24130E-03   -0.34936E-03  3900   0.123E-01    0.735E-02
DAV:   3    -0.851718091818E+03    0.46075E-04   -0.13279E-04  4860   0.258E-02    0.558E-02
DAV:   4    -0.851718080850E+03    0.10968E-04   -0.15046E-04  4300   0.298E-02    0.173E-02
DAV:   5    -0.851718084113E+03   -0.32628E-05   -0.45081E-05  4240   0.126E-02    0.897E-03
DAV:   6    -0.851718085593E+03   -0.14803E-05   -0.46891E-06  3740   0.467E-03    0.397E-03
DAV:   7    -0.851718085529E+03    0.63694E-07   -0.76761E-07  2700   0.208E-03
 101 F= -.85961217E+03 E0= -.85961217E+03  d E =-.870315E-04  mag=     0.0000
       N       E                     dE             d eps       ncg     rms          rms(c)
DAV:   1    -0.851718298534E+03   -0.21294E-03   -0.10907E-02  3920   0.240E-01    0.243E-02
DAV:   2    -0.851718317290E+03   -0.18756E-04   -0.28019E-04  4640   0.347E-02    0.219E-02
DAV:   3    -0.851718311158E+03    0.61319E-05   -0.15348E-05  4940   0.822E-03    0.164E-02
DAV:   4    -0.851718306018E+03    0.51401E-05   -0.11572E-05  4040   0.820E-03    0.678E-03
DAV:   5    -0.851718305832E+03    0.18656E-06   -0.35016E-06  2840   0.386E-03
 102 F= -.85961239E+03 E0= -.85961239E+03  d E =-.216354E-03  mag=    -0.0000
       N       E                     dE             d eps       ncg     rms          rms(c)
DAV:   1    -0.851718165796E+03    0.14022E-03   -0.10412E-02  3920   0.235E-01    0.231E-02
DAV:   2    -0.851718184183E+03   -0.18387E-04   -0.25988E-04  4620   0.335E-02    0.207E-02
DAV:   3    -0.851718179234E+03    0.49496E-05   -0.13146E-05  4940   0.767E-03    0.157E-02
DAV:   4    -0.851718175094E+03    0.41399E-05   -0.11834E-05  4100   0.825E-03    0.618E-03
DAV:   5    -0.851718175063E+03    0.30115E-07   -0.30483E-06  2920   0.360E-03
 103 F= -.85961225E+03 E0= -.85961225E+03  d E =0.138487E-03  mag=     0.0000
       N       E                     dE             d eps       ncg     rms          rms(c)
DAV:   1    -0.851718250559E+03   -0.75465E-04   -0.56922E-04  3920   0.547E-02    0.573E-03
DAV:   2    -0.851718251441E+03   -0.88220E-06   -0.15422E-05  4640   0.811E-03    0.529E-03
DAV:   3    -0.851718251009E+03    0.43164E-06   -0.71942E-07  2200   0.201E-03
 104 F= -.85961232E+03 E0= -.85961232E+03  d E =-.762597E-04  mag=     0.0000
       N       E                     dE             d eps       ncg     rms          rms(c)
DAV:   1    -0.851718331324E+03   -0.79883E-04   -0.16758E-03  3920   0.940E-02    0.104E-02
DAV:   2    -0.851718333922E+03   -0.25979E-05   -0.40253E-05  4680   0.132E-02    0.925E-03
DAV:   3    -0.851718332766E+03    0.11560E-05   -0.20593E-06  2820   0.338E-03    0.660E-03
DAV:   4    -0.851718332144E+03    0.62204E-06   -0.37059E-06  3520   0.434E-03
 105 F= -.85961240E+03 E0= -.85961240E+03  d E =-.812253E-04  mag=    -0.0000
       N       E                     dE             d eps       ncg     rms          rms(c)
DAV:   1    -0.851718344631E+03   -0.11866E-04   -0.23961E-03  3940   0.112E-01    0.122E-02
DAV:   2    -0.851718348663E+03   -0.40320E-05   -0.61133E-05  4640   0.163E-02    0.109E-02
DAV:   3    -0.851718347116E+03    0.15477E-05   -0.34530E-06  3510   0.409E-03    0.796E-03
DAV:   4    -0.851718346144E+03    0.97224E-06   -0.40868E-06  3450   0.462E-03
 106 F= -.85961242E+03 E0= -.85961242E+03  d E =-.135229E-04  mag=     0.0000
       N       E                     dE             d eps       ncg     rms          rms(c)
DAV:   1    -0.851718347810E+03   -0.69378E-06   -0.33413E-06  3280   0.425E-03    0.155E-03
DAV:   2    -0.851718347824E+03   -0.14013E-07   -0.18815E-07  2100   0.985E-04
 107 F= -.85961242E+03 E0= -.85961242E+03  d E =-.157240E-05  mag=     0.0000
       N       E                     dE             d eps       ncg     rms          rms(c)
DAV:   1    -0.851718350931E+03   -0.31214E-05   -0.97975E-06  3620   0.723E-03    0.759E-04
DAV:   2    -0.851718350952E+03   -0.21086E-07   -0.26544E-07  2010   0.115E-03
 108 F= -.85961242E+03 E0= -.85961242E+03  d E =-.291558E-05  mag=     0.0000
       N       E                     dE             d eps       ncg     rms          rms(c)
DAV:   1    -0.851718355009E+03   -0.40776E-05   -0.20487E-05  3880   0.105E-02    0.138E-03
DAV:   2    -0.851718355028E+03   -0.19529E-07   -0.47139E-07  1980   0.155E-03
 109 F= -.85961243E+03 E0= -.85961243E+03  d E =-.376030E-05  mag=     0.0000
       N       E                     dE             d eps       ncg     rms          rms(c)
DAV:   1    -0.851718359493E+03   -0.44849E-05   -0.31944E-05  3880   0.130E-02    0.182E-03
DAV:   2    -0.851718359520E+03   -0.26055E-07   -0.65940E-07  2020   0.184E-03
 110 F= -.85961243E+03 E0= -.85961243E+03  d E =-.408663E-05  mag=     0.0000
       N       E                     dE             d eps       ncg     rms          rms(c)
DAV:   1    -0.851718363828E+03   -0.43345E-05   -0.43596E-05  3880   0.151E-02    0.207E-03
DAV:   2    -0.851718363870E+03   -0.42157E-07   -0.89005E-07  2230   0.211E-03
 111 F= -.85961243E+03 E0= -.85961243E+03  d E =-.386747E-05  mag=     0.0000
       N       E                     dE             d eps       ncg     rms          rms(c)
DAV:   1    -0.851718367910E+03   -0.40821E-05   -0.53446E-05  3840   0.166E-02    0.230E-03
DAV:   2    -0.851718367959E+03   -0.48458E-07   -0.10689E-06  2450   0.229E-03
 112 F= -.85961244E+03 E0= -.85961244E+03  d E =-.350890E-05  mag=     0.0000
       N       E                     dE             d eps       ncg     rms          rms(c)
DAV:   1    -0.851718372238E+03   -0.43277E-05   -0.74970E-05  3860   0.195E-02    0.256E-03
DAV:   2    -0.851718372306E+03   -0.68037E-07   -0.14033E-06  2540   0.261E-03
 113 F= -.85961244E+03 E0= -.85961244E+03  d E =-.363744E-05  mag=     0.0000
       N       E                     dE             d eps       ncg     rms          rms(c)
DAV:   1    -0.851718377147E+03   -0.49089E-05   -0.10256E-04  3860   0.225E-02    0.290E-03
DAV:   2    -0.851718377233E+03   -0.85929E-07   -0.18219E-06  2760   0.291E-03
 114 F= -.85961245E+03 E0= -.85961245E+03  d E =-.410719E-05  mag=    -0.0000
       N       E                     dE             d eps       ncg     rms          rms(c)
DAV:   1    -0.851718383539E+03   -0.63926E-05   -0.14294E-04  3880   0.262E-02    0.329E-03
DAV:   2    -0.851718383636E+03   -0.96254E-07   -0.22783E-06  2900   0.324E-03
 115 F= -.85961245E+03 E0= -.85961245E+03  d E =-.549280E-05  mag=     0.0000
       N       E                     dE             d eps       ncg     rms          rms(c)
DAV:   1    -0.851718392450E+03   -0.89106E-05   -0.21137E-04  3860   0.318E-02    0.381E-03
DAV:   2    -0.851718392611E+03   -0.16118E-06   -0.34256E-06  3420   0.391E-03
 116 F= -.85961246E+03 E0= -.85961246E+03  d E =-.786303E-05  mag=     0.0000
       N       E                     dE             d eps       ncg     rms          rms(c)
DAV:   1    -0.851718403922E+03   -0.11472E-04   -0.33170E-04  3860   0.399E-02    0.481E-03
DAV:   2    -0.851718404176E+03   -0.25383E-06   -0.55735E-06  3980   0.495E-03
 117 F= -.85961247E+03 E0= -.85961247E+03  d E =-.103049E-04  mag=     0.0000
       N       E                     dE             d eps       ncg     rms          rms(c)
DAV:   1    -0.851718416383E+03   -0.12461E-04   -0.52486E-04  3840   0.503E-02    0.621E-03
DAV:   2    -0.851718416773E+03   -0.39033E-06   -0.89585E-06  4110   0.628E-03
 118 F= -.85961248E+03 E0= -.85961248E+03  d E =-.112656E-04  mag=    -0.0000
       N       E                     dE             d eps       ncg     rms          rms(c)
DAV:   1    -0.851718429222E+03   -0.12839E-04   -0.79078E-04  3840   0.614E-02    0.779E-03
DAV:   2    -0.851718429732E+03   -0.50999E-06   -0.12955E-05  4120   0.759E-03    0.679E-03
DAV:   3    -0.851718429515E+03    0.21674E-06   -0.94038E-07  2400   0.255E-03
 119 F= -.85961249E+03 E0= -.85961249E+03  d E =-.116926E-04  mag=     0.0000
       N       E                     dE             d eps       ncg     rms          rms(c)
DAV:   1    -0.851718441832E+03   -0.12100E-04   -0.11926E-03  3880   0.747E-02    0.660E-03
DAV:   2    -0.851718443105E+03   -0.12736E-05   -0.18413E-05  3900   0.896E-03    0.589E-03
DAV:   3    -0.851718442915E+03    0.18984E-06   -0.50500E-07  2560   0.184E-03
 120 F= -.85961250E+03 E0= -.85961250E+03  d E =-.128713E-04  mag=     0.0000
       N       E                     dE             d eps       ncg     rms          rms(c)
DAV:   1    -0.851718455691E+03   -0.12585E-04   -0.18363E-03  3860   0.924E-02    0.799E-03
DAV:   2    -0.851718457628E+03   -0.19372E-05   -0.27993E-05  3900   0.110E-02    0.710E-03
DAV:   3    -0.851718457303E+03    0.32457E-06   -0.76282E-07  2620   0.226E-03
 121 F= -.85961252E+03 E0= -.85961252E+03  d E =-.150389E-04  mag=    -0.0000
