<?xml version="1.0" encoding="ISO-8859-1"?>
<modeling>
 <generator>
  <i name="program" type="string">vasp </i>
  <i name="version" type="string">6.4.2  </i>
  <i name="subversion" type="string">20Jul23 (build Aug 26 2025 15:10:52) complex                          parallel </i>
  <i name="platform" type="string">LinuxIFC </i>
  <i name="date" type="string">2025 12 02 </i>
  <i name="time" type="string">12:36:20 </i>
 </generator>
 <incar>
  <i type="int" name="ISTART">     0</i>
  <i type="string" name="ALGO">Normal</i>
  <i type="logical" name="ADDGRID"> T  </i>
  <i type="int" name="ISPIN">     2</i>
  <i type="int" name="IMIX">     4</i>
  <i name="AMIX">      0.20000000</i>
  <i name="BMIX">      0.00010000</i>
  <i name="AMIX_MAG">      0.80000000</i>
  <i name="BMIX_MAG">      0.00010000</i>
  <i type="int" name="ICHARG">     2</i>
  <i type="int" name="NELM">   200</i>
  <i type="int" name="IBRION">     3</i>
  <i name="EDIFF">      0.00000100</i>
  <i name="EDIFFG">     -0.03000000</i>
  <i type="int" name="NSW">   500</i>
  <i type="int" name="ISIF">     2</i>
  <i type="int" name="ISYM">     0</i>
  <i name="ENCUT">    520.00000000</i>
  <i name="POTIM">      0.00000000</i>
  <v name="MAGMOM">      0.00000000      0.00000000      0.00000000      0.00000000      0.00000000      0.00000000      0.00000000      0.00000000      0.00000000      0.00000000      0.00000000      0.00000000      0.00000000      0.00000000      0.00000000      0.00000000      0.00000000      0.00000000      0.00000000      0.00000000
      0.00000000      0.00000000      0.00000000      0.00000000      0.00000000      0.00000000      0.00000000      0.00000000      0.00000000      0.00000000      0.00000000      0.00000000      0.00000000      0.00000000      0.00000000      0.00000000      0.00000000      0.00000000      0.00000000      0.00000000
      0.00000000      0.00000000      0.00000000      0.00000000      0.00000000      0.00000000      0.00000000      0.00000000      0.00000000      0.00000000      0.00000000      0.00000000      0.00000000      0.00000000      0.00000000      0.00000000      0.00000000      0.00000000      0.00000000      0.00000000
      0.00000000      0.00000000      0.00000000      0.00000000      0.00000000      0.00000000      0.00000000      0.00000000      0.00000000      0.00000000      0.00000000      0.00000000      0.00000000      0.00000000      0.00000000      0.00000000      0.00000000      0.00000000      0.00000000      0.00000000
      0.00000000      0.00000000      0.00000000      0.00000000      0.00000000      0.00000000      0.00000000      0.00000000      0.00000000      0.00000000      0.00000000      0.00000000      0.00000000      0.00000000      0.00000000      0.00000000      0.00000000      0.00000000      0.00000000</v>
  <i type="string" name="LREAL">Auto</i>
  <i type="int" name="ISMEAR">     0</i>
  <i name="SIGMA">      0.05000000</i>
  <i type="logical" name="LWAVE"> F  </i>
  <i type="logical" name="LCHARG"> F  </i>
  <i type="logical" name="LASPH"> T  </i>
  <i type="int" name="IVDW">    12</i>
  <i name="SPRING">     -5.00000000</i>
 </incar>
 <primitive_cell>
  <structure name="primitive_cell" >
   <crystal>
    <varray name="basis" >
     <v>      17.27103806       0.00000000       0.00000000 </v>
     <v>      -8.63551903      14.95715771       0.00000000 </v>
     <v>       0.00000000       0.00000000      15.00000000 </v>
    </varray>
    <i name="volume">   3874.88459904 </i>
    <varray name="rec_basis" >
     <v>       0.05790040       0.03342881       0.00000000 </v>
     <v>       0.00000000       0.06685762       0.00000000 </v>
     <v>       0.00000000       0.00000000       0.06666667 </v>
    </varray>
   </crystal>
   <varray name="positions" >
    <v>       0.00063513       0.00084869       0.49905096 </v>
    <v>       0.00013015       0.14339081       0.50024288 </v>
    <v>       0.99999099       0.28624019       0.50217009 </v>
    <v>       0.00035476       0.42931121       0.50394375 </v>
    <v>       0.00102145       0.57241805       0.50375384 </v>
    <v>       0.00207441       0.71572648       0.50175288 </v>
    <v>       0.00178470       0.85877105       0.49967727 </v>
    <v>       0.14393089       0.00145951       0.49709084 </v>
    <v>       0.14334915       0.14398764       0.49300284 </v>
    <v>       0.14201059       0.28581427       0.48979031 </v>
    <v>       0.14219771       0.42903252       0.49263135 </v>
    <v>       0.14341558       0.57208839       0.49785562 </v>
    <v>       0.14404877       0.71527784       0.50099487 </v>
    <v>       0.14416363       0.85851576       0.50085091 </v>
    <v>       0.28643161       0.00105247       0.49776946 </v>
    <v>       0.28622324       0.14371162       0.48804796 </v>
    <v>       0.28530745       0.28660895       0.47158526 </v>
    <v>       0.28136026       0.42806347       0.46479332 </v>
    <v>       0.28553963       0.57101863       0.47950630 </v>
    <v>       0.28618108       0.71530912       0.49357656 </v>
    <v>       0.28639154       0.85835953       0.49957385 </v>
    <v>       0.42927043       0.00119264       0.49977520 </v>
    <v>       0.42905082       0.14367021       0.49512576 </v>
    <v>       0.42766478       0.28338251       0.48325122 </v>
    <v>       0.42720181       0.71695787       0.48790989 </v>
    <v>       0.42887138       0.85834205       0.49697671 </v>
    <v>       0.57183914       0.00152629       0.50121902 </v>
    <v>       0.57191894       0.14381860       0.50116665 </v>
    <v>       0.57273986       0.28713308       0.49714864 </v>
    <v>       0.57252574       0.85943819       0.49617627 </v>
    <v>       0.71475701       0.00095471       0.50138760 </v>
    <v>       0.71485481       0.14382787       0.50480492 </v>
    <v>       0.71484528       0.28660582       0.50312140 </v>
    <v>       0.71455851       0.42860905       0.49753994 </v>
    <v>       0.71937150       0.57393280       0.48427211 </v>
    <v>       0.72183630       0.71706706       0.48217895 </v>
    <v>       0.71377478       0.85811049       0.49363683 </v>
    <v>       0.85760135       0.00077226       0.50005458 </v>
    <v>       0.85739775       0.14353081       0.50457730 </v>
    <v>       0.85747849       0.28638889       0.50606840 </v>
    <v>       0.85794392       0.42938924       0.50368040 </v>
    <v>       0.85891853       0.57280300       0.49928293 </v>
    <v>       0.86072838       0.71626131       0.49475655 </v>
    <v>       0.85818695       0.85777239       0.49570696 </v>
    <v>       0.04817844       0.09619831       0.49808382 </v>
    <v>       0.04717112       0.23831733       0.49844432 </v>
    <v>       0.04728131       0.38139933       0.50084251 </v>
    <v>       0.04842343       0.52463030       0.50272032 </v>
    <v>       0.04896548       0.66776498       0.50279049 </v>
    <v>       0.04910098       0.81089633       0.50104807 </v>
    <v>       0.04873237       0.95367242       0.49897361 </v>
    <v>       0.19110819       0.09622626       0.49217758 </v>
    <v>       0.19021167       0.23893656       0.48610460 </v>
    <v>       0.18808625       0.38048760       0.48413457 </v>
    <v>       0.19036138       0.52419885       0.49082731 </v>
    <v>       0.19115269       0.66762368       0.49732968 </v>
    <v>       0.19150612       0.81075052       0.50071111 </v>
    <v>       0.19150159       0.95363134       0.49860085 </v>
    <v>       0.33394869       0.09639079       0.49375082 </v>
    <v>       0.33454758       0.23878306       0.47900182 </v>
    <v>       0.32397995       0.37734344       0.45177229 </v>
    <v>       0.32805469       0.52220997       0.46171859 </v>
    <v>       0.33425372       0.66828633       0.48631381 </v>
    <v>       0.33385220       0.81046515       0.49695735 </v>
    <v>       0.33389230       0.95345727       0.49939835 </v>
    <v>       0.47678081       0.09618387       0.49919974 </v>
    <v>       0.47596741       0.23864812       0.49245383 </v>
    <v>       0.47584561       0.81033087       0.49392369 </v>
    <v>       0.47671097       0.95367897       0.49980964 </v>
    <v>       0.61944494       0.09640271       0.50289609 </v>
    <v>       0.61974362       0.23907190       0.50065342 </v>
    <v>       0.62152363       0.38050677       0.49723928 </v>
    <v>       0.62078785       0.81471011       0.49341713 </v>
    <v>       0.61962074       0.95416525       0.49997044 </v>
    <v>       0.76242110       0.09626759       0.50435110 </v>
    <v>       0.76244784       0.23883975       0.50545784 </v>
    <v>       0.76272467       0.38168114       0.50159997 </v>
    <v>       0.76337446       0.52575168       0.49390329 </v>
    <v>       0.76612735       0.66777391       0.48632877 </v>
    <v>       0.76201499       0.80930796       0.49025935 </v>
    <v>       0.76242320       0.95342463       0.49860787 </v>
    <v>       0.90491830       0.09564678       0.50243414 </v>
    <v>       0.90490388       0.23868684       0.50532517 </v>
    <v>       0.90515098       0.38181006       0.50545360 </v>
    <v>       0.90592778       0.52491817       0.50307667 </v>
    <v>       0.90703858       0.66796439       0.49893951 </v>
    <v>       0.90663116       0.81105586       0.49686567 </v>
    <v>       0.90532211       0.95292425       0.49872815 </v>
    <v>       0.46369456       0.35565071       0.48063939 </v>
    <v>       0.39909494       0.55570800       0.44647568 </v>
    <v>       0.64732467       0.53969175       0.47644887 </v>
    <v>       0.58543027       0.41695963       0.49826002 </v>
    <v>       0.58383373       0.74287080       0.49059664 </v>
    <v>       0.46308457       0.68031830       0.48502937 </v>
    <v>       0.55156109       0.56897745       0.56433373 </v>
    <v>       0.46198199       0.49188082       0.59954262 </v>
    <v>       0.40869558       0.42349102       0.41850820 </v>
    <v>       0.63061943       0.66469310       0.47077528 </v>
    <v>       0.51695544       0.50424093       0.56977595 </v>
   </varray>
  </structure>
  <varray name="primitive_index" >
   <v type="int" >        1 </v>
   <v type="int" >        2 </v>
   <v type="int" >        3 </v>
   <v type="int" >        4 </v>
   <v type="int" >        5 </v>
   <v type="int" >        6 </v>
   <v type="int" >        7 </v>
   <v type="int" >        8 </v>
   <v type="int" >        9 </v>
   <v type="int" >       10 </v>
   <v type="int" >       11 </v>
   <v type="int" >       12 </v>
   <v type="int" >       13 </v>
   <v type="int" >       14 </v>
   <v type="int" >       15 </v>
   <v type="int" >       16 </v>
   <v type="int" >       17 </v>
   <v type="int" >       18 </v>
   <v type="int" >       19 </v>
   <v type="int" >       20 </v>
   <v type="int" >       21 </v>
   <v type="int" >       22 </v>
   <v type="int" >       23 </v>
   <v type="int" >       24 </v>
   <v type="int" >       25 </v>
   <v type="int" >       26 </v>
   <v type="int" >       27 </v>
   <v type="int" >       28 </v>
   <v type="int" >       29 </v>
   <v type="int" >       30 </v>
   <v type="int" >       31 </v>
   <v type="int" >       32 </v>
   <v type="int" >       33 </v>
   <v type="int" >       34 </v>
   <v type="int" >       35 </v>
   <v type="int" >       36 </v>
   <v type="int" >       37 </v>
   <v type="int" >       38 </v>
   <v type="int" >       39 </v>
   <v type="int" >       40 </v>
   <v type="int" >       41 </v>
   <v type="int" >       42 </v>
   <v type="int" >       43 </v>
   <v type="int" >       44 </v>
   <v type="int" >       45 </v>
   <v type="int" >       46 </v>
   <v type="int" >       47 </v>
   <v type="int" >       48 </v>
   <v type="int" >       49 </v>
   <v type="int" >       50 </v>
   <v type="int" >       51 </v>
   <v type="int" >       52 </v>
   <v type="int" >       53 </v>
   <v type="int" >       54 </v>
   <v type="int" >       55 </v>
   <v type="int" >       56 </v>
   <v type="int" >       57 </v>
   <v type="int" >       58 </v>
   <v type="int" >       59 </v>
   <v type="int" >       60 </v>
   <v type="int" >       61 </v>
   <v type="int" >       62 </v>
   <v type="int" >       63 </v>
   <v type="int" >       64 </v>
   <v type="int" >       65 </v>
   <v type="int" >       66 </v>
   <v type="int" >       67 </v>
   <v type="int" >       68 </v>
   <v type="int" >       69 </v>
   <v type="int" >       70 </v>
   <v type="int" >       71 </v>
   <v type="int" >       72 </v>
   <v type="int" >       73 </v>
   <v type="int" >       74 </v>
   <v type="int" >       75 </v>
   <v type="int" >       76 </v>
   <v type="int" >       77 </v>
   <v type="int" >       78 </v>
   <v type="int" >       79 </v>
   <v type="int" >       80 </v>
   <v type="int" >       81 </v>
   <v type="int" >       82 </v>
   <v type="int" >       83 </v>
   <v type="int" >       84 </v>
   <v type="int" >       85 </v>
   <v type="int" >       86 </v>
   <v type="int" >       87 </v>
   <v type="int" >       88 </v>
   <v type="int" >       89 </v>
   <v type="int" >       90 </v>
   <v type="int" >       91 </v>
   <v type="int" >       92 </v>
   <v type="int" >       93 </v>
   <v type="int" >       94 </v>
   <v type="int" >       95 </v>
   <v type="int" >       96 </v>
   <v type="int" >       97 </v>
   <v type="int" >       98 </v>
   <v type="int" >       99 </v>
  </varray>
 </primitive_cell>
 <kpoints>
  <generation param="Gamma">
   <v type="int" name="divisions">       2        2        1 </v>
   <v name="usershift">      0.00000000       0.00000000       0.00000000 </v>
   <v name="genvec1">      0.50000000       0.00000000       0.00000000 </v>
   <v name="genvec2">      0.00000000       0.50000000       0.00000000 </v>
   <v name="genvec3">      0.00000000       0.00000000       1.00000000 </v>
   <v name="shift">      0.00000000       0.00000000       0.00000000 </v>
  </generation>
  <varray name="kpointlist" >
   <v>       0.00000000       0.00000000       0.00000000 </v>
   <v>       0.50000000       0.00000000       0.00000000 </v>
   <v>       0.00000000       0.50000000       0.00000000 </v>
   <v>       0.50000000       0.50000000       0.00000000 </v>
  </varray>
  <varray name="weights" >
   <v>       0.25000000 </v>
   <v>       0.25000000 </v>
   <v>       0.25000000 </v>
   <v>       0.25000000 </v>
  </varray>
 </kpoints>
 <parameters>
  <separator name="general" >
   <i type="string" name="SYSTEM">unknown system</i>
   <i type="logical" name="LCOMPAT"> F  </i>
  </separator>
  <separator name="electronic" >
   <i type="string" name="PREC">normal</i>
   <i name="ENMAX">    520.00000000</i>
   <i name="ENAUG">    644.87300000</i>
   <i name="EDIFF">      0.00000100</i>
   <i type="int" name="IALGO">    38</i>
   <i type="int" name="IWAVPR">    11</i>
   <i type="int" name="NBANDS">   240</i>
   <i type="int" name="NBANDSLOW">    -1</i>
   <i type="int" name="NBANDSHIGH">    -1</i>
   <i name="NELECT">    380.00000000</i>
   <i type="int" name="TURBO">     0</i>
   <i type="int" name="IRESTART">     0</i>
   <i type="int" name="NREBOOT">     0</i>
   <i type="int" name="NMIN">     0</i>
   <i name="EREF">      0.00000000</i>
   <separator name="electronic smearing" >
    <i type="int" name="ISMEAR">     0</i>
    <i name="SIGMA">      0.05000000</i>
    <i name="KSPACING">      0.50000000</i>
    <i type="logical" name="KGAMMA"> T  </i>
    <i type="logical" name="KBLOWUP"> T  </i>
   </separator>
   <separator name="electronic projectors" >
    <i type="logical" name="LREAL"> T  </i>
    <v name="ROPT">     -0.00050000     -0.00050000     -0.00050000     -0.00050000</v>
    <i type="int" name="LMAXPAW">  -100</i>
    <i type="int" name="LMAXMIX">     2</i>
    <i type="logical" name="NLSPLINE"> F  </i>
   </separator>
   <separator name="electronic startup" >
    <i type="int" name="ISTART">     0</i>
    <i type="int" name="ICHARG">     2</i>
    <i type="int" name="INIWAV">     1</i>
   </separator>
   <separator name="electronic spin" >
    <i type="int" name="ISPIN">     2</i>
    <i type="logical" name="LNONCOLLINEAR"> F  </i>
    <v name="MAGMOM">      0.00000000      0.00000000      0.00000000      0.00000000      0.00000000      0.00000000      0.00000000      0.00000000      0.00000000      0.00000000      0.00000000      0.00000000      0.00000000      0.00000000      0.00000000      0.00000000      0.00000000      0.00000000      0.00000000      0.00000000
      0.00000000      0.00000000      0.00000000      0.00000000      0.00000000      0.00000000      0.00000000      0.00000000      0.00000000      0.00000000      0.00000000      0.00000000      0.00000000      0.00000000      0.00000000      0.00000000      0.00000000      0.00000000      0.00000000      0.00000000
      0.00000000      0.00000000      0.00000000      0.00000000      0.00000000      0.00000000      0.00000000      0.00000000      0.00000000      0.00000000      0.00000000      0.00000000      0.00000000      0.00000000      0.00000000      0.00000000      0.00000000      0.00000000      0.00000000      0.00000000
      0.00000000      0.00000000      0.00000000      0.00000000      0.00000000      0.00000000      0.00000000      0.00000000      0.00000000      0.00000000      0.00000000      0.00000000      0.00000000      0.00000000      0.00000000      0.00000000      0.00000000      0.00000000      0.00000000      0.00000000
      0.00000000      0.00000000      0.00000000      0.00000000      0.00000000      0.00000000      0.00000000      0.00000000      0.00000000      0.00000000      0.00000000      0.00000000      0.00000000      0.00000000      0.00000000      0.00000000      0.00000000      0.00000000      0.00000000</v>
    <i name="NUPDOWN">     -1.00000000</i>
    <i type="logical" name="LSORBIT"> F  </i>
    <v name="SAXIS">      0.00000000      0.00000000      1.00000000</v>
    <i type="logical" name="LSPIRAL"> F  </i>
    <v name="QSPIRAL">      0.00000000      0.00000000      0.00000000</v>
    <i type="logical" name="LZEROZ"> F  </i>
   </separator>
   <separator name="electronic exchange-correlation" >
    <i type="logical" name="LASPH"> T  </i>
    <i type="logical" name="LMETAGGA"> F  </i>
   </separator>
   <separator name="electronic convergence" >
    <i type="int" name="NELM">   200</i>
    <i type="int" name="NELMDL">    -5</i>
    <i type="int" name="NELMIN">     2</i>
    <i name="ENINI">    520.00000000</i>
    <separator name="electronic convergence detail" >
     <i type="logical" name="LDIAG"> T  </i>
     <i type="logical" name="LSUBROT"> F  </i>
     <i name="WEIMIN">      0.00100000</i>
     <i name="EBREAK">      0.00000000</i>
     <i name="DEPER">      0.30000000</i>
     <i type="int" name="NRMM">     4</i>
     <i name="TIME">      0.40000000</i>
    </separator>
   </separator>
   <separator name="electronic mixer" >
    <i name="AMIX">      0.20000000</i>
    <i name="BMIX">      0.00010000</i>
    <i name="AMIN">      0.10000000</i>
    <i name="AMIX_MAG">      0.80000000</i>
    <i name="BMIX_MAG">      0.00010000</i>
    <separator name="electronic mixer details" >
     <i type="int" name="IMIX">     4</i>
     <i type="logical" name="MIXFIRST"> F  </i>
     <i type="int" name="MAXMIX">   -45</i>
     <i name="WC">    100.00000000</i>
     <i type="int" name="INIMIX">     1</i>
     <i type="int" name="MIXPRE">     1</i>
     <i type="int" name="MREMOVE">     5</i>
    </separator>
   </separator>
   <separator name="electronic dipolcorrection" >
    <i type="logical" name="LDIPOL"> F  </i>
    <i type="logical" name="LMONO"> F  </i>
    <i type="int" name="IDIPOL">     0</i>
    <i name="EPSILON">      1.00000000</i>
    <v name="DIPOL">   -100.00000000   -100.00000000   -100.00000000</v>
    <i name="EFIELD">      0.00000000</i>
   </separator>
  </separator>
  <separator name="grids" >
   <i type="int" name="NGX">    96</i>
   <i type="int" name="NGY">    96</i>
   <i type="int" name="NGZ">    84</i>
   <i type="int" name="NGXF">   192</i>
   <i type="int" name="NGYF">   192</i>
   <i type="int" name="NGZF">   168</i>
   <i type="logical" name="ADDGRID"> T  </i>
  </separator>
  <separator name="ionic" >
   <i type="int" name="NSW">   500</i>
   <i type="int" name="IBRION">     3</i>
   <i type="int" name="MDALGO">     0</i>
   <i type="int" name="ISIF">     2</i>
   <i name="PSTRESS">      0.00000000</i>
   <i name="EDIFFG">     -0.03000000</i>
   <i type="int" name="NFREE">     0</i>
   <i name="POTIM">      0.00000000</i>
   <i name="SMASS">     -3.00000000</i>
   <i name="SCALEE">      1.00000000</i>
  </separator>
  <separator name="ionic md" >
   <i name="TEBEG">      0.00010000</i>
   <i name="TEEND">      0.00010000</i>
   <i type="int" name="NBLOCK">     1</i>
   <i type="int" name="KBLOCK">   500</i>
   <i type="int" name="NPACO">   256</i>
   <i name="APACO">     10.00000000</i>
  </separator>
  <separator name="symmetry" >
   <i type="int" name="ISYM">     0</i>
   <i name="SYMPREC">      0.00001000</i>
  </separator>
  <separator name="dos" >
   <i type="int" name="LORBIT">     0</i>
   <v name="RWIGS">     -1.00000000     -1.00000000     -1.00000000     -1.00000000</v>
   <i type="int" name="NEDOS">   301</i>
   <i name="EMIN">     10.00000000</i>
   <i name="EMAX">    -10.00000000</i>
   <i name="EFERMI">      0.00000000</i>
  </separator>
  <separator name="writing" >
   <i type="int" name="NWRITE">     2</i>
   <i type="logical" name="LWAVE"> F  </i>
   <i type="logical" name="LDOWNSAMPLE"> F  </i>
   <i type="logical" name="LCHARG"> F  </i>
   <i type="logical" name="LPARD"> F  </i>
   <i type="logical" name="LVTOT"> F  </i>
   <i type="logical" name="LVHAR"> F  </i>
   <i type="logical" name="LELF"> F  </i>
   <i type="logical" name="LOPTICS"> F  </i>
   <v name="STM">      0.00000000      0.00000000      0.00000000      0.00000000      0.00000000      0.00000000      0.00000000</v>
  </separator>
  <separator name="performance" >
   <i type="int" name="NPAR">     5</i>
   <i type="int" name="NSIM">     4</i>
   <i type="int" name="NBLK">    -1</i>
   <i type="logical" name="LPLANE"> T  </i>
   <i type="logical" name="LSCALAPACK"> T  </i>
   <i type="logical" name="LSCAAWARE"> F  </i>
   <i type="logical" name="LSCALU"> F  </i>
   <i type="logical" name="LASYNC"> F  </i>
   <i type="logical" name="LORBITALREAL"> F  </i>
  </separator>
  <separator name="miscellaneous" >
   <i type="int" name="IDIOT">     3</i>
   <i type="int" name="PHON_NSTRUCT">    -1</i>
   <i type="logical" name="LMUSIC"> F  </i>
   <v name="POMASS">     12.01100000      1.00000000     18.99800000     16.00000000</v>
   <v name="DARWINR">      0.00000000      0.00000000      0.00000000      0.00000000</v>
   <v name="DARWINV">      1.00000000      1.00000000      1.00000000      1.00000000</v>
   <i type="logical" name="LCORR"> T  </i>
  </separator>
  <i type="logical" name="GGA_COMPAT"> T  </i>
  <i type="logical" name="LBERRY"> F  </i>
  <i type="int" name="ICORELEVEL">     0</i>
  <i type="logical" name="LDAU"> F  </i>
  <i type="int" name="I_CONSTRAINED_M">     0</i>
  <separator name="electronic exchange-correlation" >
   <i type="string" name="GGA">--</i>
   <i type="int" name="VOSKOWN">     0</i>
   <i type="logical" name="LHFCALC"> F  </i>
   <i type="string" name="PRECFOCK"></i>
   <i type="logical" name="LSYMGRAD"> F  </i>
   <i type="logical" name="LHFONE"> F  </i>
   <i type="logical" name="LRHFCALC"> F  </i>
   <i type="logical" name="LTHOMAS"> F  </i>
   <i type="logical" name="LMODELHF"> F  </i>
   <i type="logical" name="LFOCKACE"> F  </i>
   <i name="ENCUT4O">     -1.00000000</i>
   <i type="int" name="EXXOEP">     0</i>
   <i type="int" name="FOURORBIT">     0</i>
   <i name="AEXX">      0.00000000</i>
   <i name="HFALPHA">      0.00000000</i>
   <i name="MCALPHA">      0.00000000</i>
   <i name="ALDAX">      1.00000000</i>
   <i name="AGGAX">      1.00000000</i>
   <i name="ALDAC">      1.00000000</i>
   <i name="AGGAC">      1.00000000</i>
   <i type="int" name="NKREDX">     1</i>
   <i type="int" name="NKREDY">     1</i>
   <i type="int" name="NKREDZ">     1</i>
   <i type="logical" name="SHIFTRED"> F  </i>
   <i type="logical" name="ODDONLY"> F  </i>
   <i type="logical" name="EVENONLY"> F  </i>
   <i type="int" name="LMAXFOCK">     0</i>
   <i type="int" name="NMAXFOCKAE">     0</i>
   <i type="logical" name="LFOCKAEDFT"> F  </i>
   <i name="HFSCREEN">      0.00000000</i>
   <i name="HFSCREENC">      0.00000000</i>
   <i type="int" name="NBANDSGWLOW">     0</i>
  </separator>
  <separator name="vdW DFT" >
   <i type="logical" name="LUSE_VDW"> F  </i>
   <i type="int" name="IVDW_NL">     1</i>
   <i type="logical" name="LSPIN_VDW"> F  </i>
   <i name="Zab_VDW">     -0.84910000</i>
   <i name="PARAM1">      0.12340000</i>
   <i name="PARAM2">      1.00000000</i>
   <i name="PARAM3">      0.00000000</i>
  </separator>
  <separator name="model GW" >
   <i type="int" name="MODEL_GW">     0</i>
   <i name="MODEL_EPS0">     23.48414909</i>
   <i name="MODEL_ALPHA">      1.00000000</i>
  </separator>
  <separator name="linear response parameters" >
   <i type="logical" name="LEPSILON"> F  </i>
   <i type="logical" name="LRPA"> F  </i>
   <i type="logical" name="LNABLA"> F  </i>
   <i type="logical" name="LVEL"> F  </i>
   <i name="CSHIFT">      0.10000000</i>
   <i name="OMEGAMAX">     -1.00000000</i>
   <i name="DEG_THRESHOLD">      0.00200000</i>
   <i name="RTIME">     -0.10000000</i>
   <i name="WPLASMAI">      0.00000000</i>
   <v name="DFIELD">      0.00000000      0.00000000      0.00000000</v>
   <v name="WPLASMA">      0.00000000      0.00000000      0.00000000      0.00000000      0.00000000      0.00000000      0.00000000      0.00000000      0.00000000</v>
  </separator>
  <separator name="orbital magnetization" >
   <i type="logical" name="NUCIND"> F  </i>
   <v name="MAGPOS">      0.00000000      0.00000000      0.00000000</v>
   <i type="logical" name="LNICSALL"> T  </i>
   <i type="logical" name="ORBITALMAG"> F  </i>
   <i type="logical" name="LMAGBLOCH"> F  </i>
   <i type="logical" name="LCHIMAG"> F  </i>
   <i type="logical" name="LGAUGE"> T  </i>
   <i type="int" name="MAGATOM">     0</i>
   <v name="MAGDIPOL">      0.00000000      0.00000000      0.00000000</v>
   <v name="AVECCONST">      0.00000000      0.00000000      0.00000000</v>
  </separator>
  <separator name="response functions" >
   <i type="logical" name="LALL_IN_ONE"> F  </i>
   <i type="int" name="IALL_IN_ONE">    -1</i>
   <i type="int" name="NBANDS_WAVE">    -1</i>
   <i type="logical" name="LFINITE_TEMPERATURE"> F  </i>
   <i type="logical" name="LADDER"> F  </i>
   <i type="logical" name="LRPAFORCE"> F  </i>
   <i type="logical" name="LFXC"> F  </i>
   <i type="logical" name="LHARTREE"> T  </i>
   <i type="int" name="IBSE">     0</i>
   <v type="int" name="KPOINT">    -1     0     0     0</v>
   <i type="logical" name="LTCTC"> F  </i>
   <i type="logical" name="LTCTE"> F  </i>
   <i type="logical" name="LTETE"> F  </i>
   <i type="logical" name="LTRIPLET"> F  </i>
   <i type="logical" name="LFXCEPS"> F  </i>
   <i type="logical" name="LFXHEG"> F  </i>
   <i type="int" name="NATURALO">     2</i>
   <i type="logical" name="LHOLEGF"> F  </i>
   <i type="logical" name="L2ORDER"> F  </i>
   <i type="logical" name="LDMP1"> F  </i>
   <i type="logical" name="LMP2LT"> F  </i>
   <i type="logical" name="LSMP2LT"> F  </i>
   <i type="logical" name="LGWLF"> F  </i>
   <i name="ENCUTGW">     -1.60000002</i>
   <i name="ENCUTGWSOFT">     -1.60000002</i>
   <i name="ENCUTLF">     -1.00000000</i>
   <i type="logical" name="LESF_SPLINES"> F  </i>
   <i type="int" name="LMAXMP2">    -1</i>
   <i name="SCISSOR">      0.00000000</i>
   <i type="int" name="NOMEGA">     0</i>
   <i type="int" name="NOMEGAR">     0</i>
   <i type="int" name="NBANDSGW">    -1</i>
   <i type="int" name="NBANDSO">    -1</i>
   <i type="int" name="NBANDSV">    -1</i>
   <i type="int" name="NELMGW">     1</i>
   <i type="int" name="NELMHF">     1</i>
   <i type="int" name="DIM">     3</i>
   <i type="int" name="IESPILON">     4</i>
   <i type="int" name="ANTIRES">     0</i>
   <i name="OMEGAMAX">    -30.00000000</i>
   <i name="OMEGAMIN">    -30.00000000</i>
   <i name="OMEGATL">   -200.00000000</i>
   <i type="int" name="OMEGAGRID">     0</i>
   <i name="CSHIFT">     -0.10000000</i>
   <i type="logical" name="LSELFENERGY"> F  </i>
   <i type="logical" name="LSPECTRAL"> F  </i>
   <i type="logical" name="LSPECTRALGW"> F  </i>
   <i type="logical" name="LSINGLES"> F  </i>
   <i type="logical" name="LFERMIGW"> F  </i>
   <i type="logical" name="ODDONLYGW"> F  </i>
   <i type="logical" name="EVENONLYGW"> F  </i>
   <i type="int" name="NKREDLFX">     1</i>
   <i type="int" name="NKREDLFY">     1</i>
   <i type="int" name="NKREDLFZ">     1</i>
   <i type="int" name="MAXMEM">  2800</i>
   <i type="int" name="TELESCOPE">     0</i>
   <i type="int" name="NTAUPAR">    -1</i>
   <i type="int" name="NOMEGAPAR">    -1</i>
   <i name="DAMP_NEWTON">      0.80000001</i>
   <i name="LAMBDA">      1.00000000</i>
  </separator>
  <separator name="External order field" >
   <i name="OFIELD_KAPPA">      0.00000000</i>
   <v name="OFIELD_K">      0.00000000      0.00000000      0.00000000</v>
   <i name="OFIELD_Q6_NEAR">      0.00000000</i>
   <i name="OFIELD_Q6_FAR">      0.00000000</i>
   <i name="OFIELD_A">      0.00000000</i>
  </separator>
  <separator name="optional k-points parameters" >
   <i type="int" name="KPOINTS_OPT_MODE">     1</i>
   <i type="logical" name="LKPOINTS_OPT"> F  </i>
  </separator>
 </parameters>
 <atominfo>
  <atoms>      99 </atoms>
  <types>       4 </types>
  <array name="atoms" >
   <dimension dim="1">ion</dimension>
   <field type="string">element</field>
   <field type="int">atomtype</field>
   <set>
    <rc><c>C </c><c>   1</c></rc>
    <rc><c>C </c><c>   1</c></rc>
    <rc><c>C </c><c>   1</c></rc>
    <rc><c>C </c><c>   1</c></rc>
    <rc><c>C </c><c>   1</c></rc>
    <rc><c>C </c><c>   1</c></rc>
    <rc><c>C </c><c>   1</c></rc>
    <rc><c>C </c><c>   1</c></rc>
    <rc><c>C </c><c>   1</c></rc>
    <rc><c>C </c><c>   1</c></rc>
    <rc><c>C </c><c>   1</c></rc>
    <rc><c>C </c><c>   1</c></rc>
    <rc><c>C </c><c>   1</c></rc>
    <rc><c>C </c><c>   1</c></rc>
    <rc><c>C </c><c>   1</c></rc>
    <rc><c>C </c><c>   1</c></rc>
    <rc><c>C </c><c>   1</c></rc>
    <rc><c>C </c><c>   1</c></rc>
    <rc><c>C </c><c>   1</c></rc>
    <rc><c>C </c><c>   1</c></rc>
    <rc><c>C </c><c>   1</c></rc>
    <rc><c>C </c><c>   1</c></rc>
    <rc><c>C </c><c>   1</c></rc>
    <rc><c>C </c><c>   1</c></rc>
    <rc><c>C </c><c>   1</c></rc>
    <rc><c>C </c><c>   1</c></rc>
    <rc><c>C </c><c>   1</c></rc>
    <rc><c>C </c><c>   1</c></rc>
    <rc><c>C </c><c>   1</c></rc>
    <rc><c>C </c><c>   1</c></rc>
    <rc><c>C </c><c>   1</c></rc>
    <rc><c>C </c><c>   1</c></rc>
    <rc><c>C </c><c>   1</c></rc>
    <rc><c>C </c><c>   1</c></rc>
    <rc><c>C </c><c>   1</c></rc>
    <rc><c>C </c><c>   1</c></rc>
    <rc><c>C </c><c>   1</c></rc>
    <rc><c>C </c><c>   1</c></rc>
    <rc><c>C </c><c>   1</c></rc>
    <rc><c>C </c><c>   1</c></rc>
    <rc><c>C </c><c>   1</c></rc>
    <rc><c>C </c><c>   1</c></rc>
    <rc><c>C </c><c>   1</c></rc>
    <rc><c>C </c><c>   1</c></rc>
    <rc><c>C </c><c>   1</c></rc>
    <rc><c>C </c><c>   1</c></rc>
    <rc><c>C </c><c>   1</c></rc>
    <rc><c>C </c><c>   1</c></rc>
    <rc><c>C </c><c>   1</c></rc>
    <rc><c>C </c><c>   1</c></rc>
    <rc><c>C </c><c>   1</c></rc>
    <rc><c>C </c><c>   1</c></rc>
    <rc><c>C </c><c>   1</c></rc>
    <rc><c>C </c><c>   1</c></rc>
    <rc><c>C </c><c>   1</c></rc>
    <rc><c>C </c><c>   1</c></rc>
    <rc><c>C </c><c>   1</c></rc>
    <rc><c>C </c><c>   1</c></rc>
    <rc><c>C </c><c>   1</c></rc>
    <rc><c>C </c><c>   1</c></rc>
    <rc><c>C </c><c>   1</c></rc>
    <rc><c>C </c><c>   1</c></rc>
    <rc><c>C </c><c>   1</c></rc>
    <rc><c>C </c><c>   1</c></rc>
    <rc><c>C </c><c>   1</c></rc>
    <rc><c>C </c><c>   1</c></rc>
    <rc><c>C </c><c>   1</c></rc>
    <rc><c>C </c><c>   1</c></rc>
    <rc><c>C </c><c>   1</c></rc>
    <rc><c>C </c><c>   1</c></rc>
    <rc><c>C </c><c>   1</c></rc>
    <rc><c>C </c><c>   1</c></rc>
    <rc><c>C </c><c>   1</c></rc>
    <rc><c>C </c><c>   1</c></rc>
    <rc><c>C </c><c>   1</c></rc>
    <rc><c>C </c><c>   1</c></rc>
    <rc><c>C </c><c>   1</c></rc>
    <rc><c>C </c><c>   1</c></rc>
    <rc><c>C </c><c>   1</c></rc>
    <rc><c>C </c><c>   1</c></rc>
    <rc><c>C </c><c>   1</c></rc>
    <rc><c>C </c><c>   1</c></rc>
    <rc><c>C </c><c>   1</c></rc>
    <rc><c>C </c><c>   1</c></rc>
    <rc><c>C </c><c>   1</c></rc>
    <rc><c>C </c><c>   1</c></rc>
    <rc><c>C </c><c>   1</c></rc>
    <rc><c>C </c><c>   1</c></rc>
    <rc><c>H </c><c>   2</c></rc>
    <rc><c>H </c><c>   2</c></rc>
    <rc><c>H </c><c>   2</c></rc>
    <rc><c>H </c><c>   2</c></rc>
    <rc><c>H </c><c>   2</c></rc>
    <rc><c>H </c><c>   2</c></rc>
    <rc><c>H </c><c>   2</c></rc>
    <rc><c>H </c><c>   2</c></rc>
    <rc><c>F </c><c>   3</c></rc>
    <rc><c>F </c><c>   3</c></rc>
    <rc><c>O </c><c>   4</c></rc>
   </set>
  </array>
  <array name="atomtypes" >
   <dimension dim="1">type</dimension>
   <field type="int">atomspertype</field>
   <field type="string">element</field>
   <field>mass</field>
   <field>valence</field>
   <field type="string">pseudopotential</field>
   <set>
    <rc><c>  88</c><c>C </c><c>     12.01100000</c><c>      4.00000000</c><c>  PAW_PBE C 08Apr2002                   </c></rc>
    <rc><c>   8</c><c>H </c><c>      1.00000000</c><c>      1.00000000</c><c>  PAW_PBE H 15Jun2001                   </c></rc>
    <rc><c>   2</c><c>F </c><c>     18.99800000</c><c>      7.00000000</c><c>  PAW_PBE F 08Apr2002                   </c></rc>
    <rc><c>   1</c><c>O </c><c>     16.00000000</c><c>      6.00000000</c><c>  PAW_PBE O 08Apr2002                   </c></rc>
   </set>
  </array>
 </atominfo>
 <structure name="initialpos" >
  <crystal>
   <varray name="basis" >
    <v>      17.27103806       0.00000000       0.00000000 </v>
    <v>      -8.63551903      14.95715771       0.00000000 </v>
    <v>       0.00000000       0.00000000      15.00000000 </v>
   </varray>
   <i name="volume">   3874.88459904 </i>
   <varray name="rec_basis" >
    <v>       0.05790040       0.03342881       0.00000000 </v>
    <v>       0.00000000       0.06685762       0.00000000 </v>
    <v>       0.00000000       0.00000000       0.06666667 </v>
   </varray>
  </crystal>
  <varray name="positions" >
   <v>       0.00063513       0.00084869       0.49905096 </v>
   <v>       0.00013015       0.14339081       0.50024288 </v>
   <v>       0.99999099       0.28624019       0.50217009 </v>
   <v>       0.00035476       0.42931121       0.50394375 </v>
   <v>       0.00102145       0.57241805       0.50375384 </v>
   <v>       0.00207441       0.71572648       0.50175288 </v>
   <v>       0.00178470       0.85877105       0.49967727 </v>
   <v>       0.14393089       0.00145951       0.49709084 </v>
   <v>       0.14334915       0.14398764       0.49300284 </v>
   <v>       0.14201059       0.28581427       0.48979031 </v>
   <v>       0.14219771       0.42903252       0.49263135 </v>
   <v>       0.14341558       0.57208839       0.49785562 </v>
   <v>       0.14404877       0.71527784       0.50099487 </v>
   <v>       0.14416363       0.85851576       0.50085091 </v>
   <v>       0.28643161       0.00105247       0.49776946 </v>
   <v>       0.28622324       0.14371162       0.48804796 </v>
   <v>       0.28530745       0.28660895       0.47158526 </v>
   <v>       0.28136026       0.42806347       0.46479332 </v>
   <v>       0.28553963       0.57101863       0.47950630 </v>
   <v>       0.28618108       0.71530912       0.49357656 </v>
   <v>       0.28639154       0.85835953       0.49957385 </v>
   <v>       0.42927043       0.00119264       0.49977520 </v>
   <v>       0.42905082       0.14367021       0.49512576 </v>
   <v>       0.42766478       0.28338251       0.48325122 </v>
   <v>       0.42720181       0.71695787       0.48790989 </v>
   <v>       0.42887138       0.85834205       0.49697671 </v>
   <v>       0.57183914       0.00152629       0.50121902 </v>
   <v>       0.57191894       0.14381860       0.50116665 </v>
   <v>       0.57273986       0.28713308       0.49714864 </v>
   <v>       0.57252574       0.85943819       0.49617627 </v>
   <v>       0.71475701       0.00095471       0.50138760 </v>
   <v>       0.71485481       0.14382787       0.50480492 </v>
   <v>       0.71484528       0.28660582       0.50312140 </v>
   <v>       0.71455851       0.42860905       0.49753994 </v>
   <v>       0.71937150       0.57393280       0.48427211 </v>
   <v>       0.72183630       0.71706706       0.48217895 </v>
   <v>       0.71377478       0.85811049       0.49363683 </v>
   <v>       0.85760135       0.00077226       0.50005458 </v>
   <v>       0.85739775       0.14353081       0.50457730 </v>
   <v>       0.85747849       0.28638889       0.50606840 </v>
   <v>       0.85794392       0.42938924       0.50368040 </v>
   <v>       0.85891853       0.57280300       0.49928293 </v>
   <v>       0.86072838       0.71626131       0.49475655 </v>
   <v>       0.85818695       0.85777239       0.49570696 </v>
   <v>       0.04817844       0.09619831       0.49808382 </v>
   <v>       0.04717112       0.23831733       0.49844432 </v>
   <v>       0.04728131       0.38139933       0.50084251 </v>
   <v>       0.04842343       0.52463030       0.50272032 </v>
   <v>       0.04896548       0.66776498       0.50279049 </v>
   <v>       0.04910098       0.81089633       0.50104807 </v>
   <v>       0.04873237       0.95367242       0.49897361 </v>
   <v>       0.19110819       0.09622626       0.49217758 </v>
   <v>       0.19021167       0.23893656       0.48610460 </v>
   <v>       0.18808625       0.38048760       0.48413457 </v>
   <v>       0.19036138       0.52419885       0.49082731 </v>
   <v>       0.19115269       0.66762368       0.49732968 </v>
   <v>       0.19150612       0.81075052       0.50071111 </v>
   <v>       0.19150159       0.95363134       0.49860085 </v>
   <v>       0.33394869       0.09639079       0.49375082 </v>
   <v>       0.33454758       0.23878306       0.47900182 </v>
   <v>       0.32397995       0.37734344       0.45177229 </v>
   <v>       0.32805469       0.52220997       0.46171859 </v>
   <v>       0.33425372       0.66828633       0.48631381 </v>
   <v>       0.33385220       0.81046515       0.49695735 </v>
   <v>       0.33389230       0.95345727       0.49939835 </v>
   <v>       0.47678081       0.09618387       0.49919974 </v>
   <v>       0.47596741       0.23864812       0.49245383 </v>
   <v>       0.47584561       0.81033087       0.49392369 </v>
   <v>       0.47671097       0.95367897       0.49980964 </v>
   <v>       0.61944494       0.09640271       0.50289609 </v>
   <v>       0.61974362       0.23907190       0.50065342 </v>
   <v>       0.62152363       0.38050677       0.49723928 </v>
   <v>       0.62078785       0.81471011       0.49341713 </v>
   <v>       0.61962074       0.95416525       0.49997044 </v>
   <v>       0.76242110       0.09626759       0.50435110 </v>
   <v>       0.76244784       0.23883975       0.50545784 </v>
   <v>       0.76272467       0.38168114       0.50159997 </v>
   <v>       0.76337446       0.52575168       0.49390329 </v>
   <v>       0.76612735       0.66777391       0.48632877 </v>
   <v>       0.76201499       0.80930796       0.49025935 </v>
   <v>       0.76242320       0.95342463       0.49860787 </v>
   <v>       0.90491830       0.09564678       0.50243414 </v>
   <v>       0.90490388       0.23868684       0.50532517 </v>
   <v>       0.90515098       0.38181006       0.50545360 </v>
   <v>       0.90592778       0.52491817       0.50307667 </v>
   <v>       0.90703858       0.66796439       0.49893951 </v>
   <v>       0.90663116       0.81105586       0.49686567 </v>
   <v>       0.90532211       0.95292425       0.49872815 </v>
   <v>       0.46369456       0.35565071       0.48063939 </v>
   <v>       0.39909494       0.55570800       0.44647568 </v>
   <v>       0.64732467       0.53969175       0.47644887 </v>
   <v>       0.58543027       0.41695963       0.49826002 </v>
   <v>       0.58383373       0.74287080       0.49059664 </v>
   <v>       0.46308457       0.68031830       0.48502937 </v>
   <v>       0.55156109       0.56897745       0.56433373 </v>
   <v>       0.46198199       0.49188082       0.59954262 </v>
   <v>       0.40869558       0.42349102       0.41850820 </v>
   <v>       0.63061943       0.66469310       0.47077528 </v>
   <v>       0.51695544       0.50424093       0.56977595 </v>
  </varray>
  <varray name="selective"  type="logical" >
   <v type="logical" >  T  T  T </v>
   <v type="logical" >  T  T  T </v>
   <v type="logical" >  T  T  T </v>
   <v type="logical" >  T  T  T </v>
   <v type="logical" >  T  T  T </v>
   <v type="logical" >  T  T  T </v>
   <v type="logical" >  T  T  T </v>
   <v type="logical" >  T  T  T </v>
   <v type="logical" >  T  T  T </v>
   <v type="logical" >  T  T  T </v>
   <v type="logical" >  T  T  T </v>
   <v type="logical" >  T  T  T </v>
   <v type="logical" >  T  T  T </v>
   <v type="logical" >  T  T  T </v>
   <v type="logical" >  T  T  T </v>
   <v type="logical" >  T  T  T </v>
   <v type="logical" >  T  T  T </v>
   <v type="logical" >  T  T  T </v>
   <v type="logical" >  T  T  T </v>
   <v type="logical" >  T  T  T </v>
   <v type="logical" >  T  T  T </v>
   <v type="logical" >  T  T  T </v>
   <v type="logical" >  T  T  T </v>
   <v type="logical" >  T  T  T </v>
   <v type="logical" >  T  T  T </v>
   <v type="logical" >  T  T  T </v>
   <v type="logical" >  T  T  T </v>
   <v type="logical" >  T  T  T </v>
   <v type="logical" >  T  T  T </v>
   <v type="logical" >  T  T  T </v>
   <v type="logical" >  T  T  T </v>
   <v type="logical" >  T  T  T </v>
   <v type="logical" >  T  T  T </v>
   <v type="logical" >  T  T  T </v>
   <v type="logical" >  T  T  T </v>
   <v type="logical" >  T  T  T </v>
   <v type="logical" >  T  T  T </v>
   <v type="logical" >  T  T  T </v>
   <v type="logical" >  T  T  T </v>
   <v type="logical" >  T  T  T </v>
   <v type="logical" >  T  T  T </v>
   <v type="logical" >  T  T  T </v>
   <v type="logical" >  T  T  T </v>
   <v type="logical" >  T  T  T </v>
   <v type="logical" >  T  T  T </v>
   <v type="logical" >  T  T  T </v>
   <v type="logical" >  T  T  T </v>
   <v type="logical" >  T  T  T </v>
   <v type="logical" >  T  T  T </v>
   <v type="logical" >  T  T  T </v>
   <v type="logical" >  T  T  T </v>
   <v type="logical" >  T  T  T </v>
   <v type="logical" >  T  T  T </v>
   <v type="logical" >  T  T  T </v>
   <v type="logical" >  T  T  T </v>
   <v type="logical" >  T  T  T </v>
   <v type="logical" >  T  T  T </v>
   <v type="logical" >  T  T  T </v>
   <v type="logical" >  T  T  T </v>
   <v type="logical" >  T  T  T </v>
   <v type="logical" >  T  T  T </v>
   <v type="logical" >  T  T  T </v>
   <v type="logical" >  T  T  T </v>
   <v type="logical" >  T  T  T </v>
   <v type="logical" >  T  T  T </v>
   <v type="logical" >  T  T  T </v>
   <v type="logical" >  T  T  T </v>
   <v type="logical" >  T  T  T </v>
   <v type="logical" >  T  T  T </v>
   <v type="logical" >  T  T  T </v>
   <v type="logical" >  T  T  T </v>
   <v type="logical" >  T  T  T </v>
   <v type="logical" >  T  T  T </v>
   <v type="logical" >  T  T  T </v>
   <v type="logical" >  T  T  T </v>
   <v type="logical" >  T  T  T </v>
   <v type="logical" >  T  T  T </v>
   <v type="logical" >  T  T  T </v>
   <v type="logical" >  T  T  T </v>
   <v type="logical" >  T  T  T </v>
   <v type="logical" >  T  T  T </v>
   <v type="logical" >  T  T  T </v>
   <v type="logical" >  T  T  T </v>
   <v type="logical" >  T  T  T </v>
   <v type="logical" >  T  T  T </v>
   <v type="logical" >  T  T  T </v>
   <v type="logical" >  T  T  T </v>
   <v type="logical" >  T  T  T </v>
   <v type="logical" >  T  T  T </v>
   <v type="logical" >  T  T  T </v>
   <v type="logical" >  T  T  T </v>
   <v type="logical" >  T  T  T </v>
   <v type="logical" >  T  T  T </v>
   <v type="logical" >  T  T  T </v>
   <v type="logical" >  T  T  T </v>
   <v type="logical" >  T  T  T </v>
   <v type="logical" >  T  T  T </v>
   <v type="logical" >  T  T  T </v>
   <v type="logical" >  T  T  F </v>
  </varray>
  <nose>
   <v>      -3.00000000       0.00000000       0.00010000       0.00010000 </v>
  </nose>
 </structure>
 <calculation>
  <scstep>
   <time name="dav">   63.33   63.79</time>
   <time name="total">   68.15   68.69</time>
   <energy>
    <i name="alphaZ">    186.33367753 </i>
    <i name="ewald">  37795.40688600 </i>
    <i name="hartreedc"> -48950.68084081 </i>
    <i name="XCdc">   1280.17566910 </i>
    <i name="pawpsdc">  10991.97733137 </i>
    <i name="pawaedc"> -11054.15789429 </i>
    <i name="eentropy">     -0.02871739 </i>
    <i name="bandstr">  -1486.54153150 </i>
    <i name="atom">  14800.58670786 </i>
    <i name="e_fr_energy">   3563.07128787 </i>
    <i name="e_wo_entrp">   3563.10000525 </i>
    <i name="e_0_energy">   3563.08564656 </i>
   </energy>
  </scstep>
  <scstep>
   <time name="dav">   80.76   81.35</time>
   <time name="total">   80.76   81.36</time>
   <energy>
    <i name="e_fr_energy">   -200.27258850 </i>
    <i name="e_wo_entrp">   -200.27258849 </i>
    <i name="e_0_energy">   -200.27258849 </i>
   </energy>
  </scstep>
  <scstep>
   <time name="dav">   68.97   69.46</time>
   <time name="total">   68.97   69.47</time>
   <energy>
    <i name="e_fr_energy">   -887.38402998 </i>
    <i name="e_wo_entrp">   -887.38402978 </i>
    <i name="e_0_energy">   -887.38402988 </i>
   </energy>
  </scstep>
  <scstep>
   <time name="dav">   68.23   68.74</time>
   <time name="total">   68.23   68.76</time>
   <energy>
    <i name="e_fr_energy">   -912.84410063 </i>
    <i name="e_wo_entrp">   -912.84410061 </i>
    <i name="e_0_energy">   -912.84410062 </i>
   </energy>
  </scstep>
  <scstep>
   <time name="dav">   78.36   78.93</time>
   <time name="total">   84.20   84.84</time>
   <energy>
    <i name="e_fr_energy">   -913.62593702 </i>
    <i name="e_wo_entrp">   -913.62593700 </i>
    <i name="e_0_energy">   -913.62593701 </i>
   </energy>
  </scstep>
  <scstep>
   <time name="dav">   66.13   66.58</time>
   <time name="total">   77.31   77.88</time>
   <energy>
    <i name="e_fr_energy">   -880.35925763 </i>
    <i name="e_wo_entrp">   -880.35925762 </i>
    <i name="e_0_energy">   -880.35925763 </i>
   </energy>
  </scstep>
  <scstep>
   <time name="dav">   65.17   65.63</time>
   <time name="total">   76.32   76.88</time>
   <energy>
    <i name="e_fr_energy">   -852.10817217 </i>
    <i name="e_wo_entrp">   -852.10817214 </i>
    <i name="e_0_energy">   -852.10817216 </i>
   </energy>
  </scstep>
  <scstep>
   <time name="dav">   68.60   69.11</time>
   <time name="total">   80.01   80.62</time>
   <energy>
    <i name="e_fr_energy">   -851.78098970 </i>
    <i name="e_wo_entrp">   -851.78098965 </i>
    <i name="e_0_energy">   -851.78098968 </i>
   </energy>
  </scstep>
  <scstep>
   <time name="dav">   66.22   66.68</time>
   <time name="total">   77.21   77.77</time>
   <energy>
    <i name="e_fr_energy">   -851.85897456 </i>
    <i name="e_wo_entrp">   -851.85897452 </i>
    <i name="e_0_energy">   -851.85897454 </i>
   </energy>
  </scstep>
  <scstep>
   <time name="dav">   68.16   68.63</time>
   <time name="total">   79.19   79.78</time>
   <energy>
    <i name="e_fr_energy">   -851.72599915 </i>
    <i name="e_wo_entrp">   -851.72599912 </i>
    <i name="e_0_energy">   -851.72599914 </i>
   </energy>
  </scstep>
  <scstep>
   <time name="dav">   66.45   66.91</time>
   <time name="total">   77.46   78.02</time>
   <energy>
    <i name="e_fr_energy">   -851.71388409 </i>
    <i name="e_wo_entrp">   -851.71388406 </i>
    <i name="e_0_energy">   -851.71388407 </i>
   </energy>
  </scstep>
  <scstep>
   <time name="dav">   66.83   67.32</time>
   <time name="total">   78.03   78.62</time>
   <energy>
    <i name="e_fr_energy">   -851.71215858 </i>
    <i name="e_wo_entrp">   -851.71215855 </i>
    <i name="e_0_energy">   -851.71215857 </i>
   </energy>
  </scstep>
  <scstep>
   <time name="dav">   69.36   69.82</time>
   <time name="total">   80.23   80.82</time>
   <energy>
    <i name="e_fr_energy">   -851.71230840 </i>
    <i name="e_wo_entrp">   -851.71230836 </i>
    <i name="e_0_energy">   -851.71230838 </i>
   </energy>
  </scstep>
  <scstep>
   <time name="dav">   68.21   68.72</time>
   <time name="total">   78.75   79.34</time>
   <energy>
    <i name="e_fr_energy">   -851.71228948 </i>
    <i name="e_wo_entrp">   -851.71228945 </i>
    <i name="e_0_energy">   -851.71228947 </i>
   </energy>
  </scstep>
  <scstep>
   <time name="dav">   71.31   71.80</time>
   <time name="total">   81.58   82.16</time>
   <energy>
    <i name="e_fr_energy">   -851.71231518 </i>
    <i name="e_wo_entrp">   -851.71231514 </i>
    <i name="e_0_energy">   -851.71231516 </i>
   </energy>
  </scstep>
  <scstep>
   <time name="dav">   71.64   72.10</time>
   <time name="total">   82.03   82.59</time>
   <energy>
    <i name="e_fr_energy">   -851.71234765 </i>
    <i name="e_wo_entrp">   -851.71234761 </i>
    <i name="e_0_energy">   -851.71234763 </i>
   </energy>
  </scstep>
  <scstep>
   <time name="dav">   65.79   66.25</time>
   <time name="total">   77.42   77.97</time>
   <energy>
    <i name="e_fr_energy">   -851.71234032 </i>
    <i name="e_wo_entrp">   -851.71234028 </i>
    <i name="e_0_energy">   -851.71234030 </i>
   </energy>
  </scstep>
  <scstep>
   <time name="dav">   67.70   68.19</time>
   <time name="total">   78.97   79.56</time>
   <energy>
    <i name="e_fr_energy">   -851.71234183 </i>
    <i name="e_wo_entrp">   -851.71234180 </i>
    <i name="e_0_energy">   -851.71234181 </i>
   </energy>
  </scstep>
  <scstep>
   <time name="dav">   51.47   51.89</time>
   <time name="total">   56.43   56.90</time>
   <energy>
    <i name="alphaZ">    186.33367753 </i>
    <i name="ewald">  37795.40688600 </i>
    <i name="hartreedc"> -50489.74045582 </i>
    <i name="XCdc">   1337.61642243 </i>
    <i name="pawpsdc">  38585.86387848 </i>
    <i name="pawaedc"> -38658.84199630 </i>
    <i name="eentropy">     -0.00000003 </i>
    <i name="bandstr">  -4408.93746162 </i>
    <i name="atom">  14800.58670786 </i>
    <i name="e_fr_energy">   -851.71234147 </i>
    <i name="e_wo_entrp">   -851.71234143 </i>
    <i name="e_0_energy">   -851.71234145 </i>
   </energy>
  </scstep>
  <structure>
   <crystal>
    <varray name="basis" >
     <v>      17.27103806       0.00000000       0.00000000 </v>
     <v>      -8.63551903      14.95715771       0.00000000 </v>
     <v>       0.00000000       0.00000000      15.00000000 </v>
    </varray>
    <i name="volume">   3874.88459904 </i>
    <varray name="rec_basis" >
     <v>       0.05790040       0.03342881       0.00000000 </v>
     <v>       0.00000000       0.06685762       0.00000000 </v>
     <v>       0.00000000       0.00000000       0.06666667 </v>
    </varray>
   </crystal>
   <varray name="positions" >
    <v>       0.00063513       0.00084869       0.49905096 </v>
    <v>       0.00013015       0.14339081       0.50024288 </v>
    <v>       0.99999099       0.28624019       0.50217009 </v>
    <v>       0.00035476       0.42931121       0.50394375 </v>
    <v>       0.00102145       0.57241805       0.50375384 </v>
    <v>       0.00207441       0.71572648       0.50175288 </v>
    <v>       0.00178470       0.85877105       0.49967727 </v>
    <v>       0.14393089       0.00145951       0.49709084 </v>
    <v>       0.14334915       0.14398764       0.49300284 </v>
    <v>       0.14201059       0.28581427       0.48979031 </v>
    <v>       0.14219771       0.42903252       0.49263135 </v>
    <v>       0.14341558       0.57208839       0.49785562 </v>
    <v>       0.14404877       0.71527784       0.50099487 </v>
    <v>       0.14416363       0.85851576       0.50085091 </v>
    <v>       0.28643161       0.00105247       0.49776946 </v>
    <v>       0.28622324       0.14371162       0.48804796 </v>
    <v>       0.28530745       0.28660895       0.47158526 </v>
    <v>       0.28136026       0.42806347       0.46479332 </v>
    <v>       0.28553963       0.57101863       0.47950630 </v>
    <v>       0.28618108       0.71530912       0.49357656 </v>
    <v>       0.28639154       0.85835953       0.49957385 </v>
    <v>       0.42927043       0.00119264       0.49977520 </v>
    <v>       0.42905082       0.14367021       0.49512576 </v>
    <v>       0.42766478       0.28338251       0.48325122 </v>
    <v>       0.42720181       0.71695787       0.48790989 </v>
    <v>       0.42887138       0.85834205       0.49697671 </v>
    <v>       0.57183914       0.00152629       0.50121902 </v>
    <v>       0.57191894       0.14381860       0.50116665 </v>
    <v>       0.57273986       0.28713308       0.49714864 </v>
    <v>       0.57252574       0.85943819       0.49617627 </v>
    <v>       0.71475701       0.00095471       0.50138760 </v>
    <v>       0.71485481       0.14382787       0.50480492 </v>
    <v>       0.71484528       0.28660582       0.50312140 </v>
    <v>       0.71455851       0.42860905       0.49753994 </v>
    <v>       0.71937150       0.57393280       0.48427211 </v>
    <v>       0.72183630       0.71706706       0.48217895 </v>
    <v>       0.71377478       0.85811049       0.49363683 </v>
    <v>       0.85760135       0.00077226       0.50005458 </v>
    <v>       0.85739775       0.14353081       0.50457730 </v>
    <v>       0.85747849       0.28638889       0.50606840 </v>
    <v>       0.85794392       0.42938924       0.50368040 </v>
    <v>       0.85891853       0.57280300       0.49928293 </v>
    <v>       0.86072838       0.71626131       0.49475655 </v>
    <v>       0.85818695       0.85777239       0.49570696 </v>
    <v>       0.04817844       0.09619831       0.49808382 </v>
    <v>       0.04717112       0.23831733       0.49844432 </v>
    <v>       0.04728131       0.38139933       0.50084251 </v>
    <v>       0.04842343       0.52463030       0.50272032 </v>
    <v>       0.04896548       0.66776498       0.50279049 </v>
    <v>       0.04910098       0.81089633       0.50104807 </v>
    <v>       0.04873237       0.95367242       0.49897361 </v>
    <v>       0.19110819       0.09622626       0.49217758 </v>
    <v>       0.19021167       0.23893656       0.48610460 </v>
    <v>       0.18808625       0.38048760       0.48413457 </v>
    <v>       0.19036138       0.52419885       0.49082731 </v>
    <v>       0.19115269       0.66762368       0.49732968 </v>
    <v>       0.19150612       0.81075052       0.50071111 </v>
    <v>       0.19150159       0.95363134       0.49860085 </v>
    <v>       0.33394869       0.09639079       0.49375082 </v>
    <v>       0.33454758       0.23878306       0.47900182 </v>
    <v>       0.32397995       0.37734344       0.45177229 </v>
    <v>       0.32805469       0.52220997       0.46171859 </v>
    <v>       0.33425372       0.66828633       0.48631381 </v>
    <v>       0.33385220       0.81046515       0.49695735 </v>
    <v>       0.33389230       0.95345727       0.49939835 </v>
    <v>       0.47678081       0.09618387       0.49919974 </v>
    <v>       0.47596741       0.23864812       0.49245383 </v>
    <v>       0.47584561       0.81033087       0.49392369 </v>
    <v>       0.47671097       0.95367897       0.49980964 </v>
    <v>       0.61944494       0.09640271       0.50289609 </v>
    <v>       0.61974362       0.23907190       0.50065342 </v>
    <v>       0.62152363       0.38050677       0.49723928 </v>
    <v>       0.62078785       0.81471011       0.49341713 </v>
    <v>       0.61962074       0.95416525       0.49997044 </v>
    <v>       0.76242110       0.09626759       0.50435110 </v>
    <v>       0.76244784       0.23883975       0.50545784 </v>
    <v>       0.76272467       0.38168114       0.50159997 </v>
    <v>       0.76337446       0.52575168       0.49390329 </v>
    <v>       0.76612735       0.66777391       0.48632877 </v>
    <v>       0.76201499       0.80930796       0.49025935 </v>
    <v>       0.76242320       0.95342463       0.49860787 </v>
    <v>       0.90491830       0.09564678       0.50243414 </v>
    <v>       0.90490388       0.23868684       0.50532517 </v>
    <v>       0.90515098       0.38181006       0.50545360 </v>
    <v>       0.90592778       0.52491817       0.50307667 </v>
    <v>       0.90703858       0.66796439       0.49893951 </v>
    <v>       0.90663116       0.81105586       0.49686567 </v>
    <v>       0.90532211       0.95292425       0.49872815 </v>
    <v>       0.46369456       0.35565071       0.48063939 </v>
    <v>       0.39909494       0.55570800       0.44647568 </v>
    <v>       0.64732467       0.53969175       0.47644887 </v>
    <v>       0.58543027       0.41695963       0.49826002 </v>
    <v>       0.58383373       0.74287080       0.49059664 </v>
    <v>       0.46308457       0.68031830       0.48502937 </v>
    <v>       0.55156109       0.56897745       0.56433373 </v>
    <v>       0.46198199       0.49188082       0.59954262 </v>
    <v>       0.40869558       0.42349102       0.41850820 </v>
    <v>       0.63061943       0.66469310       0.47077528 </v>
    <v>       0.51695544       0.50424093       0.56977595 </v>
   </varray>
  </structure>
  <varray name="forces" >
   <v>       0.00309787       0.00327748      -0.00547198 </v>
   <v>       0.00224588      -0.00029330      -0.00345028 </v>
   <v>      -0.00064995      -0.00568440      -0.00218008 </v>
   <v>      -0.00195783      -0.00220835      -0.00091434 </v>
   <v>       0.00035599      -0.00099377      -0.00077944 </v>
   <v>       0.00063859       0.00097358      -0.00370630 </v>
   <v>      -0.00126423       0.00364308      -0.00600294 </v>
   <v>      -0.01183759       0.00490084      -0.00612780 </v>
   <v>      -0.00361572      -0.00224246      -0.00433067 </v>
   <v>      -0.00303339      -0.01751390      -0.00163910 </v>
   <v>      -0.00357673      -0.00316717      -0.00135872 </v>
   <v>      -0.00044956      -0.00028322      -0.00166304 </v>
   <v>      -0.00149269       0.00313610      -0.00106356 </v>
   <v>      -0.00354223       0.00172720      -0.00625687 </v>
   <v>      -0.01424370      -0.00693524      -0.00315232 </v>
   <v>      -0.00627202      -0.00063837      -0.00374965 </v>
   <v>      -0.00222047      -0.00464239      -0.00149305 </v>
   <v>       0.00461072      -0.00697575      -0.00232014 </v>
   <v>      -0.00168304       0.00178990      -0.00182068 </v>
   <v>       0.00399091      -0.01064264      -0.00373745 </v>
   <v>      -0.00162002       0.00146779      -0.00377185 </v>
   <v>       0.00152870      -0.00097275      -0.00408148 </v>
   <v>      -0.00142096      -0.00004484      -0.00277821 </v>
   <v>      -0.00179458      -0.00073093      -0.00019317 </v>
   <v>      -0.00001634       0.00000726      -0.00256213 </v>
   <v>       0.00419739       0.00190128      -0.00164352 </v>
   <v>       0.00053066      -0.00031004      -0.00220047 </v>
   <v>       0.00232059      -0.00099148      -0.00156210 </v>
   <v>       0.00035889       0.00012551       0.00105730 </v>
   <v>      -0.00651118       0.00445918      -0.00241179 </v>
   <v>      -0.00745879       0.00247786      -0.00073714 </v>
   <v>      -0.00041080      -0.00054636      -0.00123720 </v>
   <v>       0.00127768      -0.00099579      -0.00005153 </v>
   <v>       0.00038957      -0.00026827       0.00259068 </v>
   <v>      -0.00038226      -0.00038824       0.00157869 </v>
   <v>       0.00115772      -0.00119706      -0.00155816 </v>
   <v>      -0.00434321       0.00016128      -0.00115337 </v>
   <v>       0.00354516       0.00169968      -0.00254579 </v>
   <v>       0.00015714       0.00078929      -0.00083309 </v>
   <v>       0.00027026      -0.00110973      -0.00081223 </v>
   <v>       0.00020504      -0.00085782      -0.00012801 </v>
   <v>      -0.00006569      -0.00040250       0.00019972 </v>
   <v>      -0.00052025       0.00096795      -0.00077557 </v>
   <v>       0.00299128       0.00004576      -0.00138843 </v>
   <v>      -0.00104788      -0.00079382      -0.00463139 </v>
   <v>       0.00201677       0.00705597      -0.00289608 </v>
   <v>       0.00530851       0.00789810      -0.00063249 </v>
   <v>       0.00052877       0.00111726      -0.00120868 </v>
   <v>      -0.00135178       0.00050356      -0.00216852 </v>
   <v>       0.00069685      -0.00265130      -0.00654515 </v>
   <v>       0.00324492      -0.00195844      -0.00679137 </v>
   <v>       0.00627852      -0.00120865      -0.00569950 </v>
   <v>       0.00146515       0.00807754      -0.00328282 </v>
   <v>       0.00071082       0.01097067      -0.00244198 </v>
   <v>      -0.00075408       0.00056628      -0.00038187 </v>
   <v>       0.00382276       0.00328235      -0.00200638 </v>
   <v>       0.00441873      -0.00490024      -0.00317280 </v>
   <v>       0.01243401       0.00307706      -0.00646751 </v>
   <v>       0.00512969       0.00365556      -0.00410862 </v>
   <v>       0.00312202       0.00273436      -0.00250797 </v>
   <v>      -0.00086304       0.00679116      -0.00271253 </v>
   <v>       0.00053583       0.00060574      -0.00028030 </v>
   <v>      -0.00401670       0.00372377      -0.00247258 </v>
   <v>      -0.00340117       0.00437731      -0.00274970 </v>
   <v>       0.00346469      -0.00055856      -0.00346972 </v>
   <v>      -0.00104963       0.00175596      -0.00193243 </v>
   <v>       0.00062751      -0.00003855      -0.00023585 </v>
   <v>      -0.00098260       0.00035648      -0.00320513 </v>
   <v>      -0.00326936       0.00008550      -0.00296551 </v>
   <v>      -0.00188906       0.00173367      -0.00171604 </v>
   <v>      -0.00112839       0.00110306      -0.00027524 </v>
   <v>       0.00000856      -0.00019843       0.00303598 </v>
   <v>       0.00972618      -0.00483235      -0.00127545 </v>
   <v>       0.00336119      -0.00032537      -0.00253040 </v>
   <v>       0.00125978      -0.00141130      -0.00137996 </v>
   <v>      -0.00072115       0.00112547      -0.00070604 </v>
   <v>      -0.00047835       0.00084588       0.00068629 </v>
   <v>       0.00062469       0.00007243       0.00227937 </v>
   <v>      -0.00049925       0.00019860       0.00048938 </v>
   <v>      -0.00091389       0.00081342      -0.00051543 </v>
   <v>       0.00466892      -0.00408762      -0.00384285 </v>
   <v>      -0.00285470      -0.00250034      -0.00227592 </v>
   <v>       0.00008256       0.00107185      -0.00148690 </v>
   <v>       0.00091164       0.00186453      -0.00041859 </v>
   <v>       0.00034844       0.00129266      -0.00060273 </v>
   <v>       0.00105525      -0.00024221      -0.00165840 </v>
   <v>      -0.00123300      -0.00174660      -0.00276998 </v>
   <v>      -0.00924538       0.00073437      -0.00195304 </v>
   <v>       0.00003682       0.00074637       0.00145143 </v>
   <v>      -0.00062294       0.00014660      -0.00113426 </v>
   <v>       0.00084159      -0.00063283       0.00164726 </v>
   <v>       0.00003562      -0.00016055       0.00400140 </v>
   <v>      -0.00081152       0.00229453       0.00142000 </v>
   <v>      -0.00016594       0.00046988      -0.00296176 </v>
   <v>      -0.00487433      -0.00391235      -0.02829821 </v>
   <v>      -0.00055781      -0.00929107       0.02122163 </v>
   <v>       0.00170735       0.00026934      -0.00060870 </v>
   <v>       0.00076631      -0.00115633      -0.00791711 </v>
   <v>       0.01000472      -0.00132464       0.19127844 </v>
  </varray>
  <varray name="stress" >
   <v>       4.82115678       0.49276033       0.00985384 </v>
   <v>       0.49275632       2.51686137       0.02836002 </v>
   <v>       0.00985325       0.02836016      -0.22303268 </v>
  </varray>
  <energy>
   <i name="e_fr_energy">   -859.60552202 </i>
   <i name="e_wo_entrp">   -859.60552198 </i>
   <i name="e_0_energy">   -859.60552200 </i>
  </energy>
  <time name="totalsc"> 1686.46 1699.06</time>
 </calculation>
 <calculation>
  <scstep>
   <time name="dav">   62.37   62.84</time>
   <time name="total">   73.58   74.14</time>
   <energy>
    <i name="alphaZ">    186.33367753 </i>
    <i name="ewald">  37795.41528912 </i>
    <i name="hartreedc"> -50489.73616525 </i>
    <i name="XCdc">   1337.61633483 </i>
    <i name="pawpsdc">  38585.57193006 </i>
    <i name="pawaedc"> -38658.54976039 </i>
    <i name="eentropy">     -0.00000003 </i>
    <i name="bandstr">  -4408.95037641 </i>
    <i name="atom">  14800.58670786 </i>
    <i name="e_fr_energy">   -851.71236267 </i>
    <i name="e_wo_entrp">   -851.71236264 </i>
    <i name="e_0_energy">   -851.71236266 </i>
   </energy>
  </scstep>
  <scstep>
   <time name="dav">   70.38   70.90</time>
   <time name="total">   81.40   82.01</time>
   <energy>
    <i name="e_fr_energy">   -851.71236447 </i>
    <i name="e_wo_entrp">   -851.71236444 </i>
    <i name="e_0_energy">   -851.71236446 </i>
   </energy>
  </scstep>
  <scstep>
   <time name="dav">   42.89   43.18</time>
   <time name="total">   47.62   47.98</time>
   <energy>
    <i name="alphaZ">    186.33367753 </i>
    <i name="ewald">  37795.41528912 </i>
    <i name="hartreedc"> -50489.72970207 </i>
    <i name="XCdc">   1337.61624382 </i>
    <i name="pawpsdc">  38585.49075806 </i>
    <i name="pawaedc"> -38658.46865849 </i>
    <i name="eentropy">     -0.00000003 </i>
    <i name="bandstr">  -4408.95667977 </i>
    <i name="atom">  14800.58670786 </i>
    <i name="e_fr_energy">   -851.71236397 </i>
    <i name="e_wo_entrp">   -851.71236394 </i>
    <i name="e_0_energy">   -851.71236396 </i>
   </energy>
  </scstep>
  <structure>
   <crystal>
    <varray name="basis" >
     <v>      17.27103806       0.00000000       0.00000000 </v>
     <v>      -8.63551903      14.95715771       0.00000000 </v>
     <v>       0.00000000       0.00000000      15.00000000 </v>
    </varray>
    <i name="volume">   3874.88459904 </i>
    <varray name="rec_basis" >
     <v>       0.05790040       0.03342881       0.00000000 </v>
     <v>       0.00000000       0.06685762       0.00000000 </v>
     <v>       0.00000000       0.00000000       0.06666667 </v>
    </varray>
   </crystal>
   <varray name="positions" >
    <v>       0.00063811       0.00085097       0.49904813 </v>
    <v>       0.00013142       0.14339069       0.50024107 </v>
    <v>       0.99998877       0.28623646       0.50216870 </v>
    <v>       0.00035297       0.42930981       0.50394307 </v>
    <v>       0.00102143       0.57241746       0.50375340 </v>
    <v>       0.00207522       0.71572720       0.50175097 </v>
    <v>       0.00178530       0.85877358       0.49967416 </v>
    <v>       0.14392575       0.00146286       0.49708677 </v>
    <v>       0.14334633       0.14398617       0.49299986 </v>
    <v>       0.14200297       0.28580257       0.48978883 </v>
    <v>       0.14219461       0.42903044       0.49262991 </v>
    <v>       0.14341531       0.57208827       0.49785404 </v>
    <v>       0.14404905       0.71528001       0.50099380 </v>
    <v>       0.14416224       0.85851699       0.50084666 </v>
    <v>       0.28642111       0.00104791       0.49776684 </v>
    <v>       0.28621940       0.14371123       0.48804462 </v>
    <v>       0.28530437       0.28660568       0.47158274 </v>
    <v>       0.28136031       0.42805867       0.46478994 </v>
    <v>       0.28553923       0.57101983       0.47950383 </v>
    <v>       0.28617991       0.71530205       0.49357328 </v>
    <v>       0.28639117       0.85836058       0.49957076 </v>
    <v>       0.42927105       0.00119206       0.49977184 </v>
    <v>       0.42905003       0.14367026       0.49512310 </v>
    <v>       0.42766346       0.28338204       0.48324962 </v>
    <v>       0.42720186       0.71695790       0.48790740 </v>
    <v>       0.42887452       0.85834338       0.49697498 </v>
    <v>       0.57183940       0.00152616       0.50121723 </v>
    <v>       0.57192000       0.14381801       0.50116510 </v>
    <v>       0.57274014       0.28713325       0.49714887 </v>
    <v>       0.57252351       0.85944125       0.49617467 </v>
    <v>       0.71475357       0.00095646       0.50138757 </v>
    <v>       0.71485444       0.14382759       0.50480401 </v>
    <v>       0.71484572       0.28660522       0.50312135 </v>
    <v>       0.71455870       0.42860894       0.49754251 </v>
    <v>       0.71937119       0.57393265       0.48427665 </v>
    <v>       0.72183666       0.71706638       0.48218199 </v>
    <v>       0.71377238       0.85811069       0.49363768 </v>
    <v>       0.85760404       0.00077350       0.50005400 </v>
    <v>       0.85739816       0.14353142       0.50457713 </v>
    <v>       0.85747833       0.28638822       0.50606794 </v>
    <v>       0.85794383       0.42938873       0.50368068 </v>
    <v>       0.85891847       0.57280280       0.49928422 </v>
    <v>       0.86072854       0.71626207       0.49475810 </v>
    <v>       0.85818882       0.85777255       0.49570783 </v>
    <v>       0.04817764       0.09619785       0.49808120 </v>
    <v>       0.04717470       0.23832211       0.49844251 </v>
    <v>       0.04728708       0.38140467       0.50084193 </v>
    <v>       0.04842421       0.52463112       0.50271934 </v>
    <v>       0.04896498       0.66776539       0.50278908 </v>
    <v>       0.04910060       0.81089464       0.50104417 </v>
    <v>       0.04873369       0.95367120       0.49896967 </v>
    <v>       0.19111146       0.09622550       0.49217347 </v>
    <v>       0.19021516       0.23894194       0.48610183 </v>
    <v>       0.18809027       0.38049493       0.48413211 </v>
    <v>       0.19036117       0.52419926       0.49082633 </v>
    <v>       0.19115608       0.66762593       0.49732775 </v>
    <v>       0.19150713       0.81074731       0.50070861 </v>
    <v>       0.19150990       0.95363347       0.49859632 </v>
    <v>       0.33395292       0.09639331       0.49374735 </v>
    <v>       0.33455024       0.23878487       0.47899874 </v>
    <v>       0.32398099       0.37734751       0.45176810 </v>
    <v>       0.32805491       0.52221027       0.46171634 </v>
    <v>       0.33425269       0.66828884       0.48631117 </v>
    <v>       0.33385177       0.81046813       0.49695482 </v>
    <v>       0.33389418       0.95345697       0.49939546 </v>
    <v>       0.47678084       0.09618513       0.49919780 </v>
    <v>       0.47596778       0.23864819       0.49245269 </v>
    <v>       0.47584522       0.81033115       0.49392103 </v>
    <v>       0.47670916       0.95367910       0.49980710 </v>
    <v>       0.61944448       0.09640395       0.50289463 </v>
    <v>       0.61974337       0.23907271       0.50065290 </v>
    <v>       0.62152361       0.38050672       0.49724140 </v>
    <v>       0.62079194       0.81470698       0.49341702 </v>
    <v>       0.61962263       0.95416511       0.49996881 </v>
    <v>       0.76242141       0.09626673       0.50435043 </v>
    <v>       0.76244785       0.23884058       0.50545734 </v>
    <v>       0.76272474       0.38168177       0.50160086 </v>
    <v>       0.76337493       0.52575181       0.49390667 </v>
    <v>       0.76612722       0.66777415       0.48633250 </v>
    <v>       0.76201486       0.80930865       0.49026158 </v>
    <v>       0.76242460       0.95342200       0.49860644 </v>
    <v>       0.90491588       0.09564520       0.50243330 </v>
    <v>       0.90490434       0.23868763       0.50532434 </v>
    <v>       0.90515220       0.38181138       0.50545343 </v>
    <v>       0.90592852       0.52491910       0.50307673 </v>
    <v>       0.90703922       0.66796431       0.49893969 </v>
    <v>       0.90662999       0.81105481       0.49686550 </v>
    <v>       0.90531711       0.95292486       0.49872809 </v>
    <v>       0.46369483       0.35565121       0.48063869 </v>
    <v>       0.39909413       0.55570819       0.44647195 </v>
    <v>       0.64732491       0.53969147       0.47645444 </v>
    <v>       0.58543025       0.41695958       0.49826263 </v>
    <v>       0.58383409       0.74287245       0.49059827 </v>
    <v>       0.46308469       0.68031863       0.48502678 </v>
    <v>       0.55155484       0.56897126       0.56431459 </v>
    <v>       0.46198036       0.49187580       0.59953568 </v>
    <v>       0.40869545       0.42349030       0.41850387 </v>
    <v>       0.63061950       0.66469249       0.47077601 </v>
    <v>       0.51695904       0.50423769       0.56977595 </v>
   </varray>
  </structure>
  <varray name="forces" >
   <v>      -0.00055520      -0.00024505      -0.00548264 </v>
   <v>      -0.00075587       0.00028597      -0.00341359 </v>
   <v>       0.00012067       0.00070841      -0.00223590 </v>
   <v>       0.00028438       0.00035028      -0.00094435 </v>
   <v>       0.00037674      -0.00004752      -0.00088829 </v>
   <v>       0.00045088      -0.00044345      -0.00380688 </v>
   <v>      -0.00021184      -0.00030620      -0.00615725 </v>
   <v>      -0.00185801       0.00148403      -0.00649455 </v>
   <v>      -0.00010275       0.00036365      -0.00482721 </v>
   <v>       0.00069389       0.00364645      -0.00189541 </v>
   <v>       0.00009395       0.00115662      -0.00172805 </v>
   <v>       0.00011671       0.00049443      -0.00170486 </v>
   <v>       0.00055235       0.00080868      -0.00135520 </v>
   <v>       0.00096625      -0.00027352      -0.00645672 </v>
   <v>       0.00275035      -0.00041731      -0.00434690 </v>
   <v>       0.00069943       0.00050810      -0.00403414 </v>
   <v>      -0.00025047       0.00146184      -0.00297087 </v>
   <v>       0.00153493       0.00111766      -0.00154479 </v>
   <v>      -0.00068364       0.00070539      -0.00201657 </v>
   <v>      -0.00019634       0.00155462      -0.00300801 </v>
   <v>       0.00038637       0.00075706      -0.00390095 </v>
   <v>      -0.00040457       0.00026252      -0.00411070 </v>
   <v>       0.00023023       0.00023270      -0.00279847 </v>
   <v>       0.00049132       0.00065420      -0.00024352 </v>
   <v>      -0.00049349       0.00032971      -0.00275716 </v>
   <v>      -0.00038726       0.00094955      -0.00193692 </v>
   <v>      -0.00048168       0.00015535      -0.00233141 </v>
   <v>      -0.00037659       0.00017644      -0.00165342 </v>
   <v>      -0.00024591      -0.00029770       0.00106187 </v>
   <v>       0.00024436      -0.00019870      -0.00274007 </v>
   <v>      -0.00039913      -0.00015591      -0.00114045 </v>
   <v>      -0.00020159       0.00000998      -0.00126975 </v>
   <v>      -0.00001880      -0.00004949      -0.00007229 </v>
   <v>       0.00014000       0.00009214       0.00272354 </v>
   <v>       0.00002587      -0.00062749       0.00196083 </v>
   <v>      -0.00005222      -0.00001602      -0.00143907 </v>
   <v>       0.00041794      -0.00066497      -0.00132436 </v>
   <v>      -0.00043059      -0.00049586      -0.00263065 </v>
   <v>      -0.00008157      -0.00039710      -0.00097598 </v>
   <v>      -0.00004414       0.00023868      -0.00081357 </v>
   <v>       0.00006782       0.00015948      -0.00009000 </v>
   <v>       0.00025474      -0.00000816       0.00031226 </v>
   <v>       0.00018739      -0.00023473      -0.00065867 </v>
   <v>      -0.00025085      -0.00013776      -0.00134928 </v>
   <v>      -0.00003139      -0.00028355      -0.00485782 </v>
   <v>      -0.00011799      -0.00088550      -0.00265117 </v>
   <v>       0.00081017       0.00063213      -0.00044225 </v>
   <v>      -0.00030135      -0.00021725      -0.00117435 </v>
   <v>      -0.00009010       0.00079777      -0.00068164 </v>
   <v>      -0.00060993       0.00034672      -0.00670790 </v>
   <v>      -0.00016861       0.00042264      -0.00695745 </v>
   <v>      -0.00112538      -0.00040394      -0.00574926 </v>
   <v>       0.00014445      -0.00051057      -0.00270824 </v>
   <v>      -0.00015142      -0.00107994      -0.00181180 </v>
   <v>      -0.00139372       0.00027682      -0.00059190 </v>
   <v>      -0.00136139       0.00047694      -0.00166067 </v>
   <v>      -0.00021807      -0.00144446      -0.00337097 </v>
   <v>      -0.00077029       0.00099624      -0.00655782 </v>
   <v>      -0.00107786       0.00042468      -0.00425899 </v>
   <v>      -0.00092416       0.00013693      -0.00255081 </v>
   <v>       0.00192118       0.00015202      -0.00222593 </v>
   <v>      -0.00001576       0.00002607      -0.00050378 </v>
   <v>       0.00036722      -0.00158548      -0.00229075 </v>
   <v>      -0.00016368       0.00053043      -0.00308454 </v>
   <v>      -0.00069182      -0.00025432      -0.00372390 </v>
   <v>       0.00030606       0.00057221      -0.00217223 </v>
   <v>       0.00005743       0.00023575      -0.00041585 </v>
   <v>       0.00014853       0.00062308      -0.00322899 </v>
   <v>       0.00027499       0.00024306      -0.00306044 </v>
   <v>      -0.00006362      -0.00019469      -0.00179308 </v>
   <v>       0.00026119       0.00008982      -0.00022583 </v>
   <v>      -0.00009515       0.00002423       0.00316334 </v>
   <v>      -0.00120218       0.00050096      -0.00075473 </v>
   <v>      -0.00060679       0.00038258      -0.00246891 </v>
   <v>      -0.00040322      -0.00010466      -0.00127033 </v>
   <v>       0.00014589      -0.00023011      -0.00071887 </v>
   <v>       0.00029067      -0.00024670       0.00082622 </v>
   <v>       0.00019550      -0.00036547       0.00244173 </v>
   <v>      -0.00015155      -0.00032191       0.00069920 </v>
   <v>       0.00003669      -0.00050579      -0.00050312 </v>
   <v>      -0.00112623       0.00072505      -0.00179006 </v>
   <v>      -0.00008403       0.00053262      -0.00232872 </v>
   <v>       0.00015364      -0.00031479      -0.00149299 </v>
   <v>       0.00022063      -0.00045121      -0.00043183 </v>
   <v>       0.00031368      -0.00002078      -0.00050689 </v>
   <v>       0.00022461       0.00006648      -0.00163088 </v>
   <v>       0.00019120       0.00017170      -0.00271042 </v>
   <v>       0.00052763       0.00047015      -0.00208122 </v>
   <v>      -0.00000126       0.00027524       0.00147407 </v>
   <v>      -0.00025889       0.00032053      -0.00118363 </v>
   <v>       0.00050847      -0.00099193       0.00167305 </v>
   <v>      -0.00007801      -0.00024491       0.00405053 </v>
   <v>      -0.00028916      -0.00024871       0.00134256 </v>
   <v>      -0.00012440       0.00012460      -0.00298499 </v>
   <v>      -0.00489781      -0.00249823      -0.02818781 </v>
   <v>       0.00003212      -0.00915958       0.02098207 </v>
   <v>      -0.00217829       0.00277304      -0.00065046 </v>
   <v>       0.00114005      -0.00122559      -0.00770747 </v>
   <v>       0.00989746      -0.00320749       0.19169931 </v>
  </varray>
  <varray name="stress" >
   <v>       4.82715131       0.49453357       0.01087406 </v>
   <v>       0.49452956       2.51661305       0.02821562 </v>
   <v>       0.01087345       0.02821575      -0.21974041 </v>
  </varray>
  <energy>
   <i name="e_fr_energy">   -859.60554874 </i>
   <i name="e_wo_entrp">   -859.60554871 </i>
   <i name="e_0_energy">   -859.60554872 </i>
  </energy>
  <time name="totalsc">  459.61  462.72</time>
 </calculation>
 <calculation>
  <scstep>
   <time name="dav">   62.42   62.88</time>
[...]
       <r>   -17.7482     4.6383    31.1009 </r>
       <r>   -17.6289     3.6278    31.5337 </r>
       <r>   -17.5096     8.2171    32.5142 </r>
       <r>   -17.3903    16.3217    34.4617 </r>
       <r>   -17.2710     9.5406    35.6001 </r>
       <r>   -17.1517    12.1676    37.0519 </r>
       <r>   -17.0323     2.7568    37.3808 </r>
       <r>   -16.9130     7.7438    38.3048 </r>
       <r>   -16.7937     9.9052    39.4867 </r>
       <r>   -16.6744     4.6133    40.0372 </r>
       <r>   -16.5551     7.2114    40.8976 </r>
       <r>   -16.4357     2.8330    41.2356 </r>
       <r>   -16.3164    16.9086    43.2532 </r>
       <r>   -16.1971    10.5285    44.5094 </r>
       <r>   -16.0778     3.8108    44.9641 </r>
       <r>   -15.9585     3.1870    45.3444 </r>
       <r>   -15.8391     3.3863    45.7484 </r>
       <r>   -15.7198     1.0488    45.8736 </r>
       <r>   -15.6005     3.1002    46.2435 </r>
       <r>   -15.4812     2.6764    46.5628 </r>
       <r>   -15.3619     7.5993    47.4696 </r>
       <r>   -15.2425    10.7689    48.7545 </r>
       <r>   -15.1232     5.4507    49.4049 </r>
       <r>   -15.0039     7.1943    50.2633 </r>
       <r>   -14.8846    15.0001    52.0531 </r>
       <r>   -14.7653     7.8729    52.9925 </r>
       <r>   -14.6460     2.8388    53.3312 </r>
       <r>   -14.5266    11.0189    54.6460 </r>
       <r>   -14.4073    11.4221    56.0088 </r>
       <r>   -14.2880     8.3400    57.0040 </r>
       <r>   -14.1687    10.3150    58.2347 </r>
       <r>   -14.0494    11.6973    59.6305 </r>
       <r>   -13.9300     3.5799    60.0576 </r>
       <r>   -13.8107     6.0494    60.7794 </r>
       <r>   -13.6914     5.4128    61.4253 </r>
       <r>   -13.5721     6.4346    62.1930 </r>
       <r>   -13.4528    10.6446    63.4631 </r>
       <r>   -13.3334     7.1531    64.3166 </r>
       <r>   -13.2141     7.1612    65.1711 </r>
       <r>   -13.0948     6.6459    65.9641 </r>
       <r>   -12.9755     4.4199    66.4915 </r>
       <r>   -12.8562     4.9717    67.0847 </r>
       <r>   -12.7368    10.1773    68.2990 </r>
       <r>   -12.6175     5.7412    68.9841 </r>
       <r>   -12.4982    14.3374    70.6948 </r>
       <r>   -12.3789    10.8234    71.9862 </r>
       <r>   -12.2596    11.9338    73.4102 </r>
       <r>   -12.1403     6.7208    74.2121 </r>
       <r>   -12.0209     7.5024    75.1073 </r>
       <r>   -11.9016     4.3509    75.6264 </r>
       <r>   -11.7823     9.8208    76.7982 </r>
       <r>   -11.6630     8.7679    77.8444 </r>
       <r>   -11.5437    11.0514    79.1630 </r>
       <r>   -11.4243    14.4030    80.8816 </r>
       <r>   -11.3050    10.0083    82.0758 </r>
       <r>   -11.1857    11.7015    83.4720 </r>
       <r>   -11.0664    11.1899    84.8072 </r>
       <r>   -10.9471     9.4240    85.9316 </r>
       <r>   -10.8277    15.9562    87.8355 </r>
       <r>   -10.7084     9.0092    88.9105 </r>
       <r>   -10.5891     3.7141    89.3536 </r>
       <r>   -10.4698     4.6477    89.9082 </r>
       <r>   -10.3505     9.0557    90.9887 </r>
       <r>   -10.2311    10.7007    92.2655 </r>
       <r>   -10.1118    20.6719    94.7320 </r>
       <r>    -9.9925    17.4783    96.8175 </r>
       <r>    -9.8732    18.1196    98.9795 </r>
       <r>    -9.7539    18.3309   101.1668 </r>
       <r>    -9.6346    17.7857   103.2889 </r>
       <r>    -9.5152    10.8648   104.5853 </r>
       <r>    -9.3959    16.5958   106.5655 </r>
       <r>    -9.2766    18.3211   108.7516 </r>
       <r>    -9.1573    16.6394   110.7370 </r>
       <r>    -9.0380    22.6184   113.4358 </r>
       <r>    -8.9186    22.5301   116.1241 </r>
       <r>    -8.7993    28.9354   119.5766 </r>
       <r>    -8.6800    25.2325   122.5873 </r>
       <r>    -8.5607    19.2203   124.8807 </r>
       <r>    -8.4414    17.9695   127.0248 </r>
       <r>    -8.3220    18.6578   129.2510 </r>
       <r>    -8.2027    17.9330   131.3908 </r>
       <r>    -8.0834    20.1341   133.7931 </r>
       <r>    -7.9641    24.0566   136.6636 </r>
       <r>    -7.8448    17.7516   138.7817 </r>
       <r>    -7.7254    16.4398   140.7432 </r>
       <r>    -7.6061    17.2460   142.8010 </r>
       <r>    -7.4868    15.5792   144.6599 </r>
       <r>    -7.3675     9.0091   145.7349 </r>
       <r>    -7.2482    13.4879   147.3442 </r>
       <r>    -7.1289    25.3008   150.3631 </r>
       <r>    -7.0095    18.5153   152.5723 </r>
       <r>    -6.8902    14.5281   154.3058 </r>
       <r>    -6.7709    13.2509   155.8869 </r>
       <r>    -6.6516     9.4903   157.0193 </r>
       <r>    -6.5323    13.0788   158.5798 </r>
       <r>    -6.4129    10.7471   159.8621 </r>
       <r>    -6.2936    12.4845   161.3518 </r>
       <r>    -6.1743    14.1058   163.0349 </r>
       <r>    -6.0550    20.0270   165.4245 </r>
       <r>    -5.9357    10.6809   166.6989 </r>
       <r>    -5.8163    14.9172   168.4788 </r>
       <r>    -5.6970    13.9005   170.1374 </r>
       <r>    -5.5777    19.0432   172.4096 </r>
       <r>    -5.4584    10.6600   173.6816 </r>
       <r>    -5.3391     6.0447   174.4028 </r>
       <r>    -5.2197     3.3985   174.8083 </r>
       <r>    -5.1004     2.0852   175.0571 </r>
       <r>    -4.9811    16.8132   177.0633 </r>
       <r>    -4.8618    20.4815   179.5071 </r>
       <r>    -4.7425    14.5191   181.2395 </r>
       <r>    -4.6232     4.1851   181.7389 </r>
       <r>    -4.5038     8.8917   182.7998 </r>
       <r>    -4.3845     3.7715   183.2498 </r>
       <r>    -4.2652     2.3281   183.5276 </r>
       <r>    -4.1459     8.0984   184.4939 </r>
       <r>    -4.0266     6.3742   185.2545 </r>
       <r>    -3.9072     7.8922   186.1962 </r>
       <r>    -3.7879     7.0696   187.0397 </r>
       <r>    -3.6686     6.7958   187.8506 </r>
       <r>    -3.5493     1.2521   188.0000 </r>
       <r>    -3.4300     0.0019   188.0002 </r>
       <r>    -3.3106     1.3250   188.1583 </r>
       <r>    -3.1913     5.7975   188.8501 </r>
       <r>    -3.0720     3.3182   189.2460 </r>
       <r>    -2.9527     1.3839   189.4111 </r>
       <r>    -2.8334     0.7448   189.5000 </r>
       <r>    -2.7140     0.0011   189.5001 </r>
       <r>    -2.5947     1.6029   189.6914 </r>
       <r>    -2.4754     2.5786   189.9990 </r>
       <r>    -2.3561     0.0080   190.0000 </r>
       <r>    -2.2368     0.5271   190.0629 </r>
       <r>    -2.1175     3.4963   190.4801 </r>
       <r>    -1.9981     0.1669   190.5000 </r>
       <r>    -1.8788     0.0011   190.5001 </r>
       <r>    -1.7595     1.1772   190.6406 </r>
       <r>    -1.6402     2.8477   190.9804 </r>
       <r>    -1.5209     6.0746   191.7052 </r>
       <r>    -1.4015     2.4696   191.9999 </r>
       <r>    -1.2822     0.0922   192.0109 </r>
       <r>    -1.1629     3.8240   192.4671 </r>
       <r>    -1.0436     7.3211   193.3407 </r>
       <r>    -0.9243     3.4015   193.7465 </r>
       <r>    -0.8049    11.8604   195.1617 </r>
       <r>    -0.6856    13.8815   196.8180 </r>
       <r>    -0.5663     4.1527   197.3135 </r>
       <r>    -0.4470    12.4242   198.7960 </r>
       <r>    -0.3277     8.0787   199.7599 </r>
       <r>    -0.2083     4.8076   200.3335 </r>
       <r>    -0.0890     6.4250   201.1002 </r>
       <r>     0.0303     9.2401   202.2027 </r>
       <r>     0.1496     9.1719   203.2971 </r>
       <r>     0.2689    12.7841   204.8225 </r>
       <r>     0.3883     7.5873   205.7278 </r>
       <r>     0.5076     2.2504   205.9963 </r>
       <r>     0.6269     3.5576   206.4208 </r>
       <r>     0.7462    12.7198   207.9385 </r>
       <r>     0.8655     9.7064   209.0966 </r>
       <r>     0.9848     5.8755   209.7977 </r>
       <r>     1.1042     9.9588   210.9860 </r>
       <r>     1.2235     6.5808   211.7712 </r>
       <r>     1.3428     9.3395   212.8856 </r>
       <r>     1.4621     9.2454   213.9887 </r>
       <r>     1.5814    17.9694   216.1328 </r>
       <r>     1.7008    14.8767   217.9079 </r>
       <r>     1.8201    15.6858   219.7795 </r>
       <r>     1.9394     9.1131   220.8669 </r>
       <r>     2.0587    16.9807   222.8930 </r>
       <r>     2.1780    17.5973   224.9927 </r>
       <r>     2.2974    18.5701   227.2085 </r>
       <r>     2.4167    21.9153   229.8234 </r>
       <r>     2.5360    20.3609   232.2528 </r>
       <r>     2.6553     5.7792   232.9424 </r>
       <r>     2.7746    17.0233   234.9736 </r>
       <r>     2.8940    26.9619   238.1907 </r>
       <r>     3.0133    15.0904   239.9912 </r>
       <r>     3.1326     0.0734   240.0000 </r>
       <r>     3.2519     0.0000   240.0000 </r>
       <r>     3.3712     0.0000   240.0000 </r>
       <r>     3.4905     0.0000   240.0000 </r>
       <r>     3.6099     0.0000   240.0000 </r>
       <r>     3.7292     0.0000   240.0000 </r>
       <r>     3.8485     0.0000   240.0000 </r>
       <r>     3.9678     0.0000   240.0000 </r>
       <r>     4.0871     0.0000   240.0000 </r>
       <r>     4.2065     0.0000   240.0000 </r>
       <r>     4.3258     0.0000   240.0000 </r>
       <r>     4.4451     0.0000   240.0000 </r>
       <r>     4.5644     0.0000   240.0000 </r>
      </set>
     </set>
    </array>
   </total>
  </dos>
 </calculation>
 <structure name="finalpos" >
  <crystal>
   <varray name="basis" >
    <v>      17.27103806       0.00000000       0.00000000 </v>
    <v>      -8.63551903      14.95715771       0.00000000 </v>
    <v>       0.00000000       0.00000000      15.00000000 </v>
   </varray>
   <i name="volume">   3874.88459904 </i>
   <varray name="rec_basis" >
    <v>       0.05790040       0.03342881       0.00000000 </v>
    <v>       0.00000000       0.06685762       0.00000000 </v>
    <v>       0.00000000       0.00000000       0.06666667 </v>
   </varray>
  </crystal>
  <varray name="positions" >
   <v>       0.00060292       0.00088721       0.49807510 </v>
   <v>       0.00018507       0.14349209       0.49933127 </v>
   <v>       1.00006795       0.28634776       0.50110297 </v>
   <v>       0.00045155       0.42942970       0.50297231 </v>
   <v>       0.00112493       0.57254571       0.50302526 </v>
   <v>       0.00211727       0.71582913       0.50089979 </v>
   <v>       0.00177909       0.85884448       0.49866379 </v>
   <v>       0.14392218       0.00154397       0.49545918 </v>
   <v>       0.14333356       0.14404978       0.49135467 </v>
   <v>       0.14202928       0.28588560       0.48793471 </v>
   <v>       0.14225449       0.42912938       0.49079679 </v>
   <v>       0.14347543       0.57219798       0.49630156 </v>
   <v>       0.14410273       0.71541174       0.49951034 </v>
   <v>       0.14418680       0.85862867       0.49925694 </v>
   <v>       0.28642551       0.00118180       0.49613734 </v>
   <v>       0.28623808       0.14382941       0.48629026 </v>
   <v>       0.28532065       0.28669748       0.46947482 </v>
   <v>       0.28135854       0.42812988       0.46242312 </v>
   <v>       0.28555351       0.57115676       0.47739835 </v>
   <v>       0.28620379       0.71542801       0.49190595 </v>
   <v>       0.28641690       0.85851116       0.49797366 </v>
   <v>       0.42927692       0.00129067       0.49851696 </v>
   <v>       0.42907392       0.14377404       0.49402234 </v>
   <v>       0.42772097       0.28352406       0.48214903 </v>
   <v>       0.42719156       0.71708982       0.48619969 </v>
   <v>       0.42886747       0.85845530       0.49572862 </v>
   <v>       0.57185823       0.00158543       0.50034430 </v>
   <v>       0.57194598       0.14386631       0.50050627 </v>
   <v>       0.57275528       0.28719212       0.49706496 </v>
   <v>       0.57249334       0.85949963       0.49555709 </v>
   <v>       0.71477647       0.00101499       0.50097388 </v>
   <v>       0.71489565       0.14388415       0.50433610 </v>
   <v>       0.71488867       0.28666129       0.50305302 </v>
   <v>       0.71460395       0.42865907       0.49817666 </v>
   <v>       0.71941158       0.57393690       0.48503916 </v>
   <v>       0.72174138       0.71700737       0.48249225 </v>
   <v>       0.71374582       0.85815105       0.49358469 </v>
   <v>       0.85762371       0.00085446       0.49967063 </v>
   <v>       0.85746265       0.14362396       0.50412190 </v>
   <v>       0.85754477       0.28646462       0.50564543 </v>
   <v>       0.85802868       0.42947404       0.50362858 </v>
   <v>       0.85899120       0.57287186       0.49950738 </v>
   <v>       0.86071707       0.71631331       0.49470977 </v>
   <v>       0.85812878       0.85779357       0.49542562 </v>
   <v>       0.04817844       0.09625556       0.49690552 </v>
   <v>       0.04724278       0.23842640       0.49715768 </v>
   <v>       0.04737567       0.38151876       0.49950068 </v>
   <v>       0.04850992       0.52475511       0.50163365 </v>
   <v>       0.04903496       0.66789432       0.50172309 </v>
   <v>       0.04912786       0.81099722       0.49981925 </v>
   <v>       0.04871901       0.95373840       0.49767618 </v>
   <v>       0.19111417       0.09631260       0.49044564 </v>
   <v>       0.19022013       0.23901178       0.48415476 </v>
   <v>       0.18810793       0.38057276       0.48196924 </v>
   <v>       0.19040839       0.52431845       0.48891940 </v>
   <v>       0.19119158       0.66773907       0.49576862 </v>
   <v>       0.19154482       0.81087625       0.49909054 </v>
   <v>       0.19151587       0.95374545       0.49691863 </v>
   <v>       0.33397113       0.09652803       0.49219209 </v>
   <v>       0.33460644       0.23891795       0.47726635 </v>
   <v>       0.32399663       0.37741278       0.44951932 </v>
   <v>       0.32801493       0.52231627       0.45944880 </v>
   <v>       0.33426071       0.66841471       0.48439249 </v>
   <v>       0.33385552       0.81060383       0.49544398 </v>
   <v>       0.33390975       0.95359950       0.49790555 </v>
   <v>       0.47680810       0.09627803       0.49819913 </v>
   <v>       0.47598503       0.23876199       0.49174352 </v>
   <v>       0.47580966       0.81041710       0.49280283 </v>
   <v>       0.47672143       0.95377681       0.49867521 </v>
   <v>       0.61947302       0.09644829       0.50224406 </v>
   <v>       0.61977501       0.23912555       0.50039347 </v>
   <v>       0.62154470       0.38055635       0.49781689 </v>
   <v>       0.62076423       0.81476138       0.49336561 </v>
   <v>       0.61962705       0.95421889       0.49928812 </v>
   <v>       0.76246925       0.09633641       0.50393935 </v>
   <v>       0.76250513       0.23890312       0.50514491 </v>
   <v>       0.76278897       0.38174371       0.50183675 </v>
   <v>       0.76344231       0.52580107       0.49459889 </v>
   <v>       0.76607435       0.66777420       0.48673058 </v>
   <v>       0.76191919       0.80927939       0.49031936 </v>
   <v>       0.76243745       0.95348151       0.49833272 </v>
   <v>       0.90497074       0.09574552       0.50188422 </v>
   <v>       0.90497812       0.23877775       0.50473811 </v>
   <v>       0.90524372       0.38189595       0.50498160 </v>
   <v>       0.90603017       0.52501659       0.50295770 </v>
   <v>       0.90706635       0.66803488       0.49875442 </v>
   <v>       0.90660777       0.81111849       0.49642119 </v>
   <v>       0.90529086       0.95296611       0.49821497 </v>
   <v>       0.46377227       0.35581311       0.47977283 </v>
   <v>       0.39902624       0.55591638       0.44404828 </v>
   <v>       0.64736172       0.53949773       0.47752939 </v>
   <v>       0.58542487       0.41697542       0.49938879 </v>
   <v>       0.58380101       0.74291398       0.49104415 </v>
   <v>       0.46312512       0.68050982       0.48309280 </v>
   <v>       0.54812810       0.56565861       0.55577006 </v>
   <v>       0.46227933       0.48937583       0.59829460 </v>
   <v>       0.40890175       0.42367300       0.41658167 </v>
   <v>       0.63042883       0.66456343       0.47087924 </v>
   <v>       0.51793481       0.50217998       0.56977595 </v>
  </varray>
  <varray name="selective"  type="logical" >
   <v type="logical" >  T  T  T </v>
   <v type="logical" >  T  T  T </v>
   <v type="logical" >  T  T  T </v>
   <v type="logical" >  T  T  T </v>
   <v type="logical" >  T  T  T </v>
   <v type="logical" >  T  T  T </v>
   <v type="logical" >  T  T  T </v>
   <v type="logical" >  T  T  T </v>
   <v type="logical" >  T  T  T </v>
   <v type="logical" >  T  T  T </v>
   <v type="logical" >  T  T  T </v>
   <v type="logical" >  T  T  T </v>
   <v type="logical" >  T  T  T </v>
   <v type="logical" >  T  T  T </v>
   <v type="logical" >  T  T  T </v>
   <v type="logical" >  T  T  T </v>
   <v type="logical" >  T  T  T </v>
   <v type="logical" >  T  T  T </v>
   <v type="logical" >  T  T  T </v>
   <v type="logical" >  T  T  T </v>
   <v type="logical" >  T  T  T </v>
   <v type="logical" >  T  T  T </v>
   <v type="logical" >  T  T  T </v>
   <v type="logical" >  T  T  T </v>
   <v type="logical" >  T  T  T </v>
   <v type="logical" >  T  T  T </v>
   <v type="logical" >  T  T  T </v>
   <v type="logical" >  T  T  T </v>
   <v type="logical" >  T  T  T </v>
   <v type="logical" >  T  T  T </v>
   <v type="logical" >  T  T  T </v>
   <v type="logical" >  T  T  T </v>
   <v type="logical" >  T  T  T </v>
   <v type="logical" >  T  T  T </v>
   <v type="logical" >  T  T  T </v>
   <v type="logical" >  T  T  T </v>
   <v type="logical" >  T  T  T </v>
   <v type="logical" >  T  T  T </v>
   <v type="logical" >  T  T  T </v>
   <v type="logical" >  T  T  T </v>
   <v type="logical" >  T  T  T </v>
   <v type="logical" >  T  T  T </v>
   <v type="logical" >  T  T  T </v>
   <v type="logical" >  T  T  T </v>
   <v type="logical" >  T  T  T </v>
   <v type="logical" >  T  T  T </v>
   <v type="logical" >  T  T  T </v>
   <v type="logical" >  T  T  T </v>
   <v type="logical" >  T  T  T </v>
   <v type="logical" >  T  T  T </v>
   <v type="logical" >  T  T  T </v>
   <v type="logical" >  T  T  T </v>
   <v type="logical" >  T  T  T </v>
   <v type="logical" >  T  T  T </v>
   <v type="logical" >  T  T  T </v>
   <v type="logical" >  T  T  T </v>
   <v type="logical" >  T  T  T </v>
   <v type="logical" >  T  T  T </v>
   <v type="logical" >  T  T  T </v>
   <v type="logical" >  T  T  T </v>
   <v type="logical" >  T  T  T </v>
   <v type="logical" >  T  T  T </v>
   <v type="logical" >  T  T  T </v>
   <v type="logical" >  T  T  T </v>
   <v type="logical" >  T  T  T </v>
   <v type="logical" >  T  T  T </v>
   <v type="logical" >  T  T  T </v>
   <v type="logical" >  T  T  T </v>
   <v type="logical" >  T  T  T </v>
   <v type="logical" >  T  T  T </v>
   <v type="logical" >  T  T  T </v>
   <v type="logical" >  T  T  T </v>
   <v type="logical" >  T  T  T </v>
   <v type="logical" >  T  T  T </v>
   <v type="logical" >  T  T  T </v>
   <v type="logical" >  T  T  T </v>
   <v type="logical" >  T  T  T </v>
   <v type="logical" >  T  T  T </v>
   <v type="logical" >  T  T  T </v>
   <v type="logical" >  T  T  T </v>
   <v type="logical" >  T  T  T </v>
   <v type="logical" >  T  T  T </v>
   <v type="logical" >  T  T  T </v>
   <v type="logical" >  T  T  T </v>
   <v type="logical" >  T  T  T </v>
   <v type="logical" >  T  T  T </v>
   <v type="logical" >  T  T  T </v>
   <v type="logical" >  T  T  T </v>
   <v type="logical" >  T  T  T </v>
   <v type="logical" >  T  T  T </v>
   <v type="logical" >  T  T  T </v>
   <v type="logical" >  T  T  T </v>
   <v type="logical" >  T  T  T </v>
   <v type="logical" >  T  T  T </v>
   <v type="logical" >  T  T  T </v>
   <v type="logical" >  T  T  T </v>
   <v type="logical" >  T  T  T </v>
   <v type="logical" >  T  T  T </v>
   <v type="logical" >  T  T  F </v>
  </varray>
  <nose>
   <v>      -3.00000000       0.00000000       0.00010000       0.00010000 </v>
  </nose>
 </structure>
</modeling>
