unknown system                          
           1
    17.271038    0.000000    0.000000
    -8.635519   14.957158    0.000000
     0.000000    0.000000   15.000000
   C    H    F    O 
    88     8     2     1
Direct configuration=     1
   0.00063811  0.00085097  0.49904813
   0.00013142  0.14339069  0.50024107
   0.99998877  0.28623646  0.50216870
   0.00035297  0.42930981  0.50394307
   0.00102143  0.57241746  0.50375340
   0.00207522  0.71572720  0.50175097
   0.00178530  0.85877358  0.49967416
   0.14392575  0.00146286  0.49708677
   0.14334633  0.14398617  0.49299986
   0.14200297  0.28580257  0.48978883
   0.14219461  0.42903044  0.49262991
   0.14341531  0.57208827  0.49785404
   0.14404905  0.71528001  0.50099380
   0.14416224  0.85851699  0.50084666
   0.28642111  0.00104791  0.49776684
   0.28621940  0.14371123  0.48804462
   0.28530437  0.28660568  0.47158274
   0.28136031  0.42805867  0.46478994
   0.28553923  0.57101983  0.47950383
   0.28617991  0.71530205  0.49357328
   0.28639117  0.85836058  0.49957076
   0.42927105  0.00119206  0.49977184
   0.42905003  0.14367026  0.49512310
   0.42766346  0.28338204  0.48324962
   0.42720186  0.71695790  0.48790740
   0.42887452  0.85834338  0.49697498
   0.57183940  0.00152616  0.50121723
   0.57192000  0.14381801  0.50116510
   0.57274014  0.28713325  0.49714887
   0.57252351  0.85944125  0.49617467
   0.71475357  0.00095646  0.50138757
   0.71485444  0.14382759  0.50480401
   0.71484572  0.28660522  0.50312135
   0.71455870  0.42860894  0.49754251
   0.71937119  0.57393265  0.48427665
   0.72183666  0.71706638  0.48218199
   0.71377238  0.85811069  0.49363768
   0.85760404  0.00077350  0.50005400
   0.85739816  0.14353142  0.50457713
   0.85747833  0.28638822  0.50606794
   0.85794383  0.42938873  0.50368068
   0.85891847  0.57280280  0.49928422
   0.86072854  0.71626207  0.49475810
   0.85818882  0.85777255  0.49570783
   0.04817764  0.09619785  0.49808120
   0.04717470  0.23832211  0.49844251
   0.04728708  0.38140467  0.50084193
   0.04842421  0.52463112  0.50271934
   0.04896498  0.66776539  0.50278908
   0.04910060  0.81089464  0.50104417
   0.04873369  0.95367120  0.49896967
   0.19111146  0.09622550  0.49217347
   0.19021516  0.23894194  0.48610183
   0.18809027  0.38049493  0.48413211
   0.19036117  0.52419926  0.49082633
   0.19115608  0.66762593  0.49732775
   0.19150713  0.81074731  0.50070861
   0.19150990  0.95363347  0.49859632
   0.33395292  0.09639331  0.49374735
   0.33455024  0.23878487  0.47899874
   0.32398099  0.37734751  0.45176810
   0.32805491  0.52221027  0.46171634
   0.33425269  0.66828884  0.48631117
   0.33385177  0.81046813  0.49695482
   0.33389418  0.95345697  0.49939546
   0.47678084  0.09618513  0.49919780
   0.47596778  0.23864819  0.49245269
   0.47584522  0.81033115  0.49392103
   0.47670916  0.95367910  0.49980710
   0.61944448  0.09640395  0.50289463
   0.61974337  0.23907271  0.50065290
   0.62152361  0.38050672  0.49724140
   0.62079194  0.81470698  0.49341702
   0.61962263  0.95416511  0.49996881
   0.76242141  0.09626673  0.50435043
   0.76244785  0.23884058  0.50545734
   0.76272474  0.38168177  0.50160086
   0.76337493  0.52575181  0.49390667
   0.76612722  0.66777415  0.48633250
   0.76201486  0.80930865  0.49026158
   0.76242460  0.95342200  0.49860644
   0.90491588  0.09564520  0.50243330
   0.90490434  0.23868763  0.50532434
   0.90515220  0.38181138  0.50545343
   0.90592852  0.52491910  0.50307673
   0.90703922  0.66796431  0.49893969
   0.90662999  0.81105481  0.49686550
   0.90531711  0.95292486  0.49872809
   0.46369483  0.35565121  0.48063869
   0.39909413  0.55570819  0.44647195
   0.64732491  0.53969147  0.47645444
   0.58543025  0.41695958  0.49826263
   0.58383409  0.74287245  0.49059827
   0.46308469  0.68031863  0.48502678
   0.55155484  0.56897126  0.56431459
   0.46198036  0.49187580  0.59953568
   0.40869545  0.42349030  0.41850387
   0.63061950  0.66469249  0.47077601
   0.51695904  0.50423769  0.56977595
Direct configuration=     2
   0.00064044  0.00085294  0.49904236
   0.00013226  0.14339089  0.50023740
   0.99998718  0.28623371  0.50216585
   0.00035177  0.42930889  0.50394167
   0.00102177  0.57241697  0.50375241
   0.00207622  0.71572761  0.50174700
   0.00178572  0.85877574  0.49966772
   0.14392054  0.00146708  0.49707821
   0.14334390  0.14398516  0.49299343
   0.14199796  0.28579484  0.48978561
   0.14219235  0.42902949  0.49262670
   0.14341543  0.57208860  0.49785077
   0.14405009  0.71528265  0.50099141
   0.14416163  0.85851796  0.50083784
   0.28641338  0.00104357  0.49776059
   0.28621660  0.14371130  0.48803760
   0.28530173  0.28660365  0.47157646
   0.28136148  0.42805503  0.46478363
   0.28553865  0.57102144  0.47949865
   0.28617940  0.71529692  0.49356713
   0.28639147  0.85836218  0.49956437
   0.42927151  0.00119183  0.49976497
   0.42904961  0.14367059  0.49511767
   0.42766281  0.28338214  0.48324630
   0.42720177  0.71695822  0.48790218
   0.42887753  0.85834537  0.49697122
   0.57183944  0.00152625  0.50121349
   0.57192083  0.14381771  0.50116186
   0.57274014  0.28713327  0.49714932
   0.57252166  0.85944394  0.49617117
   0.71475021  0.00095801  0.50138722
   0.71485404  0.14382744  0.50480214
   0.71484613  0.28660471  0.50312124
   0.71455905  0.42860898  0.49754784
   0.71937074  0.57393219  0.48428621
   0.72183705  0.71706589  0.48218830
   0.71377031  0.85811048  0.49363930
   0.85760608  0.00077434  0.50005275
   0.85739839  0.14353176  0.50457667
   0.85747831  0.28638789  0.50606700
   0.85794393  0.42938848  0.50368130
   0.85891870  0.57280270  0.49928695
   0.86072887  0.71626271  0.49476137
   0.85819043  0.85777274  0.49570966
   0.04817687  0.09619730  0.49807569
   0.04717756  0.23832581  0.49843899
   0.04729313  0.38141003  0.50084090
   0.04842474  0.52463178  0.50271737
   0.04896490  0.66776646  0.50278735
   0.04910011  0.81089348  0.50103610
   0.04873504  0.95367053  0.49896153
   0.19111354  0.09622455  0.49216506
   0.19021813  0.23894635  0.48609661
   0.18809333  0.38050068  0.48412755
   0.19036022  0.52419989  0.49082418
   0.19115852  0.66762840  0.49732407
   0.19150745  0.81074341  0.50070336
   0.19151732  0.95363621  0.49858702
   0.33395623  0.09639598  0.49374014
   0.33455200  0.23878656  0.47899243
   0.32398243  0.37735077  0.45175991
   0.32805476  0.52221045  0.46171157
   0.33425145  0.66828990  0.48630591
   0.33385155  0.81047129  0.49694942
   0.33389541  0.95345659  0.49938936
   0.47678135  0.09618679  0.49919364
   0.47596827  0.23864854  0.49245023
   0.47584526  0.81033192  0.49391558
   0.47670788  0.95367948  0.49980187
   0.61944401  0.09640501  0.50289160
   0.61974339  0.23907360  0.50065188
   0.62152358  0.38050678  0.49724583
   0.62079511  0.81470466  0.49341720
   0.61962413  0.95416537  0.49996554
   0.76242145  0.09626598  0.50434914
   0.76244792  0.23884124  0.50545630
   0.76272496  0.38168223  0.50160276
   0.76337546  0.52575174  0.49391370
   0.76612697  0.66777425  0.48634030
   0.76201470  0.80930906  0.49026617
   0.76242548  0.95342030  0.49860509
   0.90491394  0.09564428  0.50243156
   0.90490481  0.23868819  0.50532266
   0.90515336  0.38181230  0.50545308
   0.90592951  0.52492000  0.50307694
   0.90704011  0.66796438  0.49894009
   0.90662926  0.81105414  0.49686519
   0.90531325  0.95292590  0.49872788
   0.46369517  0.35565189  0.48063726
   0.39909278  0.55570871  0.44646431
   0.64732505  0.53969061  0.47646582
   0.58543009  0.41695940  0.49826797
   0.58383420  0.74287389  0.49060153
   0.46308484  0.68031905  0.48502146
   0.55154260  0.56895970  0.56427567
   0.46197748  0.49186568  0.59952120
   0.40869357  0.42349072  0.41849498
   0.63061986  0.66469121  0.47077771
   0.51696558  0.50422963  0.56977595
Direct configuration=     3
   0.00063893  0.00085226  0.49903400
   0.00013068  0.14339069  0.50023307
   0.99998931  0.28623747  0.50216254
   0.00035332  0.42931004  0.50393968
   0.00102280  0.57241758  0.50375092
   0.00207677  0.71572721  0.50174118
   0.00178536  0.85877559  0.49965934
   0.14392063  0.00146893  0.49706521
   0.14334479  0.14398632  0.49298348
   0.14200114  0.28580016  0.48978002
   0.14219456  0.42903227  0.49262170
   0.14341611  0.57209002  0.49784607
   0.14405145  0.71528340  0.50098758
   0.14416334  0.85851770  0.50082475
   0.28641633  0.00104552  0.49775157
   0.28621878  0.14371250  0.48802694
   0.28530274  0.28660634  0.47156581
   0.28136276  0.42805868  0.46477539
   0.28553782  0.57102193  0.47949090
   0.28618041  0.71529924  0.49355867
   0.28639263  0.85836326  0.49955492
   0.42927134  0.00119299  0.49975498
   0.42905045  0.14367155  0.49510969
   0.42766412  0.28338338  0.48324133
   0.42720144  0.71695892  0.48789427
   0.42887732  0.85834690  0.49696523
   0.57183904  0.00152698  0.50120785
   0.57192052  0.14381860  0.50115706
   0.57273985  0.28713331  0.49715005
   0.57252284  0.85944326  0.49616573
   0.71475135  0.00095747  0.50138509
   0.71485402  0.14382776  0.50479940
   0.71484617  0.28660506  0.50312111
   0.71455928  0.42860910  0.49755591
   0.71937071  0.57393174  0.48430086
   0.72183738  0.71706624  0.48219791
   0.71377107  0.85810993  0.49364167
   0.85760459  0.00077389  0.50005100
   0.85739798  0.14353130  0.50457581
   0.85747870  0.28638859  0.50606566
   0.85794455  0.42938910  0.50368231
   0.85891959  0.57280309  0.49929118
   0.86072920  0.71626230  0.49476639
   0.85818999  0.85777304  0.49571252
   0.04817683  0.09619730  0.49806740
   0.04717613  0.23832395  0.49843413
   0.04729258  0.38140854  0.50083923
   0.04842449  0.52463159  0.50271455
   0.04896571  0.66776758  0.50278523
   0.04910007  0.81089480  0.50102420
   0.04873462  0.95367173  0.49894949
   0.19111105  0.09622488  0.49215264
   0.19021735  0.23894482  0.48608942
   0.18809202  0.38049796  0.48412139
   0.19035896  0.52420085  0.49082056
   0.19115826  0.66762920  0.49731872
   0.19150649  0.81074259  0.50069539
   0.19151494  0.95363772  0.49857334
   0.33395454  0.09639630  0.49372946
   0.33455044  0.23878678  0.47898307
   0.32398303  0.37734900  0.45174851
   0.32805354  0.52221004  0.46170424
   0.33425163  0.66828852  0.48629790
   0.33385238  0.81047189  0.49694114
   0.33389290  0.95345856  0.49938067
   0.47678237  0.09618775  0.49918719
   0.47596850  0.23864942  0.49244640
   0.47584620  0.81033191  0.49390865
   0.47670913  0.95368049  0.49979412
   0.61944397  0.09640468  0.50288707
   0.61974398  0.23907393  0.50065045
   0.62152454  0.38050694  0.49725146
   0.62079346  0.81470605  0.49341794
   0.61962307  0.95416623  0.49996086
   0.76242085  0.09626639  0.50434745
   0.76244817  0.23884096  0.50545480
   0.76272537  0.38168198  0.50160578
   0.76337573  0.52575152  0.49392428
   0.76612682  0.66777374  0.48635217
   0.76201489  0.80930862  0.49027305
   0.76242462  0.95342182  0.49860423
   0.90491496  0.09564582  0.50242898
   0.90490495  0.23868793  0.50532022
   0.90515337  0.38181160  0.50545256
   0.90593026  0.52492004  0.50307744
   0.90704074  0.66796464  0.49894081
   0.90663033  0.81105509  0.49686489
   0.90531522  0.95292648  0.49872619
   0.46369549  0.35565254  0.48063516
   0.39909114  0.55570967  0.44645302
   0.64732486  0.53968911  0.47648274
   0.58542981  0.41695910  0.49827592
   0.58383357  0.74287361  0.49060630
   0.46308488  0.68031952  0.48501368
   0.55152516  0.56894381  0.56421876
   0.46197455  0.49185122  0.59949872
   0.40869238  0.42349087  0.41848111
   0.63062050  0.66469179  0.47077917
   0.51697358  0.50421583  0.56977595
Direct configuration=     4
   0.00063524  0.00085012  0.49902300
   0.00012821  0.14339036  0.50022779
   0.99999286  0.28624296  0.50215792
   0.00035642  0.42931204  0.50393717
   0.00102272  0.57241847  0.50375019
   0.00207704  0.71572721  0.50173355
   0.00178507  0.85877438  0.49964868
   0.14392489  0.00146765  0.49704729
   0.14334744  0.14398812  0.49297109
   0.14200945  0.28581320  0.48977213
   0.14219938  0.42903643  0.49261515
   0.14341644  0.57209237  0.49784003
   0.14405191  0.71528174  0.50098207
   0.14416583  0.85851741  0.50080718
   0.28642626  0.00105344  0.49773916
   0.28622300  0.14371425  0.48801219
   0.28530619  0.28661118  0.47155098
   0.28136317  0.42806606  0.46476496
   0.28553653  0.57102107  0.47948063
   0.28618262  0.71530757  0.49354776
   0.28639323  0.85836361  0.49954237
   0.42927065  0.00119541  0.49974197
   0.42905178  0.14367296  0.49509902
   0.42766581  0.28338513  0.48323435
   0.42720142  0.71695964  0.48788342
   0.42887514  0.85834740  0.49695645
   0.57183881  0.00152828  0.50120009
   0.57192005  0.14382046  0.50115067
   0.57273991  0.28713374  0.49715096
   0.57252592  0.85944071  0.49615851
   0.71475440  0.00095614  0.50138243
   0.71485427  0.14382833  0.50479571
   0.71484621  0.28660599  0.50312101
   0.71455972  0.42860925  0.49756681
   0.71937105  0.57393142  0.48432107
   0.72183764  0.71706677  0.48221109
   0.71377370  0.85810983  0.49364495
   0.85760126  0.00077343  0.50004888
   0.85739736  0.14353098  0.50457436
   0.85747932  0.28638946  0.50606393
   0.85794563  0.42939007  0.50368379
   0.85892095  0.57280379  0.49929708
   0.86072978  0.71626154  0.49477336
   0.85818861  0.85777364  0.49571660
   0.04817702  0.09619805  0.49805625
   0.04717227  0.23831964  0.49842784
   0.04728758  0.38140325  0.50083650
   0.04842490  0.52463109  0.50271197
   0.04896766  0.66776822  0.50278241
   0.04910076  0.81089697  0.50100976
   0.04873215  0.95367393  0.49893355
   0.19110693  0.09622762  0.49213589
   0.19021424  0.23894048  0.48607964
   0.18808902  0.38049159  0.48411316
   0.19035890  0.52420255  0.49081475
   0.19115633  0.66762879  0.49731147
   0.19150636  0.81074613  0.50068428
   0.19150466  0.95363644  0.49855651
   0.33395045  0.09639505  0.49371527
   0.33454797  0.23878658  0.47897034
   0.32398246  0.37734521  0.45173356
   0.32805170  0.52221012  0.46169385
   0.33425284  0.66828606  0.48628689
   0.33385418  0.81047063  0.49692979
   0.33389081  0.95346046  0.49936831
   0.47678312  0.09618794  0.49917793
   0.47596860  0.23865074  0.49244101
   0.47584433  0.81033055  0.49390091
   0.47671138  0.95368220  0.49978371
   0.61944428  0.09640389  0.50288091
   0.61974467  0.23907385  0.50064856
   0.62152578  0.38050718  0.49725855
   0.62078884  0.81470984  0.49341919
   0.61962055  0.95416726  0.49995463
   0.76242012  0.09626763  0.50434532
   0.76244852  0.23884033  0.50545278
   0.76272605  0.38168152  0.50161002
   0.76337603  0.52575140  0.49393872
   0.76612605  0.66777353  0.48636759
   0.76201526  0.80930793  0.49028241
   0.76242266  0.95342492  0.49860387
   0.90491716  0.09564809  0.50242561
   0.90490508  0.23868780  0.50531710
   0.90515298  0.38181054  0.50545178
   0.90593099  0.52491967  0.50307836
   0.90704110  0.66796488  0.49894202
   0.90663204  0.81105681  0.49686469
   0.90532025  0.95292694  0.49872415
   0.46369603  0.35565360  0.48063227
   0.39908907  0.55571105  0.44643797
   0.64732440  0.53968703  0.47650546
   0.58542964  0.41695864  0.49828646
   0.58383231  0.74287226  0.49061265
   0.46308480  0.68032025  0.48500337
   0.55150196  0.56892259  0.56414409
   0.46197195  0.49183271  0.59946705
   0.40869431  0.42348981  0.41846318
   0.63062150  0.66469432  0.47078096
   0.51698322  0.50419672  0.56977595
Direct configuration=     5
   0.00063431  0.00085068  0.49900954
   0.00012946  0.14339317  0.50022228
   0.99999348  0.28624282  0.50215215
   0.00035782  0.42931235  0.50393424
   0.00102229  0.57241902  0.50375001
   0.00207803  0.71572900  0.50172440
   0.00178324  0.85877445  0.49963672
   0.14392634  0.00146610  0.49702440
   0.14334724  0.14398888  0.49295631
   0.14200922  0.28581305  0.48976190
   0.14220098  0.42903728  0.49260756
   0.14341596  0.57209452  0.49783280
   0.14405139  0.71528063  0.50097464
   0.14416581  0.85851871  0.50078559
   0.28642902  0.00106002  0.49772443
   0.28622246  0.14371554  0.48799323
   0.28530712  0.28661203  0.47153325
   0.28136316  0.42806664  0.46475091
   0.28553487  0.57102183  0.47946926
   0.28618364  0.71531020  0.49353370
   0.28639259  0.85836396  0.49952686
   0.42927032  0.00119724  0.49972624
   0.42905208  0.14367429  0.49508562
   0.42766565  0.28338628  0.48322646
   0.42720149  0.71695945  0.48786969
   0.42887491  0.85834766  0.49694460
   0.57183916  0.00152956  0.50119010
   0.57192245  0.14382329  0.50114379
   0.57274080  0.28713466  0.49715173
   0.57252556  0.85944092  0.49615002
   0.71475423  0.00095651  0.50137928
   0.71485421  0.14382866  0.50479101
   0.71484689  0.28660648  0.50312089
   0.71456087  0.42860939  0.49758020
   0.71937113  0.57393135  0.48434650
   0.72183729  0.71706520  0.48222636
   0.71377431  0.85811058  0.49364928
   0.85760052  0.00077460  0.50004660
   0.85739732  0.14353214  0.50457210
   0.85747980  0.28638928  0.50606170
   0.85794680  0.42939019  0.50368569
   0.85892221  0.57280415  0.49930457
   0.86073052  0.71626204  0.49478220
   0.85818881  0.85777450  0.49572199
   0.04817648  0.09619906  0.49804256
   0.04717220  0.23832027  0.49841989
   0.04728777  0.38140428  0.50083219
   0.04842650  0.52463194  0.50270947
   0.04896959  0.66776821  0.50277856
   0.04910223  0.81089757  0.50099303
   0.04872959  0.95367426  0.49891537
   0.19110763  0.09623131  0.49211484
   0.19021354  0.23894141  0.48606634
   0.18809055  0.38049374  0.48410210
   0.19036052  0.52420470  0.49080626
   0.19115602  0.66762961  0.49730214
   0.19150897  0.81075092  0.50066981
   0.19150001  0.95363527  0.49853651
   0.33395060  0.09639605  0.49369776
   0.33454920  0.23878820  0.47895398
   0.32398160  0.37734700  0.45171411
   0.32805081  0.52221225  0.46167986
   0.33425281  0.66828562  0.48627305
   0.33385570  0.81047134  0.49691551
   0.33389181  0.95346198  0.49935221
   0.47678272  0.09618868  0.49916555
   0.47596890  0.23865210  0.49243394
   0.47584101  0.81032959  0.49389206
   0.47671132  0.95368422  0.49977061
   0.61944461  0.09640497  0.50287300
   0.61974490  0.23907425  0.50064607
   0.62152650  0.38050750  0.49726705
   0.62078880  0.81471037  0.49342036
   0.61961995  0.95416711  0.49994806
   0.76242002  0.09626831  0.50434264
   0.76244879  0.23884062  0.50545010
   0.76272711  0.38168187  0.50161535
   0.76337822  0.52575152  0.49395576
   0.76612495  0.66777366  0.48638675
   0.76201603  0.80930780  0.49029315
   0.76242144  0.95342551  0.49860382
   0.90491636  0.09564774  0.50242154
   0.90490546  0.23869038  0.50531381
   0.90515403  0.38181147  0.50545057
   0.90593182  0.52491992  0.50307977
   0.90704172  0.66796495  0.49894385
   0.90663203  0.81105717  0.49686472
   0.90532094  0.95292659  0.49872163
   0.46369703  0.35565556  0.48062832
   0.39908639  0.55571282  0.44641885
   0.64732399  0.53968461  0.47653422
   0.58542978  0.41695795  0.49829935
   0.58383123  0.74287212  0.49062057
   0.46308492  0.68032139  0.48499041
   0.55147185  0.56889394  0.56405192
   0.46196865  0.49181008  0.59942426
   0.40869738  0.42348841  0.41844380
   0.63062235  0.66469565  0.47078568
   0.51699642  0.50417420  0.56977595
Direct configuration=     6
   0.00063634  0.00085420  0.49899380
   0.00013271  0.14339682  0.50021599
   0.99999164  0.28624020  0.50214634
   0.00035731  0.42931154  0.50393100
   0.00102266  0.57241888  0.50375018
   0.00208007  0.71573139  0.50171408
   0.00178032  0.85877546  0.49962431
   0.14392233  0.00146655  0.49699641
   0.14334388  0.14398886  0.49293855
   0.14200360  0.28580358  0.48974931
   0.14219919  0.42903576  0.49259881
   0.14341577  0.57209564  0.49782432
   0.14405169  0.71528306  0.50096492
   0.14416264  0.85851894  0.50076172
   0.28642178  0.00106024  0.49770656
   0.28621806  0.14371688  0.48796966
   0.28530488  0.28660982  0.47151217
   0.28136271  0.42806249  0.46473408
   0.28553388  0.57102427  0.47945608
   0.28618283  0.71530598  0.49351778
   0.28639244  0.85836568  0.49950814
   0.42926955  0.00119743  0.49970883
   0.42905166  0.14367561  0.49506926
   0.42766476  0.28338756  0.48321708
   0.42720214  0.71695839  0.48785411
   0.42887671  0.85834877  0.49692949
   0.57183932  0.00153035  0.50117780
   0.57192542  0.14382518  0.50113596
   0.57274179  0.28713578  0.49715214
   0.57252099  0.85944323  0.49614073
   0.71475055  0.00095854  0.50137575
   0.71485394  0.14382898  0.50478529
   0.71484817  0.28660636  0.50312223
   0.71456256  0.42860959  0.49759612
   0.71937160  0.57393222  0.48437628
   0.72183570  0.71706314  0.48224312
   0.71377251  0.85811155  0.49365489
   0.85760245  0.00077625  0.50004442
   0.85739782  0.14353461  0.50456898
   0.85748002  0.28638937  0.50605904
   0.85794794  0.42938974  0.50368816
   0.85892355  0.57280417  0.49931388
   0.86073063  0.71626375  0.49479173
   0.85819032  0.85777496  0.49572885
   0.04817541  0.09620051  0.49802665
   0.04717614  0.23832600  0.49841044
   0.04729371  0.38141045  0.50082602
   0.04842803  0.52463401  0.50270693
   0.04896998  0.66776805  0.50277338
   0.04910294  0.81089690  0.50097392
   0.04873053  0.95367393  0.49889568
   0.19111205  0.09623279  0.49208943
   0.19021612  0.23894737  0.48604906
   0.18809523  0.38050209  0.48408821
   0.19036182  0.52420641  0.49079511
   0.19115796  0.66763117  0.49729185
   0.19151174  0.81075320  0.50065165
   0.19150606  0.95363764  0.49851420
   0.33395497  0.09640076  0.49367674
   0.33455314  0.23879123  0.47893369
   0.32398307  0.37735377  0.45169041
   0.32805007  0.52221507  0.46166185
   0.33425144  0.66828821  0.48625618
   0.33385621  0.81047521  0.49689954
   0.33389387  0.95346195  0.49933222
   0.47678243  0.09619121  0.49914985
   0.47596959  0.23865361  0.49242508
   0.47583868  0.81032971  0.49388131
   0.47670938  0.95368596  0.49975465
   0.61944608  0.09640729  0.50286419
   0.61974664  0.23907619  0.50064431
   0.62152699  0.38050804  0.49727740
   0.62079288  0.81470762  0.49342157
   0.61962122  0.95416623  0.49994078
   0.76242063  0.09626840  0.50433932
   0.76244894  0.23884166  0.50544676
   0.76272848  0.38168278  0.50162195
   0.76338113  0.52575203  0.49397598
   0.76612408  0.66777321  0.48641049
   0.76201639  0.80930799  0.49030575
   0.76242236  0.95342305  0.49860275
   0.90491360  0.09564645  0.50241702
   0.90490667  0.23869223  0.50530977
   0.90515639  0.38181368  0.50544897
   0.90593260  0.52492067  0.50308207
   0.90704294  0.66796548  0.49894666
   0.90662995  0.81105583  0.49686547
   0.90531524  0.95292716  0.49871863
   0.46369823  0.35565812  0.48062319
   0.39908325  0.55571515  0.44639540
   0.64732379  0.53968191  0.47656950
   0.58543010  0.41695713  0.49831447
   0.58383044  0.74287337  0.49063012
   0.46308553  0.68032268  0.48497479
   0.55143504  0.56885784  0.56394317
   0.46196291  0.49178310  0.59936890
   0.40870019  0.42348649  0.41842192
   0.63062281  0.66469858  0.47079267
   0.51701468  0.50414792  0.56977595
Direct configuration=     7
   0.00063697  0.00085708  0.49897385
   0.00013182  0.14339600  0.50020588
   0.99999082  0.28624396  0.50214126
   0.00035834  0.42931285  0.50392693
   0.00102458  0.57241864  0.50375050
   0.00208230  0.71573173  0.50170153
   0.00177819  0.85877525  0.49960938
   0.14391855  0.00146910  0.49695940
   0.14334142  0.14399053  0.49291554
   0.14200499  0.28580552  0.48973337
   0.14219961  0.42903717  0.49258671
   0.14341738  0.57209569  0.49781330
   0.14405467  0.71528872  0.50095081
   0.14416112  0.85851873  0.50073242
   0.28641501  0.00105654  0.49768160
   0.28621766  0.14371986  0.48793748
   0.28530291  0.28661120  0.47148631
   0.28136354  0.42806563  0.46471167
   0.28553454  0.57102731  0.47943780
   0.28618271  0.71530583  0.49349841
   0.28639493  0.85836936  0.49948305
   0.42926644  0.00119762  0.49968762
   0.42905297  0.14367866  0.49504889
   0.42766684  0.28339071  0.48320416
   0.42720180  0.71695780  0.48783447
   0.42887671  0.85835141  0.49691220
   0.57183881  0.00153086  0.50116135
   0.57192624  0.14382584  0.50112544
   0.57274250  0.28713684  0.49715204
   0.57251724  0.85944271  0.49612968
   0.71474853  0.00095947  0.50137118
   0.71485493  0.14383001  0.50477774
   0.71484999  0.28660706  0.50312345
   0.71456452  0.42861002  0.49761683
   0.71937261  0.57393223  0.48441369
   0.72183448  0.71706312  0.48226496
   0.71377156  0.85811119  0.49366252
   0.85760220  0.00077673  0.50004380
   0.85739837  0.14353621  0.50456436
   0.85748079  0.28639132  0.50605549
   0.85794958  0.42939020  0.50369175
   0.85892599  0.57280479  0.49932661
   0.86072971  0.71626403  0.49480387
   0.85819018  0.85777459  0.49573813
   0.04817601  0.09620306  0.49800968
   0.04717945  0.23833065  0.49839871
   0.04729717  0.38141192  0.50081690
   0.04842812  0.52463540  0.50270386
   0.04896707  0.66777195  0.50276542
   0.04910092  0.81089732  0.50094976
   0.04873272  0.95367416  0.49887135
   0.19111235  0.09623054  0.49205567
   0.19021885  0.23895071  0.48602521
   0.18809933  0.38050203  0.48407074
   0.19036067  0.52420681  0.49077979
   0.19115801  0.66763260  0.49728001
   0.19151055  0.81075192  0.50062675
   0.19151359  0.95364176  0.49848556
   0.33395704  0.09640653  0.49364879
   0.33455476  0.23879389  0.47890609
   0.32398605  0.37735655  0.45165979
   0.32804740  0.52221606  0.46163691
   0.33425145  0.66829238  0.48623342
   0.33385527  0.81047814  0.49687886
   0.33389181  0.95346739  0.49930622
   0.47678419  0.09619490  0.49912852
   0.47597197  0.23865769  0.49241416
   0.47583878  0.81033005  0.49386593
   0.47670883  0.95368711  0.49973326
   0.61945009  0.09640985  0.50285428
   0.61975024  0.23907919  0.50064315
   0.62152369  0.38050853  0.49728929
   0.62079275  0.81470687  0.49342196
   0.61962086  0.95416562  0.49993125
   0.76242119  0.09626905  0.50433465
   0.76244983  0.23884239  0.50544240
   0.76273051  0.38168312  0.50163116
   0.76338461  0.52575398  0.49400120
   0.76612320  0.66777172  0.48644267
   0.76201597  0.80930706  0.49032228
   0.76242300  0.95342304  0.49860288
   0.90491406  0.09564898  0.50241161
   0.90490824  0.23869225  0.50530439
   0.90515866  0.38181436  0.50544682
   0.90593378  0.52492072  0.50308621
   0.90704486  0.66796740  0.49895119
   0.90662767  0.81105486  0.49686769
   0.90531204  0.95292895  0.49871477
   0.46369950  0.35566083  0.48061609
   0.39907992  0.55571866  0.44636379
   0.64732412  0.53967853  0.47661688
   0.58543052  0.41695622  0.49833385
   0.58382942  0.74287393  0.49064263
   0.46308727  0.68032339  0.48495422
   0.55138778  0.56881073  0.56380285
   0.46195268  0.49174729  0.59929099
   0.40870280  0.42348454  0.41839285
   0.63062189  0.66470227  0.47080416
   0.51703902  0.50411130  0.56977595
Direct configuration=     8
   0.00063449  0.00085646  0.49894955
   0.00013081  0.14340079  0.50019248
   0.99999615  0.28625062  0.50213358
   0.00036279  0.42931693  0.50392161
   0.00102717  0.57242195  0.50375061
   0.00208119  0.71573197  0.50168639
   0.00177827  0.85877386  0.49959048
   0.14392253  0.00147091  0.49691203
   0.14334552  0.14399468  0.49288439
   0.14201560  0.28582122  0.48971222
   0.14220495  0.42903985  0.49257142
   0.14341901  0.57209619  0.49779950
   0.14405410  0.71529210  0.50093507
   0.14416373  0.85852043  0.50069596
   0.28642028  0.00106120  0.49764605
   0.28622713  0.14372548  0.48789805
   0.28530611  0.28661945  0.47145206
   0.28136816  0.42807524  0.46468026
   0.28553765  0.57103203  0.47941358
   0.28618274  0.71531426  0.49347451
   0.28639702  0.85837504  0.49944963
   0.42926188  0.00120113  0.49966185
   0.42905444  0.14368166  0.49502478
   0.42767213  0.28339431  0.48318685
   0.42720142  0.71696001  0.48780920
   0.42887404  0.85835378  0.49689089
   0.57183924  0.00153257  0.50113998
   0.57192653  0.14382726  0.50111110
   0.57274385  0.28713894  0.49715153
   0.57251888  0.85943884  0.49611664
   0.71475121  0.00095808  0.50136539
   0.71485890  0.14383249  0.50476825
   0.71485251  0.28660913  0.50312480
   0.71456217  0.42860603  0.49763861
   0.71937374  0.57393058  0.48445989
   0.72183486  0.71706447  0.48229506
   0.71377236  0.85810941  0.49367252
   0.85759847  0.00077748  0.50004484
   0.85739901  0.14353604  0.50455784
   0.85748270  0.28639342  0.50605070
   0.85795206  0.42939200  0.50369720
   0.85893049  0.57280806  0.49934385
   0.86072861  0.71626177  0.49482072
   0.85818719  0.85777525  0.49574826
   0.04817738  0.09620530  0.49799051
   0.04717770  0.23833023  0.49838473
   0.04729505  0.38140956  0.50080484
   0.04842875  0.52463554  0.50269970
   0.04896939  0.66777348  0.50275395
   0.04909806  0.81090040  0.50091969
   0.04873072  0.95367567  0.49884023
   0.19110521  0.09622939  0.49201270
   0.19021761  0.23894754  0.48599375
   0.18809605  0.38049733  0.48404845
   0.19035945  0.52420879  0.49076115
   0.19115612  0.66763354  0.49726507
   0.19150878  0.81075161  0.50059520
   0.19150576  0.95364051  0.49844928
   0.33395344  0.09640850  0.49361412
   0.33455574  0.23879915  0.47887004
   0.32398492  0.37734934  0.45162375
   0.32804445  0.52221864  0.46160517
   0.33425100  0.66829427  0.48620555
   0.33385423  0.81047906  0.49685162
   0.33388481  0.95347108  0.49927285
   0.47678680  0.09619680  0.49910078
   0.47597515  0.23866316  0.49240025
   0.47583917  0.81033020  0.49384412
   0.47670921  0.95368856  0.49970544
   0.61945268  0.09640999  0.50284208
   0.61975026  0.23907724  0.50064061
   0.62152586  0.38050935  0.49730504
   0.62078622  0.81471077  0.49342228
   0.61961645  0.95416599  0.49991815
   0.76242106  0.09627061  0.50432798
   0.76245249  0.23884337  0.50543688
   0.76273281  0.38168335  0.50164396
   0.76338731  0.52575538  0.49403405
   0.76612301  0.66777241  0.48648369
   0.76201293  0.80930607  0.49034225
   0.76242104  0.95342681  0.49860512
   0.90491783  0.09565420  0.50240517
   0.90490763  0.23869486  0.50529853
   0.90516022  0.38181374  0.50544424