  98  98   0   0
  0.3953964E+02  0.1727104E-08  0.1727104E-08  0.1500000E-08  0.0000000E+00
  1.000000000000000E-004
  CAR 
 unknown system                          
      5.97602984    -26.02319483  301     -2.38179500      1.00000000
    -26.023  0.0000E+00  0.0000E+00  0.0000E+00  0.0000E+00
    -25.917  0.0000E+00  0.0000E+00  0.0000E+00  0.0000E+00
    -25.810  0.0000E+00  0.0000E+00  0.0000E+00  0.0000E+00
    -25.703  0.0000E+00  0.0000E+00  0.0000E+00  0.0000E+00
    -25.597  0.0000E+00  0.0000E+00  0.0000E+00  0.0000E+00
    -25.490  0.0000E+00  0.0000E+00  0.0000E+00  0.0000E+00
    -25.383  0.0000E+00  0.0000E+00  0.0000E+00  0.0000E+00
    -25.277  0.0000E+00  0.0000E+00  0.0000E+00  0.0000E+00
    -25.170  0.0000E+00  0.0000E+00  0.0000E+00  0.0000E+00
    -25.063  0.0000E+00  0.0000E+00  0.0000E+00  0.0000E+00
    -24.957  0.0000E+00  0.0000E+00  0.0000E+00  0.0000E+00
    -24.850  0.8327E-17  0.8327E-17  0.8882E-18  0.8882E-18
    -24.743  0.3715E-08  0.3715E-08  0.3963E-09  0.3963E-09
    -24.637  0.2570E-03  0.2570E-03  0.2741E-04  0.2741E-04
    -24.530  0.7839E-02  0.7839E-02  0.8636E-03  0.8636E-03
    -24.423  0.1279E-02  0.1279E-02  0.1000E-02  0.1000E-02
    -24.317  0.1826E-06  0.1826E-06  0.1000E-02  0.1000E-02
    -24.210  0.4688E-14  0.4688E-14  0.1000E-02  0.1000E-02
    -24.103  0.0000E+00  0.0000E+00  0.1000E-02  0.1000E-02
    -23.997  0.0000E+00  0.0000E+00  0.1000E-02  0.1000E-02
    -23.890  0.0000E+00  0.0000E+00  0.1000E-02  0.1000E-02
    -23.783  0.0000E+00  0.0000E+00  0.1000E-02  0.1000E-02
    -23.677  0.0000E+00  0.0000E+00  0.1000E-02  0.1000E-02
    -23.570  0.0000E+00  0.0000E+00  0.1000E-02  0.1000E-02
    -23.463  0.0000E+00  0.0000E+00  0.1000E-02  0.1000E-02
    -23.357  0.0000E+00  0.0000E+00  0.1000E-02  0.1000E-02
    -23.250  0.0000E+00  0.0000E+00  0.1000E-02  0.1000E-02
    -23.143  0.0000E+00  0.0000E+00  0.1000E-02  0.1000E-02
    -23.037  0.0000E+00  0.0000E+00  0.1000E-02  0.1000E-02
    -22.930  0.0000E+00  0.0000E+00  0.1000E-02  0.1000E-02
    -22.823  0.0000E+00  0.0000E+00  0.1000E-02  0.1000E-02
    -22.717  0.0000E+00  0.0000E+00  0.1000E-02  0.1000E-02
    -22.610  0.0000E+00  0.0000E+00  0.1000E-02  0.1000E-02
    -22.503  0.2086E-14  0.2086E-14  0.1000E-02  0.1000E-02
    -22.397  0.1120E-06  0.1120E-06  0.1000E-02  0.1000E-02
    -22.290  0.1063E-02  0.1063E-02  0.1113E-02  0.1113E-02
    -22.183  0.7981E-02  0.7981E-02  0.1965E-02  0.1965E-02
    -22.077  0.3313E-03  0.3313E-03  0.2000E-02  0.2000E-02
    -21.970  0.6604E-08  0.6604E-08  0.2000E-02  0.2000E-02
    -21.863  0.1033E-07  0.1033E-07  0.2000E-02  0.2000E-02
    -21.757  0.2674E-03  0.2674E-03  0.2029E-02  0.2029E-02
    -21.650  0.6750E-02  0.6750E-02  0.2749E-02  0.2749E-02
    -21.543  0.7859E-02  0.7859E-02  0.3587E-02  0.3587E-02
    -21.437  0.2240E-02  0.2240E-02  0.3826E-02  0.3826E-02
    -21.330  0.8231E-02  0.8231E-02  0.4704E-02  0.4704E-02
    -21.223  0.7004E-02  0.7004E-02  0.5451E-02  0.5451E-02
    -21.117  0.5918E-02  0.5918E-02  0.6082E-02  0.6082E-02
    -21.010  0.1768E-02  0.1768E-02  0.6271E-02  0.6271E-02
    -20.903  0.8920E-02  0.8920E-02  0.7222E-02  0.7222E-02
    -20.797  0.1341E-01  0.1341E-01  0.8653E-02  0.8653E-02
    -20.690  0.2636E-02  0.2636E-02  0.8934E-02  0.8934E-02
    -20.583  0.6451E-02  0.6451E-02  0.9622E-02  0.9622E-02
    -20.477  0.1586E-02  0.1586E-02  0.9791E-02  0.9791E-02
    -20.370  0.6540E-02  0.6540E-02  0.1049E-01  0.1049E-01
    -20.263  0.1283E-01  0.1283E-01  0.1186E-01  0.1186E-01
    -20.157  0.1050E-01  0.1050E-01  0.1298E-01  0.1298E-01
    -20.050  0.3952E-02  0.3952E-02  0.1340E-01  0.1340E-01
    -19.943  0.5054E-02  0.5054E-02  0.1394E-01  0.1394E-01
    -19.837  0.3361E-02  0.3361E-02  0.1430E-01  0.1430E-01
    -19.730  0.5751E-02  0.5751E-02  0.1491E-01  0.1491E-01
    -19.623  0.7723E-02  0.7723E-02  0.1573E-01  0.1573E-01
    -19.517  0.7507E-02  0.7507E-02  0.1653E-01  0.1653E-01
    -19.410  0.1419E-01  0.1419E-01  0.1805E-01  0.1805E-01
    -19.303  0.7764E-02  0.7764E-02  0.1888E-01  0.1888E-01
    -19.197  0.4053E-02  0.4053E-02  0.1931E-01  0.1931E-01
    -19.090  0.4469E-02  0.4469E-02  0.1978E-01  0.1978E-01
    -18.983  0.6605E-02  0.6605E-02  0.2049E-01  0.2049E-01
    -18.877  0.6747E-02  0.6747E-02  0.2121E-01  0.2121E-01
    -18.770  0.5973E-02  0.5973E-02  0.2185E-01  0.2185E-01
    -18.663  0.4076E-02  0.4076E-02  0.2228E-01  0.2228E-01
    -18.557  0.9025E-02  0.9025E-02  0.2324E-01  0.2324E-01
    -18.450  0.1663E-01  0.1663E-01  0.2502E-01  0.2502E-01
    -18.343  0.3900E-02  0.3900E-02  0.2543E-01  0.2543E-01
    -18.237  0.6771E-02  0.6771E-02  0.2616E-01  0.2616E-01
    -18.130  0.6545E-02  0.6545E-02  0.2685E-01  0.2685E-01
    -18.023  0.7599E-02  0.7599E-02  0.2766E-01  0.2766E-01
    -17.917  0.8610E-02  0.8610E-02  0.2858E-01  0.2858E-01
    -17.810  0.4154E-02  0.4154E-02  0.2903E-01  0.2903E-01
    -17.703  0.4422E-02  0.4422E-02  0.2950E-01  0.2950E-01
    -17.597  0.3755E-02  0.3755E-02  0.2990E-01  0.2990E-01
    -17.490  0.9584E-02  0.9584E-02  0.3092E-01  0.3092E-01
    -17.383  0.1583E-01  0.1583E-01  0.3261E-01  0.3261E-01
    -17.277  0.8167E-02  0.8167E-02  0.3348E-01  0.3348E-01
    -17.170  0.1032E-01  0.1032E-01  0.3458E-01  0.3458E-01
    -17.063  0.1067E-01  0.1067E-01  0.3572E-01  0.3572E-01
    -16.957  0.3615E-02  0.3615E-02  0.3610E-01  0.3610E-01
    -16.850  0.9955E-02  0.9955E-02  0.3717E-01  0.3717E-01
    -16.743  0.6575E-02  0.6575E-02  0.3787E-01  0.3787E-01
    -16.637  0.3380E-02  0.3380E-02  0.3823E-01  0.3823E-01
    -16.530  0.4066E-02  0.4066E-02  0.3866E-01  0.3866E-01
    -16.423  0.8364E-02  0.8364E-02  0.3955E-01  0.3955E-01
    -16.317  0.1720E-01  0.1720E-01  0.4139E-01  0.4139E-01
    -16.210  0.9005E-02  0.9005E-02  0.4235E-01  0.4235E-01
    -16.103  0.4768E-02  0.4768E-02  0.4286E-01  0.4286E-01
    -15.997  0.1385E-02  0.1385E-02  0.4301E-01  0.4301E-01
    -15.890  0.2701E-02  0.2701E-02  0.4329E-01  0.4329E-01
    -15.783  0.4458E-02  0.4458E-02  0.4377E-01  0.4377E-01
    -15.677  0.4226E-02  0.4226E-02  0.4422E-01  0.4422E-01
    -15.570  0.1495E-02  0.1495E-02  0.4438E-01  0.4438E-01
    -15.463  0.3663E-02  0.3663E-02  0.4477E-01  0.4477E-01
    -15.357  0.8912E-02  0.8912E-02  0.4572E-01  0.4572E-01
    -15.250  0.6017E-02  0.6017E-02  0.4636E-01  0.4636E-01
    -15.143  0.7981E-02  0.7981E-02  0.4721E-01  0.4721E-01
    -15.037  0.6769E-02  0.6769E-02  0.4794E-01  0.4794E-01
    -14.930  0.8484E-02  0.8484E-02  0.4884E-01  0.4884E-01
    -14.823  0.1556E-01  0.1556E-01  0.5050E-01  0.5050E-01
    -14.717  0.5189E-02  0.5189E-02  0.5105E-01  0.5105E-01
    -14.610  0.5930E-02  0.5930E-02  0.5169E-01  0.5169E-01
    -14.503  0.1125E-01  0.1125E-01  0.5289E-01  0.5289E-01
    -14.397  0.9979E-02  0.9979E-02  0.5395E-01  0.5395E-01
    -14.290  0.6172E-02  0.6172E-02  0.5461E-01  0.5461E-01
    -14.183  0.1046E-01  0.1046E-01  0.5573E-01  0.5573E-01
    -14.077  0.1062E-01  0.1062E-01  0.5686E-01  0.5686E-01
    -13.970  0.8023E-02  0.8023E-02  0.5771E-01  0.5771E-01
    -13.863  0.6163E-02  0.6163E-02  0.5837E-01  0.5837E-01
    -13.757  0.4068E-02  0.4068E-02  0.5881E-01  0.5881E-01
    -13.650  0.4256E-02  0.4256E-02  0.5926E-01  0.5926E-01
    -13.543  0.7016E-02  0.7016E-02  0.6001E-01  0.6001E-01
    -13.437  0.8719E-02  0.8719E-02  0.6094E-01  0.6094E-01
    -13.330  0.8684E-02  0.8684E-02  0.6186E-01  0.6186E-01
    -13.224  0.9326E-02  0.9326E-02  0.6286E-01  0.6286E-01
    -13.117  0.5919E-02  0.5919E-02  0.6349E-01  0.6349E-01
    -13.010  0.6466E-02  0.6466E-02  0.6418E-01  0.6418E-01
    -12.904  0.2993E-02  0.2993E-02  0.6450E-01  0.6450E-01
    -12.797  0.2033E-02  0.2033E-02  0.6472E-01  0.6472E-01
    -12.690  0.9709E-02  0.9709E-02  0.6575E-01  0.6575E-01
    -12.584  0.6152E-02  0.6152E-02  0.6641E-01  0.6641E-01
    -12.477  0.1210E-01  0.1210E-01  0.6770E-01  0.6770E-01
    -12.370  0.1631E-01  0.1631E-01  0.6944E-01  0.6944E-01
    -12.264  0.1826E-01  0.1825E-01  0.7139E-01  0.7139E-01
    -12.157  0.9080E-02  0.9080E-02  0.7235E-01  0.7235E-01
    -12.050  0.3619E-02  0.3619E-02  0.7274E-01  0.7274E-01
    -11.944  0.2165E-02  0.2165E-02  0.7297E-01  0.7297E-01
    -11.837  0.9613E-02  0.9613E-02  0.7400E-01  0.7400E-01
    -11.730  0.6537E-02  0.6537E-02  0.7469E-01  0.7469E-01
    -11.624  0.9184E-02  0.9184E-02  0.7567E-01  0.7567E-01
    -11.517  0.5386E-02  0.5386E-02  0.7625E-01  0.7625E-01
    -11.410  0.1256E-01  0.1256E-01  0.7759E-01  0.7759E-01
    -11.304  0.1121E-01  0.1121E-01  0.7878E-01  0.7878E-01
    -11.197  0.1176E-01  0.1176E-01  0.8004E-01  0.8004E-01
    -11.090  0.1204E-01  0.1204E-01  0.8132E-01  0.8132E-01
    -10.984  0.6624E-02  0.6624E-02  0.8203E-01  0.8203E-01
    -10.877  0.9970E-02  0.9970E-02  0.8309E-01  0.8309E-01
    -10.770  0.1301E-01  0.1301E-01  0.8448E-01  0.8448E-01
    -10.664  0.1008E-01  0.1008E-01  0.8555E-01  0.8555E-01
    -10.557  0.6660E-02  0.6660E-02  0.8626E-01  0.8626E-01
    -10.450  0.5596E-02  0.5596E-02  0.8686E-01  0.8686E-01
    -10.344  0.3182E-02  0.3182E-02  0.8720E-01  0.8720E-01
    -10.237  0.3826E-02  0.3826E-02  0.8761E-01  0.8761E-01
    -10.130  0.1488E-01  0.1488E-01  0.8920E-01  0.8920E-01
    -10.024  0.1762E-01  0.1762E-01  0.9107E-01  0.9107E-01
     -9.917  0.1520E-01  0.1520E-01  0.9270E-01  0.9270E-01
     -9.810  0.1812E-01  0.1812E-01  0.9463E-01  0.9463E-01
     -9.704  0.1865E-01  0.1865E-01  0.9662E-01  0.9662E-01
     -9.597  0.1675E-01  0.1675E-01  0.9840E-01  0.9840E-01
     -9.490  0.1105E-01  0.1105E-01  0.9958E-01  0.9958E-01
     -9.384  0.1842E-01  0.1842E-01  0.1015E+00  0.1015E+00
     -9.277  0.1779E-01  0.1779E-01  0.1034E+00  0.1034E+00
     -9.170  0.1493E-01  0.1493E-01  0.1050E+00  0.1050E+00
     -9.064  0.1993E-01  0.1993E-01  0.1072E+00  0.1072E+00
     -8.957  0.1962E-01  0.1962E-01  0.1093E+00  0.1093E+00
     -8.850  0.3285E-01  0.3285E-01  0.1128E+00  0.1128E+00
     -8.744  0.2690E-01  0.2690E-01  0.1156E+00  0.1156E+00
     -8.637  0.1989E-01  0.1989E-01  0.1178E+00  0.1178E+00
     -8.530  0.1685E-01  0.1685E-01  0.1195E+00  0.1195E+00
     -8.424  0.2218E-01  0.2218E-01  0.1219E+00  0.1219E+00
     -8.317  0.1637E-01  0.1637E-01  0.1237E+00  0.1237E+00
     -8.210  0.1893E-01  0.1893E-01  0.1257E+00  0.1257E+00
     -8.104  0.2568E-01  0.2568E-01  0.1284E+00  0.1284E+00
     -7.997  0.2093E-01  0.2093E-01  0.1307E+00  0.1307E+00
     -7.890  0.1416E-01  0.1416E-01  0.1322E+00  0.1322E+00
     -7.784  0.1482E-01  0.1482E-01  0.1337E+00  0.1337E+00
     -7.677  0.1947E-01  0.1947E-01  0.1358E+00  0.1358E+00
     -7.570  0.1784E-01  0.1784E-01  0.1377E+00  0.1377E+00
     -7.464  0.9385E-02  0.9385E-02  0.1387E+00  0.1387E+00
     -7.357  0.4933E-02  0.4933E-02  0.1392E+00  0.1392E+00
     -7.250  0.1616E-01  0.1616E-01  0.1410E+00  0.1410E+00
     -7.144  0.2706E-01  0.2706E-01  0.1439E+00  0.1439E+00
     -7.037  0.2050E-01  0.2050E-01  0.1460E+00  0.1460E+00
     -6.930  0.1520E-01  0.1520E-01  0.1477E+00  0.1477E+00
     -6.824  0.1035E-01  0.1035E-01  0.1488E+00  0.1488E+00
     -6.717  0.1445E-01  0.1445E-01  0.1503E+00  0.1503E+00
     -6.610  0.1444E-01  0.1444E-01  0.1519E+00  0.1519E+00
     -6.504  0.5361E-02  0.5361E-02  0.1524E+00  0.1524E+00
     -6.397  0.1079E-01  0.1079E-01  0.1536E+00  0.1536E+00
     -6.290  0.1416E-01  0.1416E-01  0.1551E+00  0.1551E+00
     -6.184  0.1337E-01  0.1337E-01  0.1565E+00  0.1565E+00
     -6.077  0.2185E-01  0.2185E-01  0.1588E+00  0.1588E+00
     -5.970  0.1552E-01  0.1552E-01  0.1605E+00  0.1605E+00
     -5.864  0.1230E-01  0.1230E-01  0.1618E+00  0.1618E+00
     -5.757  0.1306E-01  0.1306E-01  0.1632E+00  0.1632E+00
     -5.650  0.1314E-01  0.1314E-01  0.1646E+00  0.1646E+00
     -5.544  0.1596E-01  0.1596E-01  0.1663E+00  0.1663E+00
     -5.437  0.7834E-02  0.7834E-02  0.1671E+00  0.1671E+00
     -5.330  0.4671E-02  0.4671E-02  0.1676E+00  0.1676E+00
     -5.224  0.2263E-02  0.2263E-02  0.1679E+00  0.1679E+00
     -5.117  0.2298E-02  0.2298E-02  0.1681E+00  0.1681E+00
     -5.010  0.1406E-01  0.1406E-01  0.1696E+00  0.1696E+00
     -4.904  0.2124E-01  0.2124E-01  0.1719E+00  0.1719E+00
     -4.797  0.1669E-01  0.1669E-01  0.1737E+00  0.1737E+00
     -4.690  0.1304E-01  0.1304E-01  0.1751E+00  0.1751E+00
     -4.584  0.6829E-02  0.6829E-02  0.1758E+00  0.1758E+00
     -4.477  0.1265E-01  0.1265E-01  0.1771E+00  0.1771E+00
     -4.370  0.1058E-02  0.1058E-02  0.1773E+00  0.1773E+00
     -4.264  0.2346E-02  0.2346E-02  0.1775E+00  0.1775E+00
     -4.157  0.9487E-02  0.9487E-02  0.1785E+00  0.1785E+00
     -4.050  0.6897E-02  0.6897E-02  0.1792E+00  0.1792E+00
     -3.944  0.7421E-02  0.7421E-02  0.1800E+00  0.1800E+00
     -3.837  0.9012E-02  0.9012E-02  0.1810E+00  0.1810E+00
     -3.730  0.5329E-02  0.5329E-02  0.1816E+00  0.1816E+00
     -3.624  0.3914E-02  0.3914E-02  0.1820E+00  0.1820E+00
     -3.517  0.1245E-03  0.1245E-03  0.1820E+00  0.1820E+00
     -3.410  0.1651E-03  0.1651E-03  0.1820E+00  0.1820E+00
     -3.304  0.2187E-02  0.2187E-02  0.1823E+00  0.1823E+00
     -3.197  0.5851E-02  0.5851E-02  0.1829E+00  0.1829E+00
     -3.090  0.3358E-02  0.3358E-02  0.1832E+00  0.1832E+00
     -2.984  0.2246E-02  0.2246E-02  0.1835E+00  0.1835E+00
     -2.877  0.2554E-03  0.2554E-03  0.1835E+00  0.1835E+00
     -2.770  0.2825E-07  0.2825E-07  0.1835E+00  0.1835E+00
     -2.664  0.1108E-03  0.1108E-03  0.1835E+00  0.1835E+00
     -2.557  0.3076E-02  0.3076E-02  0.1838E+00  0.1838E+00
     -2.450  0.1497E-02  0.1497E-02  0.1840E+00  0.1840E+00
     -2.344  0.4714E-05  0.4714E-05  0.1840E+00  0.1840E+00
     -2.237  0.7209E-03  0.7209E-03  0.1841E+00  0.1841E+00
     -2.130  0.3814E-02  0.3814E-02  0.1845E+00  0.1845E+00
     -2.024  0.1527E-03  0.1527E-03  0.1845E+00  0.1845E+00
     -1.917  0.3344E-05  0.3344E-05  0.1845E+00  0.1845E+00
     -1.810  0.1206E-02  0.1206E-02  0.1846E+00  0.1846E+00
     -1.704  0.2514E-02  0.2514E-02  0.1849E+00  0.1849E+00
     -1.597  0.4117E-02  0.4117E-02  0.1853E+00  0.1853E+00
     -1.490  0.5556E-02  0.5556E-02  0.1859E+00  0.1859E+00
     -1.384  0.6976E-03  0.6976E-03  0.1860E+00  0.1860E+00
     -1.277  0.2589E-02  0.2589E-02  0.1863E+00  0.1863E+00
     -1.170  0.5688E-02  0.5688E-02  0.1869E+00  0.1869E+00
     -1.064  0.5460E-02  0.5460E-02  0.1875E+00  0.1875E+00
     -0.957  0.7421E-03  0.7421E-03  0.1875E+00  0.1875E+00
     -0.850  0.6817E-02  0.6817E-02  0.1883E+00  0.1883E+00
     -0.744  0.1825E-01  0.1825E-01  0.1902E+00  0.1902E+00
     -0.637  0.7367E-02  0.7367E-02  0.1910E+00  0.1910E+00
     -0.530  0.8676E-02  0.8676E-02  0.1919E+00  0.1919E+00
     -0.424  0.1058E-01  0.1058E-01  0.1931E+00  0.1931E+00
     -0.317  0.6646E-02  0.6646E-02  0.1938E+00  0.1938E+00
     -0.210  0.4445E-02  0.4445E-02  0.1942E+00  0.1942E+00
     -0.104  0.6321E-02  0.6321E-02  0.1949E+00  0.1949E+00
      0.003  0.1059E-01  0.1059E-01  0.1960E+00  0.1960E+00
      0.110  0.9503E-02  0.9503E-02  0.1971E+00  0.1971E+00
      0.216  0.1037E-01  0.1037E-01  0.1982E+00  0.1982E+00
      0.323  0.1088E-01  0.1088E-01  0.1993E+00  0.1993E+00
      0.429  0.4478E-02  0.4478E-02  0.1998E+00  0.1998E+00
      0.536  0.2785E-02  0.2785E-02  0.2001E+00  0.2001E+00
      0.643  0.1248E-01  0.1248E-01  0.2014E+00  0.2014E+00
      0.749  0.6770E-02  0.6770E-02  0.2022E+00  0.2022E+00
      0.856  0.8795E-02  0.8795E-02  0.2031E+00  0.2031E+00
      0.963  0.6088E-02  0.6088E-02  0.2037E+00  0.2037E+00
      1.069  0.1061E-01  0.1061E-01  0.2049E+00  0.2049E+00
      1.176  0.7385E-02  0.7385E-02  0.2057E+00  0.2057E+00
      1.283  0.7671E-02  0.7671E-02  0.2065E+00  0.2065E+00
      1.389  0.9670E-02  0.9670E-02  0.2075E+00  0.2075E+00
      1.496  0.8951E-02  0.8951E-02  0.2085E+00  0.2085E+00
      1.603  0.2310E-01  0.2310E-01  0.2109E+00  0.2109E+00
      1.709  0.1677E-01  0.1677E-01  0.2127E+00  0.2127E+00
      1.816  0.9094E-02  0.9094E-02  0.2137E+00  0.2137E+00
      1.923  0.7062E-02  0.7062E-02  0.2144E+00  0.2144E+00
      2.029  0.1509E-01  0.1509E-01  0.2161E+00  0.2161E+00
      2.136  0.2561E-01  0.2561E-01  0.2188E+00  0.2188E+00
      2.243  0.1453E-01  0.1453E-01  0.2203E+00  0.2203E+00
      2.349  0.1527E-01  0.1527E-01  0.2220E+00  0.2220E+00
      2.456  0.3075E-01  0.3075E-01  0.2252E+00  0.2252E+00
      2.563  0.8844E-02  0.8844E-02  0.2262E+00  0.2262E+00
      2.669  0.9559E-02  0.9559E-02  0.2272E+00  0.2272E+00
      2.776  0.1417E-01  0.1417E-01  0.2287E+00  0.2287E+00
      2.883  0.3000E-01  0.3000E-01  0.2319E+00  0.2319E+00
      2.989  0.3955E-01  0.3955E-01  0.2361E+00  0.2361E+00
      3.096  0.2112E-01  0.2112E-01  0.2384E+00  0.2384E+00
      3.203  0.2008E-01  0.2008E-01  0.2405E+00  0.2405E+00
      3.309  0.2105E-01  0.2105E-01  0.2428E+00  0.2428E+00
      3.416  0.1704E-01  0.1704E-01  0.2446E+00  0.2446E+00
      3.523  0.2413E-01  0.2413E-01  0.2472E+00  0.2472E+00
      3.629  0.1860E-01  0.1860E-01  0.2492E+00  0.2492E+00
      3.736  0.1371E-01  0.1371E-01  0.2506E+00  0.2506E+00
      3.843  0.3039E-01  0.3039E-01  0.2539E+00  0.2539E+00
      3.949  0.1916E-01  0.1916E-01  0.2559E+00  0.2559E+00
      4.056  0.2533E-01  0.2533E-01  0.2586E+00  0.2586E+00
      4.163  0.1534E-01  0.1534E-01  0.2602E+00  0.2602E+00
      4.269  0.2083E-01  0.2083E-01  0.2625E+00  0.2625E+00
      4.376  0.3242E-01  0.3242E-01  0.2659E+00  0.2659E+00
      4.483  0.3167E-01  0.3166E-01  0.2693E+00  0.2693E+00
      4.589  0.6553E-02  0.6557E-02  0.2700E+00  0.2700E+00
      4.696  0.7988E-04  0.8000E-04  0.2700E+00  0.2700E+00
      4.803  0.9538E-09  0.9543E-09  0.2700E+00  0.2700E+00
      4.909  0.2082E-17  0.2082E-17  0.2700E+00  0.2700E+00
      5.016  0.0000E+00  0.0000E+00  0.2700E+00  0.2700E+00
      5.123  0.0000E+00  0.0000E+00  0.2700E+00  0.2700E+00
      5.229  0.0000E+00  0.0000E+00  0.2700E+00  0.2700E+00
      5.336  0.0000E+00  0.0000E+00  0.2700E+00  0.2700E+00
      5.443  0.0000E+00  0.0000E+00  0.2700E+00  0.2700E+00
      5.549  0.0000E+00  0.0000E+00  0.2700E+00  0.2700E+00
      5.656  0.0000E+00  0.0000E+00  0.2700E+00  0.2700E+00
      5.763  0.0000E+00  0.0000E+00  0.2700E+00  0.2700E+00
      5.869  0.0000E+00  0.0000E+00  0.2700E+00  0.2700E+00
      5.976  0.0000E+00  0.0000E+00  0.2700E+00  0.2700E+00
