       N       E                     dE             d eps       ncg     rms          rms(c)
DAV:   1     0.325493578772E+04    0.32549E+04   -0.13711E+05  4630   0.103E+03
DAV:   2    -0.259496761768E+03   -0.35144E+04   -0.33024E+04  6540   0.255E+02
DAV:   3    -0.870165578894E+03   -0.61067E+03   -0.60794E+03  5420   0.109E+02
DAV:   4    -0.892187332156E+03   -0.22022E+02   -0.21944E+02  5560   0.260E+01
DAV:   5    -0.892803091939E+03   -0.61576E+00   -0.61491E+00  6100   0.372E+00    0.521E+01
DAV:   6    -0.874978806174E+03    0.17824E+02   -0.22183E+01  5300   0.716E+00    0.339E+01
DAV:   7    -0.852071285117E+03    0.22908E+02   -0.33258E+01  5160   0.859E+00    0.205E+01
DAV:   8    -0.847177527232E+03    0.48938E+01   -0.25008E+01  5290   0.740E+00    0.826E+00
DAV:   9    -0.847020946477E+03    0.15658E+00   -0.11855E+00  5130   0.200E+00    0.314E+00
DAV:  10    -0.846949238447E+03    0.71708E-01   -0.40238E-01  5040   0.110E+00    0.911E-01
DAV:  11    -0.846936541948E+03    0.12696E-01   -0.74489E-02  4990   0.477E-01    0.321E-01
DAV:  12    -0.846935166099E+03    0.13758E-02   -0.74418E-03  5450   0.162E-01    0.160E-01
DAV:  13    -0.846934878424E+03    0.28768E-03   -0.27173E-03  5330   0.110E-01    0.713E-02
DAV:  14    -0.846934994984E+03   -0.11656E-03   -0.48112E-04  4930   0.404E-02    0.516E-02
DAV:  15    -0.846935037174E+03   -0.42190E-04   -0.82488E-05  5190   0.181E-02    0.262E-02
DAV:  16    -0.846935044871E+03   -0.76965E-05   -0.30582E-05  4820   0.106E-02    0.996E-03
DAV:  17    -0.846935044643E+03    0.22797E-06   -0.75970E-06  5700   0.634E-03
   1 F= -.85476406E+03 E0= -.85476406E+03  d E =-.854764E+03  mag=     0.0002
       N       E                     dE             d eps       ncg     rms          rms(c)
DAV:   1    -0.846935083398E+03   -0.38527E-04   -0.81178E-04  4620   0.545E-02    0.741E-03
DAV:   2    -0.846935083919E+03   -0.52099E-06   -0.16661E-05  4870   0.743E-03    0.632E-03
DAV:   3    -0.846935083420E+03    0.49888E-06   -0.80244E-07  3620   0.193E-03
   2 F= -.85476409E+03 E0= -.85476409E+03  d E =-.365072E-04  mag=    -0.0000
       N       E                     dE             d eps       ncg     rms          rms(c)
DAV:   1    -0.846935138053E+03   -0.54134E-04   -0.17143E-03  4540   0.714E-02    0.118E-02
DAV:   2    -0.846935137320E+03    0.73252E-06   -0.23739E-05  4740   0.837E-03    0.992E-03
DAV:   3    -0.846935137936E+03   -0.61576E-06   -0.13722E-06  3710   0.249E-03
   3 F= -.85476415E+03 E0= -.85476415E+03  d E =-.515617E-04  mag=     0.0000
       N       E                     dE             d eps       ncg     rms          rms(c)
DAV:   1    -0.846935234933E+03   -0.97613E-04   -0.34409E-03  4500   0.974E-02    0.162E-02
DAV:   2    -0.846935233113E+03    0.18197E-05   -0.45044E-05  4620   0.112E-02    0.133E-02
DAV:   3    -0.846935234818E+03   -0.17042E-05   -0.23415E-06  4110   0.313E-03    0.736E-03
DAV:   4    -0.846935237824E+03   -0.30061E-05   -0.21301E-06  3810   0.257E-03    0.208E-03
DAV:   5    -0.846935237843E+03   -0.19711E-07   -0.73306E-07  3330   0.159E-03
   4 F= -.85476424E+03 E0= -.85476424E+03  d E =-.990268E-04  mag=    -0.0000
       N       E                     dE             d eps       ncg     rms          rms(c)
DAV:   1    -0.846935349680E+03   -0.11186E-03   -0.64497E-03  4500   0.135E-01    0.212E-02
DAV:   2    -0.846935348460E+03    0.12196E-05   -0.91728E-05  4620   0.161E-02    0.176E-02
DAV:   3    -0.846935348990E+03   -0.52997E-06   -0.45207E-06  4710   0.434E-03
   5 F= -.85476436E+03 E0= -.85476436E+03  d E =-.111655E-03  mag=     0.0000
       N       E                     dE             d eps       ncg     rms          rms(c)
DAV:   1    -0.846935501077E+03   -0.15262E-03   -0.92947E-03  4500   0.157E-01    0.273E-02
DAV:   2    -0.846935495410E+03    0.56673E-05   -0.11609E-04  4620   0.175E-02    0.223E-02
DAV:   3    -0.846935500613E+03   -0.52034E-05   -0.55598E-06  4310   0.471E-03    0.120E-02
DAV:   4    -0.846935509331E+03   -0.87177E-05   -0.53093E-06  4400   0.387E-03    0.304E-03
DAV:   5    -0.846935509290E+03    0.41131E-07   -0.19411E-06  3980   0.241E-03
   6 F= -.85476451E+03 E0= -.85476451E+03  d E =-.157893E-03  mag=    -0.0000
       N       E                     dE             d eps       ncg     rms          rms(c)
DAV:   1    -0.846935687177E+03   -0.17785E-03   -0.13907E-02  4500   0.196E-01    0.311E-02
DAV:   2    -0.846935684880E+03    0.22973E-05   -0.19161E-04  4620   0.229E-02    0.257E-02
DAV:   3    -0.846935685825E+03   -0.94553E-06   -0.89274E-06  4700   0.604E-03
   7 F= -.85476468E+03 E0= -.85476468E+03  d E =-.170655E-03  mag=     0.0000
       N       E                     dE             d eps       ncg     rms          rms(c)
DAV:   1    -0.846935916256E+03   -0.23138E-03   -0.22719E-02  4480   0.247E-01    0.419E-02
DAV:   2    -0.846935908718E+03    0.75382E-05   -0.28148E-04  4600   0.273E-02    0.344E-02
DAV:   3    -0.846935916639E+03   -0.79204E-05   -0.12840E-05  4490   0.716E-03    0.187E-02
DAV:   4    -0.846935936131E+03   -0.19493E-04   -0.13208E-05  4530   0.610E-03    0.462E-03
DAV:   5    -0.846935935918E+03    0.21318E-06   -0.50826E-06  4700   0.387E-03
   8 F= -.85476493E+03 E0= -.85476493E+03  d E =-.244791E-03  mag=    -0.0000
       N       E                     dE             d eps       ncg     rms          rms(c)
DAV:   1    -0.846936197078E+03   -0.26095E-03   -0.36142E-02  4440   0.316E-01    0.506E-02
DAV:   2    -0.846936196873E+03    0.20483E-06   -0.47876E-04  4630   0.366E-02    0.419E-02
DAV:   3    -0.846936197881E+03   -0.10079E-05   -0.24617E-05  4760   0.101E-02    0.234E-02
DAV:   4    -0.846936221349E+03   -0.23468E-04   -0.24764E-05  4520   0.858E-03    0.658E-03
DAV:   5    -0.846936221329E+03    0.19994E-07   -0.10524E-05  4660   0.583E-03    0.260E-03
DAV:   6    -0.846936221827E+03   -0.49777E-06   -0.59497E-07  3080   0.154E-03
   9 F= -.85476521E+03 E0= -.85476521E+03  d E =-.281911E-03  mag=     0.0000
       N       E                     dE             d eps       ncg     rms          rms(c)
DAV:   1    -0.846936543371E+03   -0.32204E-03   -0.60525E-02  4440   0.403E-01    0.647E-02
DAV:   2    -0.846936551034E+03   -0.76632E-05   -0.82291E-04  4610   0.467E-02    0.535E-02
DAV:   3    -0.846936545937E+03    0.50974E-05   -0.36956E-05  4910   0.122E-02    0.310E-02
DAV:   4    -0.846936583487E+03   -0.37550E-04   -0.44227E-05  4470   0.112E-02    0.806E-03
DAV:   5    -0.846936584013E+03   -0.52582E-06   -0.17105E-05  4700   0.707E-03    0.339E-03
DAV:   6    -0.846936584954E+03   -0.94168E-06   -0.72282E-07  3220   0.168E-03
  10 F= -.85476557E+03 E0= -.85476557E+03  d E =-.354617E-03  mag=     0.0000
       N       E                     dE             d eps       ncg     rms          rms(c)
DAV:   1    -0.846936948246E+03   -0.36423E-03   -0.90580E-02  4420   0.495E-01    0.799E-02
DAV:   2    -0.846936970357E+03   -0.22111E-04   -0.12315E-03  4610   0.574E-02    0.658E-02
DAV:   3    -0.846936960664E+03    0.96928E-05   -0.55492E-05  4860   0.150E-02    0.379E-02
DAV:   4    -0.846937010166E+03   -0.49502E-04   -0.63783E-05  4490   0.136E-02    0.969E-03
DAV:   5    -0.846937010842E+03   -0.67642E-06   -0.24535E-05  4740   0.845E-03    0.413E-03
DAV:   6    -0.846937012191E+03   -0.13486E-05   -0.10400E-06  3280   0.198E-03    0.227E-03
DAV:   7    -0.846937012160E+03    0.30421E-07   -0.20935E-07  3750   0.101E-03
  11 F= -.85476599E+03 E0= -.85476599E+03  d E =-.422572E-03  mag=     0.0000
       N       E                     dE             d eps       ncg     rms          rms(c)
DAV:   1    -0.846937423126E+03   -0.41094E-03   -0.13189E-01  4380   0.604E-01    0.972E-02
DAV:   2    -0.846937461486E+03   -0.38359E-04   -0.17623E-03  4590   0.702E-02    0.804E-02
DAV:   3    -0.846937446516E+03    0.14970E-04   -0.92980E-05  4770   0.195E-02    0.444E-02
DAV:   4    -0.846937508182E+03   -0.61666E-04   -0.90254E-05  4490   0.161E-02    0.125E-02
DAV:   5    -0.846937508763E+03   -0.58141E-06   -0.39620E-05  4710   0.111E-02    0.485E-03
DAV:   6    -0.846937510450E+03   -0.16865E-05   -0.21398E-06  3780   0.287E-03    0.287E-03
DAV:   7    -0.846937510361E+03    0.88548E-07   -0.39646E-07  3880   0.146E-03
  12 F= -.85476648E+03 E0= -.85476648E+03  d E =-.491672E-03  mag=     0.0000
       N       E                     dE             d eps       ncg     rms          rms(c)
DAV:   1    -0.846937838060E+03   -0.32761E-03   -0.22078E-01  4340   0.785E-01    0.122E-01
DAV:   2    -0.846937953287E+03   -0.11523E-03   -0.32420E-03  4570   0.936E-02    0.102E-01
DAV:   3    -0.846937903867E+03    0.49420E-04   -0.14066E-04  5220   0.239E-02    0.619E-02
DAV:   4    -0.846937993873E+03   -0.90007E-04   -0.17557E-04  4450   0.232E-02    0.167E-02
DAV:   5    -0.846937996826E+03   -0.29527E-05   -0.58984E-05  4730   0.131E-02    0.758E-03
DAV:   6    -0.846938001231E+03   -0.44054E-05   -0.34346E-06  4070   0.342E-03    0.412E-03
DAV:   7    -0.846938001105E+03    0.12690E-06   -0.46248E-07  3900   0.156E-03
  13 F= -.85476696E+03 E0= -.85476696E+03  d E =-.484510E-03  mag=     0.0000
       N       E                     dE             d eps       ncg     rms          rms(c)
DAV:   1    -0.846937517267E+03    0.48396E-03   -0.32523E-01  4320   0.104E+00    0.149E-01
DAV:   2    -0.846937802679E+03   -0.28541E-03   -0.56000E-03  4680   0.133E-01    0.127E-01
DAV:   3    -0.846937691638E+03    0.11104E-03   -0.31633E-04  5310   0.358E-02    0.799E-02
DAV:   4    -0.846937764131E+03   -0.72493E-04   -0.27104E-04  4510   0.324E-02    0.274E-02
DAV:   5    -0.846937769935E+03   -0.58035E-05   -0.91522E-05  4720   0.173E-02    0.108E-02
DAV:   6    -0.846937775004E+03   -0.50690E-05   -0.89402E-06  4490   0.536E-03    0.601E-03
DAV:   7    -0.846937774560E+03    0.44380E-06   -0.88341E-07  3940   0.234E-03
  14 F= -.85476676E+03 E0= -.85476676E+03  d E =0.203989E-03  mag=     0.0000
       N       E                     dE             d eps       ncg     rms          rms(c)
DAV:   1    -0.846938788824E+03   -0.10138E-02   -0.58503E-02  4440   0.482E-01    0.553E-02
DAV:   2    -0.846938886946E+03   -0.98122E-04   -0.15056E-03  4960   0.705E-02    0.502E-02
DAV:   3    -0.846938857259E+03    0.29687E-04   -0.67950E-05  5910   0.152E-02    0.388E-02
DAV:   4    -0.846938836182E+03    0.21077E-04   -0.57229E-05  4470   0.160E-02    0.168E-02
DAV:   5    -0.846938836982E+03   -0.80028E-06   -0.18327E-05  4540   0.779E-03    0.669E-03
DAV:   6    -0.846938837553E+03   -0.57061E-06   -0.15981E-06  3320   0.252E-03
  15 F= -.85476781E+03 E0= -.85476781E+03  d E =-.105110E-02  mag=     0.0000
       N       E                     dE             d eps       ncg     rms          rms(c)
DAV:   1    -0.846938846695E+03   -0.97126E-05   -0.41160E-05  4520   0.126E-02    0.238E-03
DAV:   2    -0.846938846680E+03    0.14828E-07   -0.82396E-07  3080   0.180E-03
  16 F= -.85476782E+03 E0= -.85476782E+03  d E =-.879221E-05  mag=     0.0000
       N       E                     dE             d eps       ncg     rms          rms(c)
DAV:   1    -0.846938860991E+03   -0.14296E-04   -0.13411E-04  4480   0.226E-02    0.332E-03
DAV:   2    -0.846938861062E+03   -0.70941E-07   -0.24029E-06  3700   0.292E-03
  17 F= -.85476783E+03 E0= -.85476783E+03  d E =-.139592E-04  mag=     0.0000
       N       E                     dE             d eps       ncg     rms          rms(c)
DAV:   1    -0.846938877905E+03   -0.16914E-04   -0.24079E-04  4440   0.297E-02    0.523E-03
DAV:   2    -0.846938877898E+03    0.68758E-08   -0.39402E-06  4280   0.367E-03
  18 F= -.85476785E+03 E0= -.85476785E+03  d E =-.166013E-04  mag=     0.0000
       N       E                     dE             d eps       ncg     rms          rms(c)
DAV:   1    -0.846938897324E+03   -0.19419E-04   -0.33970E-04  4440   0.340E-02    0.632E-03
DAV:   2    -0.846938897126E+03    0.19789E-06   -0.45497E-06  4340   0.388E-03
  19 F= -.85476787E+03 E0= -.85476787E+03  d E =-.194882E-04  mag=     0.0000
       N       E                     dE             d eps       ncg     rms          rms(c)
DAV:   1    -0.846938922325E+03   -0.25001E-04   -0.47973E-04  4460   0.392E-02    0.712E-03
DAV:   2    -0.846938921917E+03    0.40734E-06   -0.58449E-06  4580   0.430E-03
  20 F= -.85476790E+03 E0= -.85476790E+03  d E =-.256370E-04  mag=     0.0000
       N       E                     dE             d eps       ncg     rms          rms(c)
DAV:   1    -0.846938953369E+03   -0.31044E-04   -0.69981E-04  4460   0.469E-02    0.846E-03
DAV:   2    -0.846938952663E+03    0.70546E-06   -0.87695E-06  4620   0.521E-03
  21 F= -.85476793E+03 E0= -.85476793E+03  d E =-.323672E-04  mag=     0.0000
       N       E                     dE             d eps       ncg     rms          rms(c)
DAV:   1    -0.846938992201E+03   -0.38832E-04   -0.12210E-03  4460   0.619E-02    0.111E-02
DAV:   2    -0.846938990865E+03    0.13359E-05   -0.15923E-05  4680   0.699E-03    0.924E-03
DAV:   3    -0.846938992446E+03   -0.15810E-05   -0.15705E-06  3600   0.261E-03    0.394E-03
DAV:   4    -0.846938993322E+03   -0.87557E-06   -0.77294E-07  3100   0.154E-03
  22 F= -.85476797E+03 E0= -.85476797E+03  d E =-.430138E-04  mag=    -0.0000
       N       E                     dE             d eps       ncg     rms          rms(c)
DAV:   1    -0.846939038320E+03   -0.45874E-04   -0.19968E-03  4440   0.786E-02    0.110E-02
DAV:   2    -0.846939038269E+03    0.50852E-07   -0.28946E-05  4580   0.935E-03    0.931E-03
DAV:   3    -0.846939038444E+03   -0.17491E-06   -0.13204E-06  3700   0.249E-03
  23 F= -.85476802E+03 E0= -.85476802E+03  d E =-.484720E-04  mag=     0.0000
       N       E                     dE             d eps       ncg     rms          rms(c)
DAV:   1    -0.846939096456E+03   -0.58187E-04   -0.29411E-03  4380   0.951E-02    0.141E-02
DAV:   2    -0.846939095468E+03    0.98816E-06   -0.36989E-05  4640   0.106E-02    0.118E-02
DAV:   3    -0.846939096921E+03   -0.14534E-05   -0.19457E-06  3810   0.295E-03    0.616E-03
DAV:   4    -0.846939098922E+03   -0.20013E-05   -0.15327E-06  3560   0.226E-03    0.167E-03
DAV:   5    -0.846939098905E+03    0.17753E-07   -0.62671E-07  3340   0.147E-03
  24 F= -.85476808E+03 E0= -.85476808E+03  d E =-.642568E-04  mag=    -0.0000
       N       E                     dE             d eps       ncg     rms          rms(c)
DAV:   1    -0.846939172501E+03   -0.73578E-04   -0.45130E-03  4400   0.118E-01    0.167E-02
DAV:   2    -0.846939172324E+03    0.17685E-06   -0.60366E-05  4550   0.136E-02    0.140E-02
DAV:   3    -0.846939172733E+03   -0.40891E-06   -0.35608E-06  4260   0.397E-03
  25 F= -.85476816E+03 E0= -.85476816E+03  d E =-.778494E-04  mag=    -0.0000
       N       E                     dE             d eps       ncg     rms          rms(c)
DAV:   1    -0.846939264352E+03   -0.92028E-04   -0.69051E-03  4360   0.146E-01    0.220E-02
DAV:   2    -0.846939263297E+03    0.10544E-05   -0.87560E-05  4590   0.164E-02    0.184E-02
DAV:   3    -0.846939265806E+03   -0.25086E-05   -0.49986E-06  4240   0.468E-03    0.936E-03
DAV:   4    -0.846939270261E+03   -0.44551E-05   -0.35623E-06  4350   0.336E-03    0.263E-03
DAV:   5    -0.846939270186E+03    0.75263E-07   -0.14405E-06  3670   0.222E-03
  26 F= -.85476826E+03 E0= -.85476826E+03  d E =-.100803E-03  mag=    -0.0000
       N       E                     dE             d eps       ncg     rms          rms(c)
DAV:   1    -0.846939383186E+03   -0.11292E-03   -0.11180E-02  4380   0.184E-01    0.262E-02
DAV:   2    -0.846939383848E+03   -0.66208E-06   -0.15224E-04  4510   0.213E-02    0.219E-02
DAV:   3    -0.846939383622E+03    0.22570E-06   -0.80277E-06  4460   0.589E-03
  27 F= -.85476838E+03 E0= -.85476838E+03  d E =-.117621E-03  mag=     0.0000
       N       E                     dE             d eps       ncg     rms          rms(c)
DAV:   1    -0.846939525349E+03   -0.14150E-03   -0.17686E-02  4380   0.230E-01    0.346E-02
DAV:   2    -0.846939525208E+03    0.14107E-06   -0.22918E-04  4520   0.259E-02    0.288E-02
DAV:   3    -0.846939528387E+03   -0.31787E-05   -0.10889E-05  4420   0.685E-03    0.160E-02
DAV:   4    -0.846939540296E+03   -0.11909E-04   -0.10172E-05  4480   0.568E-03    0.414E-03
DAV:   5    -0.846939540317E+03   -0.21668E-07   -0.40798E-06  4610   0.357E-03
  28 F= -.85476854E+03 E0= -.85476854E+03  d E =-.160825E-03  mag=     0.0000
       N       E                     dE             d eps       ncg     rms          rms(c)
DAV:   1    -0.846939705940E+03   -0.16564E-03   -0.26132E-02  4360   0.281E-01    0.402E-02
DAV:   2    -0.846939711786E+03   -0.58456E-05   -0.36048E-04  4550   0.328E-02    0.336E-02
DAV:   3    -0.846939709548E+03    0.22380E-05   -0.18193E-05  4660   0.893E-03    0.190E-02
DAV:   4    -0.846939722873E+03   -0.13325E-04   -0.16917E-05  4480   0.742E-03    0.528E-03
DAV:   5    -0.846939723218E+03   -0.34567E-06   -0.70065E-06  4620   0.473E-03
  29 F= -.85476873E+03 E0= -.85476873E+03  d E =-.186901E-03  mag=     0.0000
       N       E                     dE             d eps       ncg     rms          rms(c)
DAV:   1    -0.846939918094E+03   -0.19522E-03   -0.38556E-02  4360   0.343E-01    0.491E-02
DAV:   2    -0.846939929366E+03   -0.11272E-04   -0.52951E-04  4530   0.401E-02    0.410E-02
DAV:   3    -0.846939925432E+03    0.39336E-05   -0.28255E-05  4620   0.112E-02    0.228E-02
DAV:   4    -0.846939943145E+03   -0.17712E-04   -0.24673E-05  4480   0.896E-03    0.654E-03
DAV:   5    -0.846939943475E+03   -0.32986E-06   -0.10871E-05  4650   0.596E-03    0.252E-03
DAV:   6    -0.846939943921E+03   -0.44621E-06   -0.56288E-07  3150   0.154E-03
  30 F= -.85476895E+03 E0= -.85476895E+03  d E =-.226051E-03  mag=     0.0000
       N       E                     dE             d eps       ncg     rms          rms(c)
DAV:   1    -0.846940170218E+03   -0.22674E-03   -0.60886E-02  4360   0.426E-01    0.612E-02
DAV:   2    -0.846940190417E+03   -0.20199E-04   -0.85262E-04  4540   0.499E-02    0.512E-02
DAV:   3    -0.846940181907E+03    0.85095E-05   -0.40539E-05  4820   0.132E-02    0.297E-02
DAV:   4    -0.846940208121E+03   -0.26214E-04   -0.42153E-05  4450   0.116E-02    0.809E-03
DAV:   5    -0.846940209292E+03   -0.11705E-05   -0.16807E-05  4640   0.720E-03    0.333E-03
DAV:   6    -0.846940210177E+03   -0.88493E-06   -0.73307E-07  3240   0.172E-03
  31 F= -.85476923E+03 E0= -.85476923E+03  d E =-.270537E-03  mag=    -0.0000
       N       E                     dE             d eps       ncg     rms          rms(c)
DAV:   1    -0.846940458853E+03   -0.24956E-03   -0.84966E-02  4340   0.505E-01    0.734E-02
DAV:   2    -0.846940490076E+03   -0.31223E-04   -0.11783E-03  4530   0.591E-02    0.612E-02
DAV:   3    -0.846940479386E+03    0.10690E-04   -0.60117E-05  4740   0.161E-02    0.347E-02
DAV:   4    -0.846940512265E+03   -0.32878E-04   -0.56813E-05  4530   0.135E-02    0.963E-03
DAV:   5    -0.846940513272E+03   -0.10072E-05   -0.22837E-05  4640   0.846E-03    0.395E-03
DAV:   6    -0.846940514479E+03   -0.12074E-05   -0.11234E-06  3470   0.206E-03    0.219E-03
DAV:   7    -0.846940514455E+03    0.24142E-07   -0.20373E-07  3600   0.102E-03
  32 F= -.85476954E+03 E0= -.85476954E+03  d E =-.314923E-03  mag=    -0.0000
       N       E                     dE             d eps       ncg     rms          rms(c)
DAV:   1    -0.846940797903E+03   -0.28342E-03   -0.11836E-01  4340   0.599E-01    0.875E-02
DAV:   2    -0.846940847825E+03   -0.49921E-04   -0.16380E-03  4550   0.704E-02    0.732E-02
DAV:   3    -0.846940830244E+03    0.17581E-04   -0.91719E-05  4690   0.199E-02    0.404E-02
DAV:   4    -0.846940870526E+03   -0.40282E-04   -0.77916E-05  4560   0.158E-02    0.118E-02
DAV:   5    -0.846940871285E+03   -0.75952E-06   -0.31988E-05  4620   0.101E-02    0.465E-03
DAV:   6    -0.846940872866E+03   -0.15810E-05   -0.17475E-06  3520   0.250E-03    0.261E-03
DAV:   7    -0.846940872828E+03    0.38024E-07   -0.29404E-07  3700   0.124E-03
  33 F= -.85476991E+03 E0= -.85476991E+03  d E =-.365429E-03  mag=    -0.0000
       N       E                     dE             d eps       ncg     rms          rms(c)
DAV:   1    -0.846941108285E+03   -0.23542E-03   -0.19008E-01  4340   0.753E-01    0.108E-01
DAV:   2    -0.846941213777E+03   -0.10549E-03   -0.27864E-03  4570   0.897E-02    0.908E-02
DAV:   3    -0.846941166804E+03    0.46973E-04   -0.12794E-04  5150   0.232E-02    0.548E-02
DAV:   4    -0.846941230364E+03   -0.63560E-04   -0.14340E-04  4540   0.216E-02    0.152E-02
DAV:   5    -0.846941233501E+03   -0.31375E-05   -0.55288E-05  4660   0.129E-02    0.635E-03
DAV:   6    -0.846941236849E+03   -0.33481E-05   -0.25853E-06  3560   0.313E-03    0.360E-03
DAV:   7    -0.846941236784E+03    0.65287E-07   -0.39375E-07  3780   0.146E-03
  34 F= -.85477029E+03 E0= -.85477029E+03  d E =-.382040E-03  mag=    -0.0000
       N       E                     dE             d eps       ncg     rms          rms(c)
DAV:   1    -0.846941250160E+03   -0.13311E-04   -0.24050E-01  4340   0.894E-01    0.124E-01
DAV:   2    -0.846941431777E+03   -0.18162E-03   -0.37980E-03  4580   0.110E-01    0.106E-01
DAV:   3    -0.846941359448E+03    0.72330E-04   -0.22508E-04  4900   0.311E-02    0.627E-02
DAV:   4    -0.846941415080E+03   -0.55633E-04   -0.18528E-04  4500   0.262E-02    0.214E-02
DAV:   5    -0.846941415047E+03    0.33535E-07   -0.80020E-05  4680   0.164E-02    0.786E-03
DAV:   6    -0.846941418227E+03   -0.31800E-05   -0.62565E-06  4540   0.472E-03    0.460E-03
DAV:   7    -0.846941417937E+03    0.28952E-06   -0.64173E-07  3900   0.198E-03
  35 F= -.85477047E+03 E0= -.85477047E+03  d E =-.180806E-03  mag=    -0.0000
       N       E                     dE             d eps       ncg     rms          rms(c)
DAV:   1    -0.846941799454E+03   -0.38123E-03   -0.18951E-02  4560   0.269E-01    0.314E-02
DAV:   2    -0.846941829752E+03   -0.30297E-04   -0.50770E-04  4610   0.394E-02    0.285E-02
DAV:   3    -0.846941819771E+03    0.99808E-05   -0.19610E-05  5870   0.820E-03    0.223E-02
DAV:   4    -0.846941815404E+03    0.43671E-05   -0.22381E-05  4410   0.981E-03    0.907E-03
DAV:   5    -0.846941816828E+03   -0.14244E-05   -0.62163E-06  4120   0.433E-03    0.398E-03
DAV:   6    -0.846941817338E+03   -0.50972E-06   -0.58464E-07  2940   0.155E-03
  36 F= -.85477088E+03 E0= -.85477088E+03  d E =-.408033E-03  mag=    -0.0000
       N       E                     dE             d eps       ncg     rms          rms(c)
DAV:   1    -0.846941530252E+03    0.28658E-03   -0.20441E-02  4390   0.278E-01    0.325E-02
DAV:   2    -0.846941561185E+03   -0.30933E-04   -0.52661E-04  4630   0.402E-02    0.291E-02
DAV:   3    -0.846941551182E+03    0.10003E-04   -0.20460E-05  5760   0.845E-03    0.227E-02
DAV:   4    -0.846941548606E+03    0.25763E-05   -0.24903E-05  4410   0.103E-02    0.887E-03
DAV:   5    -0.846941550441E+03   -0.18349E-05   -0.61078E-06  4000   0.431E-03    0.430E-03
DAV:   6    -0.846941551156E+03   -0.71472E-06   -0.71450E-07  2940   0.167E-03
  37 F= -.85477062E+03 E0= -.85477062E+03  d E =0.257560E-03  mag=     0.0000
       N       E                     dE             d eps       ncg     rms          rms(c)
DAV:   1    -0.846941679126E+03   -0.12869E-03   -0.83334E-04  4540   0.570E-02    0.661E-03
DAV:   2    -0.846941680599E+03   -0.14725E-05   -0.23070E-05  4790   0.843E-03    0.626E-03
DAV:   3    -0.846941680114E+03    0.48432E-06   -0.68292E-07  3480   0.170E-03
  38 F= -.85477075E+03 E0= -.85477075E+03  d E =-.127334E-03  mag=     0.0000
       N       E                     dE             d eps       ncg     rms          rms(c)
DAV:   1    -0.846941824992E+03   -0.14439E-03   -0.25554E-03  4560   0.998E-02    0.125E-02
DAV:   2    -0.846941828897E+03   -0.39056E-05   -0.64905E-05  4710   0.141E-02    0.113E-02
DAV:   3    -0.846941827507E+03    0.13906E-05   -0.24984E-06  4260   0.309E-03    0.887E-03
DAV:   4    -0.846941827097E+03    0.40948E-06   -0.52761E-06  4280   0.464E-03
  39 F= -.85477089E+03 E0= -.85477089E+03  d E =-.144015E-03  mag=     0.0000
       N       E                     dE             d eps       ncg     rms          rms(c)
DAV:   1    -0.846941866641E+03   -0.39134E-04   -0.36951E-03  4520   0.120E-01    0.149E-02
DAV:   2    -0.846941873179E+03   -0.65388E-05   -0.10021E-04  4760   0.176E-02    0.135E-02
DAV:   3    -0.846941871212E+03    0.19677E-05   -0.37129E-06  4800   0.367E-03    0.107E-02
DAV:   4    -0.846941870367E+03    0.84499E-06   -0.65555E-06  4280   0.523E-03
  40 F= -.85477093E+03 E0= -.85477093E+03  d E =-.396700E-04  mag=    -0.0000
       N       E                     dE             d eps       ncg     rms          rms(c)
DAV:   1    -0.846941872224E+03   -0.10122E-05   -0.38773E-06  4340   0.371E-03    0.202E-03
DAV:   2    -0.846941872275E+03   -0.50975E-07   -0.15232E-07  2510   0.779E-04
  41 F= -.85477093E+03 E0= -.85477093E+03  d E =-.195560E-05  mag=    -0.0000
       N       E                     dE             d eps       ncg     rms          rms(c)
DAV:   1    -0.846941875524E+03   -0.33000E-05   -0.98658E-06  4200   0.587E-03    0.795E-04
DAV:   2    -0.846941875545E+03   -0.21064E-07   -0.22298E-07  2700   0.859E-04
  42 F= -.85477094E+03 E0= -.85477094E+03  d E =-.335658E-05  mag=     0.0000
       N       E                     dE             d eps       ncg     rms          rms(c)
DAV:   1    -0.846941879817E+03   -0.42925E-05   -0.20464E-05  4360   0.845E-03    0.138E-03
DAV:   2    -0.846941879810E+03    0.64465E-08   -0.43066E-07  2960   0.119E-03
  43 F= -.85477094E+03 E0= -.85477094E+03  d E =-.437976E-05  mag=     0.0000
       N       E                     dE             d eps       ncg     rms          rms(c)
DAV:   1    -0.846941884808E+03   -0.49915E-05   -0.32240E-05  4460   0.106E-02    0.195E-03
DAV:   2    -0.846941884769E+03    0.39036E-07   -0.58684E-07  3100   0.140E-03
  44 F= -.85477094E+03 E0= -.85477094E+03  d E =-.508988E-05  mag=     0.0000
       N       E                     dE             d eps       ncg     rms          rms(c)
DAV:   1    -0.846941890017E+03   -0.52087E-05   -0.43443E-05  4440   0.122E-02    0.225E-03
DAV:   2    -0.846941889960E+03    0.56287E-07   -0.73060E-07  3160   0.156E-03
  45 F= -.85477095E+03 E0= -.85477095E+03  d E =-.534668E-05  mag=     0.0000
       N       E                     dE             d eps       ncg     rms          rms(c)
DAV:   1    -0.846941895160E+03   -0.51437E-05   -0.52844E-05  4420   0.133E-02    0.250E-03
DAV:   2    -0.846941895084E+03    0.76718E-07   -0.84417E-07  3170   0.167E-03
  46 F= -.85477096E+03 E0= -.85477096E+03  d E =-.529962E-05  mag=     0.0000
       N       E                     dE             d eps       ncg     rms          rms(c)
DAV:   1    -0.846941901307E+03   -0.61462E-05   -0.74238E-05  4440   0.155E-02    0.285E-03
DAV:   2    -0.846941901194E+03    0.11265E-06   -0.11005E-06  3170   0.189E-03
  47 F= -.85477096E+03 E0= -.85477096E+03  d E =-.631577E-05  mag=     0.0000
       N       E                     dE             d eps       ncg     rms          rms(c)
DAV:   1    -0.846941908807E+03   -0.75003E-05   -0.10197E-04  4400   0.180E-02    0.332E-03
DAV:   2    -0.846941908643E+03    0.16349E-06   -0.14025E-06  3310   0.212E-03
  48 F= -.85477097E+03 E0= -.85477097E+03  d E =-.765064E-05  mag=     0.0000
       N       E                     dE             d eps       ncg     rms          rms(c)
DAV:   1    -0.846941918612E+03   -0.98056E-05   -0.13829E-04  4400   0.208E-02    0.383E-03
DAV:   2    -0.846941918411E+03    0.20114E-06   -0.17712E-06  3720   0.236E-03
  49 F= -.85477098E+03 E0= -.85477098E+03  d E =-.993850E-05  mag=     0.0000
       N       E                     dE             d eps       ncg     rms          rms(c)
DAV:   1    -0.846941931975E+03   -0.13362E-04   -0.19724E-04  4360   0.249E-02    0.449E-03
DAV:   2    -0.846941931737E+03    0.23744E-06   -0.23617E-06  3920   0.275E-03
  50 F= -.85477099E+03 E0= -.85477099E+03  d E =-.133852E-04  mag=     0.0000
       N       E                     dE             d eps       ncg     rms          rms(c)
DAV:   1    -0.846941949586E+03   -0.17612E-04   -0.29656E-04  4370   0.308E-02    0.543E-03
DAV:   2    -0.846941949331E+03    0.25558E-06   -0.36812E-06  4180   0.344E-03
  51 F= -.85477101E+03 E0= -.85477101E+03  d E =-.174825E-04  mag=     0.0000
       N       E                     dE             d eps       ncg     rms          rms(c)
DAV:   1    -0.846941970929E+03   -0.21343E-04   -0.45670E-04  4360   0.385E-02    0.682E-03
DAV:   2    -0.846941970606E+03    0.32362E-06   -0.58351E-06  4480   0.432E-03
  52 F= -.85477103E+03 E0= -.85477103E+03  d E =-.210195E-04  mag=     0.0000
       N       E                     dE             d eps       ncg     rms          rms(c)
DAV:   1    -0.846941996019E+03   -0.25090E-04   -0.69601E-04  4360   0.473E-02    0.850E-03
DAV:   2    -0.846941995483E+03    0.53645E-06   -0.87486E-06  4540   0.529E-03
  53 F= -.85477106E+03 E0= -.85477106E+03  d E =-.246615E-04  mag=     0.0000
       N       E                     dE             d eps       ncg     rms          rms(c)
DAV:   1    -0.846942026502E+03   -0.30482E-04   -0.10731E-03  4360   0.582E-02    0.104E-02
DAV:   2    -0.846942025558E+03    0.94403E-06   -0.13181E-05  4540   0.646E-03    0.868E-03
DAV:   3    -0.846942026853E+03   -0.12954E-05   -0.14407E-06  3470   0.256E-03    0.348E-03
DAV:   4    -0.846942027501E+03   -0.64803E-06   -0.62930E-07  3120   0.142E-03
  54 F= -.85477109E+03 E0= -.85477109E+03  d E =-.319874E-04  mag=    -0.0000
       N       E                     dE             d eps       ncg     rms          rms(c)
DAV:   1    -0.846942065152E+03   -0.38299E-04   -0.17350E-03  4360   0.730E-02    0.999E-03
DAV:   2    -0.846942065134E+03    0.17855E-07   -0.24291E-05  4460   0.860E-03    0.846E-03
DAV:   3    -0.846942065277E+03   -0.14233E-06   -0.10373E-06  3580   0.227E-03
  55 F= -.85477113E+03 E0= -.85477113E+03  d E =-.379539E-04  mag=     0.0000
       N       E                     dE             d eps       ncg     rms          rms(c)
DAV:   1    -0.846942111987E+03   -0.46853E-04   -0.26940E-03  4360   0.905E-02    0.128E-02
DAV:   2    -0.846942111324E+03    0.66301E-06   -0.34771E-05  4480   0.101E-02    0.108E-02
DAV:   3    -0.846942112010E+03   -0.68593E-06   -0.14817E-06  3640   0.260E-03
  56 F= -.85477117E+03 E0= -.85477117E+03  d E =-.473154E-04  mag=     0.0000
